Generated by trjconv : CNT in water t=   3.00000
33518
    1C        C    1   2.844   2.771   4.750
    1C        C    2   2.902   2.722   4.869
    1C        C    3   2.843   2.769   4.988
    1C        C    4   2.852   2.778   4.262
    1C        C    5   2.902   2.727   4.384
    1C        C    6   2.847   2.772   4.506
    1C        C    7   3.016   2.647   4.627
    1C        C    8   2.897   2.723   4.628
    1C        C    9   3.078   2.606   4.747
    1C        C   10   3.014   2.637   4.869
    1C        C   11   3.186   2.497   4.977
    1C        C   12   3.064   2.564   4.978
    1C        C   13   2.853   2.773   3.774
    1C        C   14   2.901   2.725   3.898
    1C        C   15   2.848   2.775   4.020
    1C        C   16   3.023   2.650   4.139
    1C        C   17   2.905   2.728   4.140
    1C        C   18   3.085   2.621   4.262
    1C        C   19   3.022   2.652   4.385
    1C        C   20   3.213   2.560   4.505
    1C        C   21   3.081   2.612   4.506
    1C        C   22   3.280   2.538   4.628
    1C        C   23   3.209   2.551   4.749
    1C        C   24   3.418   2.488   4.867
    1C        C   25   3.276   2.503   4.865
    1C        C   26   3.491   2.478   4.986
    1C        C   27   2.857   2.775   3.283
    1C        C   28   2.910   2.729   3.406
    1C        C   29   2.856   2.772   3.529
    1C        C   30   3.023   2.645   3.653
    1C        C   31   2.908   2.727   3.652
    1C        C   32   3.080   2.607   3.777
    1C        C   33   3.015   2.641   3.897
    1C        C   34   3.211   2.553   4.021
    1C        C   35   3.081   2.608   4.018
    1C        C   36   3.281   2.529   4.142
    1C        C   37   3.213   2.561   4.262
    1C        C   38   3.419   2.510   4.385
    1C        C   39   3.281   2.540   4.384
    1C        C   40   3.492   2.506   4.506
    1C        C   41   3.419   2.516   4.626
    1C        C   42   3.634   2.485   4.748
    1C        C   43   3.492   2.493   4.745
    1C        C   44   3.708   2.487   4.868
    1C        C   45   3.630   2.470   4.984
    1C        C   46   2.840   2.755   2.794
    1C        C   47   2.895   2.713   2.917
    1C        C   48   2.846   2.762   3.039
    1C        C   49   3.017   2.637   3.162
    1C        C   50   2.904   2.721   3.162
    1C        C   51   3.082   2.605   3.283
    1C        C   52   3.023   2.645   3.405
    1C        C   53   3.209   2.552   3.528
    1C        C   54   3.080   2.609   3.529
    1C        C   55   3.277   2.531   3.650
    1C        C   56   3.210   2.552   3.773
    1C        C   57   3.415   2.511   3.897
    1C        C   58   3.275   2.532   3.897
    1C        C   59   3.491   2.506   4.016
    1C        C   60   3.420   2.505   4.138
    1C        C   61   3.628   2.502   4.262
    1C        C   62   3.487   2.494   4.261
    1C        C   63   3.703   2.507   4.381
    1C        C   64   3.633   2.503   4.504
    1C        C   65   3.839   2.541   4.622
    1C        C   66   3.703   2.503   4.626
    1C        C   67   3.907   2.561   4.744
    1C        C   68   3.844   2.525   4.865
    1C        C   69   4.054   2.590   4.982
    1C        C   70   3.925   2.534   4.978
    1C        C   71   2.824   2.731   2.309
    1C        C   72   2.885   2.691   2.430
    1C        C   73   2.832   2.745   2.550
    1C        C   74   3.010   2.631   2.673
    1C        C   75   2.888   2.702   2.672
    1C        C   76   3.075   2.601   2.795
    1C        C   77   3.015   2.638   2.918
    1C        C   78   3.208   2.548   3.038
    1C        C   79   3.077   2.602   3.039
    1C        C   80   3.276   2.528   3.161
    1C        C   81   3.211   2.547   3.285
    1C        C   82   3.417   2.498   3.405
    1C        C   83   3.278   2.525   3.407
    1C        C   84   3.484   2.491   3.529
    1C        C   85   3.416   2.503   3.652
    1C        C   86   3.626   2.496   3.771
    1C        C   87   3.484   2.498   3.775
    1C        C   88   3.696   2.504   3.893
    1C        C   89   3.633   2.508   4.019
    1C        C   90   3.838   2.553   4.135
    1C        C   91   3.702   2.516   4.142
    1C        C   92   3.903   2.572   4.259
    1C        C   93   3.838   2.550   4.382
    1C        C   94   4.033   2.639   4.500
    1C        C   95   3.907   2.574   4.502
    1C        C   96   4.093   2.672   4.623
    1C        C   97   4.032   2.628   4.743
    1C        C   98   4.191   2.768   4.866
    1C        C   99   4.100   2.657   4.864
    1C        C  100   4.208   2.848   4.980
    1C        C  101   2.824   2.730   2.070
    1C        C  102   2.991   2.592   2.194
    1C        C  103   2.877   2.678   2.189
    1C        C  104   3.066   2.570   2.312
    1C        C  105   3.006   2.618   2.431
    1C        C  106   3.201   2.535   2.551
    1C        C  107   3.071   2.589   2.553
    1C        C  108   3.273   2.519   2.672
    1C        C  109   3.205   2.545   2.793
    1C        C  110   3.412   2.503   2.915
    1C        C  111   3.273   2.525   2.915
    1C        C  112   3.484   2.495   3.037
    1C        C  113   3.414   2.500   3.160
    1C        C  114   3.627   2.500   3.281
    1C        C  115   3.486   2.497   3.282
    1C        C  116   3.694   2.508   3.405
    1C        C  117   3.625   2.499   3.528
    1C        C  118   3.834   2.546   3.649
    1C        C  119   3.697   2.512   3.650
    1C        C  120   3.897   2.576   3.772
    1C        C  121   3.831   2.547   3.893
    1C        C  122   4.028   2.643   4.013
    1C        C  123   3.901   2.580   4.012
    1C        C  124   4.091   2.676   4.135
    1C        C  125   4.029   2.636   4.255
    1C        C  126   4.197   2.767   4.380
    1C        C  127   4.091   2.675   4.376
    1C        C  128   4.252   2.819   4.500
    1C        C  129   4.201   2.763   4.619
    1C        C  130   4.323   2.933   4.744
    1C        C  131   4.243   2.816   4.743
    1C        C  132   4.352   3.008   4.861
    1C        C  133   4.288   2.962   4.976
    1C        C  134   3.179   2.472   2.083
    1C        C  135   3.045   2.512   2.088
    1C        C  136   3.266   2.488   2.192
    1C        C  137   3.200   2.523   2.312
    1C        C  138   3.410   2.481   2.428
    1C        C  139   3.271   2.502   2.433
    1C        C  140   3.482   2.486   2.550
    1C        C  141   3.413   2.498   2.672
    1C        C  142   3.625   2.497   2.792
    1C        C  143   3.484   2.494   2.794
    1C        C  144   3.695   2.501   2.915
    1C        C  145   3.625   2.496   3.037
    1C        C  146   3.835   2.538   3.157
    1C        C  147   3.698   2.502   3.158
    1C        C  148   3.898   2.565   3.280
    1C        C  149   3.832   2.539   3.402
    1C        C  150   4.022   2.633   3.526
    1C        C  151   3.898   2.565   3.524
    1C        C  152   4.084   2.676   3.645
    1C        C  153   4.022   2.641   3.767
    1C        C  154   4.193   2.769   3.887
    1C        C  155   4.082   2.681   3.889
    1C        C  156   4.245   2.814   4.011
    1C        C  157   4.202   2.764   4.136
    1C        C  158   4.338   2.926   4.253
    1C        C  159   4.251   2.815   4.258
    1C        C  160   4.378   2.982   4.377
    1C        C  161   4.339   2.930   4.502
    1C        C  162   4.438   3.116   4.617
    1C        C  163   4.369   2.994   4.625
    1C        C  164   4.470   3.182   4.737
    1C        C  165   4.435   3.122   4.860
    1C        C  166   4.519   3.322   4.973
    1C        C  167   4.481   3.189   4.975
    1C        C  168   3.479   2.437   2.073
    1C        C  169   3.404   2.459   2.189
    1C        C  170   3.624   2.470   2.307
    1C        C  171   3.482   2.467   2.307
    1C        C  172   3.696   2.489   2.427
    1C        C  173   3.623   2.494   2.548
    1C        C  174   3.829   2.550   2.669
    1C        C  175   3.693   2.512   2.669
    1C        C  176   3.899   2.568   2.791
    1C        C  177   3.831   2.538   2.911
    1C        C  178   4.024   2.626   3.035
    1C        C  179   3.899   2.561   3.033
    1C        C  180   4.085   2.665   3.156
    1C        C  181   4.024   2.630   3.279
    1C        C  182   4.192   2.755   3.400
    1C        C  183   4.080   2.668   3.402
    1C        C  184   4.245   2.807   3.520
    1C        C  185   4.196   2.762   3.646
    1C        C  186   4.339   2.923   3.766
    1C        C  187   4.250   2.814   3.766
    1C        C  188   4.379   2.980   3.889
    1C        C  189   4.336   2.923   4.010
    1C        C  190   4.447   3.107   4.133
    1C        C  191   4.377   2.984   4.131
    1C        C  192   4.469   3.176   4.254
    1C        C  193   4.443   3.107   4.375
    1C        C  194   4.507   3.315   4.494
    1C        C  195   4.469   3.179   4.494
    1C        C  196   4.521   3.388   4.614
    1C        C  197   4.506   3.320   4.737
    1C        C  198   4.559   3.537   4.851
    1C        C  199   4.530   3.396   4.854
    1C        C  200   4.588   3.622   4.962
    1C        C  201   3.618   2.426   2.071
    1C        C  202   3.830   2.512   2.184
    1C        C  203   3.698   2.457   2.186
    1C        C  204   3.901   2.541   2.303
    1C        C  205   3.834   2.518   2.425
    1C        C  206   4.022   2.622   2.543
    1C        C  207   3.897   2.557   2.545
    1C        C  208   4.081   2.663   2.665
    1C        C  209   4.025   2.631   2.791
    1C        C  210   4.197   2.752   2.908
    1C        C  211   4.085   2.666   2.914
    1C        C  212   4.248   2.798   3.031
    1C        C  213   4.198   2.750   3.154
    1C        C  214   4.334   2.911   3.273
    1C        C  215   4.243   2.803   3.277
    1C        C  216   4.374   2.970   3.395
    1C        C  217   4.333   2.917   3.519
    1C        C  218   4.437   3.103   3.641
    1C        C  219   4.372   2.978   3.640
    1C        C  220   4.467   3.170   3.761
    1C        C  221   4.444   3.106   3.885
    1C        C  222   4.505   3.306   4.004
    1C        C  223   4.473   3.169   4.008
    1C        C  224   4.519   3.381   4.124
    1C        C  225   4.506   3.312   4.246
    1C        C  226   4.520   3.522   4.367
    1C        C  227   4.513   3.381   4.369
    1C        C  228   4.517   3.598   4.486
    1C        C  229   4.529   3.529   4.609
    1C        C  230   4.507   3.743   4.729
    1C        C  231   4.540   3.605   4.728
    1C        C  232   4.503   3.823   4.846
    1C        C  233   4.550   3.757   4.960
    1C        C  234   4.021   2.607   2.063
    1C        C  235   3.899   2.542   2.065
    1C        C  236   4.088   2.649   2.179
    1C        C  237   4.026   2.610   2.300
    1C        C  238   4.200   2.737   2.423
    1C        C  239   4.086   2.653   2.421
    1C        C  240   4.249   2.792   2.544
    1C        C  241   4.194   2.747   2.666
    1C        C  242   4.340   2.906   2.786
    1C        C  243   4.250   2.797   2.786
    1C        C  244   4.378   2.965   2.909
    1C        C  245   4.335   2.910   3.032
    1C        C  246   4.441   3.097   3.151
    1C        C  247   4.373   2.973   3.152
    1C        C  248   4.463   3.161   3.275
    1C        C  249   4.437   3.097   3.398
    1C        C  250   4.496   3.305   3.517
    1C        C  251   4.463   3.167   3.517
    1C        C  252   4.512   3.373   3.639
    1C        C  253   4.503   3.307   3.764
    1C        C  254   4.522   3.521   3.879
    1C        C  255   4.517   3.380   3.884
    1C        C  256   4.513   3.589   4.003
    1C        C  257   4.518   3.522   4.127
    1C        C  258   4.494   3.736   4.243
    1C        C  259   4.515   3.597   4.247
    1C        C  260   4.474   3.803   4.365
    1C        C  261   4.487   3.736   4.488
    1C        C  262   4.427   3.942   4.604
    1C        C  263   4.474   3.809   4.609
    1C        C  264   4.398   4.008   4.725
    1C        C  265   4.436   3.947   4.847
    1C        C  266   4.323   4.131   4.961
    1C        C  267   4.402   4.016   4.964
    1C        C  268   4.265   2.777   2.062
    1C        C  269   4.200   2.735   2.179
    1C        C  270   4.342   2.895   2.300
    1C        C  271   4.253   2.783   2.300
    1C        C  272   4.386   2.956   2.420
    1C        C  273   4.344   2.896   2.541
    1C        C  274   4.448   3.084   2.661
    1C        C  275   4.381   2.959   2.662
    1C        C  276   4.476   3.154   2.781
    1C        C  277   4.444   3.089   2.903
    1C        C  278   4.505   3.292   3.025
    1C        C  279   4.469   3.155   3.025
    1C        C  280   4.512   3.364   3.146
    1C        C  281   4.500   3.297   3.270
    1C        C  282   4.516   3.510   3.391
    1C        C  283   4.509   3.369   3.391
    1C        C  284   4.518   3.584   3.512
    1C        C  285   4.523   3.514   3.635
    1C        C  286   4.493   3.727   3.754
    1C        C  287   4.515   3.588   3.755
    1C        C  288   4.475   3.797   3.875
    1C        C  289   4.488   3.728   3.998
    1C        C  290   4.432   3.936   4.118
    1C        C  291   4.478   3.802   4.119
    1C        C  292   4.400   4.000   4.239
    1C        C  293   4.427   3.937   4.363
    1C        C  294   4.328   4.130   4.482
    1C        C  295   4.397   4.006   4.482
    1C        C  296   4.286   4.189   4.603
    1C        C  297   4.329   4.132   4.726
    1C        C  298   4.202   4.315   4.840
    1C        C  299   4.283   4.197   4.844
    1C        C  300   4.167   4.400   4.949
    1C        C  301   4.355   2.883   2.063
    1C        C  302   4.471   3.069   2.177
    1C        C  303   4.396   2.947   2.180
    1C        C  304   4.488   3.142   2.298
    1C        C  305   4.453   3.080   2.420
    1C        C  306   4.507   3.289   2.537
    1C        C  307   4.477   3.150   2.540
    1C        C  308   4.519   3.360   2.658
    1C        C  309   4.509   3.291   2.781
    1C        C  310   4.521   3.503   2.899
    1C        C  311   4.519   3.362   2.903
    1C        C  312   4.517   3.572   3.023
    1C        C  313   4.516   3.505   3.147
    1C        C  314   4.488   3.717   3.264
    1C        C  315   4.517   3.578   3.268
    1C        C  316   4.469   3.785   3.387
    1C        C  317   4.494   3.723   3.511
    1C        C  318   4.429   3.928   3.626
    1C        C  319   4.482   3.797   3.631
    1C        C  320   4.395   3.987   3.749
    1C        C  321   4.425   3.929   3.875
    1C        C  322   4.321   4.115   3.993
    1C        C  323   4.401   3.999   3.995
    1C        C  324   4.279   4.174   4.114
    1C        C  325   4.323   4.118   4.236
    1C        C  326   4.189   4.284   4.355
    1C        C  327   4.289   4.184   4.357
    1C        C  328   4.137   4.336   4.475
    1C        C  329   4.193   4.295   4.598
    1C        C  330   4.028   4.438   4.715
    1C        C  331   4.140   4.351   4.717
    1C        C  332   3.974   4.500   4.830
    1C        C  333   4.054   4.482   4.945
    1C        C  334   4.552   3.272   2.060
    1C        C  335   4.529   3.134   2.063
    1C        C  336   4.539   3.351   2.175
    1C        C  337   4.519   3.280   2.295
    1C        C  338   4.524   3.498   2.413
    1C        C  339   4.519   3.357   2.414
    1C        C  340   4.522   3.572   2.533
    1C        C  341   4.527   3.501   2.655
    1C        C  342   4.494   3.712   2.776
    1C        C  343   4.518   3.572   2.776
    1C        C  344   4.473   3.781   2.897
    1C        C  345   4.492   3.711   3.019
    1C        C  346   4.426   3.915   3.142
    1C        C  347   4.474   3.782   3.140
    1C        C  348   4.392   3.984   3.260
    1C        C  349   4.426   3.919   3.381
    1C        C  350   4.325   4.108   3.505
    1C        C  351   4.402   3.990   3.502
    1C        C  352   4.278   4.167   3.624
    1C        C  353   4.319   4.106   3.744
    1C        C  354   4.181   4.267   3.868
    1C        C  355   4.276   4.162   3.867
    1C        C  356   4.125   4.316   3.988
    1C        C  357   4.179   4.274   4.111
    1C        C  358   4.014   4.406   4.232
    1C        C  359   4.129   4.325   4.233
    1C        C  360   3.958   4.451   4.354
    1C        C  361   4.022   4.418   4.476
    1C        C  362   3.825   4.508   4.596
    1C        C  363   3.957   4.459   4.594
    1C        C  364   3.763   4.548   4.716
    1C        C  365   3.842   4.549   4.833
    1C        C  366   3.629   4.593   4.952
    1C        C  367   3.768   4.581   4.947
    1C        C  368   4.506   3.567   2.053
    1C        C  369   4.527   3.492   2.170
    1C        C  370   4.502   3.707   2.285
    1C        C  371   4.521   3.567   2.289
    1C        C  372   4.484   3.778   2.406
    1C        C  373   4.499   3.712   2.530
    1C        C  374   4.429   3.910   2.648
    1C        C  375   4.481   3.779   2.652
    1C        C  376   4.393   3.970   2.771
    1C        C  377   4.426   3.914   2.896
    1C        C  378   4.323   4.099   3.010
    1C        C  379   4.396   3.978   3.019
    1C        C  380   4.280   4.155   3.132
    1C        C  381   4.318   4.104   3.259
    1C        C  382   4.179   4.261   3.376
    1C        C  383   4.275   4.158   3.382
    1C        C  384   4.129   4.312   3.499
    1C        C  385   4.180   4.270   3.624
    1C        C  386   4.009   4.393   3.745
    1C        C  387   4.127   4.315   3.747
    1C        C  388   3.946   4.429   3.866
    1C        C  389   4.009   4.397   3.988
    1C        C  390   3.820   4.493   4.111
    1C        C  391   3.950   4.436   4.110
    1C        C  392   3.754   4.517   4.234
    1C        C  393   3.829   4.507   4.353
    1C        C  394   3.619   4.555   4.479
    1C        C  395   3.759   4.532   4.473
    1C        C  396   3.545   4.568   4.598
    1C        C  397   3.622   4.564   4.716
    1C        C  398   3.411   4.556   4.843
    1C        C  399   3.550   4.578   4.837
    1C        C  400   3.342   4.517   4.959
    1C        C  401   4.505   3.706   2.049
    1C        C  402   4.449   3.917   2.166
    1C        C  403   4.491   3.782   2.166
    1C        C  404   4.417   3.981   2.288
    1C        C  405   4.443   3.913   2.409
    1C        C  406   4.326   4.098   2.528
    1C        C  407   4.403   3.979   2.527
    1C        C  408   4.277   4.149   2.650
    1C        C  409   4.321   4.091   2.771
    1C        C  410   4.175   4.253   2.891
    1C        C  411   4.276   4.154   2.889
    1C        C  412   4.121   4.296   3.015
    1C        C  413   4.177   4.250   3.137
    1C        C  414   4.002   4.381   3.257
    1C        C  415   4.121   4.304   3.255
    1C        C  416   3.944   4.420   3.380
    1C        C  417   4.010   4.388   3.500
    1C        C  418   3.819   4.481   3.620
    1C        C  419   3.949   4.426   3.622
    1C        C  420   3.749   4.498   3.742
    1C        C  421   3.816   4.483   3.866
    1C        C  422   3.614   4.535   3.986
    1C        C  423   3.754   4.515   3.989
    1C        C  424   3.547   4.536   4.111
    1C        C  425   3.614   4.535   4.235
    1C        C  426   3.405   4.552   4.359
    1C        C  427   3.546   4.550   4.358
    1C        C  428   3.333   4.548   4.480
    1C        C  429   3.404   4.564   4.602
    1C        C  430   3.196   4.519   4.727
    1C        C  431   3.335   4.550   4.724
    1C        C  432   3.126   4.492   4.848
    1C        C  433   3.206   4.488   4.962
    1C        C  434   4.383   4.124   2.052
    1C        C  435   4.443   3.997   2.052
    1C        C  436   4.302   4.164   2.163
    1C        C  437   4.339   4.100   2.285
    1C        C  438   4.186   4.253   2.402
    1C        C  439   4.286   4.154   2.404
    1C        C  440   4.127   4.299   2.522
    1C        C  441   4.179   4.250   2.644
    1C        C  442   4.007   4.375   2.769
    1C        C  443   4.125   4.297   2.766
    1C        C  444   3.945   4.415   2.889
    1C        C  445   4.007   4.379   3.011
    1C        C  446   3.811   4.466   3.131
    1C        C  447   3.941   4.410   3.133
    1C        C  448   3.751   4.492   3.256
    1C        C  449   3.816   4.479   3.380
    1C        C  450   3.607   4.523   3.495
    1C        C  451   3.746   4.503   3.501
    1C        C  452   3.546   4.531   3.623
    1C        C  453   3.611   4.529   3.748
    1C        C  454   3.397   4.538   3.865
    1C        C  455   3.538   4.543   3.867
    1C        C  456   3.337   4.533   3.993
    1C        C  457   3.406   4.539   4.116
    1C        C  458   3.197   4.503   4.236
    1C        C  459   3.334   4.539   4.238
    1C        C  460   3.133   4.490   4.361
    1C        C  461   3.196   4.514   4.485
    1C        C  462   2.998   4.439   4.602
    1C        C  463   3.126   4.497   4.606
    1C        C  464   2.935   4.406   4.724
    1C        C  465   2.991   4.444   4.849
    1C        C  466   2.800   4.341   4.959
    1C        C  467   2.908   4.429   4.965
    1C        C  468   4.126   4.297   2.044
    1C        C  469   4.189   4.253   2.161
    1C        C  470   4.007   4.372   2.278
    1C        C  471   4.128   4.298   2.281
    1C        C  472   3.944   4.402   2.401
    1C        C  473   4.006   4.372   2.524
    1C        C  474   3.818   4.469   2.646
    1C        C  475   3.946   4.410   2.646
    1C        C  476   3.747   4.488   2.767
    1C        C  477   3.814   4.467   2.890
    1C        C  478   3.606   4.523   3.014
    1C        C  479   3.744   4.494   3.010
    1C        C  480   3.536   4.532   3.136
    1C        C  481   3.612   4.517   3.255
    1C        C  482   3.395   4.537   3.381
    1C        C  483   3.535   4.527   3.373
    1C        C  484   3.326   4.535   3.505
    1C        C  485   3.405   4.540   3.622
    1C        C  486   3.192   4.502   3.750
    1C        C  487   3.328   4.536   3.741
    1C        C  488   3.130   4.477   3.874
    1C        C  489   3.200   4.498   3.995
    1C        C  490   3.002   4.414   4.117
    1C        C  491   3.129   4.476   4.115
    1C        C  492   2.947   4.381   4.243
    1C        C  493   3.007   4.426   4.363
    1C        C  494   2.827   4.305   4.485
    1C        C  495   2.939   4.392   4.482
    1C        C  496   2.776   4.259   4.608
    1C        C  497   2.822   4.319   4.728
    1C        C  498   2.669   4.163   4.846
    1C        C  499   2.754   4.275   4.844
    1C        C  500   2.603   4.118   4.961
    1C        C  501   4.000   4.355   2.041
    1C        C  502   3.813   4.464   2.158
    1C        C  503   3.941   4.405   2.158
    1C        C  504   3.745   4.484   2.280
    1C        C  505   3.814   4.457   2.401
    1C        C  506   3.610   4.508   2.523
    1C        C  507   3.749   4.484   2.523
    1C        C  508   3.536   4.514   2.644
    1C        C  509   3.609   4.516   2.765
    1C        C  510   3.400   4.526   2.888
    1C        C  511   3.541   4.530   2.888
    1C        C  512   3.325   4.523   3.007
    1C        C  513   3.395   4.534   3.130
    1C        C  514   3.194   4.496   3.257
    1C        C  515   3.331   4.529   3.255
    1C        C  516   3.125   4.469   3.377
    1C        C  517   3.190   4.497   3.499
    1C        C  518   3.006   4.411   3.629
    1C        C  519   3.128   4.482   3.625
    1C        C  520   2.944   4.369   3.749
    1C        C  521   3.004   4.412   3.870
    1C        C  522   2.837   4.286   4.000
    1C        C  523   2.946   4.375   3.993
    1C        C  524   2.786   4.235   4.122
    1C        C  525   2.837   4.293   4.240
    1C        C  526   2.697   4.139   4.367
    1C        C  527   2.780   4.253   4.363
    1C        C  528   2.656   4.077   4.487
    1C        C  529   2.694   4.144   4.606
    1C        C  530   2.584   3.962   4.733
    1C        C  531   2.650   4.088   4.728
    1C        C  532   2.539   3.904   4.855
    1C        C  533   2.531   3.998   4.963
    1C        C  534   3.619   4.564   2.046
    1C        C  535   3.752   4.520   2.045
    1C        C  536   3.536   4.541   2.160
    1C        C  537   3.605   4.506   2.280
    1C        C  538   3.395   4.520   2.402
    1C        C  539   3.536   4.518   2.403
    1C        C  540   3.323   4.514   2.524
    1C        C  541   3.395   4.516   2.646
    1C        C  542   3.187   4.485   2.766
    1C        C  543   3.325   4.517   2.768
    1C        C  544   3.123   4.465   2.890
    1C        C  545   3.188   4.489   3.013
    1C        C  546   3.000   4.399   3.136
    1C        C  547   3.124   4.467   3.137
    1C        C  548   2.938   4.364   3.258
    1C        C  549   2.999   4.404   3.379
    1C        C  550   2.838   4.282   3.508
    1C        C  551   2.945   4.373   3.506
    1C        C  552   2.785   4.229   3.628
    1C        C  553   2.834   4.281   3.750
    1C        C  554   2.706   4.123   3.875
    1C        C  555   2.788   4.238   3.877
    1C        C  556   2.664   4.065   3.997
    1C        C  557   2.695   4.126   4.120
    1C        C  558   2.602   3.946   4.246
    1C        C  559   2.660   4.075   4.247
    1C        C  560   2.571   3.882   4.368
    1C        C  561   2.590   3.952   4.490
    1C        C  562   2.532   3.752   4.615
    1C        C  563   2.564   3.889   4.614
    1C        C  564   2.517   3.684   4.738
    1C        C  565   2.522   3.762   4.857
    1C        C  566   2.531   3.551   4.979
    1C        C  567   2.531   3.690   4.977
    1C        C  568   3.329   4.476   2.044
    1C        C  569   3.396   4.518   2.160
    1C        C  570   3.185   4.478   2.280
    1C        C  571   3.322   4.514   2.281
    1C        C  572   3.120   4.453   2.403
    1C        C  573   3.185   4.484   2.524
    1C        C  574   2.989   4.404   2.648
    1C        C  575   3.117   4.464   2.646
    1C        C  576   2.935   4.362   2.771
    1C        C  577   2.998   4.399   2.892
    1C        C  578   2.827   4.275   3.014
    1C        C  579   2.940   4.360   3.014
    1C        C  580   2.779   4.230   3.139
    1C        C  581   2.827   4.277   3.263
    1C        C  582   2.698   4.116   3.383
    1C        C  583   2.785   4.228   3.389
    1C        C  584   2.658   4.063   3.508
    1C        C  585   2.697   4.118   3.631
    1C        C  586   2.602   3.934   3.756
    1C        C  587   2.663   4.061   3.756
    1C        C  588   2.579   3.872   3.881
    1C        C  589   2.605   3.937   4.003
    1C        C  590   2.537   3.739   4.129
    1C        C  591   2.580   3.873   4.127
    1C        C  592   2.527   3.671   4.253
    1C        C  593   2.539   3.744   4.372
    1C        C  594   2.511   3.537   4.502
    1C        C  595   2.521   3.677   4.495
    1C        C  596   2.514   3.465   4.624
    1C        C  597   2.511   3.542   4.742
    1C        C  598   2.530   3.331   4.866
    1C        C  599   2.523   3.472   4.864
    1C        C  600   2.531   3.250   4.981
    1C        C  601   3.198   4.433   2.045
    1C        C  602   2.984   4.391   2.159
    1C        C  603   3.118   4.441   2.159
    1C        C  604   2.925   4.362   2.285
    1C        C  605   2.991   4.395   2.405
    1C        C  606   2.819   4.273   2.531
    1C        C  607   2.926   4.365   2.527
    1C        C  608   2.771   4.223   2.654
    1C        C  609   2.825   4.273   2.775
    1C        C  610   2.690   4.106   2.897
    1C        C  611   2.775   4.219   2.895
    1C        C  612   2.656   4.054   3.023
    1C        C  613   2.694   4.117   3.144
    1C        C  614   2.588   3.930   3.267
    1C        C  615   2.653   4.055   3.264
    1C        C  616   2.566   3.871   3.394
    1C        C  617   2.598   3.935   3.516
    1C        C  618   2.534   3.729   3.636
    1C        C  619   2.572   3.865   3.636
    1C        C  620   2.522   3.667   3.763
    1C        C  621   2.536   3.737   3.884
    1C        C  622   2.510   3.528   4.007
    1C        C  623   2.523   3.669   4.007
    1C        C  624   2.519   3.461   4.131
    1C        C  625   2.517   3.530   4.254
    1C        C  626   2.536   3.325   4.379
    1C        C  627   2.514   3.465   4.380
    1C        C  628   2.556   3.258   4.502
    1C        C  629   2.542   3.327   4.624
    1C        C  630   2.601   3.124   4.745
    1C        C  631   2.553   3.258   4.747
    1C        C  632   2.621   3.052   4.866
    1C        C  633   2.565   3.114   4.982
    1C        C  634   2.782   4.303   2.055
    1C        C  635   2.891   4.391   2.050
    1C        C  636   2.751   4.230   2.170
    1C        C  637   2.807   4.282   2.289
    1C        C  638   2.679   4.112   2.415
    1C        C  639   2.765   4.224   2.410
    1C        C  640   2.637   4.049   2.534
    1C        C  641   2.682   4.113   2.652
    1C        C  642   2.583   3.925   2.780
    1C        C  643   2.646   4.051   2.774
    1C        C  644   2.563   3.855   2.901
    1C        C  645   2.595   3.926   3.019
    1C        C  646   2.529   3.729   3.153
    1C        C  647   2.565   3.866   3.144
    1C        C  648   2.517   3.659   3.274
    1C        C  649   2.534   3.734   3.393
    1C        C  650   2.510   3.520   3.521
    1C        C  651   2.521   3.661   3.513
    1C        C  652   2.513   3.454   3.646
    1C        C  653   2.514   3.526   3.768
    1C        C  654   2.537   3.312   3.890
    1C        C  655   2.511   3.451   3.888
    1C        C  656   2.553   3.253   4.017
    1C        C  657   2.538   3.321   4.140
    1C        C  658   2.610   3.120   4.259
    1C        C  659   2.554   3.250   4.261
    1C        C  660   2.642   3.062   4.384
    1C        C  661   2.607   3.126   4.505
    1C        C  662   2.714   2.939   4.626
    1C        C  663   2.638   3.058   4.625
    1C        C  664   2.756   2.883   4.749
    1C        C  665   2.701   2.934   4.869
    1C        C  666   2.749   2.871   4.985
    1C        C  667   2.683   4.026   2.057
    1C        C  668   2.688   4.104   2.174
    1C        C  669   2.588   3.915   2.289
    1C        C  670   2.646   4.045   2.295
    1C        C  671   2.561   3.851   2.412
    1C        C  672   2.584   3.919   2.534
    1C        C  673   2.519   3.721   2.657
    1C        C  674   2.557   3.857   2.659
    1C        C  675   2.512   3.653   2.781
    1C        C  676   2.530   3.718   2.905
    1C        C  677   2.508   3.516   3.032
    1C        C  678   2.519   3.657   3.032
    1C        C  679   2.515   3.445   3.154
    1C        C  680   2.509   3.517   3.275
    1C        C  681   2.531   3.310   3.402
    1C        C  682   2.507   3.449   3.399
    1C        C  683   2.558   3.244   3.524
    1C        C  684   2.534   3.315   3.644
    1C        C  685   2.610   3.117   3.774
    1C        C  686   2.555   3.247   3.766
    1C        C  687   2.639   3.051   3.896
    1C        C  688   2.601   3.120   4.014
    1C        C  689   2.712   2.939   4.141
    1C        C  690   2.636   3.057   4.135
    1C        C  691   2.758   2.883   4.263
    1C        C  692   2.718   2.943   4.384
    1C        C  693   2.756   2.881   4.505
    1C        C  694   2.632   3.895   2.058
    1C        C  695   2.524   3.706   2.174
    1C        C  696   2.577   3.837   2.172
    1C        C  697   2.503   3.640   2.298
    1C        C  698   2.523   3.715   2.416
    1C        C  699   2.494   3.505   2.543
    1C        C  700   2.506   3.646   2.538
    1C        C  701   2.502   3.440   2.668
    1C        C  702   2.504   3.512   2.789
    1C        C  703   2.529   3.302   2.913
    1C        C  704   2.510   3.442   2.912
    1C        C  705   2.548   3.234   3.035
    1C        C  706   2.540   3.306   3.156
    1C        C  707   2.606   3.110   3.279
    1C        C  708   2.554   3.241   3.281
    1C        C  709   2.634   3.048   3.402
    1C        C  710   2.609   3.112   3.526
    1C        C  711   2.715   2.935   3.649
    1C        C  712   2.641   3.056   3.651
    1C        C  713   2.759   2.878   3.771
    1C        C  714   2.717   2.934   3.894
    1C        C  715   2.758   2.883   4.019
    1C        C  716   2.454   3.498   2.065
    1C        C  717   2.495   3.632   2.059
    1C        C  718   2.462   3.420   2.184
    1C        C  719   2.485   3.499   2.300
    1C        C  720   2.521   3.292   2.427
    1C        C  721   2.494   3.431   2.423
    1C        C  722   2.543   3.227   2.550
    1C        C  723   2.526   3.301   2.669
    1C        C  724   2.594   3.099   2.793
    1C        C  725   2.547   3.233   2.791
    1C        C  726   2.627   3.036   2.915
    1C        C  727   2.598   3.102   3.036
    1C        C  728   2.710   2.922   3.160
    1C        C  729   2.634   3.041   3.159
    1C        C  730   2.757   2.875   3.285
    1C        C  731   2.713   2.931   3.407
    1C        C  732   2.759   2.876   3.529
    1C        C  733   2.495   3.198   2.072
    1C        C  734   2.487   3.278   2.186
    1C        C  735   2.581   3.085   2.309
    1C        C  736   2.525   3.216   2.308
    1C        C  737   2.613   3.021   2.430
    1C        C  738   2.589   3.093   2.549
    1C        C  739   2.699   2.913   2.670
    1C        C  740   2.623   3.032   2.672
    1C        C  741   2.744   2.859   2.792
    1C        C  742   2.702   2.916   2.914
    1C        C  743   2.747   2.864   3.037
    1C        C  744   2.544   3.068   2.076
    1C        C  745   2.688   2.899   2.188
    1C        C  746   2.607   3.014   2.189
    1C        C  747   2.733   2.840   2.308
    1C        C  748   2.695   2.906   2.427
    1C        C  749   2.741   2.852   2.549
    1C        C  750   2.736   2.838   2.071
    1C        C  751   3.657   2.346   1.952
    1C        O  752   3.695   2.230   1.981
    1C        O  753   3.597   2.343   1.826
    1C        C  754   4.635   3.057   1.995
    1C        O  755   4.608   3.003   1.884
    1C        O  756   4.768   3.070   2.036
    1C        C  757   4.445   4.213   1.952
    1C        O  758   4.486   4.326   1.988
    1C        O  759   4.413   4.202   1.816
    1C        C  760   3.574   4.658   1.941
    1C        O  761   3.535   4.775   1.966
    1C        O  762   3.528   4.611   1.817
    1C        C  763   2.887   4.503   1.953
    1C        O  764   2.903   4.492   1.828
    1C        O  765   2.830   4.624   1.993
    1C        C  766   2.348   3.466   1.967
    1C        O  767   2.367   3.422   1.850
    1C        O  768   2.214   3.502   1.989
    1C        C  769   4.695   3.588   5.059
    1C        O  770   4.679   3.557   5.180
    1C        O  771   4.830   3.616   5.036
    1C        C  772   4.250   4.417   5.071
    1C        O  773   4.208   4.414   5.189
    1C        O  774   4.343   4.521   5.058
    1C        C  775   4.150   2.513   5.064
    1C        O  776   4.230   2.432   5.010
    1C        O  777   4.123   2.484   5.198
    1C        C  778   2.896   4.544   5.057
    1C        O  779   2.811   4.636   5.042
    1C        O  780   2.914   4.526   5.195
    1C        C  781   2.501   3.038   5.091
    1C        O  782   2.379   3.009   5.077
    1C        O  783   2.536   3.036   5.226
    1C        C  784   2.425   4.008   5.065
    1C        O  785   2.326   4.084   5.045
    1C        O  786   2.443   4.002   5.204
    1C        C  787   2.953   2.448   1.991
    1C        O  788   2.948   2.490   1.872
    1C        O  789   2.907   2.319   2.011
    1C        C  790   3.189   2.380   5.067
    1C        O  791   3.116   2.284   5.030
    1C        O  792   3.197   2.398   5.206
    1C        H  793   4.298   3.015   5.069
    1C        H  794   4.193   2.808   5.078
    1C        H  795   4.507   3.128   5.059
    1C        H  796   4.510   3.376   5.065
    1C        H  797   4.547   3.809   5.053
    1C        H  798   4.460   4.007   5.053
    1C        H  799   4.273   4.156   5.051
    1C        H  800   4.032   4.546   5.027
    1C        H  801   3.816   4.607   5.039
    1C        H  802   3.592   4.655   5.030
    1C        H  803   3.399   4.490   5.045
    1C        H  804   3.160   4.481   5.059
    1C        H  805   3.884   2.510   5.074
    1C        H  806   3.680   2.419   5.063
    1C        H  807   3.008   2.559   5.069
    1C        H  808   3.445   2.500   5.079
    1C        H  809   2.840   2.699   5.069
    1C        H  810   2.707   2.904   5.078
    1C        H  811   2.535   3.298   5.077
    1C        H  812   2.569   3.511   5.071
    1C        H  813   2.487   3.739   5.062
    1C        H  814   2.628   4.161   5.057
    1C        H  815   2.721   4.362   5.028
    1C        H  816   2.675   2.839   1.983
    1C        H  817   2.870   2.707   1.976
    1C        H  818   3.195   2.395   2.010
    1C        H  819   3.422   2.399   1.991
    1C        H  820   3.846   2.541   1.972
    1C        H  821   4.066   2.619   1.967
    1C        H  822   4.268   2.714   1.976
    1C        H  823   4.378   2.929   1.969
    1C        H  824   4.592   3.311   1.969
    1C        H  825   4.505   3.519   1.957
    1C        H  826   4.566   3.745   1.970
    1C        H  827   3.820   4.563   1.974
    1C        H  828   3.942   4.323   1.957
    1C        H  829   4.185   4.305   1.955
    1C        H  830   4.518   3.983   1.978
    1C        H  831   2.684   3.826   1.994
    1C        H  832   2.673   4.069   1.960
    1C        H  833   2.701   4.309   1.985
    1C        H  834   3.382   4.481   1.951
    1C        H  835   3.171   4.376   1.958
    1C        H  836   2.511   2.996   2.003
    1C        H  837   2.434   3.226   1.989
    1C        H  838   2.530   3.667   1.964
    2V3OU   H29  839   2.803   3.544   0.650
    2V3OU   C27  840   2.784   3.505   0.754
    2V3OU   H27  841   2.721   3.576   0.814
    2V3OU   H28  842   2.729   3.408   0.743
    2V3OU   O11  843   2.908   3.479   0.820
    2V3OU   C15  844   2.920   3.398   0.931
    2V3OU   C13  845   3.049   3.371   0.981
    2V3OU   C14  846   3.075   3.271   1.075
    2V3OU   C16  847   2.973   3.194   1.129
    2V3OU    H6  848   2.989   3.116   1.204
    2V3OU   C12  849   3.213   3.235   1.114
    2V3OU    O2  850   3.238   3.135   1.185
    2V3OU   C10  851   3.325   3.312   1.057
    2V3OU    C8  852   3.457   3.275   1.080
    2V3OU   O10  853   3.490   3.152   1.128
    2V3OU   H26  854   3.409   3.121   1.170
    2V3OU    C6  855   3.567   3.349   1.027
    2V3OU    C5  856   3.540   3.465   0.955
    2V3OU    C4  857   3.704   3.292   1.032
    2V3OU    H4  858   3.729   3.226   1.120
    2V3OU    H5  859   3.707   3.234   0.935
    2V3OU    C2  860   3.814   3.399   1.032
    2V3OU    O6  861   3.806   3.477   1.152
    2V3OU   H21  862   3.761   3.561   1.132
    2V3OU    C3  863   3.781   3.494   0.917
    2V3OU    H2  864   3.866   3.567   0.913
    2V3OU    H3  865   3.779   3.442   0.818
    2V3OU   C25  866   3.950   3.330   1.021
    2V3OU    O7  867   4.000   3.296   0.914
    2V3OU   C26  868   4.031   3.294   1.145
    2V3OU   H22  869   4.062   3.393   1.187
    2V3OU   H23  870   4.117   3.228   1.116
    2V3OU    O8  871   3.964   3.212   1.238
    2V3OU   H24  872   3.931   3.271   1.307
    2V3OU    C1  873   3.647   3.566   0.926
    2V3OU    H1  874   3.632   3.622   0.829
    2V3OU    O3  875   3.660   3.658   1.035
    2V3OU   C19  876   3.621   3.794   1.018
    2V3OU    H9  877   3.517   3.802   0.974
    2V3OU    O4  878   3.715   3.849   0.929
    2V3OU   C20  879   3.846   3.877   0.979
    2V3OU   H10  880   3.894   3.779   1.007
    2V3OU   C24  881   3.611   3.858   1.157
    2V3OU   H16  882   3.547   3.799   1.227
    2V3OU   H17  883   3.570   3.962   1.150
    2V3OU   C23  884   3.753   3.875   1.211
    2V3OU   H15  885   3.801   3.774   1.233
    2V3OU    N1  886   3.736   3.955   1.331
    2V3OU   H19  887   3.802   3.926   1.400
    2V3OU   H20  888   3.646   3.938   1.372
    2V3OU   C21  889   3.850   3.949   1.114
    2V3OU   H11  890   3.948   3.928   1.166
    2V3OU    O5  891   3.832   4.089   1.106
    2V3OU   H18  892   3.782   4.108   1.188
    2V3OU   C22  893   3.916   3.952   0.866
    2V3OU   H12  894   3.865   4.051   0.852
    2V3OU   H13  895   3.907   3.892   0.772
    2V3OU   H14  896   4.025   3.961   0.890
    2V3OU   C11  897   3.158   3.467   0.957
    2V3OU    O1  898   3.129   3.586   0.929
    2V3OU    C9  899   3.298   3.425   0.976
    2V3OU    C7  900   3.405   3.503   0.931
    2V3OU    O9  901   3.385   3.621   0.862
    2V3OU   H25  902   3.290   3.636   0.865
    2V3OU   C17  903   2.820   3.316   0.987
    2V3OU    H7  904   2.715   3.337   0.962
    2V3OU   C18  905   2.844   3.218   1.082
    2V3OU    H8  906   2.759   3.151   1.101
    3SOL     OW  907   0.786   4.707   1.248
    3SOL    HW1  908   0.764   4.612   1.228
    3SOL    HW2  909   0.864   4.737   1.193
    4SOL     OW  910   6.276   1.836   2.588
    4SOL    HW1  911   6.284   1.736   2.585
    4SOL    HW2  912   6.342   1.872   2.654
    5SOL     OW  913   4.250   3.160   0.377
    5SOL    HW1  914   4.172   3.098   0.373
    5SOL    HW2  915   4.319   3.132   0.310
    6SOL     OW  916   3.547   2.663   0.374
    6SOL    HW1  917   3.556   2.681   0.276
    6SOL    HW2  918   3.451   2.670   0.400
    7SOL     OW  919   5.730   0.954   1.761
    7SOL    HW1  920   5.763   0.971   1.668
    7SOL    HW2  921   5.745   0.858   1.785
    8SOL     OW  922   3.170   2.095   3.116
    8SOL    HW1  923   3.132   2.003   3.103
    8SOL    HW2  924   3.231   2.116   3.040
    9SOL     OW  925   6.462   4.303   6.546
    9SOL    HW1  926   6.497   4.387   6.588
    9SOL    HW2  927   6.366   4.289   6.573
   10SOL     OW  928   6.613   4.162   1.726
   10SOL    HW1  929   6.669   4.245   1.733
   10SOL    HW2  930   6.663   4.093   1.674
   11SOL     OW  931   3.956   6.916   0.682
   11SOL    HW1  932   3.956   6.865   0.596
   11SOL    HW2  933   3.862   6.939   0.707
   12SOL     OW  934   5.413   6.721   2.296
   12SOL    HW1  935   5.433   6.798   2.235
   12SOL    HW2  936   5.495   6.700   2.350
   13SOL     OW  937   2.194   6.613   2.087
   13SOL    HW1  938   2.258   6.616   2.010
   13SOL    HW2  939   2.192   6.702   2.132
   14SOL     OW  940   2.611   0.103   3.204
   14SOL    HW1  941   2.526   0.155   3.195
   14SOL    HW2  942   2.659   0.132   3.287
   15SOL     OW  943   2.607   0.242   6.339
   15SOL    HW1  944   2.515   0.201   6.335
   15SOL    HW2  945   2.661   0.209   6.261
   16SOL     OW  946   6.136   1.566   0.362
   16SOL    HW1  947   6.161   1.636   0.295
   16SOL    HW2  948   6.207   1.495   0.363
   17SOL     OW  949   4.107   5.549   4.057
   17SOL    HW1  950   4.148   5.534   4.147
   17SOL    HW2  951   4.052   5.633   4.059
   18SOL     OW  952   1.297   0.192   6.899
   18SOL    HW1  953   1.269   0.102   6.931
   18SOL    HW2  954   1.252   0.212   6.812
   19SOL     OW  955   0.687   6.934   0.875
   19SOL    HW1  956   0.749   7.005   0.843
   19SOL    HW2  957   0.629   6.970   0.948
   20SOL     OW  958   3.538   0.021   4.656
   20SOL    HW1  959   3.591   0.085   4.711
   20SOL    HW2  960   3.448   0.061   4.638
   21SOL     OW  961   2.783   3.004   1.347
   21SOL    HW1  962   2.779   3.103   1.362
   21SOL    HW2  963   2.814   2.959   1.431
   22SOL     OW  964   1.947   0.923   5.165
   22SOL    HW1  965   1.904   0.890   5.249
   22SOL    HW2  966   1.896   0.889   5.086
   23SOL     OW  967   2.623   6.544   4.360
   23SOL    HW1  968   2.717   6.541   4.394
   23SOL    HW2  969   2.596   6.638   4.344
   24SOL     OW  970   4.871   1.509   5.176
   24SOL    HW1  971   4.791   1.476   5.126
   24SOL    HW2  972   4.939   1.437   5.182
   25SOL     OW  973   2.617   6.033   0.685
   25SOL    HW1  974   2.523   6.046   0.716
   25SOL    HW2  975   2.679   6.036   0.764
   26SOL     OW  976   6.074   0.955   3.062
   26SOL    HW1  977   6.000   0.894   3.093
   26SOL    HW2  978   6.162   0.916   3.090
   27SOL     OW  979   5.839   6.933   2.296
   27SOL    HW1  980   5.823   6.919   2.199
   27SOL    HW2  981   5.753   6.925   2.346
   28SOL     OW  982   2.407   1.230   0.243
   28SOL    HW1  983   2.502   1.208   0.220
   28SOL    HW2  984   2.385   1.192   0.333
   29SOL     OW  985   4.874   3.301   1.940
   29SOL    HW1  986   4.832   3.219   1.980
   29SOL    HW2  987   4.929   3.276   1.861
   30SOL     OW  988   4.115   1.066   6.916
   30SOL    HW1  989   4.041   1.129   6.941
   30SOL    HW2  990   4.084   1.006   6.843
   31SOL     OW  991   1.283   1.815   5.144
   31SOL    HW1  992   1.354   1.847   5.208
   31SOL    HW2  993   1.231   1.894   5.112
   32SOL     OW  994   6.227   1.571   2.533
   32SOL    HW1  995   6.166   1.583   2.455
   32SOL    HW2  996   6.313   1.530   2.503
   33SOL     OW  997   1.472   1.081   4.880
   33SOL    HW1  998   1.498   1.170   4.918
   33SOL    HW2  999   1.554   1.030   4.854
   34SOL     OW 1000   0.864   1.182   4.624
   34SOL    HW1 1001   0.960   1.203   4.642
   34SOL    HW2 1002   0.839   1.099   4.673
   35SOL     OW 1003   4.583   2.215   6.513
   35SOL    HW1 1004   4.519   2.277   6.468
   35SOL    HW2 1005   4.637   2.167   6.444
   36SOL     OW 1006   1.238   2.810   6.675
   36SOL    HW1 1007   1.271   2.716   6.661
   36SOL    HW2 1008   1.259   2.865   6.594
   37SOL     OW 1009   3.776   6.624   1.957
   37SOL    HW1 1010   3.772   6.703   1.897
   37SOL    HW2 1011   3.716   6.638   2.036
   38SOL     OW 1012   6.449   5.251   1.335
   38SOL    HW1 1013   6.498   5.259   1.248
   38SOL    HW2 1014   6.351   5.265   1.320
   39SOL     OW 1015   7.024   2.605   6.330
   39SOL    HW1 1016   6.994   2.692   6.293
   39SOL    HW2 1017   0.072   2.620   6.395
   40SOL     OW 1018   0.035   1.819   1.798
   40SOL    HW1 1019   6.975   1.813   1.847
   40SOL    HW2 1020   0.065   1.727   1.774
   41SOL     OW 1021   0.439   1.790   6.348
   41SOL    HW1 1022   0.480   1.724   6.410
   41SOL    HW2 1023   0.457   1.883   6.381
   42SOL     OW 1024   4.146   6.600   0.538
   42SOL    HW1 1025   4.115   6.614   0.444
   42SOL    HW2 1026   4.082   6.539   0.585
   43SOL     OW 1027   4.386   5.195   5.733
   43SOL    HW1 1028   4.387   5.169   5.830
   43SOL    HW2 1029   4.292   5.207   5.703
   44SOL     OW 1030   1.134   4.908   6.830
   44SOL    HW1 1031   1.230   4.896   6.854
   44SOL    HW2 1032   1.080   4.923   6.913
   45SOL     OW 1033   2.535   6.935   0.621
   45SOL    HW1 1034   2.465   6.874   0.658
   45SOL    HW2 1035   2.610   6.880   0.583
   46SOL     OW 1036   0.677   5.305   4.348
   46SOL    HW1 1037   0.593   5.273   4.305
   46SOL    HW2 1038   0.674   5.286   4.446
   47SOL     OW 1039   6.622   4.355   2.528
   47SOL    HW1 1040   6.705   4.410   2.528
   47SOL    HW2 1041   6.608   4.315   2.437
   48SOL     OW 1042   0.786   1.715   5.408
   48SOL    HW1 1043   0.804   1.663   5.491
   48SOL    HW2 1044   0.860   1.781   5.393
   49SOL     OW 1045   5.825   3.425   6.793
   49SOL    HW1 1046   5.838   3.440   6.695
   49SOL    HW2 1047   5.794   3.331   6.809
   50SOL     OW 1048   0.823   3.827   4.488
   50SOL    HW1 1049   0.792   3.886   4.562
   50SOL    HW2 1050   0.850   3.882   4.410
   51SOL     OW 1051   2.381   6.413   1.567
   51SOL    HW1 1052   2.384   6.513   1.565
   51SOL    HW2 1053   2.359   6.383   1.660
   52SOL     OW 1054   0.489   2.291   2.587
   52SOL    HW1 1055   0.525   2.235   2.512
   52SOL    HW2 1056   0.516   2.251   2.674
   53SOL     OW 1057   4.603   6.751   3.891
   53SOL    HW1 1058   4.641   6.818   3.955
   53SOL    HW2 1059   4.621   6.780   3.797
   54SOL     OW 1060   4.701   4.392   5.521
   54SOL    HW1 1061   4.704   4.295   5.547
   54SOL    HW2 1062   4.606   4.420   5.508
   55SOL     OW 1063   4.488   2.658   1.578
   55SOL    HW1 1064   4.435   2.671   1.494
   55SOL    HW2 1065   4.547   2.578   1.568
   56SOL     OW 1066   7.021   0.914   1.747
   56SOL    HW1 1067   6.953   0.861   1.797
   56SOL    HW2 1068   0.043   0.975   1.810
   57SOL     OW 1069   4.958   0.537   6.747
   57SOL    HW1 1070   5.002   0.512   6.661
   57SOL    HW2 1071   4.948   0.637   6.751
   58SOL     OW 1072   6.813   0.919   6.825
   58SOL    HW1 1073   6.731   0.975   6.822
   58SOL    HW2 1074   6.809   0.857   6.903
   59SOL     OW 1075   0.684   0.274   5.473
   59SOL    HW1 1076   0.725   0.252   5.562
   59SOL    HW2 1077   0.597   0.226   5.464
   60SOL     OW 1078   4.702   6.728   5.616
   60SOL    HW1 1079   4.756   6.808   5.588
   60SOL    HW2 1080   4.720   6.652   5.554
   61SOL     OW 1081   3.305   0.462   5.528
   61SOL    HW1 1082   3.280   0.379   5.477
   61SOL    HW2 1083   3.238   0.478   5.600
   62SOL     OW 1084   3.125   0.236   4.489
   62SOL    HW1 1085   3.145   0.331   4.463
   62SOL    HW2 1086   3.083   0.189   4.412
   63SOL     OW 1087   6.864   3.796   4.410
   63SOL    HW1 1088   6.963   3.782   4.401
   63SOL    HW2 1089   6.823   3.714   4.450
   64SOL     OW 1090   0.105   1.646   5.842
   64SOL    HW1 1091   0.123   1.698   5.926
   64SOL    HW2 1092   0.006   1.634   5.832
   65SOL     OW 1093   1.452   4.639   5.153
   65SOL    HW1 1094   1.472   4.737   5.151
   65SOL    HW2 1095   1.386   4.620   5.225
   66SOL     OW 1096   2.864   0.860   1.206
   66SOL    HW1 1097   2.773   0.903   1.212
   66SOL    HW2 1098   2.865   0.794   1.131
   67SOL     OW 1099   4.678   5.292   4.262
   67SOL    HW1 1100   4.589   5.308   4.305
   67SOL    HW2 1101   4.713   5.203   4.290
   68SOL     OW 1102   5.313   2.733   6.883
   68SOL    HW1 1103   5.259   2.750   6.965
   68SOL    HW2 1104   5.365   2.648   6.893
   69SOL     OW 1105   2.493   3.336   5.670
   69SOL    HW1 1106   2.414   3.387   5.705
   69SOL    HW2 1107   2.571   3.397   5.661
   70SOL     OW 1108   5.645   1.036   3.684
   70SOL    HW1 1109   5.726   1.016   3.739
   70SOL    HW2 1110   5.577   1.082   3.741
   71SOL     OW 1111   1.802   4.385   1.805
   71SOL    HW1 1112   1.736   4.339   1.746
   71SOL    HW2 1113   1.843   4.319   1.868
   72SOL     OW 1114   3.998   5.777   4.014
   72SOL    HW1 1115   4.039   5.763   3.924
   72SOL    HW2 1116   3.949   5.864   4.016
   73SOL     OW 1117   3.528   2.930   6.957
   73SOL    HW1 1118   3.599   2.937   6.887
   73SOL    HW2 1119   3.441   2.962   6.921
   74SOL     OW 1120   5.443   0.022   4.702
   74SOL    HW1 1121   5.386   6.978   4.743
   74SOL    HW2 1122   5.520   7.007   4.653
   75SOL     OW 1123   3.646   5.559   5.533
   75SOL    HW1 1124   3.667   5.548   5.436
   75SOL    HW2 1125   3.556   5.601   5.544
   76SOL     OW 1126   2.571   2.845   0.874
   76SOL    HW1 1127   2.550   2.942   0.886
   76SOL    HW2 1128   2.618   2.811   0.956
   77SOL     OW 1129   6.018   4.231   0.031
   77SOL    HW1 1130   6.086   4.291   7.017
   77SOL    HW2 1131   5.937   4.284   0.056
   78SOL     OW 1132   6.032   6.997   5.638
   78SOL    HW1 1133   6.034   0.026   5.555
   78SOL    HW2 1134   6.070   0.022   5.714
   79SOL     OW 1135   3.244   6.183   0.441
   79SOL    HW1 1136   3.263   6.085   0.443
   79SOL    HW2 1137   3.328   6.233   0.462
   80SOL     OW 1138   0.301   1.314   4.331
   80SOL    HW1 1139   0.308   1.393   4.269
   80SOL    HW2 1140   0.392   1.291   4.366
   81SOL     OW 1141   1.233   5.698   2.596
   81SOL    HW1 1142   1.330   5.679   2.582
   81SOL    HW2 1143   1.222   5.786   2.643
   82SOL     OW 1144   6.536   4.324   5.860
   82SOL    HW1 1145   6.540   4.355   5.765
   82SOL    HW2 1146   6.546   4.402   5.921
   83SOL     OW 1147   5.679   0.007   5.138
   83SOL    HW1 1148   5.616   6.956   5.136
   83SOL    HW2 1149   5.680   0.052   5.048
   84SOL     OW 1150   6.884   3.232   2.306
   84SOL    HW1 1151   6.883   3.135   2.285
   84SOL    HW2 1152   6.803   3.276   2.267
   85SOL     OW 1153   1.208   1.250   5.004
   85SOL    HW1 1154   1.306   1.271   4.994
   85SOL    HW2 1155   1.196   1.152   5.020
   86SOL     OW 1156   1.626   0.795   3.949
   86SOL    HW1 1157   1.704   0.747   3.989
   86SOL    HW2 1158   1.621   0.888   3.986
   87SOL     OW 1159   4.460   6.902   1.571
   87SOL    HW1 1160   4.530   6.833   1.588
   87SOL    HW2 1161   4.475   6.981   1.630
   88SOL     OW 1162   5.950   0.459   1.610
   88SOL    HW1 1163   5.852   0.476   1.607
   88SOL    HW2 1164   5.999   0.546   1.611
   89SOL     OW 1165   1.826   2.012   5.432
   89SOL    HW1 1166   1.790   2.105   5.422
   89SOL    HW2 1167   1.908   2.002   5.375
   90SOL     OW 1168   5.693   6.193   3.352
   90SOL    HW1 1169   5.717   6.213   3.447
   90SOL    HW2 1170   5.664   6.097   3.344
   91SOL     OW 1171   5.510   5.278   3.984
   91SOL    HW1 1172   5.423   5.255   4.026
   91SOL    HW2 1173   5.540   5.202   3.926
   92SOL     OW 1174   3.449   5.494   1.060
   92SOL    HW1 1175   3.445   5.566   1.130
   92SOL    HW2 1176   3.360   5.449   1.052
   93SOL     OW 1177   3.161   5.018   5.623
   93SOL    HW1 1178   3.187   5.037   5.717
   93SOL    HW2 1179   3.062   5.025   5.613
   94SOL     OW 1180   1.828   6.452   2.331
   94SOL    HW1 1181   1.876   6.367   2.310
   94SOL    HW2 1182   1.741   6.431   2.375
   95SOL     OW 1183   0.122   6.948   4.052
   95SOL    HW1 1184   0.040   6.983   4.006
   95SOL    HW2 1185   0.168   6.883   3.991
   96SOL     OW 1186   1.861   6.713   4.543
   96SOL    HW1 1187   1.776   6.716   4.596
   96SOL    HW2 1188   1.931   6.665   4.595
   97SOL     OW 1189   6.654   1.913   3.912
   97SOL    HW1 1190   6.700   1.916   3.823
   97SOL    HW2 1191   6.556   1.903   3.898
   98SOL     OW 1192   4.814   1.141   5.405
   98SOL    HW1 1193   4.717   1.126   5.383
   98SOL    HW2 1194   4.823   1.158   5.503
   99SOL     OW 1195   4.839   1.092   0.805
   99SOL    HW1 1196   4.889   1.013   0.771
   99SOL    HW2 1197   4.898   1.146   0.866
  100SOL     OW 1198   6.551   5.920   0.954
  100SOL    HW1 1199   6.549   6.020   0.944
  100SOL    HW2 1200   6.524   5.895   1.046
  101SOL     OW 1201   1.660   6.560   3.527
  101SOL    HW1 1202   1.740   6.503   3.511
  101SOL    HW2 1203   1.624   6.592   3.439
  102SOL     OW 1204   4.826   0.735   2.047
  102SOL    HW1 1205   4.840   0.723   2.145
  102SOL    HW2 1206   4.914   0.736   2.000
  103SOL     OW 1207   4.898   1.176   3.000
  103SOL    HW1 1208   4.839   1.175   3.080
  103SOL    HW2 1209   4.994   1.169   3.029
  104SOL     OW 1210   6.335   6.373   2.521
  104SOL    HW1 1211   6.334   6.471   2.506
  104SOL    HW2 1212   6.403   6.330   2.460
  105SOL     OW 1213   5.601   1.295   5.514
  105SOL    HW1 1214   5.567   1.338   5.430
  105SOL    HW2 1215   5.579   1.198   5.514
  106SOL     OW 1216   4.216   6.850   0.864
  106SOL    HW1 1217   4.226   6.884   0.958
  106SOL    HW2 1218   4.121   6.825   0.848
  107SOL     OW 1219   2.565   3.683   6.989
  107SOL    HW1 1220   2.581   3.600   0.015
  107SOL    HW2 1221   2.541   3.758   0.024
  108SOL     OW 1222   4.686   4.152   5.587
  108SOL    HW1 1223   4.646   4.135   5.497
  108SOL    HW2 1224   4.684   4.067   5.641
  109SOL     OW 1225   5.787   0.971   2.475
  109SOL    HW1 1226   5.865   0.959   2.414
  109SOL    HW2 1227   5.708   0.921   2.438
  110SOL     OW 1228   3.757   6.425   3.987
  110SOL    HW1 1229   3.825   6.363   3.948
  110SOL    HW2 1230   3.802   6.487   4.051
  111SOL     OW 1231   3.285   1.358   3.157
  111SOL    HW1 1232   3.318   1.333   3.066
  111SOL    HW2 1233   3.349   1.324   3.226
  112SOL     OW 1234   0.037   1.818   0.206
  112SOL    HW1 1235   6.978   1.840   0.253
  112SOL    HW2 1236   0.098   1.897   0.208
  113SOL     OW 1237   6.813   6.744   3.631
  113SOL    HW1 1238   6.869   6.706   3.704
  113SOL    HW2 1239   6.812   6.682   3.553
  114SOL     OW 1240   1.685   5.846   0.515
  114SOL    HW1 1241   1.696   5.850   0.415
  114SOL    HW2 1242   1.766   5.803   0.556
  115SOL     OW 1243   5.447   0.994   5.812
  115SOL    HW1 1244   5.444   1.001   5.712
  115SOL    HW2 1245   5.456   1.085   5.852
  116SOL     OW 1246   6.198   3.810   2.735
  116SOL    HW1 1247   6.104   3.812   2.768
  116SOL    HW2 1248   6.255   3.758   2.800
  117SOL     OW 1249   0.409   6.706   6.195
  117SOL    HW1 1250   0.440   6.645   6.122
  117SOL    HW2 1251   0.313   6.728   6.182
  118SOL     OW 1252   2.784   1.530   3.637
  118SOL    HW1 1253   2.818   1.533   3.543
  118SOL    HW2 1254   2.740   1.617   3.660
  119SOL     OW 1255   0.069   2.612   6.927
  119SOL    HW1 1256   0.005   2.643   6.856
  119SOL    HW2 1257   0.028   2.624   7.017
  120SOL     OW 1258   4.161   5.911   1.510
  120SOL    HW1 1259   4.171   6.007   1.537
  120SOL    HW2 1260   4.235   5.886   1.447
  121SOL     OW 1261   2.779   2.887   6.477
  121SOL    HW1 1262   2.769   2.811   6.542
  121SOL    HW2 1263   2.876   2.896   6.452
  122SOL     OW 1264   1.397   3.616   4.635
  122SOL    HW1 1265   1.457   3.696   4.641
  122SOL    HW2 1266   1.368   3.603   4.541
  123SOL     OW 1267   6.526   1.732   1.905
  123SOL    HW1 1268   6.437   1.767   1.878
  123SOL    HW2 1269   6.514   1.654   1.967
  124SOL     OW 1270   4.951   3.698   1.800
  124SOL    HW1 1271   4.890   3.628   1.763
  124SOL    HW2 1272   4.972   3.764   1.729
  125SOL     OW 1273   2.349   3.299   1.469
  125SOL    HW1 1274   2.321   3.392   1.448
  125SOL    HW2 1275   2.303   3.269   1.553
  126SOL     OW 1276   3.796   4.971   0.503
  126SOL    HW1 1277   3.864   4.955   0.431
  126SOL    HW2 1278   3.812   4.906   0.578
  127SOL     OW 1279   0.213   5.956   6.413
  127SOL    HW1 1280   0.163   5.871   6.401
  127SOL    HW2 1281   0.243   5.990   6.324
  128SOL     OW 1282   5.112   1.959   0.028
  128SOL    HW1 1283   5.165   1.888   7.010
  128SOL    HW2 1284   5.163   1.994   0.107
  129SOL     OW 1285   2.385   3.867   6.766
  129SOL    HW1 1286   2.332   3.949   6.745
  129SOL    HW2 1287   2.333   3.809   6.829
  130SOL     OW 1288   1.191   1.952   4.796
  130SOL    HW1 1289   1.282   1.911   4.797
  130SOL    HW2 1290   1.125   1.885   4.763
  131SOL     OW 1291   6.096   1.351   2.613
  131SOL    HW1 1292   6.118   1.439   2.572
  131SOL    HW2 1293   6.180   1.305   2.641
  132SOL     OW 1294   0.906   1.631   2.698
  132SOL    HW1 1295   0.823   1.661   2.744
  132SOL    HW2 1296   0.912   1.531   2.703
  133SOL     OW 1297   0.076   5.908   2.874
  133SOL    HW1 1298   0.014   5.857   2.934
  133SOL    HW2 1299   0.046   6.003   2.869
  134SOL     OW 1300   1.097   3.722   3.045
  134SOL    HW1 1301   1.133   3.737   2.953
  134SOL    HW2 1302   1.144   3.645   3.087
  135SOL     OW 1303   4.855   0.749   4.563
  135SOL    HW1 1304   4.759   0.724   4.550
  135SOL    HW2 1305   4.906   0.729   4.479
  136SOL     OW 1306   5.011   5.575   5.975
  136SOL    HW1 1307   5.016   5.670   6.006
  136SOL    HW2 1308   5.055   5.515   6.042
  137SOL     OW 1309   4.131   1.210   5.759
  137SOL    HW1 1310   4.054   1.179   5.814
  137SOL    HW2 1311   4.096   1.259   5.678
  138SOL     OW 1312   5.519   4.843   5.374
  138SOL    HW1 1313   5.481   4.898   5.299
  138SOL    HW2 1314   5.616   4.862   5.384
  139SOL     OW 1315   3.734   5.389   5.030
  139SOL    HW1 1316   3.824   5.347   5.017
  139SOL    HW2 1317   3.664   5.317   5.026
  140SOL     OW 1318   6.655   4.158   4.416
  140SOL    HW1 1319   6.565   4.168   4.459
  140SOL    HW2 1320   6.674   4.240   4.361
  141SOL     OW 1321   1.759   2.318   2.761
  141SOL    HW1 1322   1.853   2.343   2.741
  141SOL    HW2 1323   1.707   2.399   2.787
  142SOL     OW 1324   1.308   4.773   0.974
  142SOL    HW1 1325   1.333   4.704   1.041
  142SOL    HW2 1326   1.293   4.729   0.885
  143SOL     OW 1327   5.356   4.882   1.880
  143SOL    HW1 1328   5.427   4.952   1.870
  143SOL    HW2 1329   5.294   4.907   1.953
  144SOL     OW 1330   3.253   6.705   0.422
  144SOL    HW1 1331   3.299   6.720   0.335
  144SOL    HW2 1332   3.192   6.627   0.414
  145SOL     OW 1333   6.232   6.028   0.881
  145SOL    HW1 1334   6.304   6.095   0.902
  145SOL    HW2 1335   6.145   6.060   0.917
  146SOL     OW 1336   0.362   4.227   0.607
  146SOL    HW1 1337   0.377   4.128   0.602
  146SOL    HW2 1338   0.350   4.263   0.514
  147SOL     OW 1339   5.933   2.606   1.187
  147SOL    HW1 1340   5.883   2.643   1.109
  147SOL    HW2 1341   6.023   2.574   1.157
  148SOL     OW 1342   0.722   5.741   5.265
  148SOL    HW1 1343   0.647   5.682   5.296
  148SOL    HW2 1344   0.796   5.737   5.332
  149SOL     OW 1345   2.994   0.967   0.071
  149SOL    HW1 1346   3.060   1.041   0.060
  149SOL    HW2 1347   2.924   0.993   0.137
  150SOL     OW 1348   6.399   5.947   5.404
  150SOL    HW1 1349   6.332   6.021   5.406
  150SOL    HW2 1350   6.356   5.863   5.437
  151SOL     OW 1351   5.035   0.525   1.761
  151SOL    HW1 1352   5.028   0.625   1.757
  151SOL    HW2 1353   5.128   0.499   1.789
  152SOL     OW 1354   3.071   0.908   4.265
  152SOL    HW1 1355   3.018   0.953   4.193
  152SOL    HW2 1356   3.132   0.841   4.223
  153SOL     OW 1357   0.790   0.053   2.436
  153SOL    HW1 1358   0.710   0.103   2.468
  153SOL    HW2 1359   0.871   0.112   2.440
  154SOL     OW 1360   0.809   1.301   2.700
  154SOL    HW1 1361   0.850   1.254   2.623
  154SOL    HW2 1362   0.842   1.261   2.786
  155SOL     OW 1363   1.466   1.294   3.559
  155SOL    HW1 1364   1.444   1.201   3.590
  155SOL    HW2 1365   1.386   1.353   3.573
  156SOL     OW 1366   6.562   1.916   1.263
  156SOL    HW1 1367   6.538   1.948   1.172
  156SOL    HW2 1368   6.656   1.881   1.263
  157SOL     OW 1369   0.623   2.542   2.830
  157SOL    HW1 1370   0.673   2.496   2.756
  157SOL    HW2 1371   0.530   2.563   2.799
  158SOL     OW 1372   2.251   1.163   3.179
  158SOL    HW1 1373   2.177   1.170   3.246
  158SOL    HW2 1374   2.339   1.166   3.227
  159SOL     OW 1375   4.751   4.055   1.199
  159SOL    HW1 1376   4.784   3.968   1.162
  159SOL    HW2 1377   4.659   4.074   1.164
  160SOL     OW 1378   6.655   4.769   6.425
  160SOL    HW1 1379   6.673   4.680   6.383
  160SOL    HW2 1380   6.577   4.761   6.487
  161SOL     OW 1381   2.549   4.647   5.133
  161SOL    HW1 1382   2.632   4.618   5.085
  161SOL    HW2 1383   2.572   4.678   5.225
  162SOL     OW 1384   4.450   6.003   2.612
  162SOL    HW1 1385   4.480   6.087   2.567
  162SOL    HW2 1386   4.527   5.941   2.621
  163SOL     OW 1387   5.981   6.876   1.295
  163SOL    HW1 1388   5.932   6.830   1.370
  163SOL    HW2 1389   5.924   6.950   1.260
  164SOL     OW 1390   6.187   3.262   2.034
  164SOL    HW1 1391   6.189   3.169   1.997
  164SOL    HW2 1392   6.137   3.262   2.120
  165SOL     OW 1393   6.553   3.859   6.665
  165SOL    HW1 1394   6.552   3.824   6.759
  165SOL    HW2 1395   6.462   3.846   6.624
  166SOL     OW 1396   1.345   0.078   0.826
  166SOL    HW1 1397   1.270   0.013   0.839
  166SOL    HW2 1398   1.428   0.041   0.868
  167SOL     OW 1399   6.620   2.365   2.111
  167SOL    HW1 1400   6.675   2.434   2.157
  167SOL    HW2 1401   6.526   2.369   2.146
  168SOL     OW 1402   2.274   4.985   0.969
  168SOL    HW1 1403   2.232   4.983   1.060
  168SOL    HW2 1404   2.370   5.011   0.977
  169SOL     OW 1405   1.029   0.345   1.170
  169SOL    HW1 1406   1.119   0.308   1.150
  169SOL    HW2 1407   0.966   0.325   1.095
  170SOL     OW 1408   6.960   2.070   3.820
  170SOL    HW1 1409   6.972   1.980   3.864
  170SOL    HW2 1410   6.929   2.136   3.889
  171SOL     OW 1411   3.276   3.930   0.869
  171SOL    HW1 1412   3.269   3.969   0.961
  171SOL    HW2 1413   3.365   3.954   0.830
  172SOL     OW 1414   6.959   3.120   1.409
  172SOL    HW1 1415   6.871   3.073   1.400
  172SOL    HW2 1416   6.964   3.162   1.499
  173SOL     OW 1417   0.076   6.560   5.147
  173SOL    HW1 1418   0.110   6.493   5.081
  173SOL    HW2 1419   7.021   6.524   5.192
  174SOL     OW 1420   2.464   5.787   3.152
  174SOL    HW1 1421   2.473   5.878   3.113
  174SOL    HW2 1422   2.432   5.723   3.082
  175SOL     OW 1423   6.995   5.152   3.653
  175SOL    HW1 1424   0.033   5.228   3.649
  175SOL    HW2 1425   7.006   5.094   3.572
  176SOL     OW 1426   2.564   6.188   6.856
  176SOL    HW1 1427   2.485   6.154   6.906
  176SOL    HW2 1428   2.565   6.288   6.859
  177SOL     OW 1429   4.747   1.847   2.307
  177SOL    HW1 1430   4.757   1.802   2.395
  177SOL    HW2 1431   4.672   1.913   2.311
  178SOL     OW 1432   5.804   4.021   6.240
  178SOL    HW1 1433   5.807   4.097   6.305
  178SOL    HW2 1434   5.895   3.981   6.231
  179SOL     OW 1435   3.650   6.794   0.420
  179SOL    HW1 1436   3.643   6.851   0.502
  179SOL    HW2 1437   3.611   6.704   0.440
  180SOL     OW 1438   0.926   2.773   0.263
  180SOL    HW1 1439   1.019   2.773   0.298
  180SOL    HW2 1440   0.864   2.738   0.334
  181SOL     OW 1441   3.023   3.468   3.958
  181SOL    HW1 1442   3.066   3.483   3.869
  181SOL    HW2 1443   2.997   3.372   3.967
  182SOL     OW 1444   5.333   2.630   5.075
  182SOL    HW1 1445   5.274   2.645   5.154
  182SOL    HW2 1446   5.375   2.540   5.081
  183SOL     OW 1447   6.355   1.462   3.277
  183SOL    HW1 1448   6.263   1.463   3.238
  183SOL    HW2 1449   6.404   1.381   3.246
  184SOL     OW 1450   6.882   4.444   2.204
  184SOL    HW1 1451   6.906   4.404   2.292
  184SOL    HW2 1452   6.964   4.477   2.158
  185SOL     OW 1453   3.379   3.955   6.010
  185SOL    HW1 1454   3.422   4.014   5.941
  185SOL    HW2 1455   3.430   3.869   6.016
  186SOL     OW 1456   5.861   0.124   3.858
  186SOL    HW1 1457   5.761   0.123   3.862
  186SOL    HW2 1458   5.898   0.132   3.950
  187SOL     OW 1459   5.625   0.059   4.302
  187SOL    HW1 1460   5.607   0.155   4.279
  187SOL    HW2 1461   5.568   0.000   4.244
  188SOL     OW 1462   6.201   2.569   5.440
  188SOL    HW1 1463   6.287   2.594   5.484
  188SOL    HW2 1464   6.195   2.614   5.351
  189SOL     OW 1465   1.517   5.117   3.614
  189SOL    HW1 1466   1.469   5.202   3.639
  189SOL    HW2 1467   1.594   5.138   3.554
  190SOL     OW 1468   3.214   1.133   0.076
  190SOL    HW1 1469   3.228   1.227   0.046
  190SOL    HW2 1470   3.259   1.071   0.012
  191SOL     OW 1471   5.019   5.698   6.944
  191SOL    HW1 1472   4.999   5.767   7.014
  191SOL    HW2 1473   5.019   5.740   6.854
  192SOL     OW 1474   6.387   0.817   6.809
  192SOL    HW1 1475   6.291   0.792   6.802
  192SOL    HW2 1476   6.408   0.889   6.742
  193SOL     OW 1477   6.250   4.032   6.889
  193SOL    HW1 1478   6.252   4.005   6.985
  193SOL    HW2 1479   6.343   4.042   6.855
  194SOL     OW 1480   4.282   0.017   4.400
  194SOL    HW1 1481   4.208   0.076   4.368
  194SOL    HW2 1482   4.365   0.037   4.348
  195SOL     OW 1483   6.921   5.687   3.307
  195SOL    HW1 1484   7.017   5.665   3.324
  195SOL    HW2 1485   6.878   5.613   3.256
  196SOL     OW 1486   0.348   0.935   1.131
  196SOL    HW1 1487   0.392   1.017   1.095
  196SOL    HW2 1488   0.254   0.955   1.155
  197SOL     OW 1489   1.888   0.877   0.362
  197SOL    HW1 1490   1.837   0.963   0.367
  197SOL    HW2 1491   1.849   0.811   0.426
  198SOL     OW 1492   3.163   1.482   4.900
  198SOL    HW1 1493   3.114   1.552   4.848
  198SOL    HW2 1494   3.143   1.392   4.860
  199SOL     OW 1495   2.220   0.887   4.253
  199SOL    HW1 1496   2.304   0.941   4.248
  199SOL    HW2 1497   2.192   0.877   4.348
  200SOL     OW 1498   6.303   1.657   0.677
  200SOL    HW1 1499   6.220   1.709   0.655
  200SOL    HW2 1500   6.367   1.663   0.601
  201SOL     OW 1501   0.905   2.090   5.963
  201SOL    HW1 1502   0.975   2.029   5.928
  201SOL    HW2 1503   0.836   2.037   6.013
  202SOL     OW 1504   6.125   6.743   6.974
  202SOL    HW1 1505   6.134   6.718   6.878
  202SOL    HW2 1506   6.134   6.842   6.984
  203SOL     OW 1507   6.421   3.720   6.877
  203SOL    HW1 1508   6.354   3.647   6.891
  203SOL    HW2 1509   6.402   3.796   6.939
  204SOL     OW 1510   6.518   0.393   5.296
  204SOL    HW1 1511   6.564   0.347   5.220
  204SOL    HW2 1512   6.466   0.471   5.260
  205SOL     OW 1513   2.347   5.152   3.231
  205SOL    HW1 1514   2.303   5.241   3.246
  205SOL    HW2 1515   2.440   5.154   3.268
  206SOL     OW 1516   0.969   3.739   1.504
  206SOL    HW1 1517   1.051   3.763   1.557
  206SOL    HW2 1518   0.888   3.757   1.559
  207SOL     OW 1519   0.331   2.932   4.298
  207SOL    HW1 1520   0.274   2.853   4.317
  207SOL    HW2 1521   0.275   3.006   4.260
  208SOL     OW 1522   1.723   3.210   4.906
  208SOL    HW1 1523   1.699   3.124   4.952
  208SOL    HW2 1524   1.683   3.212   4.815
  209SOL     OW 1525   5.707   4.255   2.373
  209SOL    HW1 1526   5.666   4.205   2.297
  209SOL    HW2 1527   5.637   4.310   2.419
  210SOL     OW 1528   4.531   4.427   1.264
  210SOL    HW1 1529   4.436   4.404   1.289
  210SOL    HW2 1530   4.587   4.433   1.347
  211SOL     OW 1531   1.800   1.181   1.939
  211SOL    HW1 1532   1.811   1.270   1.983
  211SOL    HW2 1533   1.761   1.193   1.847
  212SOL     OW 1534   2.561   4.531   1.855
  212SOL    HW1 1535   2.510   4.612   1.882
  212SOL    HW2 1536   2.659   4.549   1.859
  213SOL     OW 1537   1.007   5.811   1.302
  213SOL    HW1 1538   0.923   5.850   1.266
  213SOL    HW2 1539   1.024   5.723   1.258
  214SOL     OW 1540   5.557   6.516   2.122
  214SOL    HW1 1541   5.510   6.552   2.202
  214SOL    HW2 1542   5.628   6.580   2.093
  215SOL     OW 1543   2.411   4.931   2.828
  215SOL    HW1 1544   2.492   4.950   2.884
  215SOL    HW2 1545   2.329   4.933   2.886
  216SOL     OW 1546   1.730   5.796   2.936
  216SOL    HW1 1547   1.652   5.770   2.879
  216SOL    HW2 1548   1.811   5.808   2.879
  217SOL     OW 1549   6.983   4.271   4.404
  217SOL    HW1 1550   0.002   4.208   4.341
  217SOL    HW2 1551   6.935   4.218   4.474
  218SOL     OW 1552   3.526   3.080   5.963
  218SOL    HW1 1553   3.427   3.091   5.959
  218SOL    HW2 1554   3.567   3.123   5.882
  219SOL     OW 1555   5.281   2.033   1.197
  219SOL    HW1 1556   5.254   2.114   1.143
  219SOL    HW2 1557   5.321   2.063   1.284
  220SOL     OW 1558   2.255   6.984   0.474
  220SOL    HW1 1559   2.218   6.920   0.542
  220SOL    HW2 1560   2.332   0.007   0.514
  221SOL     OW 1561   5.039   4.315   1.795
  221SOL    HW1 1562   5.105   4.255   1.838
  221SOL    HW2 1563   4.949   4.302   1.836
  222SOL     OW 1564   1.048   4.200   6.311
  222SOL    HW1 1565   1.098   4.287   6.320
  222SOL    HW2 1566   1.100   4.127   6.354
  223SOL     OW 1567   6.035   1.766   5.534
  223SOL    HW1 1568   6.053   1.673   5.564
  223SOL    HW2 1569   6.010   1.823   5.612
  224SOL     OW 1570   3.994   2.937   5.668
  224SOL    HW1 1571   3.966   3.007   5.602
  224SOL    HW2 1572   3.914   2.888   5.701
  225SOL     OW 1573   4.050   6.233   6.346
  225SOL    HW1 1574   4.129   6.252   6.288
  225SOL    HW2 1575   3.995   6.161   6.304
  226SOL     OW 1576   1.662   2.163   0.603
  226SOL    HW1 1577   1.640   2.217   0.685
  226SOL    HW2 1578   1.728   2.214   0.547
  227SOL     OW 1579   1.141   3.534   1.720
  227SOL    HW1 1580   1.213   3.561   1.656
  227SOL    HW2 1581   1.077   3.472   1.674
  228SOL     OW 1582   0.808   6.895   2.631
  228SOL    HW1 1583   0.795   6.952   2.549
  228SOL    HW2 1584   0.885   6.834   2.617
  229SOL     OW 1585   4.130   1.001   6.130
  229SOL    HW1 1586   4.202   1.071   6.129
  229SOL    HW2 1587   4.159   0.922   6.076
  230SOL     OW 1588   5.714   3.407   5.719
  230SOL    HW1 1589   5.687   3.503   5.726
  230SOL    HW2 1590   5.634   3.351   5.698
  231SOL     OW 1591   4.857   1.601   0.512
  231SOL    HW1 1592   4.947   1.632   0.541
  231SOL    HW2 1593   4.827   1.524   0.569
  232SOL     OW 1594   1.657   2.955   5.058
  232SOL    HW1 1595   1.721   2.909   5.119
  232SOL    HW2 1596   1.621   2.890   4.992
  233SOL     OW 1597   3.272   1.680   3.544
  233SOL    HW1 1598   3.337   1.605   3.552
  233SOL    HW2 1599   3.307   1.747   3.479
  234SOL     OW 1600   5.656   5.927   0.261
  234SOL    HW1 1601   5.748   5.937   0.298
  234SOL    HW2 1602   5.662   5.913   0.162
  235SOL     OW 1603   5.011   3.295   2.712
  235SOL    HW1 1604   4.978   3.203   2.729
  235SOL    HW2 1605   4.950   3.362   2.755
  236SOL     OW 1606   3.893   3.161   5.887
  236SOL    HW1 1607   3.965   3.218   5.926
  236SOL    HW2 1608   3.898   3.069   5.926
  237SOL     OW 1609   5.916   3.523   3.263
  237SOL    HW1 1610   6.004   3.557   3.298
  237SOL    HW2 1611   5.842   3.581   3.296
  238SOL     OW 1612   6.306   2.157   0.751
  238SOL    HW1 1613   6.405   2.145   0.754
  238SOL    HW2 1614   6.273   2.138   0.658
  239SOL     OW 1615   1.585   3.374   0.436
  239SOL    HW1 1616   1.658   3.428   0.396
  239SOL    HW2 1617   1.544   3.315   0.366
  240SOL     OW 1618   4.923   3.334   4.251
  240SOL    HW1 1619   4.934   3.237   4.226
  240SOL    HW2 1620   4.927   3.343   4.350
  241SOL     OW 1621   1.997   2.581   3.832
  241SOL    HW1 1622   2.060   2.597   3.756
  241SOL    HW2 1623   2.007   2.654   3.900
  242SOL     OW 1624   4.015   3.325   2.005
  242SOL    HW1 1625   3.985   3.406   1.954
  242SOL    HW2 1626   4.092   3.282   1.958
  243SOL     OW 1627   4.783   3.173   6.218
  243SOL    HW1 1628   4.724   3.128   6.285
  243SOL    HW2 1629   4.790   3.117   6.136
  244SOL     OW 1630   4.931   3.423   4.895
  244SOL    HW1 1631   4.933   3.342   4.954
  244SOL    HW2 1632   4.860   3.486   4.927
  245SOL     OW 1633   3.044   0.741   3.032
  245SOL    HW1 1634   2.959   0.711   2.988
  245SOL    HW2 1635   3.084   0.666   3.085
  246SOL     OW 1636   6.824   1.363   2.302
  246SOL    HW1 1637   6.795   1.440   2.358
  246SOL    HW2 1638   6.892   1.309   2.351
  247SOL     OW 1639   2.313   0.299   1.877
  247SOL    HW1 1640   2.280   0.338   1.790
  247SOL    HW2 1641   2.413   0.296   1.877
  248SOL     OW 1642   3.266   3.474   1.379
  248SOL    HW1 1643   3.349   3.529   1.383
  248SOL    HW2 1644   3.191   3.529   1.343
  249SOL     OW 1645   4.571   6.204   5.928
  249SOL    HW1 1646   4.493   6.199   5.865
  249SOL    HW2 1647   4.580   6.117   5.976
  250SOL     OW 1648   4.098   2.373   6.923
  250SOL    HW1 1649   4.189   2.333   6.928
  250SOL    HW2 1650   4.033   2.306   6.886
  251SOL     OW 1651   4.225   5.148   4.646
  251SOL    HW1 1652   4.254   5.239   4.676
  251SOL    HW2 1653   4.126   5.140   4.654
  252SOL     OW 1654   6.131   6.051   5.422
  252SOL    HW1 1655   6.146   5.964   5.375
  252SOL    HW2 1656   6.113   6.122   5.354
  253SOL     OW 1657   4.470   5.435   5.653
  253SOL    HW1 1658   4.390   5.474   5.607
  253SOL    HW2 1659   4.445   5.348   5.695
  254SOL     OW 1660   6.885   2.304   5.703
  254SOL    HW1 1661   6.856   2.360   5.780
  254SOL    HW2 1662   6.985   2.300   5.700
  255SOL     OW 1663   1.523   5.262   6.548
  255SOL    HW1 1664   1.558   5.284   6.458
  255SOL    HW2 1665   1.464   5.336   6.580
  256SOL     OW 1666   4.938   1.939   5.408
  256SOL    HW1 1667   4.855   1.973   5.452
  256SOL    HW2 1668   5.004   2.014   5.399
  257SOL     OW 1669   5.042   6.810   2.229
  257SOL    HW1 1670   4.975   6.741   2.256
  257SOL    HW2 1671   5.098   6.835   2.308
  258SOL     OW 1672   2.165   3.171   6.273
  258SOL    HW1 1673   2.258   3.184   6.307
  258SOL    HW2 1674   2.167   3.122   6.186
  259SOL     OW 1675   3.232   0.423   3.964
  259SOL    HW1 1676   3.237   0.523   3.960
  259SOL    HW2 1677   3.137   0.394   3.952
  260SOL     OW 1678   3.927   5.421   3.134
  260SOL    HW1 1679   3.966   5.331   3.117
  260SOL    HW2 1680   3.830   5.413   3.155
  261SOL     OW 1681   3.647   4.896   6.511
  261SOL    HW1 1682   3.605   4.883   6.421
  261SOL    HW2 1683   3.713   4.822   6.527
  262SOL     OW 1684   0.801   3.364   6.149
  262SOL    HW1 1685   0.721   3.338   6.096
  262SOL    HW2 1686   0.872   3.398   6.088
  263SOL     OW 1687   1.933   0.294   3.376
  263SOL    HW1 1688   1.930   0.239   3.293
  263SOL    HW2 1689   2.028   0.320   3.395
  264SOL     OW 1690   6.551   3.399   6.288
  264SOL    HW1 1691   6.613   3.378   6.212
  264SOL    HW2 1692   6.577   3.487   6.329
  265SOL     OW 1693   6.742   0.394   2.868
  265SOL    HW1 1694   6.708   0.322   2.807
  265SOL    HW2 1695   6.774   0.354   2.953
  266SOL     OW 1696   2.883   0.621   5.631
  266SOL    HW1 1697   2.889   0.555   5.556
  266SOL    HW2 1698   2.848   0.708   5.596
  267SOL     OW 1699   2.367   6.943   2.144
  267SOL    HW1 1700   2.270   6.920   2.154
  267SOL    HW2 1701   2.376   0.014   2.121
  268SOL     OW 1702   4.152   2.288   0.392
  268SOL    HW1 1703   4.103   2.369   0.359
  268SOL    HW2 1704   4.144   2.283   0.492
  269SOL     OW 1705   5.651   2.058   6.845
  269SOL    HW1 1706   5.633   1.996   6.922
  269SOL    HW2 1707   5.596   2.030   6.766
  270SOL     OW 1708   5.566   1.304   0.642
  270SOL    HW1 1709   5.605   1.330   0.730
  270SOL    HW2 1710   5.634   1.318   0.570
  271SOL     OW 1711   0.629   5.283   6.641
  271SOL    HW1 1712   0.608   5.343   6.718
  271SOL    HW2 1713   0.594   5.191   6.660
  272SOL     OW 1714   3.475   5.814   3.241
  272SOL    HW1 1715   3.405   5.759   3.196
  272SOL    HW2 1716   3.542   5.754   3.284
  273SOL     OW 1717   1.424   5.814   6.117
  273SOL    HW1 1718   1.403   5.719   6.095
  273SOL    HW2 1719   1.510   5.818   6.168
  274SOL     OW 1720   4.464   1.474   3.533
  274SOL    HW1 1721   4.508   1.463   3.622
  274SOL    HW2 1722   4.465   1.571   3.506
  275SOL     OW 1723   5.974   0.881   1.107
  275SOL    HW1 1724   5.878   0.900   1.129
  275SOL    HW2 1725   6.033   0.941   1.162
  276SOL     OW 1726   0.554   6.392   3.895
  276SOL    HW1 1727   0.530   6.489   3.898
  276SOL    HW2 1728   0.640   6.377   3.945
  277SOL     OW 1729   2.194   4.763   1.347
  277SOL    HW1 1730   2.124   4.717   1.292
  277SOL    HW2 1731   2.185   4.736   1.443
  278SOL     OW 1732   1.194   3.123   3.931
  278SOL    HW1 1733   1.112   3.068   3.917
  278SOL    HW2 1734   1.169   3.220   3.935
  279SOL     OW 1735   6.135   1.333   3.464
  279SOL    HW1 1736   6.151   1.277   3.546
  279SOL    HW2 1737   6.185   1.295   3.387
  280SOL     OW 1738   1.888   5.277   2.216
  280SOL    HW1 1739   1.924   5.243   2.130
  280SOL    HW2 1740   1.847   5.201   2.267
  281SOL     OW 1741   2.232   4.557   1.067
  281SOL    HW1 1742   2.314   4.499   1.062
  281SOL    HW2 1743   2.167   4.517   1.132
  282SOL     OW 1744   1.714   1.483   4.884
  282SOL    HW1 1745   1.718   1.580   4.906
  282SOL    HW2 1746   1.794   1.436   4.921
  283SOL     OW 1747   2.644   2.830   6.853
  283SOL    HW1 1748   2.625   2.924   6.825
  283SOL    HW2 1749   2.653   2.771   6.773
  284SOL     OW 1750   0.350   3.875   3.720
  284SOL    HW1 1751   0.263   3.852   3.763
  284SOL    HW2 1752   0.334   3.939   3.644
  285SOL     OW 1753   5.328   3.911   4.053
  285SOL    HW1 1754   5.329   3.979   4.127
  285SOL    HW2 1755   5.256   3.935   3.988
  286SOL     OW 1756   2.744   3.844   1.373
  286SOL    HW1 1757   2.674   3.909   1.343
  286SOL    HW2 1758   2.722   3.812   1.465
  287SOL     OW 1759   0.263   3.356   6.913
  287SOL    HW1 1760   0.172   3.317   6.923
  287SOL    HW2 1761   0.293   3.394   7.000
  288SOL     OW 1762   5.557   3.603   2.213
  288SOL    HW1 1763   5.513   3.565   2.295
  288SOL    HW2 1764   5.653   3.620   2.232
  289SOL     OW 1765   3.779   5.935   6.624
  289SOL    HW1 1766   3.718   5.919   6.701
  289SOL    HW2 1767   3.726   5.965   6.545
  290SOL     OW 1768   1.595   0.578   4.928
  290SOL    HW1 1769   1.592   0.548   4.833
  290SOL    HW2 1770   1.503   0.579   4.966
  291SOL     OW 1771   6.775   1.154   3.111
  291SOL    HW1 1772   6.851   1.115   3.162
  291SOL    HW2 1773   6.728   1.082   3.060
  292SOL     OW 1774   3.608   6.690   3.669
  292SOL    HW1 1775   3.610   6.592   3.687
  292SOL    HW2 1776   3.579   6.739   3.752
  293SOL     OW 1777   3.423   4.910   2.995
  293SOL    HW1 1778   3.390   4.851   3.068
  293SOL    HW2 1779   3.466   4.855   2.924
  294SOL     OW 1780   4.955   0.464   0.411
  294SOL    HW1 1781   4.977   0.427   0.321
  294SOL    HW2 1782   4.856   0.461   0.426
  295SOL     OW 1783   6.011   0.609   4.709
  295SOL    HW1 1784   5.948   0.550   4.760
  295SOL    HW2 1785   6.012   0.580   4.613
  296SOL     OW 1786   2.387   2.119   2.985
  296SOL    HW1 1787   2.432   2.107   2.897
  296SOL    HW2 1788   2.386   2.215   3.010
  297SOL     OW 1789   1.814   4.716   1.980
  297SOL    HW1 1790   1.905   4.717   2.023
  297SOL    HW2 1791   1.825   4.704   1.881
  298SOL     OW 1792   6.292   5.194   0.607
  298SOL    HW1 1793   6.242   5.182   0.693
  298SOL    HW2 1794   6.253   5.133   0.538
  299SOL     OW 1795   5.477   2.759   3.595
  299SOL    HW1 1796   5.519   2.826   3.657
  299SOL    HW2 1797   5.389   2.793   3.564
  300SOL     OW 1798   6.067   0.013   1.703
  300SOL    HW1 1799   6.097   6.995   1.787
  300SOL    HW2 1800   6.042   0.108   1.723
  301SOL     OW 1801   5.527   2.685   5.869
  301SOL    HW1 1802   5.503   2.718   5.777
  301SOL    HW2 1803   5.516   2.585   5.872
  302SOL     OW 1804   1.421   5.527   4.947
  302SOL    HW1 1805   1.518   5.546   4.960
  302SOL    HW2 1806   1.372   5.612   4.932
  303SOL     OW 1807   6.409   0.282   3.311
  303SOL    HW1 1808   6.328   0.315   3.263
  303SOL    HW2 1809   6.463   0.224   3.250
  304SOL     OW 1810   4.061   0.657   4.272
  304SOL    HW1 1811   3.969   0.662   4.234
  304SOL    HW2 1812   4.081   0.743   4.320
  305SOL     OW 1813   1.289   3.670   0.290
  305SOL    HW1 1814   1.324   3.664   0.383
  305SOL    HW2 1815   1.363   3.691   0.227
  306SOL     OW 1816   1.425   1.275   3.123
  306SOL    HW1 1817   1.339   1.225   3.110
  306SOL    HW2 1818   1.494   1.240   3.060
  307SOL     OW 1819   2.890   0.300   1.120
  307SOL    HW1 1820   2.988   0.278   1.121
  307SOL    HW2 1821   2.861   0.329   1.211
  308SOL     OW 1822   0.849   4.986   4.146
  308SOL    HW1 1823   0.779   4.932   4.194
  308SOL    HW2 1824   0.913   5.023   4.214
  309SOL     OW 1825   3.749   4.786   5.329
  309SOL    HW1 1826   3.847   4.769   5.328
  309SOL    HW2 1827   3.700   4.700   5.338
  310SOL     OW 1828   1.215   5.901   6.771
  310SOL    HW1 1829   1.236   5.934   6.863
  310SOL    HW2 1830   1.210   5.801   6.772
  311SOL     OW 1831   6.520   0.871   1.171
  311SOL    HW1 1832   6.511   0.838   1.265
  311SOL    HW2 1833   6.497   0.797   1.108
  312SOL     OW 1834   3.687   1.366   6.646
  312SOL    HW1 1835   3.689   1.465   6.657
  312SOL    HW2 1836   3.631   1.342   6.567
  313SOL     OW 1837   6.781   5.087   1.235
  313SOL    HW1 1838   6.719   5.010   1.250
  313SOL    HW2 1839   6.763   5.127   1.145
  314SOL     OW 1840   3.617   6.312   2.747
  314SOL    HW1 1841   3.701   6.326   2.695
  314SOL    HW2 1842   3.632   6.243   2.818
  315SOL     OW 1843   0.458   4.020   3.300
  315SOL    HW1 1844   0.484   4.064   3.386
  315SOL    HW2 1845   0.402   3.939   3.321
  316SOL     OW 1846   2.158   3.146   4.068
  316SOL    HW1 1847   2.185   3.166   4.162
  316SOL    HW2 1848   2.063   3.114   4.067
  317SOL     OW 1849   6.792   1.421   0.779
  317SOL    HW1 1850   6.873   1.380   0.820
  317SOL    HW2 1851   6.725   1.350   0.759
  318SOL     OW 1852   2.388   4.140   0.485
  318SOL    HW1 1853   2.471   4.193   0.502
  318SOL    HW2 1854   2.411   4.053   0.442
  319SOL     OW 1855   0.328   1.670   6.141
  319SOL    HW1 1856   0.374   1.705   6.223
  319SOL    HW2 1857   0.389   1.606   6.093
  320SOL     OW 1858   5.911   3.576   2.991
  320SOL    HW1 1859   5.920   3.555   3.088
  320SOL    HW2 1860   5.817   3.560   2.961
  321SOL     OW 1861   2.041   1.394   2.057
  321SOL    HW1 1862   1.944   1.399   2.082
  321SOL    HW2 1863   2.095   1.370   2.138
  322SOL     OW 1864   3.875   3.193   5.583
  322SOL    HW1 1865   3.885   3.189   5.682
  322SOL    HW2 1866   3.896   3.285   5.551
  323SOL     OW 1867   1.453   4.360   2.712
  323SOL    HW1 1868   1.510   4.437   2.684
  323SOL    HW2 1869   1.507   4.297   2.768
  324SOL     OW 1870   0.320   2.629   4.122
  324SOL    HW1 1871   0.384   2.573   4.069
  324SOL    HW2 1872   0.241   2.651   4.065
  325SOL     OW 1873   2.188   1.539   2.460
  325SOL    HW1 1874   2.285   1.563   2.474
  325SOL    HW2 1875   2.139   1.549   2.547
  326SOL     OW 1876   2.137   3.707   4.523
  326SOL    HW1 1877   2.216   3.751   4.567
  326SOL    HW2 1878   2.142   3.722   4.424
  327SOL     OW 1879   6.104   4.218   6.091
  327SOL    HW1 1880   6.101   4.146   6.160
  327SOL    HW2 1881   6.189   4.211   6.039
  328SOL     OW 1882   3.647   5.593   3.333
  328SOL    HW1 1883   3.612   5.564   3.422
  328SOL    HW2 1884   3.655   5.514   3.273
  329SOL     OW 1885   3.308   4.093   1.651
  329SOL    HW1 1886   3.336   4.098   1.747
  329SOL    HW2 1887   3.223   4.042   1.644
  330SOL     OW 1888   2.810   2.222   0.978
  330SOL    HW1 1889   2.752   2.264   1.048
  330SOL    HW2 1890   2.790   2.124   0.974
  331SOL     OW 1891   6.644   3.849   5.227
  331SOL    HW1 1892   6.545   3.858   5.210
  331SOL    HW2 1893   6.665   3.754   5.249
  332SOL     OW 1894   4.093   1.854   3.220
  332SOL    HW1 1895   3.994   1.845   3.212
  332SOL    HW2 1896   4.131   1.772   3.264
  333SOL     OW 1897   4.354   6.421   0.541
  333SOL    HW1 1898   4.370   6.384   0.633
  333SOL    HW2 1899   4.279   6.486   0.543
  334SOL     OW 1900   4.859   6.973   2.579
  334SOL    HW1 1901   4.790   7.016   2.520
  334SOL    HW2 1902   4.840   6.995   2.674
  335SOL     OW 1903   3.280   0.302   2.040
  335SOL    HW1 1904   3.189   0.268   2.064
  335SOL    HW2 1905   3.318   0.353   2.117
  336SOL     OW 1906   3.712   0.952   4.709
  336SOL    HW1 1907   3.730   0.905   4.795
  336SOL    HW2 1908   3.698   1.050   4.727
  337SOL     OW 1909   1.063   3.642   2.436
  337SOL    HW1 1910   1.111   3.594   2.509
  337SOL    HW2 1911   1.067   3.741   2.453
  338SOL     OW 1912   2.451   2.521   1.136
  338SOL    HW1 1913   2.418   2.606   1.095
  338SOL    HW2 1914   2.529   2.540   1.194
  339SOL     OW 1915   4.690   0.538   2.772
  339SOL    HW1 1916   4.605   0.527   2.823
  339SOL    HW2 1917   4.671   0.578   2.682
  340SOL     OW 1918   5.267   3.475   4.565
  340SOL    HW1 1919   5.265   3.451   4.467
  340SOL    HW2 1920   5.362   3.490   4.593
  341SOL     OW 1921   4.015   4.366   5.483
  341SOL    HW1 1922   4.023   4.291   5.418
  341SOL    HW2 1923   3.980   4.448   5.436
  342SOL     OW 1924   5.814   3.494   1.126
  342SOL    HW1 1925   5.821   3.401   1.091
  342SOL    HW2 1926   5.770   3.553   1.058
  343SOL     OW 1927   2.104   0.228   2.387
  343SOL    HW1 1928   2.080   0.317   2.425
  343SOL    HW2 1929   2.165   0.180   2.450
  344SOL     OW 1930   4.710   6.801   0.390
  344SOL    HW1 1931   4.651   6.766   0.317
  344SOL    HW2 1932   4.784   6.855   0.350
  345SOL     OW 1933   1.263   0.936   4.966
  345SOL    HW1 1934   1.325   0.976   4.899
  345SOL    HW2 1935   1.168   0.957   4.941
  346SOL     OW 1936   2.056   0.569   5.006
  346SOL    HW1 1937   1.968   0.589   5.049
  346SOL    HW2 1938   2.080   0.473   5.022
  347SOL     OW 1939   5.304   5.534   5.820
  347SOL    HW1 1940   5.389   5.557   5.867
  347SOL    HW2 1941   5.232   5.597   5.848
  348SOL     OW 1942   2.656   6.704   3.897
  348SOL    HW1 1943   2.702   6.700   3.808
  348SOL    HW2 1944   2.607   6.790   3.905
  349SOL     OW 1945   2.549   5.074   1.709
  349SOL    HW1 1946   2.601   5.132   1.647
  349SOL    HW2 1947   2.612   5.020   1.764
  350SOL     OW 1948   5.060   3.246   1.730
  350SOL    HW1 1949   5.037   3.254   1.633
  350SOL    HW2 1950   5.145   3.297   1.747
  351SOL     OW 1951   3.172   1.930   0.379
  351SOL    HW1 1952   3.182   1.980   0.294
  351SOL    HW2 1953   3.079   1.944   0.415
  352SOL     OW 1954   3.066   1.750   6.481
  352SOL    HW1 1955   3.018   1.786   6.401
  352SOL    HW2 1956   3.051   1.651   6.488
  353SOL     OW 1957   1.686   6.226   1.389
  353SOL    HW1 1958   1.600   6.267   1.359
  353SOL    HW2 1959   1.731   6.183   1.310
  354SOL     OW 1960   5.426   0.092   2.569
  354SOL    HW1 1961   5.481   0.078   2.652
  354SOL    HW2 1962   5.343   0.037   2.575
  355SOL     OW 1963   0.777   0.885   2.485
  355SOL    HW1 1964   0.783   0.931   2.397
  355SOL    HW2 1965   0.681   0.863   2.505
  356SOL     OW 1966   2.773   7.016   2.994
  356SOL    HW1 1967   2.701   7.023   3.063
  356SOL    HW2 1968   2.799   6.920   2.982
  357SOL     OW 1969   1.284   4.623   4.271
  357SOL    HW1 1970   1.357   4.603   4.206
  357SOL    HW2 1971   1.201   4.575   4.244
  358SOL     OW 1972   4.871   0.765   3.193
  358SOL    HW1 1973   4.867   0.675   3.149
  358SOL    HW2 1974   4.852   0.836   3.126
  359SOL     OW 1975   0.708   1.869   0.351
  359SOL    HW1 1976   0.805   1.889   0.336
  359SOL    HW2 1977   0.682   1.787   0.299
  360SOL     OW 1978   5.545   6.768   6.577
  360SOL    HW1 1979   5.471   6.786   6.512
  360SOL    HW2 1980   5.531   6.678   6.618
  361SOL     OW 1981   2.831   0.131   2.268
  361SOL    HW1 1982   2.896   0.202   2.242
  361SOL    HW2 1983   2.738   0.167   2.260
  362SOL     OW 1984   2.801   3.453   0.199
  362SOL    HW1 1985   2.834   3.546   0.217
  362SOL    HW2 1986   2.801   3.400   0.284
  363SOL     OW 1987   4.777   4.641   4.248
  363SOL    HW1 1988   4.684   4.606   4.242
  363SOL    HW2 1989   4.817   4.647   4.157
  364SOL     OW 1990   2.738   5.851   6.274
  364SOL    HW1 1991   2.648   5.883   6.246
  364SOL    HW2 1992   2.804   5.867   6.200
  365SOL     OW 1993   5.040   6.377   2.742
  365SOL    HW1 1994   4.998   6.390   2.653
  365SOL    HW2 1995   5.055   6.465   2.786
  366SOL     OW 1996   5.360   1.532   0.554
  366SOL    HW1 1997   5.407   1.457   0.508
  366SOL    HW2 1998   5.386   1.533   0.650
  367SOL     OW 1999   0.151   2.377   2.681
  367SOL    HW1 2000   0.139   2.452   2.746
  367SOL    HW2 2001   0.153   2.413   2.588
  368SOL     OW 2002   6.877   4.912   4.391
  368SOL    HW1 2003   6.879   4.825   4.341
  368SOL    HW2 2004   6.786   4.925   4.432
  369SOL     OW 2005   0.877   3.555   2.265
  369SOL    HW1 2006   0.791   3.561   2.316
  369SOL    HW2 2007   0.953   3.580   2.325
  370SOL     OW 2008   3.775   2.050   6.593
  370SOL    HW1 2009   3.694   1.995   6.612
  370SOL    HW2 2010   3.830   2.005   6.524
  371SOL     OW 2011   3.429   2.249   6.004
  371SOL    HW1 2012   3.464   2.228   6.095
  371SOL    HW2 2013   3.483   2.201   5.935
  372SOL     OW 2014   2.513   5.718   0.051
  372SOL    HW1 2015   2.522   5.622   0.075
  372SOL    HW2 2016   2.534   5.775   0.131
  373SOL     OW 2017   6.477   0.097   6.915
  373SOL    HW1 2018   6.538   0.094   6.836
  373SOL    HW2 2019   6.390   0.055   6.892
  374SOL     OW 2020   5.035   0.924   0.686
  374SOL    HW1 2021   5.010   0.945   0.592
  374SOL    HW2 2022   5.059   0.827   0.693
  375SOL     OW 2023   6.642   3.704   2.709
  375SOL    HW1 2024   6.644   3.709   2.609
  375SOL    HW2 2025   6.724   3.656   2.741
  376SOL     OW 2026   2.547   4.252   5.275
  376SOL    HW1 2027   2.477   4.322   5.263
  376SOL    HW2 2028   2.516   4.166   5.234
  377SOL     OW 2029   4.524   0.648   3.473
  377SOL    HW1 2030   4.478   0.644   3.384
  377SOL    HW2 2031   4.600   0.713   3.468
  378SOL     OW 2032   6.136   2.240   5.941
  378SOL    HW1 2033   6.085   2.308   5.993
  378SOL    HW2 2034   6.174   2.283   5.859
  379SOL     OW 2035   6.535   2.458   0.899
  379SOL    HW1 2036   6.529   2.416   0.990
  379SOL    HW2 2037   6.445   2.455   0.855
  380SOL     OW 2038   6.757   2.275   6.858
  380SOL    HW1 2039   6.715   2.365   6.866
  380SOL    HW2 2040   6.712   2.211   6.920
  381SOL     OW 2041   4.503   4.771   6.616
  381SOL    HW1 2042   4.486   4.841   6.546
  381SOL    HW2 2043   4.598   4.778   6.647
  382SOL     OW 2044   1.642   5.225   6.886
  382SOL    HW1 2045   1.645   5.171   6.801
  382SOL    HW2 2046   1.648   5.322   6.863
  383SOL     OW 2047   5.857   2.012   0.164
  383SOL    HW1 2048   5.867   1.954   0.084
  383SOL    HW2 2049   5.783   2.078   0.149
  384SOL     OW 2050   1.548   5.312   4.827
  384SOL    HW1 2051   1.581   5.342   4.737
  384SOL    HW2 2052   1.496   5.386   4.869
  385SOL     OW 2053   4.652   4.472   0.606
  385SOL    HW1 2054   4.624   4.535   0.678
  385SOL    HW2 2055   4.738   4.503   0.566
  386SOL     OW 2056   2.949   5.908   4.025
  386SOL    HW1 2057   2.980   5.868   4.112
  386SOL    HW2 2058   2.853   5.935   4.034
  387SOL     OW 2059   0.428   0.492   5.738
  387SOL    HW1 2060   0.346   0.545   5.762
  387SOL    HW2 2061   0.410   0.440   5.654
  388SOL     OW 2062   0.213   1.798   4.678
  388SOL    HW1 2063   0.251   1.806   4.770
  388SOL    HW2 2064   0.274   1.842   4.612
  389SOL     OW 2065   5.110   4.235   2.622
  389SOL    HW1 2066   5.116   4.329   2.588
  389SOL    HW2 2067   5.023   4.221   2.669
  390SOL     OW 2068   3.090   2.851   6.765
  390SOL    HW1 2069   3.009   2.909   6.777
  390SOL    HW2 2070   3.095   2.822   6.669
  391SOL     OW 2071   3.791   4.078   3.400
  391SOL    HW1 2072   3.709   4.053   3.452
  391SOL    HW2 2073   3.782   4.172   3.368
  392SOL     OW 2074   1.913   2.954   1.727
  392SOL    HW1 2075   1.836   2.915   1.676
  392SOL    HW2 2076   1.960   2.882   1.778
  393SOL     OW 2077   1.338   6.378   0.619
  393SOL    HW1 2078   1.362   6.297   0.675
  393SOL    HW2 2079   1.239   6.385   0.611
  394SOL     OW 2080   6.139   2.414   6.745
  394SOL    HW1 2081   6.224   2.460   6.772
  394SOL    HW2 2082   6.119   2.435   6.649
  395SOL     OW 2083   7.019   6.042   6.730
  395SOL    HW1 2084   0.021   5.960   6.780
  395SOL    HW2 2085   0.072   6.081   6.684
  396SOL     OW 2086   0.486   0.982   1.457
  396SOL    HW1 2087   0.534   1.032   1.529
  396SOL    HW2 2088   0.405   1.033   1.429
  397SOL     OW 2089   4.879   2.080   4.886
  397SOL    HW1 2090   4.875   2.178   4.864
  397SOL    HW2 2091   4.890   2.028   4.802
  398SOL     OW 2092   0.286   1.611   3.491
  398SOL    HW1 2093   0.207   1.553   3.513
  398SOL    HW2 2094   0.350   1.559   3.434
  399SOL     OW 2095   5.384   5.057   5.231
  399SOL    HW1 2096   5.298   5.086   5.274
  399SOL    HW2 2097   5.366   5.030   5.137
  400SOL     OW 2098   6.699   6.310   3.542
  400SOL    HW1 2099   6.726   6.258   3.461
  400SOL    HW2 2100   6.733   6.404   3.535
  401SOL     OW 2101   0.975   5.885   4.052
  401SOL    HW1 2102   1.028   5.811   4.092
  401SOL    HW2 2103   1.034   5.966   4.041
  402SOL     OW 2104   6.728   0.606   4.967
  402SOL    HW1 2105   6.657   0.606   4.897
  402SOL    HW2 2106   6.817   0.588   4.924
  403SOL     OW 2107   2.640   1.555   5.057
  403SOL    HW1 2108   2.593   1.643   5.064
  403SOL    HW2 2109   2.730   1.561   5.100
  404SOL     OW 2110   3.936   5.686   3.469
  404SOL    HW1 2111   4.012   5.750   3.455
  404SOL    HW2 2112   3.928   5.626   3.389
  405SOL     OW 2113   3.564   4.916   3.638
  405SOL    HW1 2114   3.575   4.959   3.727
  405SOL    HW2 2115   3.652   4.883   3.605
  406SOL     OW 2116   1.309   0.457   0.654
  406SOL    HW1 2117   1.348   0.453   0.746
  406SOL    HW2 2118   1.383   0.468   0.587
  407SOL     OW 2119   2.259   4.234   3.922
  407SOL    HW1 2120   2.246   4.135   3.935
  407SOL    HW2 2121   2.274   4.253   3.825
  408SOL     OW 2122   3.100   1.781   1.925
  408SOL    HW1 2123   3.098   1.879   1.905
  408SOL    HW2 2124   3.007   1.751   1.948
  409SOL     OW 2125   0.376   2.192   2.162
  409SOL    HW1 2126   0.468   2.159   2.142
  409SOL    HW2 2127   0.354   2.270   2.103
  410SOL     OW 2128   1.555   3.676   1.842
  410SOL    HW1 2129   1.469   3.699   1.796
  410SOL    HW2 2130   1.555   3.578   1.865
  411SOL     OW 2131   6.636   1.356   1.990
  411SOL    HW1 2132   6.633   1.285   2.060
  411SOL    HW2 2133   6.664   1.442   2.031
  412SOL     OW 2134   2.738   4.685   3.317
  412SOL    HW1 2135   2.680   4.628   3.376
  412SOL    HW2 2136   2.781   4.628   3.248
  413SOL     OW 2137   6.700   4.484   3.237
  413SOL    HW1 2138   6.760   4.554   3.198
  413SOL    HW2 2139   6.670   4.422   3.166
  414SOL     OW 2140   1.859   0.428   2.479
  414SOL    HW1 2141   1.827   0.342   2.517
  414SOL    HW2 2142   1.867   0.420   2.379
  415SOL     OW 2143   5.880   3.090   1.998
  415SOL    HW1 2144   5.914   3.101   2.091
  415SOL    HW2 2145   5.921   3.161   1.940
  416SOL     OW 2146   6.592   3.681   6.306
  416SOL    HW1 2147   6.650   3.715   6.380
  416SOL    HW2 2148   6.604   3.739   6.225
  417SOL     OW 2149   2.917   2.131   6.132
  417SOL    HW1 2150   2.827   2.116   6.091
  417SOL    HW2 2151   2.983   2.155   6.060
  418SOL     OW 2152   4.130   5.506   6.430
  418SOL    HW1 2153   4.229   5.509   6.442
  418SOL    HW2 2154   4.088   5.454   6.505
  419SOL     OW 2155   5.477   6.812   0.599
  419SOL    HW1 2156   5.406   6.809   0.529
  419SOL    HW2 2157   5.443   6.864   0.678
  420SOL     OW 2158   3.043   6.174   0.677
  420SOL    HW1 2159   2.985   6.126   0.611
  420SOL    HW2 2160   3.105   6.236   0.628
  421SOL     OW 2161   5.237   4.641   3.670
  421SOL    HW1 2162   5.277   4.613   3.757
  421SOL    HW2 2163   5.292   4.605   3.595
  422SOL     OW 2164   4.218   1.441   2.378
  422SOL    HW1 2165   4.183   1.463   2.287
  422SOL    HW2 2166   4.141   1.423   2.439
  423SOL     OW 2167   2.661   1.009   6.835
  423SOL    HW1 2168   2.602   0.979   6.761
  423SOL    HW2 2169   2.615   0.995   6.923
  424SOL     OW 2170   1.928   5.128   3.864
  424SOL    HW1 2171   1.967   5.124   3.772
  424SOL    HW2 2172   1.898   5.037   3.892
  425SOL     OW 2173   3.146   1.218   6.776
  425SOL    HW1 2174   3.065   1.163   6.757
  425SOL    HW2 2175   3.210   1.165   6.832
  426SOL     OW 2176   2.248   2.865   3.465
  426SOL    HW1 2177   2.222   2.881   3.369
  426SOL    HW2 2178   2.260   2.953   3.511
  427SOL     OW 2179   5.087   0.823   5.228
  427SOL    HW1 2180   5.087   0.727   5.256
  427SOL    HW2 2181   5.100   0.882   5.307
  428SOL     OW 2182   2.419   1.227   6.035
  428SOL    HW1 2183   2.443   1.164   5.961
  428SOL    HW2 2184   2.399   1.174   6.117
  429SOL     OW 2185   6.995   6.664   3.813
  429SOL    HW1 2186   0.040   6.725   3.779
  429SOL    HW2 2187   6.989   6.672   3.913
  430SOL     OW 2188   1.748   1.309   4.109
  430SOL    HW1 2189   1.830   1.357   4.138
  430SOL    HW2 2190   1.725   1.334   4.015
  431SOL     OW 2191   2.562   0.420   1.293
  431SOL    HW1 2192   2.545   0.398   1.197
  431SOL    HW2 2193   2.617   0.347   1.334
  432SOL     OW 2194   6.323   1.851   2.312
  432SOL    HW1 2195   6.269   1.768   2.297
  432SOL    HW2 2196   6.325   1.873   2.409
  433SOL     OW 2197   1.394   3.432   6.627
  433SOL    HW1 2198   1.384   3.340   6.591
  433SOL    HW2 2199   1.363   3.435   6.722
  434SOL     OW 2200   4.164   6.289   2.584
  434SOL    HW1 2201   4.127   6.231   2.656
  434SOL    HW2 2202   4.239   6.243   2.537
  435SOL     OW 2203   2.118   1.964   6.191
  435SOL    HW1 2204   2.114   1.991   6.287
  435SOL    HW2 2205   2.202   1.911   6.175
  436SOL     OW 2206   5.596   6.023   2.612
  436SOL    HW1 2207   5.679   6.058   2.568
  436SOL    HW2 2208   5.536   6.100   2.636
  437SOL     OW 2209   6.622   1.697   6.207
  437SOL    HW1 2210   6.639   1.618   6.267
  437SOL    HW2 2211   6.627   1.781   6.262
  438SOL     OW 2212   0.575   2.875   1.534
  438SOL    HW1 2213   0.645   2.945   1.529
  438SOL    HW2 2214   0.589   2.820   1.617
  439SOL     OW 2215   0.639   1.367   6.293
  439SOL    HW1 2216   0.607   1.323   6.210
  439SOL    HW2 2217   0.641   1.466   6.280
  440SOL     OW 2218   3.111   1.710   1.621
  440SOL    HW1 2219   3.201   1.752   1.611
  440SOL    HW2 2220   3.043   1.780   1.640
  441SOL     OW 2221   1.275   4.276   2.908
  441SOL    HW1 2222   1.248   4.189   2.868
  441SOL    HW2 2223   1.350   4.315   2.856
  442SOL     OW 2224   3.335   3.291   4.453
  442SOL    HW1 2225   3.421   3.289   4.404
  442SOL    HW2 2226   3.264   3.333   4.396
  443SOL     OW 2227   5.502   2.915   2.467
  443SOL    HW1 2228   5.474   2.904   2.371
  443SOL    HW2 2229   5.523   3.011   2.485
  444SOL     OW 2230   4.046   2.042   1.285
  444SOL    HW1 2231   4.028   2.061   1.382
  444SOL    HW2 2232   4.079   2.124   1.241
  445SOL     OW 2233   2.817   6.315   3.941
  445SOL    HW1 2234   2.731   6.366   3.948
  445SOL    HW2 2235   2.829   6.258   4.022
  446SOL     OW 2236   6.630   0.223   0.060
  446SOL    HW1 2237   6.709   0.238   0.001
  446SOL    HW2 2238   6.562   0.169   0.011
  447SOL     OW 2239   5.962   3.366   0.259
  447SOL    HW1 2240   5.863   3.366   0.273
  447SOL    HW2 2241   6.008   3.401   0.340
  448SOL     OW 2242   3.644   0.001   5.038
  448SOL    HW1 2243   3.658   6.931   5.017
  448SOL    HW2 2244   3.561   0.011   5.093
  449SOL     OW 2245   1.104   4.778   4.783
  449SOL    HW1 2246   1.010   4.749   4.763
  449SOL    HW2 2247   1.167   4.725   4.727
  450SOL     OW 2248   6.515   3.508   4.776
  450SOL    HW1 2249   6.508   3.409   4.761
  450SOL    HW2 2250   6.517   3.526   4.875
  451SOL     OW 2251   3.008   1.450   6.419
  451SOL    HW1 2252   2.929   1.407   6.376
  451SOL    HW2 2253   3.072   1.380   6.451
  452SOL     OW 2254   4.187   4.871   0.476
  452SOL    HW1 2255   4.273   4.822   0.461
  452SOL    HW2 2256   4.184   4.951   0.416
  453SOL     OW 2257   4.472   0.698   0.011
  453SOL    HW1 2258   4.395   0.647   7.000
  453SOL    HW2 2259   4.443   0.791   0.033
  454SOL     OW 2260   0.441   2.564   3.592
  454SOL    HW1 2261   0.473   2.615   3.512
  454SOL    HW2 2262   0.477   2.471   3.588
  455SOL     OW 2263   5.957   5.868   0.032
  455SOL    HW1 2264   5.892   5.796   0.011
  455SOL    HW2 2265   6.000   5.901   6.975
  456SOL     OW 2266   0.963   1.179   2.491
  456SOL    HW1 2267   0.995   1.095   2.534
  456SOL    HW2 2268   0.912   1.157   2.408
  457SOL     OW 2269   3.063   5.594   0.405
  457SOL    HW1 2270   3.023   5.557   0.489
  457SOL    HW2 2271   3.148   5.546   0.385
  458SOL     OW 2272   3.531   1.307   4.593
  458SOL    HW1 2273   3.496   1.274   4.680
  458SOL    HW2 2274   3.484   1.391   4.567
  459SOL     OW 2275   3.868   0.783   3.808
  459SOL    HW1 2276   3.840   0.877   3.826
  459SOL    HW2 2277   3.965   0.782   3.782
  460SOL     OW 2278   0.699   1.625   6.256
  460SOL    HW1 2279   0.780   1.605   6.200
  460SOL    HW2 2280   0.728   1.664   6.343
  461SOL     OW 2281   0.731   0.503   4.884
  461SOL    HW1 2282   0.676   0.420   4.897
  461SOL    HW2 2283   0.728   0.558   4.967
  462SOL     OW 2284   3.716   3.938   5.237
  462SOL    HW1 2285   3.806   3.901   5.261
  462SOL    HW2 2286   3.650   3.911   5.307
  463SOL     OW 2287   5.590   6.218   2.957
  463SOL    HW1 2288   5.571   6.251   2.865
  463SOL    HW2 2289   5.527   6.144   2.980
  464SOL     OW 2290   4.722   5.978   5.155
  464SOL    HW1 2291   4.750   5.882   5.159
  464SOL    HW2 2292   4.798   6.034   5.124
  465SOL     OW 2293   1.097   5.531   0.970
  465SOL    HW1 2294   1.018   5.472   0.950
  465SOL    HW2 2295   1.103   5.546   1.068
  466SOL     OW 2296   4.057   4.831   3.897
  466SOL    HW1 2297   3.969   4.877   3.911
  466SOL    HW2 2298   4.082   4.781   3.981
  467SOL     OW 2299   6.505   0.181   0.851
  467SOL    HW1 2300   6.493   0.096   0.799
  467SOL    HW2 2301   6.561   0.163   0.931
  468SOL     OW 2302   2.354   6.873   6.434
  468SOL    HW1 2303   2.347   6.963   6.478
  468SOL    HW2 2304   2.351   6.885   6.334
  469SOL     OW 2305   4.377   4.876   5.348
  469SOL    HW1 2306   4.417   4.930   5.275
  469SOL    HW2 2307   4.338   4.792   5.310
  470SOL     OW 2308   2.770   4.788   2.601
  470SOL    HW1 2309   2.845   4.765   2.662
  470SOL    HW2 2310   2.701   4.715   2.603
  471SOL     OW 2311   1.851   2.414   4.254
  471SOL    HW1 2312   1.949   2.432   4.250
  471SOL    HW2 2313   1.822   2.363   4.173
  472SOL     OW 2314   4.440   3.766   5.943
  472SOL    HW1 2315   4.446   3.744   6.040
  472SOL    HW2 2316   4.351   3.807   5.923
  473SOL     OW 2317   5.921   3.705   2.538
  473SOL    HW1 2318   5.827   3.717   2.570
  473SOL    HW2 2319   5.981   3.768   2.586
  474SOL     OW 2320   4.618   5.323   4.006
  474SOL    HW1 2321   4.528   5.286   3.983
  474SOL    HW2 2322   4.643   5.293   4.098
  475SOL     OW 2323   5.137   1.731   0.548
  475SOL    HW1 2324   5.205   1.660   0.526
  475SOL    HW2 2325   5.159   1.771   0.637
  476SOL     OW 2326   0.812   3.092   0.377
  476SOL    HW1 2327   0.739   3.068   0.440
  476SOL    HW2 2328   0.900   3.065   0.416
  477SOL     OW 2329   6.141   6.055   4.291
  477SOL    HW1 2330   6.230   6.019   4.264
  477SOL    HW2 2331   6.128   6.042   4.390
  478SOL     OW 2332   6.444   5.821   1.515
  478SOL    HW1 2333   6.375   5.792   1.449
  478SOL    HW2 2334   6.434   5.769   1.600
  479SOL     OW 2335   3.995   3.867   2.395
  479SOL    HW1 2336   3.919   3.907   2.344
  479SOL    HW2 2337   4.041   3.799   2.338
  480SOL     OW 2338   6.363   6.923   0.917
  480SOL    HW1 2339   6.382   6.875   0.830
  480SOL    HW2 2340   6.438   6.905   0.981
  481SOL     OW 2341   5.716   6.473   6.983
  481SOL    HW1 2342   5.748   6.379   6.998
  481SOL    HW2 2343   5.673   6.480   6.894
  482SOL     OW 2344   4.026   5.458   2.590
  482SOL    HW1 2345   3.945   5.487   2.538
  482SOL    HW2 2346   4.017   5.488   2.685
  483SOL     OW 2347   6.524   2.606   5.494
  483SOL    HW1 2348   6.570   2.653   5.419
  483SOL    HW2 2349   6.456   2.667   5.534
  484SOL     OW 2350   2.441   5.609   4.147
  484SOL    HW1 2351   2.368   5.544   4.169
  484SOL    HW2 2352   2.427   5.646   4.055
  485SOL     OW 2353   5.231   3.012   0.755
  485SOL    HW1 2354   5.261   2.976   0.843
  485SOL    HW2 2355   5.199   2.937   0.697
  486SOL     OW 2356   6.143   6.597   5.646
  486SOL    HW1 2357   6.049   6.572   5.668
  486SOL    HW2 2358   6.193   6.617   5.731
  487SOL     OW 2359   5.881   1.553   0.232
  487SOL    HW1 2360   5.936   1.479   0.272
  487SOL    HW2 2361   5.936   1.636   0.227
  488SOL     OW 2362   1.994   6.455   3.726
  488SOL    HW1 2363   1.910   6.401   3.719
  488SOL    HW2 2364   2.058   6.410   3.788
  489SOL     OW 2365   2.264   4.585   5.165
  489SOL    HW1 2366   2.357   4.619   5.152
  489SOL    HW2 2367   2.267   4.485   5.177
  490SOL     OW 2368   0.822   4.035   4.900
  490SOL    HW1 2369   0.913   4.060   4.931
  490SOL    HW2 2370   0.794   3.950   4.944
  491SOL     OW 2371   6.449   3.387   2.192
  491SOL    HW1 2372   6.366   3.421   2.149
  491SOL    HW2 2373   6.524   3.450   2.175
  492SOL     OW 2374   1.574   2.099   6.114
  492SOL    HW1 2375   1.549   2.021   6.170
  492SOL    HW2 2376   1.620   2.067   6.031
  493SOL     OW 2377   2.044   5.680   3.782
  493SOL    HW1 2378   2.029   5.602   3.842
  493SOL    HW2 2379   2.128   5.666   3.728
  494SOL     OW 2380   2.457   6.528   2.475
  494SOL    HW1 2381   2.478   6.607   2.417
  494SOL    HW2 2382   2.531   6.461   2.468
  495SOL     OW 2383   3.715   4.595   6.197
  495SOL    HW1 2384   3.770   4.514   6.174
  495SOL    HW2 2385   3.624   4.566   6.227
  496SOL     OW 2386   5.088   0.386   2.522
  496SOL    HW1 2387   5.183   0.383   2.555
  496SOL    HW2 2388   5.026   0.378   2.600
  497SOL     OW 2389   4.364   2.834   1.054
  497SOL    HW1 2390   4.409   2.921   1.074
  497SOL    HW2 2391   4.265   2.845   1.062
  498SOL     OW 2392   0.692   0.335   0.431
  498SOL    HW1 2393   0.609   0.327   0.376
  498SOL    HW2 2394   0.772   0.320   0.372
  499SOL     OW 2395   2.755   6.572   6.439
  499SOL    HW1 2396   2.690   6.640   6.471
  499SOL    HW2 2397   2.769   6.503   6.510
  500SOL     OW 2398   6.256   1.726   6.440
  500SOL    HW1 2399   6.171   1.745   6.490
  500SOL    HW2 2400   6.285   1.808   6.391
  501SOL     OW 2401   1.915   2.109   5.018
  501SOL    HW1 2402   1.967   2.137   4.937
  501SOL    HW2 2403   1.824   2.149   5.015
  502SOL     OW 2404   3.336   2.751   6.556
  502SOL    HW1 2405   3.262   2.817   6.565
  502SOL    HW2 2406   3.419   2.788   6.596
  503SOL     OW 2407   3.862   4.965   1.673
  503SOL    HW1 2408   3.862   4.989   1.575
  503SOL    HW2 2409   3.815   4.878   1.686
  504SOL     OW 2410   6.409   0.433   6.613
  504SOL    HW1 2411   6.395   0.378   6.531
  504SOL    HW2 2412   6.507   0.447   6.627
  505SOL     OW 2413   0.229   3.753   5.716
  505SOL    HW1 2414   0.275   3.706   5.792
  505SOL    HW2 2415   0.138   3.783   5.746
  506SOL     OW 2416   3.054   6.194   2.233
  506SOL    HW1 2417   3.106   6.205   2.148
  506SOL    HW2 2418   3.061   6.100   2.265
  507SOL     OW 2419   2.141   6.957   3.442
  507SOL    HW1 2420   2.099   6.940   3.531
  507SOL    HW2 2421   2.191   0.016   3.445
  508SOL     OW 2422   0.311   4.744   2.641
  508SOL    HW1 2423   0.293   4.690   2.723
  508SOL    HW2 2424   0.360   4.687   2.574
  509SOL     OW 2425   4.543   0.591   5.670
  509SOL    HW1 2426   4.517   0.672   5.723
  509SOL    HW2 2427   4.553   0.513   5.732
  510SOL     OW 2428   6.666   4.875   6.968
  510SOL    HW1 2429   6.759   4.855   6.936
  510SOL    HW2 2430   6.626   4.947   6.912
  511SOL     OW 2431   7.012   2.510   0.850
  511SOL    HW1 2432   6.922   2.478   0.819
  511SOL    HW2 2433   0.013   2.459   0.931
  512SOL     OW 2434   1.790   1.452   4.634
  512SOL    HW1 2435   1.887   1.465   4.613
  512SOL    HW2 2436   1.775   1.466   4.732
  513SOL     OW 2437   5.768   5.708   2.097
  513SOL    HW1 2438   5.805   5.740   2.184
  513SOL    HW2 2439   5.815   5.754   2.021
  514SOL     OW 2440   5.152   1.127   5.062
  514SOL    HW1 2441   5.181   1.206   5.115
  514SOL    HW2 2442   5.100   1.064   5.120
  515SOL     OW 2443   3.213   0.336   6.696
  515SOL    HW1 2444   3.124   0.364   6.661
  515SOL    HW2 2445   3.227   0.376   6.787
  516SOL     OW 2446   0.567   5.608   2.469
  516SOL    HW1 2447   0.493   5.541   2.461
  516SOL    HW2 2448   0.532   5.691   2.513
  517SOL     OW 2449   3.408   4.918   0.229
  517SOL    HW1 2450   3.313   4.913   0.259
  517SOL    HW2 2451   3.424   5.005   0.184
  518SOL     OW 2452   2.281   0.179   3.428
  518SOL    HW1 2453   2.318   0.196   3.337
  518SOL    HW2 2454   2.250   0.265   3.469
  519SOL     OW 2455   0.660   6.590   3.514
  519SOL    HW1 2456   0.671   6.656   3.439
  519SOL    HW2 2457   0.749   6.566   3.551
  520SOL     OW 2458   3.038   5.529   7.010
  520SOL    HW1 2459   3.090   5.606   0.020
  520SOL    HW2 2460   3.062   5.515   6.914
  521SOL     OW 2461   0.093   0.205   5.161
  521SOL    HW1 2462   0.103   0.299   5.195
  521SOL    HW2 2463   0.022   0.203   5.090
  522SOL     OW 2464   3.125   6.072   5.751
  522SOL    HW1 2465   3.078   6.158   5.773
  522SOL    HW2 2466   3.059   6.007   5.715
  523SOL     OW 2467   1.850   6.976   6.160
  523SOL    HW1 2468   1.770   7.024   6.125
  523SOL    HW2 2469   1.826   6.881   6.180
  524SOL     OW 2470   6.413   2.010   1.701
  524SOL    HW1 2471   6.359   2.046   1.777
  524SOL    HW2 2472   6.370   1.926   1.667
  525SOL     OW 2473   6.878   3.159   3.896
  525SOL    HW1 2474   6.827   3.089   3.847
  525SOL    HW2 2475   6.958   3.186   3.842
  526SOL     OW 2476   4.261   6.088   5.234
  526SOL    HW1 2477   4.309   6.002   5.253
  526SOL    HW2 2478   4.213   6.118   5.316
  527SOL     OW 2479   6.639   2.053   0.284
  527SOL    HW1 2480   6.683   1.965   0.300
  527SOL    HW2 2481   6.699   2.127   0.313
  528SOL     OW 2482   6.789   1.558   3.381
  528SOL    HW1 2483   6.749   1.555   3.289
  528SOL    HW2 2484   6.808   1.464   3.412
  529SOL     OW 2485   1.122   1.709   5.539
  529SOL    HW1 2486   1.213   1.689   5.576
  529SOL    HW2 2487   1.053   1.688   5.608
  530SOL     OW 2488   3.303   4.584   1.647
  530SOL    HW1 2489   3.341   4.497   1.616
  530SOL    HW2 2490   3.370   4.633   1.703
  531SOL     OW 2491   0.164   1.133   5.820
  531SOL    HW1 2492   0.128   1.092   5.903
  531SOL    HW2 2493   0.150   1.233   5.823
  532SOL     OW 2494   3.174   1.250   6.501
  532SOL    HW1 2495   3.178   1.221   6.597
  532SOL    HW2 2496   3.222   1.183   6.444
  533SOL     OW 2497   3.460   6.816   4.765
  533SOL    HW1 2498   3.494   6.904   4.734
  533SOL    HW2 2499   3.510   6.788   4.847
  534SOL     OW 2500   1.516   4.141   0.757
  534SOL    HW1 2501   1.567   4.227   0.756
  534SOL    HW2 2502   1.558   4.076   0.693
  535SOL     OW 2503   5.119   4.013   3.574
  535SOL    HW1 2504   5.022   4.025   3.596
  535SOL    HW2 2505   5.133   3.926   3.529
  536SOL     OW 2506   6.377   0.435   0.806
  536SOL    HW1 2507   6.443   0.367   0.837
  536SOL    HW2 2508   6.292   0.425   0.857
  537SOL     OW 2509   3.423   2.090   2.337
  537SOL    HW1 2510   3.497   2.054   2.394
  537SOL    HW2 2511   3.449   2.085   2.241
  538SOL     OW 2512   4.231   5.783   6.668
  538SOL    HW1 2513   4.238   5.866   6.723
  538SOL    HW2 2514   4.175   5.802   6.588
  539SOL     OW 2515   3.025   6.701   6.792
  539SOL    HW1 2516   3.022   6.637   6.869
  539SOL    HW2 2517   2.934   6.739   6.777
  540SOL     OW 2518   1.702   1.537   5.487
  540SOL    HW1 2519   1.675   1.632   5.474
  540SOL    HW2 2520   1.769   1.511   5.418
  541SOL     OW 2521   6.261   5.951   1.936
  541SOL    HW1 2522   6.185   5.999   1.891
  541SOL    HW2 2523   6.232   5.919   2.026
  542SOL     OW 2524   4.126   5.831   6.433
  542SOL    HW1 2525   4.108   5.739   6.397
  542SOL    HW2 2526   4.053   5.892   6.403
  543SOL     OW 2527   6.896   2.197   5.010
  543SOL    HW1 2528   6.842   2.113   5.011
  543SOL    HW2 2529   6.865   2.257   5.084
  544SOL     OW 2530   1.038   2.055   0.997
  544SOL    HW1 2531   1.047   1.958   0.974
  544SOL    HW2 2532   0.954   2.091   0.956
  545SOL     OW 2533   6.787   4.871   0.633
  545SOL    HW1 2534   6.788   4.864   0.534
  545SOL    HW2 2535   6.730   4.949   0.660
  546SOL     OW 2536   0.086   5.732   2.432
  546SOL    HW1 2537   0.001   5.709   2.480
  546SOL    HW2 2538   0.156   5.755   2.499
  547SOL     OW 2539   3.514   6.304   0.239
  547SOL    HW1 2540   3.427   6.297   0.190
  547SOL    HW2 2541   3.519   6.393   0.284
  548SOL     OW 2542   4.122   3.157   6.288
  548SOL    HW1 2543   4.159   3.065   6.293
  548SOL    HW2 2544   4.114   3.196   6.380
  549SOL     OW 2545   4.732   2.872   3.752
  549SOL    HW1 2546   4.643   2.918   3.747
  549SOL    HW2 2547   4.719   2.776   3.776
  550SOL     OW 2548   6.890   5.731   4.450
  550SOL    HW1 2549   6.876   5.732   4.351
  550SOL    HW2 2550   6.859   5.644   4.488
  551SOL     OW 2551   5.332   0.632   6.684
  551SOL    HW1 2552   5.281   0.562   6.735
  551SOL    HW2 2553   5.343   0.602   6.589
  552SOL     OW 2554   1.346   0.305   4.116
  552SOL    HW1 2555   1.416   0.279   4.049
  552SOL    HW2 2556   1.280   0.367   4.073
  553SOL     OW 2557   4.513   2.462   5.742
  553SOL    HW1 2558   4.459   2.442   5.824
  553SOL    HW2 2559   4.607   2.428   5.754
  554SOL     OW 2560   6.701   4.719   0.403
  554SOL    HW1 2561   6.615   4.762   0.432
  554SOL    HW2 2562   6.681   4.632   0.358
  555SOL     OW 2563   4.459   4.592   5.547
  555SOL    HW1 2564   4.421   4.684   5.557
  555SOL    HW2 2565   4.437   4.557   5.456
  556SOL     OW 2566   5.318   6.082   2.894
  556SOL    HW1 2567   5.363   6.007   2.943
  556SOL    HW2 2568   5.323   6.066   2.796
  557SOL     OW 2569   0.119   3.693   6.959
  557SOL    HW1 2570   0.171   3.635   7.021
  557SOL    HW2 2571   0.159   3.785   6.957
  558SOL     OW 2572   3.633   3.757   1.536
  558SOL    HW1 2573   3.719   3.797   1.567
  558SOL    HW2 2574   3.569   3.830   1.511
  559SOL     OW 2575   5.542   1.494   5.690
  559SOL    HW1 2576   5.559   1.586   5.654
  559SOL    HW2 2577   5.573   1.426   5.624
  560SOL     OW 2578   1.992   2.485   3.038
  560SOL    HW1 2579   2.032   2.532   2.959
  560SOL    HW2 2580   1.918   2.541   3.074
  561SOL     OW 2581   6.519   4.131   0.803
  561SOL    HW1 2582   6.464   4.197   0.751
  561SOL    HW2 2583   6.467   4.047   0.815
  562SOL     OW 2584   3.020   6.234   2.578
  562SOL    HW1 2585   3.024   6.217   2.480
  562SOL    HW2 2586   3.086   6.176   2.625
  563SOL     OW 2587   0.595   0.137   3.873
  563SOL    HW1 2588   0.660   0.150   3.798
  563SOL    HW2 2589   0.566   0.225   3.909
  564SOL     OW 2590   6.113   2.937   6.144
  564SOL    HW1 2591   6.127   3.026   6.187
  564SOL    HW2 2592   6.019   2.906   6.159
  565SOL     OW 2593   3.432   3.198   3.445
  565SOL    HW1 2594   3.458   3.189   3.541
  565SOL    HW2 2595   3.452   3.113   3.397
  566SOL     OW 2596   0.940   2.474   3.277
  566SOL    HW1 2597   0.894   2.389   3.252
  566SOL    HW2 2598   0.948   2.532   3.196
  567SOL     OW 2599   1.910   2.429   5.263
  567SOL    HW1 2600   1.830   2.468   5.217
  567SOL    HW2 2601   1.982   2.498   5.268
  568SOL     OW 2602   0.983   0.250   6.849
  568SOL    HW1 2603   0.924   0.182   6.892
  568SOL    HW2 2604   0.998   0.326   6.912
  569SOL     OW 2605   5.350   3.342   5.097
  569SOL    HW1 2606   5.285   3.360   5.024
  569SOL    HW2 2607   5.320   3.388   5.181
  570SOL     OW 2608   2.689   0.373   5.545
  570SOL    HW1 2609   2.759   0.416   5.489
  570SOL    HW2 2610   2.656   0.438   5.613
  571SOL     OW 2611   2.407   4.409   2.601
  571SOL    HW1 2612   2.385   4.315   2.573
  571SOL    HW2 2613   2.354   4.473   2.547
  572SOL     OW 2614   2.594   1.555   4.778
  572SOL    HW1 2615   2.613   1.653   4.768
  572SOL    HW2 2616   2.606   1.529   4.874
  573SOL     OW 2617   0.364   0.202   5.815
  573SOL    HW1 2618   0.385   0.124   5.756
  573SOL    HW2 2619   0.405   0.285   5.777
  574SOL     OW 2620   3.235   1.656   5.601
  574SOL    HW1 2621   3.224   1.580   5.538
  574SOL    HW2 2622   3.191   1.738   5.563
  575SOL     OW 2623   3.866   3.996   6.810
  575SOL    HW1 2624   3.948   4.051   6.827
  575SOL    HW2 2625   3.785   4.046   6.841
  576SOL     OW 2626   6.894   1.105   4.137
  576SOL    HW1 2627   6.889   1.127   4.039
  576SOL    HW2 2628   6.805   1.125   4.179
  577SOL     OW 2629   6.388   0.404   1.373
  577SOL    HW1 2630   6.313   0.371   1.315
  577SOL    HW2 2631   6.456   0.449   1.316
  578SOL     OW 2632   4.232   6.419   0.955
  578SOL    HW1 2633   4.270   6.512   0.954
  578SOL    HW2 2634   4.285   6.360   0.895
  579SOL     OW 2635   0.462   4.069   2.261
  579SOL    HW1 2636   0.507   4.016   2.188
  579SOL    HW2 2637   0.479   4.166   2.246
  580SOL     OW 2638   4.713   4.305   4.796
  580SOL    HW1 2639   4.702   4.206   4.785
  580SOL    HW2 2640   4.673   4.333   4.883
  581SOL     OW 2641   2.750   1.814   4.159
  581SOL    HW1 2642   2.798   1.890   4.203
  581SOL    HW2 2643   2.765   1.817   4.061
  582SOL     OW 2644   6.366   4.750   5.198
  582SOL    HW1 2645   6.289   4.779   5.142
  582SOL    HW2 2646   6.397   4.827   5.255
  583SOL     OW 2647   2.993   6.078   4.993
  583SOL    HW1 2648   3.089   6.056   5.007
  583SOL    HW2 2649   2.984   6.140   4.915
  584SOL     OW 2650   3.967   0.660   4.847
  584SOL    HW1 2651   3.901   0.599   4.804
  584SOL    HW2 2652   4.012   0.612   4.923
  585SOL     OW 2653   3.871   6.721   1.570
  585SOL    HW1 2654   3.815   6.664   1.511
  585SOL    HW2 2655   3.818   6.751   1.649
  586SOL     OW 2656   3.320   6.521   1.084
  586SOL    HW1 2657   3.339   6.494   1.179
  586SOL    HW2 2658   3.225   6.548   1.075
  587SOL     OW 2659   5.873   0.719   3.499
  587SOL    HW1 2660   5.786   0.687   3.537
  587SOL    HW2 2661   5.934   0.641   3.485
  588SOL     OW 2662   2.298   4.150   2.955
  588SOL    HW1 2663   2.362   4.224   2.932
  588SOL    HW2 2664   2.210   4.189   2.979
  589SOL     OW 2665   3.565   5.207   5.602
  589SOL    HW1 2666   3.618   5.266   5.662
  589SOL    HW2 2667   3.619   5.127   5.577
  590SOL     OW 2668   2.007   0.620   6.366
  590SOL    HW1 2669   2.082   0.676   6.330
  590SOL    HW2 2670   1.986   0.547   6.301
  591SOL     OW 2671   2.936   0.371   3.908
  591SOL    HW1 2672   2.841   0.342   3.919
  591SOL    HW2 2673   2.955   0.386   3.811
  592SOL     OW 2674   4.744   1.393   4.030
  592SOL    HW1 2675   4.836   1.422   4.006
  592SOL    HW2 2676   4.747   1.301   4.070
  593SOL     OW 2677   1.180   6.632   0.039
  593SOL    HW1 2678   1.187   6.532   0.039
  593SOL    HW2 2679   1.142   6.663   6.979
  594SOL     OW 2680   2.522   1.223   4.629
  594SOL    HW1 2681   2.459   1.300   4.644
  594SOL    HW2 2682   2.554   1.188   4.718
  595SOL     OW 2683   5.632   3.787   2.881
  595SOL    HW1 2684   5.556   3.725   2.897
  595SOL    HW2 2685   5.640   3.851   2.958
  596SOL     OW 2686   6.778   5.177   4.946
  596SOL    HW1 2687   6.846   5.103   4.949
  596SOL    HW2 2688   6.698   5.147   4.895
  597SOL     OW 2689   3.332   1.039   6.873
  597SOL    HW1 2690   3.427   1.068   6.860
  597SOL    HW2 2691   3.327   0.939   6.867
  598SOL     OW 2692   3.281   2.921   2.111
  598SOL    HW1 2693   3.196   2.891   2.069
  598SOL    HW2 2694   3.268   3.012   2.152
  599SOL     OW 2695   1.793   5.544   1.937
  599SOL    HW1 2696   1.852   5.593   1.872
  599SOL    HW2 2697   1.775   5.603   2.016
  600SOL     OW 2698   0.818   4.277   5.291
  600SOL    HW1 2699   0.770   4.191   5.307
  600SOL    HW2 2700   0.829   4.326   5.378
  601SOL     OW 2701   6.599   6.928   5.790
  601SOL    HW1 2702   6.607   6.894   5.884
  601SOL    HW2 2703   6.522   6.882   5.745
  602SOL     OW 2704   0.406   0.711   3.110
  602SOL    HW1 2705   0.476   0.640   3.109
  602SOL    HW2 2706   0.316   0.669   3.096
  603SOL     OW 2707   1.055   1.249   3.722
  603SOL    HW1 2708   1.091   1.342   3.710
  603SOL    HW2 2709   1.110   1.202   3.791
  604SOL     OW 2710   5.308   2.763   1.155
  604SOL    HW1 2711   5.270   2.794   1.242
  604SOL    HW2 2712   5.240   2.708   1.107
  605SOL     OW 2713   6.107   6.722   1.578
  605SOL    HW1 2714   6.027   6.781   1.567
  605SOL    HW2 2715   6.154   6.745   1.663
  606SOL     OW 2716   2.383   6.785   5.421
  606SOL    HW1 2717   2.329   6.729   5.485
  606SOL    HW2 2718   2.478   6.755   5.423
  607SOL     OW 2719   1.728   3.758   5.710
  607SOL    HW1 2720   1.683   3.725   5.627
  607SOL    HW2 2721   1.763   3.681   5.763
  608SOL     OW 2722   2.422   1.272   6.866
  608SOL    HW1 2723   2.474   1.232   6.941
  608SOL    HW2 2724   2.417   1.371   6.878
  609SOL     OW 2725   3.856   3.029   2.488
  609SOL    HW1 2726   3.876   2.968   2.411
  609SOL    HW2 2727   3.859   3.124   2.456
  610SOL     OW 2728   5.801   2.842   2.412
  610SOL    HW1 2729   5.803   2.836   2.512
  610SOL    HW2 2730   5.750   2.765   2.374
  611SOL     OW 2731   4.288   1.165   2.105
  611SOL    HW1 2732   4.376   1.150   2.058
  611SOL    HW2 2733   4.267   1.262   2.106
  612SOL     OW 2734   4.236   5.556   4.289
  612SOL    HW1 2735   4.196   5.587   4.375
  612SOL    HW2 2736   4.297   5.478   4.306
  613SOL     OW 2737   4.152   6.795   6.288
  613SOL    HW1 2738   4.055   6.818   6.279
  613SOL    HW2 2739   4.174   6.717   6.230
  614SOL     OW 2740   3.249   6.625   6.188
  614SOL    HW1 2741   3.215   6.618   6.282
  614SOL    HW2 2742   3.346   6.600   6.186
  615SOL     OW 2743   0.009   5.104   4.238
  615SOL    HW1 2744   0.099   5.134   4.268
  615SOL    HW2 2745   6.993   5.048   4.308
  616SOL     OW 2746   6.762   2.920   3.760
  616SOL    HW1 2747   6.784   2.828   3.791
  616SOL    HW2 2748   6.732   2.917   3.665
  617SOL     OW 2749   2.701   0.075   6.111
  617SOL    HW1 2750   2.798   0.076   6.085
  617SOL    HW2 2751   2.661   7.014   6.087
  618SOL     OW 2752   2.353   6.799   3.354
  618SOL    HW1 2753   2.280   6.858   3.389
  618SOL    HW2 2754   2.390   6.744   3.429
  619SOL     OW 2755   1.291   3.457   6.918
  619SOL    HW1 2756   1.231   3.483   6.994
  619SOL    HW2 2757   1.382   3.433   6.954
  620SOL     OW 2758   4.834   3.810   1.097
  620SOL    HW1 2759   4.878   3.764   1.174
  620SOL    HW2 2760   4.768   3.747   1.054
  621SOL     OW 2761   0.265   5.847   1.261
  621SOL    HW1 2762   0.168   5.859   1.284
  621SOL    HW2 2763   0.315   5.817   1.342
  622SOL     OW 2764   1.620   1.552   6.982
  622SOL    HW1 2765   1.534   1.534   6.935
  622SOL    HW2 2766   1.615   1.641   7.026
  623SOL     OW 2767   6.076   5.660   5.544
  623SOL    HW1 2768   5.993   5.712   5.521
  623SOL    HW2 2769   6.049   5.574   5.589
  624SOL     OW 2770   6.736   1.448   1.247
  624SOL    HW1 2771   6.645   1.447   1.287
  624SOL    HW2 2772   6.741   1.381   1.173
  625SOL     OW 2773   1.931   1.072   1.571
  625SOL    HW1 2774   2.027   1.085   1.593
  625SOL    HW2 2775   1.922   1.038   1.478
  626SOL     OW 2776   4.090   5.968   5.619
  626SOL    HW1 2777   4.140   5.892   5.662
  626SOL    HW2 2778   4.001   5.935   5.589
  627SOL     OW 2779   4.043   5.156   6.990
  627SOL    HW1 2780   4.089   5.074   7.026
  627SOL    HW2 2781   3.962   5.128   6.938
  628SOL     OW 2782   4.977   3.539   4.016
  628SOL    HW1 2783   5.004   3.550   3.920
  628SOL    HW2 2784   4.972   3.441   4.038
  629SOL     OW 2785   0.906   0.264   1.571
  629SOL    HW1 2786   0.984   0.222   1.524
  629SOL    HW2 2787   0.930   0.358   1.596
  630SOL     OW 2788   2.383   1.274   2.266
  630SOL    HW1 2789   2.436   1.209   2.211
  630SOL    HW2 2790   2.411   1.266   2.362
  631SOL     OW 2791   3.004   1.326   3.671
  631SOL    HW1 2792   2.943   1.362   3.601
  631SOL    HW2 2793   2.961   1.334   3.761
  632SOL     OW 2794   2.875   1.061   0.302
  632SOL    HW1 2795   2.934   1.127   0.348
  632SOL    HW2 2796   2.822   1.010   0.371
  633SOL     OW 2797   2.184   0.174   4.235
  633SOL    HW1 2798   2.262   0.138   4.287
  633SOL    HW2 2799   2.099   0.144   4.278
  634SOL     OW 2800   2.856   5.424   1.954
  634SOL    HW1 2801   2.812   5.496   1.901
  634SOL    HW2 2802   2.879   5.458   2.045
  635SOL     OW 2803   2.795   0.103   1.641
  635SOL    HW1 2804   2.884   0.143   1.660
  635SOL    HW2 2805   2.797   0.005   1.661
  636SOL     OW 2806   4.836   5.396   6.585
  636SOL    HW1 2807   4.822   5.474   6.524
  636SOL    HW2 2808   4.797   5.417   6.675
  637SOL     OW 2809   5.955   4.751   6.448
  637SOL    HW1 2810   6.017   4.817   6.491
  637SOL    HW2 2811   5.882   4.728   6.511
  638SOL     OW 2812   5.723   1.601   3.684
  638SOL    HW1 2813   5.818   1.625   3.666
  638SOL    HW2 2814   5.706   1.507   3.654
  639SOL     OW 2815   3.546   3.562   1.353
  639SOL    HW1 2816   3.585   3.624   1.421
  639SOL    HW2 2817   3.617   3.533   1.290
  640SOL     OW 2818   3.266   3.149   5.544
  640SOL    HW1 2819   3.179   3.197   5.536
  640SOL    HW2 2820   3.255   3.069   5.602
  641SOL     OW 2821   0.661   0.730   4.731
  641SOL    HW1 2822   0.590   0.694   4.670
  641SOL    HW2 2823   0.695   0.657   4.790
  642SOL     OW 2824   0.363   5.202   0.081
  642SOL    HW1 2825   0.374   5.299   0.061
  642SOL    HW2 2826   0.451   5.156   0.070
  643SOL     OW 2827   5.425   6.816   4.392
  643SOL    HW1 2828   5.340   6.797   4.441
  643SOL    HW2 2829   5.496   6.841   4.457
  644SOL     OW 2830   3.103   5.932   2.018
  644SOL    HW1 2831   3.195   5.936   2.055
  644SOL    HW2 2832   3.059   5.847   2.047
  645SOL     OW 2833   0.766   3.266   3.514
  645SOL    HW1 2834   0.835   3.284   3.584
  645SOL    HW2 2835   0.810   3.266   3.424
  646SOL     OW 2836   1.911   3.385   4.077
  646SOL    HW1 2837   1.814   3.384   4.053
  646SOL    HW2 2838   1.933   3.304   4.130
  647SOL     OW 2839   5.614   5.173   1.158
  647SOL    HW1 2840   5.688   5.194   1.095
  647SOL    HW2 2841   5.529   5.159   1.107
  648SOL     OW 2842   4.572   2.174   3.949
  648SOL    HW1 2843   4.511   2.177   3.871
  648SOL    HW2 2844   4.529   2.221   4.027
  649SOL     OW 2845   4.279   4.355   1.362
  649SOL    HW1 2846   4.248   4.449   1.378
  649SOL    HW2 2847   4.217   4.311   1.297
  650SOL     OW 2848   5.881   5.298   0.600
  650SOL    HW1 2849   5.931   5.385   0.599
  650SOL    HW2 2850   5.799   5.306   0.543
  651SOL     OW 2851   0.894   5.370   6.444
  651SOL    HW1 2852   0.941   5.456   6.424
  651SOL    HW2 2853   0.871   5.323   6.359
  652SOL     OW 2854   5.013   2.829   1.605
  652SOL    HW1 2855   4.995   2.905   1.667
  652SOL    HW2 2856   5.050   2.752   1.657
  653SOL     OW 2857   3.679   5.757   2.616
  653SOL    HW1 2858   3.732   5.714   2.543
  653SOL    HW2 2859   3.582   5.733   2.605
  654SOL     OW 2860   6.928   4.267   6.805
  654SOL    HW1 2861   6.874   4.184   6.790
  654SOL    HW2 2862   6.999   4.274   6.735
  655SOL     OW 2863   1.800   1.440   0.884
  655SOL    HW1 2864   1.814   1.538   0.868
  655SOL    HW2 2865   1.820   1.419   0.980
  656SOL     OW 2866   2.414   6.289   0.558
  656SOL    HW1 2867   2.390   6.227   0.632
  656SOL    HW2 2868   2.340   6.355   0.544
  657SOL     OW 2869   3.843   0.482   6.352
  657SOL    HW1 2870   3.768   0.488   6.286
  657SOL    HW2 2871   3.927   0.518   6.311
  658SOL     OW 2872   4.104   5.596   0.074
  658SOL    HW1 2873   4.105   5.598   7.000
  658SOL    HW2 2874   4.182   5.647   0.109
  659SOL     OW 2875   3.044   1.032   6.281
  659SOL    HW1 2876   2.977   1.010   6.209
  659SOL    HW2 2877   2.997   1.045   6.368
  660SOL     OW 2878   2.914   6.089   3.674
  660SOL    HW1 2879   2.944   6.014   3.615
  660SOL    HW2 2880   2.823   6.068   3.710
  661SOL     OW 2881   0.044   5.236   3.153
  661SOL    HW1 2882   0.083   5.219   3.063
  661SOL    HW2 2883   6.972   5.250   3.144
  662SOL     OW 2884   3.700   2.132   0.055
  662SOL    HW1 2885   3.622   2.082   0.016
  662SOL    HW2 2886   3.734   2.197   7.014
  663SOL     OW 2887   1.440   3.896   4.957
  663SOL    HW1 2888   1.497   3.930   5.032
  663SOL    HW2 2889   1.498   3.846   4.892
  664SOL     OW 2890   5.638   0.006   6.346
  664SOL    HW1 2891   5.635   0.003   6.246
  664SOL    HW2 2892   5.593   6.951   6.383
  665SOL     OW 2893   1.354   4.199   2.356
  665SOL    HW1 2894   1.433   4.141   2.377
  665SOL    HW2 2895   1.382   4.274   2.297
  666SOL     OW 2896   4.060   1.107   2.733
  666SOL    HW1 2897   4.140   1.050   2.714
  666SOL    HW2 2898   3.977   1.052   2.726
  667SOL     OW 2899   6.068   6.745   1.073
  667SOL    HW1 2900   6.019   6.802   1.139
  667SOL    HW2 2901   6.053   6.648   1.096
  668SOL     OW 2902   5.099   3.485   6.799
  668SOL    HW1 2903   5.112   3.584   6.796
  668SOL    HW2 2904   5.184   3.440   6.826
  669SOL     OW 2905   6.032   0.797   4.044
  669SOL    HW1 2906   6.085   0.758   4.120
  669SOL    HW2 2907   6.067   0.760   3.958
  670SOL     OW 2908   4.128   1.863   1.982
  670SOL    HW1 2909   4.061   1.863   2.057
  670SOL    HW2 2910   4.203   1.925   2.006
  671SOL     OW 2911   0.827   5.444   1.841
  671SOL    HW1 2912   0.811   5.489   1.753
  671SOL    HW2 2913   0.788   5.352   1.839
  672SOL     OW 2914   0.110   0.074   1.346
  672SOL    HW1 2915   0.175   0.038   1.413
  672SOL    HW2 2916   0.068   7.025   1.296
  673SOL     OW 2917   6.628   6.811   6.042
  673SOL    HW1 2918   6.672   6.791   6.130
  673SOL    HW2 2919   6.540   6.763   6.038
  674SOL     OW 2920   4.993   6.759   4.439
  674SOL    HW1 2921   4.957   6.675   4.398
  674SOL    HW2 2922   4.918   6.819   4.465
  675SOL     OW 2923   0.304   4.805   2.217
  675SOL    HW1 2924   0.206   4.811   2.200
  675SOL    HW2 2925   0.344   4.897   2.209
  676SOL     OW 2926   2.275   6.249   6.701
  676SOL    HW1 2927   2.278   6.152   6.676
  676SOL    HW2 2928   2.183   6.284   6.684
  677SOL     OW 2929   5.389   0.985   1.059
  677SOL    HW1 2930   5.342   0.995   0.971
  677SOL    HW2 2931   5.421   0.891   1.069
  678SOL     OW 2932   0.093   5.472   4.162
  678SOL    HW1 2933   0.150   5.552   4.181
  678SOL    HW2 2934   0.050   5.441   4.247
  679SOL     OW 2935   5.736   0.367   6.152
  679SOL    HW1 2936   5.640   0.394   6.163
  679SOL    HW2 2937   5.785   0.383   6.237
  680SOL     OW 2938   6.069   0.390   3.795
  680SOL    HW1 2939   5.989   0.366   3.849
  680SOL    HW2 2940   6.042   0.408   3.700
  681SOL     OW 2941   4.829   5.071   3.017
  681SOL    HW1 2942   4.838   4.978   2.982
  681SOL    HW2 2943   4.799   5.131   2.943
  682SOL     OW 2944   6.222   2.411   3.779
  682SOL    HW1 2945   6.269   2.323   3.778
  682SOL    HW2 2946   6.179   2.426   3.690
  683SOL     OW 2947   2.960   5.903   6.863
  683SOL    HW1 2948   2.905   5.820   6.855
  683SOL    HW2 2949   3.056   5.879   6.875
  684SOL     OW 2950   5.765   2.058   6.280
  684SOL    HW1 2951   5.850   2.085   6.326
  684SOL    HW2 2952   5.772   2.080   6.183
  685SOL     OW 2953   3.416   6.473   3.164
  685SOL    HW1 2954   3.475   6.553   3.170
  685SOL    HW2 2955   3.459   6.396   3.211
  686SOL     OW 2956   2.478   0.866   5.537
  686SOL    HW1 2957   2.410   0.939   5.532
  686SOL    HW2 2958   2.513   0.847   5.446
  687SOL     OW 2959   0.558   1.318   4.469
  687SOL    HW1 2960   0.553   1.302   4.567
  687SOL    HW2 2961   0.644   1.282   4.433
  688SOL     OW 2962   4.855   3.807   6.605
  688SOL    HW1 2963   4.861   3.708   6.591
  688SOL    HW2 2964   4.945   3.848   6.595
  689SOL     OW 2965   2.236   6.455   6.997
  689SOL    HW1 2966   2.189   6.368   6.981
  689SOL    HW2 2967   2.326   6.438   0.010
  690SOL     OW 2968   5.644   3.436   4.140
  690SOL    HW1 2969   5.650   3.494   4.059
  690SOL    HW2 2970   5.697   3.352   4.125
  691SOL     OW 2971   5.384   6.792   2.919
  691SOL    HW1 2972   5.423   6.879   2.949
  691SOL    HW2 2973   5.440   6.717   2.953
  692SOL     OW 2974   1.779   6.929   3.467
  692SOL    HW1 2975   1.832   6.845   3.473
  692SOL    HW2 2976   1.785   6.966   3.375
  693SOL     OW 2977   5.944   4.096   1.900
  693SOL    HW1 2978   5.860   4.150   1.890
  693SOL    HW2 2979   5.930   4.024   1.967
  694SOL     OW 2980   4.327   5.070   4.398
  694SOL    HW1 2981   4.237   5.071   4.354
  694SOL    HW2 2982   4.316   5.060   4.497
  695SOL     OW 2983   4.824   0.177   4.364
  695SOL    HW1 2984   4.842   0.275   4.367
  695SOL    HW2 2985   4.907   0.127   4.385
  696SOL     OW 2986   6.726   4.418   1.669
  696SOL    HW1 2987   6.702   4.388   1.577
  696SOL    HW2 2988   6.826   4.415   1.680
  697SOL     OW 2989   1.080   6.369   3.243
  697SOL    HW1 2990   0.989   6.329   3.248
  697SOL    HW2 2991   1.072   6.468   3.232
  698SOL     OW 2992   5.859   6.796   5.571
  698SOL    HW1 2993   5.829   6.812   5.477
  698SOL    HW2 2994   5.914   6.873   5.602
  699SOL     OW 2995   4.300   2.830   0.730
  699SOL    HW1 2996   4.208   2.791   0.737
  699SOL    HW2 2997   4.356   2.795   0.805
  700SOL     OW 2998   3.734   6.775   5.440
  700SOL    HW1 2999   3.708   6.741   5.349
  700SOL    HW2 3000   3.668   6.743   5.507
  701SOL     OW 3001   4.461   4.216   1.546
  701SOL    HW1 3002   4.397   4.284   1.510
  701SOL    HW2 3003   4.455   4.214   1.646
  702SOL     OW 3004   3.380   0.772   5.141
  702SOL    HW1 3005   3.364   0.862   5.181
  702SOL    HW2 3006   3.414   0.709   5.211
  703SOL     OW 3007   3.804   3.184   0.568
  703SOL    HW1 3008   3.879   3.246   0.589
  703SOL    HW2 3009   3.770   3.203   0.476
  704SOL     OW 3010   3.410   1.800   0.427
  704SOL    HW1 3011   3.371   1.787   0.518
  704SOL    HW2 3012   3.346   1.852   0.371
  705SOL     OW 3013   6.758   6.787   6.293
  705SOL    HW1 3014   6.820   6.715   6.325
  705SOL    HW2 3015   6.808   6.874   6.287
  706SOL     OW 3016   3.649   0.218   4.875
  706SOL    HW1 3017   3.575   0.282   4.894
  706SOL    HW2 3018   3.640   0.139   4.935
  707SOL     OW 3019   3.741   5.212   4.223
  707SOL    HW1 3020   3.837   5.236   4.237
  707SOL    HW2 3021   3.716   5.136   4.283
  708SOL     OW 3022   2.911   5.507   4.109
  708SOL    HW1 3023   2.868   5.431   4.060
  708SOL    HW2 3024   2.963   5.563   4.045
  709SOL     OW 3025   1.800   6.899   1.736
  709SOL    HW1 3026   1.779   6.903   1.834
  709SOL    HW2 3027   1.719   6.926   1.684
  710SOL     OW 3028   4.807   2.903   3.118
  710SOL    HW1 3029   4.838   2.860   3.033
  710SOL    HW2 3030   4.762   2.834   3.175
  711SOL     OW 3031   6.340   1.102   0.512
  711SOL    HW1 3032   6.390   1.026   0.554
  711SOL    HW2 3033   6.300   1.159   0.583
  712SOL     OW 3034   4.892   4.712   6.338
  712SOL    HW1 3035   4.870   4.614   6.334
  712SOL    HW2 3036   4.969   4.726   6.400
  713SOL     OW 3037   2.515   2.777   5.320
  713SOL    HW1 3038   2.432   2.755   5.371
  713SOL    HW2 3039   2.514   2.874   5.295
  714SOL     OW 3040   3.914   6.845   2.521
  714SOL    HW1 3041   4.005   6.888   2.527
  714SOL    HW2 3042   3.844   6.915   2.533
  715SOL     OW 3043   6.309   4.164   5.901
  715SOL    HW1 3044   6.393   4.200   5.860
  715SOL    HW2 3045   6.327   4.073   5.939
  716SOL     OW 3046   3.282   0.861   3.421
  716SOL    HW1 3047   3.347   0.931   3.395
  716SOL    HW2 3048   3.296   0.779   3.365
  717SOL     OW 3049   5.293   4.620   3.357
  717SOL    HW1 3050   5.274   4.718   3.356
  717SOL    HW2 3051   5.248   4.576   3.280
  718SOL     OW 3052   0.121   2.258   5.618
  718SOL    HW1 3053   0.166   2.174   5.649
  718SOL    HW2 3054   0.124   2.263   5.518
  719SOL     OW 3055   4.483   5.590   2.501
  719SOL    HW1 3056   4.440   5.639   2.576
  719SOL    HW2 3057   4.415   5.533   2.455
  720SOL     OW 3058   3.134   1.394   0.946
  720SOL    HW1 3059   3.168   1.410   1.038
  720SOL    HW2 3060   3.103   1.299   0.938
  721SOL     OW 3061   0.133   2.102   2.677
  721SOL    HW1 3062   0.113   2.068   2.586
  721SOL    HW2 3063   0.142   2.202   2.674
  722SOL     OW 3064   5.664   6.019   2.194
  722SOL    HW1 3065   5.627   5.942   2.245
  722SOL    HW2 3066   5.595   6.052   2.129
  723SOL     OW 3067   2.058   0.555   4.363
  723SOL    HW1 3068   2.036   0.649   4.338
  723SOL    HW2 3069   2.080   0.503   4.281
  724SOL     OW 3070   1.409   2.174   4.665
  724SOL    HW1 3071   1.422   2.096   4.603
  724SOL    HW2 3072   1.494   2.224   4.673
  725SOL     OW 3073   2.031   3.530   3.686
  725SOL    HW1 3074   2.004   3.438   3.715
  725SOL    HW2 3075   2.030   3.591   3.765
  726SOL     OW 3076   1.786   2.991   0.489
  726SOL    HW1 3077   1.689   2.974   0.503
  726SOL    HW2 3078   1.838   2.910   0.518
  727SOL     OW 3079   3.914   5.278   5.366
  727SOL    HW1 3080   3.982   5.249   5.434
  727SOL    HW2 3081   3.841   5.210   5.362
  728SOL     OW 3082   5.795   3.345   3.813
  728SOL    HW1 3083   5.819   3.402   3.735
  728SOL    HW2 3084   5.695   3.346   3.826
  729SOL     OW 3085   6.901   4.654   0.746
  729SOL    HW1 3086   6.839   4.729   0.727
  729SOL    HW2 3087   6.995   4.687   0.748
  730SOL     OW 3088   3.519   0.784   4.086
  730SOL    HW1 3089   3.486   0.718   4.020
  730SOL    HW2 3090   3.619   0.779   4.092
  731SOL     OW 3091   5.026   4.451   4.684
  731SOL    HW1 3092   5.015   4.406   4.773
  731SOL    HW2 3093   5.080   4.392   4.623
  732SOL     OW 3094   4.637   0.620   4.745
  732SOL    HW1 3095   4.556   0.623   4.803
  732SOL    HW2 3096   4.714   0.663   4.793
  733SOL     OW 3097   0.238   5.184   4.427
  733SOL    HW1 3098   0.334   5.186   4.398
  733SOL    HW2 3099   0.227   5.114   4.498
  734SOL     OW 3100   6.707   5.508   3.480
  734SOL    HW1 3101   6.673   5.601   3.486
  734SOL    HW2 3102   6.729   5.474   3.572
  735SOL     OW 3103   4.896   0.452   2.316
  735SOL    HW1 3104   4.936   0.433   2.406
  735SOL    HW2 3105   4.962   0.502   2.260
  736SOL     OW 3106   1.905   1.546   3.024
  736SOL    HW1 3107   1.888   1.548   2.926
  736SOL    HW2 3108   1.989   1.595   3.045
  737SOL     OW 3109   3.310   2.050   6.820
  737SOL    HW1 3110   3.329   2.043   6.918
  737SOL    HW2 3111   3.217   2.018   6.802
  738SOL     OW 3112   1.736   5.179   0.563
  738SOL    HW1 3113   1.706   5.142   0.475
  738SOL    HW2 3114   1.662   5.171   0.630
  739SOL     OW 3115   1.656   1.074   2.645
  739SOL    HW1 3116   1.616   0.987   2.616
  739SOL    HW2 3117   1.742   1.057   2.694
  740SOL     OW 3118   4.576   2.521   2.674
  740SOL    HW1 3119   4.576   2.552   2.579
  740SOL    HW2 3120   4.616   2.592   2.732
  741SOL     OW 3121   3.814   1.281   2.158
  741SOL    HW1 3122   3.820   1.319   2.250
  741SOL    HW2 3123   3.802   1.182   2.164
  742SOL     OW 3124   2.337   0.181   2.139
  742SOL    HW1 3125   2.322   0.200   2.042
  742SOL    HW2 3126   2.267   0.227   2.193
  743SOL     OW 3127   0.087   6.332   3.153
  743SOL    HW1 3128   0.106   6.253   3.211
  743SOL    HW2 3129   0.161   6.399   3.160
  744SOL     OW 3130   5.995   1.220   0.509
  744SOL    HW1 3131   6.057   1.165   0.565
  744SOL    HW2 3132   6.005   1.317   0.533
  745SOL     OW 3133   0.839   6.254   5.293
  745SOL    HW1 3134   0.769   6.312   5.334
  745SOL    HW2 3135   0.930   6.287   5.320
  746SOL     OW 3136   6.587   5.492   6.012
  746SOL    HW1 3137   6.552   5.551   5.939
  746SOL    HW2 3138   6.538   5.405   6.012
  747SOL     OW 3139   3.022   4.928   2.288
  747SOL    HW1 3140   3.014   4.869   2.208
  747SOL    HW2 3141   3.018   5.023   2.260
  748SOL     OW 3142   6.460   5.484   2.950
  748SOL    HW1 3143   6.462   5.577   2.989
  748SOL    HW2 3144   6.432   5.420   3.021
  749SOL     OW 3145   4.925   4.122   5.012
  749SOL    HW1 3146   4.917   4.032   4.969
  749SOL    HW2 3147   4.991   4.117   5.087
  750SOL     OW 3148   2.927   1.914   2.251
  750SOL    HW1 3149   2.854   1.949   2.310
  750SOL    HW2 3150   2.948   1.983   2.182
  751SOL     OW 3151   3.879   0.388   0.407
  751SOL    HW1 3152   3.934   0.305   0.415
  751SOL    HW2 3153   3.940   0.467   0.398
  752SOL     OW 3154   2.951   3.199   4.026
  752SOL    HW1 3155   3.007   3.141   3.968
  752SOL    HW2 3156   2.874   3.147   4.063
  753SOL     OW 3157   3.196   3.932   3.723
  753SOL    HW1 3158   3.192   3.885   3.811
  753SOL    HW2 3159   3.267   4.002   3.725
  754SOL     OW 3160   4.448   0.507   5.423
  754SOL    HW1 3161   4.488   0.533   5.511
  754SOL    HW2 3162   4.511   0.448   5.373
  755SOL     OW 3163   5.019   4.432   5.193
  755SOL    HW1 3164   5.091   4.363   5.201
  755SOL    HW2 3165   4.996   4.467   5.283
  756SOL     OW 3166   3.217   5.821   6.171
  756SOL    HW1 3167   3.217   5.878   6.089
  756SOL    HW2 3168   3.258   5.733   6.151
  757SOL     OW 3169   0.256   0.042   1.617
  757SOL    HW1 3170   0.325   0.112   1.602
  757SOL    HW2 3171   0.236   0.036   1.715
  758SOL     OW 3172   3.710   1.189   6.096
  758SOL    HW1 3173   3.642   1.116   6.112
  758SOL    HW2 3174   3.687   1.268   6.153
  759SOL     OW 3175   0.129   2.136   3.382
  759SOL    HW1 3176   0.227   2.145   3.400
  759SOL    HW2 3177   0.104   2.040   3.378
  760SOL     OW 3178   6.955   6.313   4.523
  760SOL    HW1 3179   0.009   6.318   4.583
  760SOL    HW2 3180   6.888   6.250   4.563
  761SOL     OW 3181   4.813   4.285   6.031
  761SOL    HW1 3182   4.786   4.200   6.076
  761SOL    HW2 3183   4.811   4.273   5.932
  762SOL     OW 3184   4.154   6.025   3.875
  762SOL    HW1 3185   4.090   6.048   3.948
  762SOL    HW2 3186   4.109   6.033   3.786
  763SOL     OW 3187   5.838   1.165   0.057
  763SOL    HW1 3188   5.807   1.239   7.024
  763SOL    HW2 3189   5.760   1.128   0.107
  764SOL     OW 3190   4.757   6.485   4.594
  764SOL    HW1 3191   4.697   6.562   4.571
  764SOL    HW2 3192   4.741   6.411   4.528
  765SOL     OW 3193   5.166   6.453   0.053
  765SOL    HW1 3194   5.244   6.508   0.082
  765SOL    HW2 3195   5.081   6.503   0.072
  766SOL     OW 3196   3.376   1.034   3.726
  766SOL    HW1 3197   3.335   0.945   3.705
  766SOL    HW2 3198   3.466   1.040   3.683
  767SOL     OW 3199   6.103   6.813   3.587
  767SOL    HW1 3200   6.108   6.884   3.657
  767SOL    HW2 3201   6.178   6.749   3.599
  768SOL     OW 3202   3.092   6.123   1.129
  768SOL    HW1 3203   3.019   6.175   1.174
  768SOL    HW2 3204   3.115   6.044   1.185
  769SOL     OW 3205   3.533   2.057   5.476
  769SOL    HW1 3206   3.486   1.998   5.542
  769SOL    HW2 3207   3.471   2.127   5.443
  770SOL     OW 3208   0.094   5.051   5.959
  770SOL    HW1 3209   0.025   5.094   5.900
  770SOL    HW2 3210   0.140   4.978   5.909
  771SOL     OW 3211   1.756   4.752   2.632
  771SOL    HW1 3212   1.791   4.843   2.609
  771SOL    HW2 3213   1.722   4.752   2.726
  772SOL     OW 3214   6.256   4.982   0.089
  772SOL    HW1 3215   6.335   5.004   0.145
  772SOL    HW2 3216   6.285   4.966   7.021
  773SOL     OW 3217   1.368   4.625   3.516
  773SOL    HW1 3218   1.381   4.673   3.429
  773SOL    HW2 3219   1.414   4.536   3.513
  774SOL     OW 3220   1.834   2.937   3.457
  774SOL    HW1 3221   1.803   2.844   3.474
  774SOL    HW2 3222   1.887   2.970   3.535
  775SOL     OW 3223   1.059   5.123   2.354
  775SOL    HW1 3224   1.071   5.025   2.364
  775SOL    HW2 3225   1.078   5.168   2.442
  776SOL     OW 3226   2.160   4.556   0.400
  776SOL    HW1 3227   2.143   4.652   0.423
  776SOL    HW2 3228   2.168   4.546   0.301
  777SOL     OW 3229   1.109   3.406   6.328
  777SOL    HW1 3230   1.159   3.375   6.409
  777SOL    HW2 3231   1.094   3.328   6.266
  778SOL     OW 3232   3.389   5.776   0.220
  778SOL    HW1 3233   3.448   5.723   0.280
  778SOL    HW2 3234   3.408   5.753   0.125
  779SOL     OW 3235   5.597   2.182   4.074
  779SOL    HW1 3236   5.529   2.134   4.019
  779SOL    HW2 3237   5.686   2.175   4.030
  780SOL     OW 3238   6.223   1.735   5.330
  780SOL    HW1 3239   6.258   1.642   5.323
  780SOL    HW2 3240   6.155   1.741   5.403
  781SOL     OW 3241   0.093   4.968   6.422
  781SOL    HW1 3242   0.178   4.926   6.453
  781SOL    HW2 3243   0.086   5.060   6.459
  782SOL     OW 3244   2.316   4.292   5.663
  782SOL    HW1 3245   2.368   4.244   5.592
  782SOL    HW2 3246   2.233   4.330   5.623
  783SOL     OW 3247   0.376   5.086   5.608
  783SOL    HW1 3248   0.323   5.170   5.595
  783SOL    HW2 3249   0.332   5.011   5.558
  784SOL     OW 3250   0.868   5.929   6.026
  784SOL    HW1 3251   0.826   6.019   6.015
  784SOL    HW2 3252   0.966   5.936   6.009
  785SOL     OW 3253   0.550   0.506   3.672
  785SOL    HW1 3254   0.521   0.454   3.753
  785SOL    HW2 3255   0.599   0.445   3.609
  786SOL     OW 3256   6.392   2.080   5.203
  786SOL    HW1 3257   6.303   2.106   5.165
  786SOL    HW2 3258   6.380   2.044   5.295
  787SOL     OW 3259   2.730   6.313   0.599
  787SOL    HW1 3260   2.690   6.397   0.564
  787SOL    HW2 3261   2.662   6.265   0.655
  788SOL     OW 3262   2.152   3.379   2.417
  788SOL    HW1 3263   2.106   3.412   2.335
  788SOL    HW2 3264   2.232   3.325   2.392
  789SOL     OW 3265   3.235   5.417   1.971
  789SOL    HW1 3266   3.208   5.488   1.907
  789SOL    HW2 3267   3.249   5.330   1.923
  790SOL     OW 3268   6.980   3.631   3.326
  790SOL    HW1 3269   0.003   3.712   3.357
  790SOL    HW2 3270   6.956   3.641   3.230
  791SOL     OW 3271   3.874   0.520   4.032
  791SOL    HW1 3272   3.802   0.499   4.098
  791SOL    HW2 3273   3.858   0.610   3.992
  792SOL     OW 3274   3.167   0.797   0.726
  792SOL    HW1 3275   3.171   0.842   0.636
  792SOL    HW2 3276   3.192   0.863   0.797
  793SOL     OW 3277   2.696   5.663   4.280
  793SOL    HW1 3278   2.608   5.657   4.233
  793SOL    HW2 3279   2.770   5.653   4.213
  794SOL     OW 3280   3.651   2.856   1.509
  794SOL    HW1 3281   3.750   2.866   1.522
  794SOL    HW2 3282   3.604   2.879   1.594
  795SOL     OW 3283   3.469   6.272   6.145
  795SOL    HW1 3284   3.541   6.219   6.099
  795SOL    HW2 3285   3.396   6.210   6.174
  796SOL     OW 3286   1.365   2.535   6.617
  796SOL    HW1 3287   1.439   2.540   6.550
  796SOL    HW2 3288   1.278   2.527   6.568
  797SOL     OW 3289   2.617   6.705   6.955
  797SOL    HW1 3290   2.648   6.794   6.923
  797SOL    HW2 3291   2.521   6.710   6.983
  798SOL     OW 3292   5.364   4.221   1.790
  798SOL    HW1 3293   5.417   4.286   1.844
  798SOL    HW2 3294   5.391   4.226   1.694
  799SOL     OW 3295   3.566   3.331   4.280
  799SOL    HW1 3296   3.658   3.370   4.281
  799SOL    HW2 3297   3.534   3.322   4.186
  800SOL     OW 3298   5.080   3.262   3.719
  800SOL    HW1 3299   5.052   3.270   3.623
  800SOL    HW2 3300   5.001   3.274   3.778
  801SOL     OW 3301   1.538   4.313   0.120
  801SOL    HW1 3302   1.536   4.289   0.216
  801SOL    HW2 3303   1.511   4.234   0.065
  802SOL     OW 3304   4.167   2.661   5.722
  802SOL    HW1 3305   4.098   2.728   5.697
  802SOL    HW2 3306   4.209   2.687   5.809
  803SOL     OW 3307   3.537   2.018   3.309
  803SOL    HW1 3308   3.481   1.945   3.349
  803SOL    HW2 3309   3.555   2.088   3.378
  804SOL     OW 3310   4.309   0.097   2.771
  804SOL    HW1 3311   4.280   0.055   2.685
  804SOL    HW2 3312   4.401   0.135   2.761
  805SOL     OW 3313   3.780   1.766   3.885
  805SOL    HW1 3314   3.690   1.731   3.858
  805SOL    HW2 3315   3.807   1.723   3.971
  806SOL     OW 3316   4.558   6.323   5.668
  806SOL    HW1 3317   4.494   6.400   5.661
  806SOL    HW2 3318   4.534   6.254   5.600
  807SOL     OW 3319   1.259   6.681   6.218
  807SOL    HW1 3320   1.231   6.745   6.289
  807SOL    HW2 3321   1.208   6.596   6.227
  808SOL     OW 3322   5.353   1.580   5.147
  808SOL    HW1 3323   5.257   1.592   5.122
  808SOL    HW2 3324   5.405   1.661   5.121
  809SOL     OW 3325   2.760   6.177   4.186
  809SOL    HW1 3326   2.671   6.222   4.177
  809SOL    HW2 3327   2.757   6.089   4.139
  810SOL     OW 3328   3.209   3.206   6.207
  810SOL    HW1 3329   3.116   3.185   6.177
  810SOL    HW2 3330   3.245   3.282   6.153
  811SOL     OW 3331   6.042   4.932   5.489
  811SOL    HW1 3332   6.063   4.974   5.401
  811SOL    HW2 3333   6.118   4.873   5.517
  812SOL     OW 3334   1.563   1.943   0.457
  812SOL    HW1 3335   1.593   2.030   0.497
  812SOL    HW2 3336   1.631   1.872   0.477
  813SOL     OW 3337   3.063   1.247   4.770
  813SOL    HW1 3338   2.989   1.315   4.768
  813SOL    HW2 3339   3.026   1.158   4.744
  814SOL     OW 3340   1.127   4.486   1.646
  814SOL    HW1 3341   1.173   4.448   1.566
  814SOL    HW2 3342   1.190   4.547   1.694
  815SOL     OW 3343   3.930   0.274   3.906
  815SOL    HW1 3344   3.907   0.272   3.809
  815SOL    HW2 3345   3.917   0.367   3.942
  816SOL     OW 3346   4.725   3.790   6.239
  816SOL    HW1 3347   4.825   3.781   6.241
  816SOL    HW2 3348   4.685   3.703   6.213
  817SOL     OW 3349   6.520   5.542   0.892
  817SOL    HW1 3350   6.489   5.636   0.907
  817SOL    HW2 3351   6.474   5.504   0.813
  818SOL     OW 3352   6.706   1.172   5.174
  818SOL    HW1 3353   6.609   1.194   5.165
  818SOL    HW2 3354   6.760   1.256   5.165
  819SOL     OW 3355   5.465   3.901   1.980
  819SOL    HW1 3356   5.414   3.931   2.061
  819SOL    HW2 3357   5.522   3.823   2.003
  820SOL     OW 3358   2.056   1.686   5.653
  820SOL    HW1 3359   2.018   1.599   5.621
  820SOL    HW2 3360   2.141   1.705   5.605
  821SOL     OW 3361   4.485   4.175   6.297
  821SOL    HW1 3362   4.524   4.121   6.372
  821SOL    HW2 3363   4.485   4.272   6.323
  822SOL     OW 3364   0.262   3.907   2.726
  822SOL    HW1 3365   0.256   3.866   2.635
  822SOL    HW2 3366   0.201   3.986   2.731
  823SOL     OW 3367   1.853   3.325   5.142
  823SOL    HW1 3368   1.803   3.296   5.060
  823SOL    HW2 3369   1.950   3.336   5.120
  824SOL     OW 3370   4.852   0.811   6.259
  824SOL    HW1 3371   4.772   0.858   6.297
  824SOL    HW2 3372   4.876   0.733   6.318
  825SOL     OW 3373   6.717   6.641   1.795
  825SOL    HW1 3374   6.760   6.593   1.719
  825SOL    HW2 3375   6.687   6.575   1.864
  826SOL     OW 3376   3.765   2.079   0.351
  826SOL    HW1 3377   3.865   2.080   0.357
  826SOL    HW2 3378   3.736   2.131   0.271
  827SOL     OW 3379   3.695   3.353   4.853
  827SOL    HW1 3380   3.721   3.276   4.911
  827SOL    HW2 3381   3.599   3.375   4.867
  828SOL     OW 3382   0.087   6.202   5.881
  828SOL    HW1 3383   0.059   6.125   5.824
  828SOL    HW2 3384   0.163   6.250   5.837
  829SOL     OW 3385   3.600   2.840   2.139
  829SOL    HW1 3386   3.537   2.866   2.212
  829SOL    HW2 3387   3.549   2.797   2.064
  830SOL     OW 3388   0.827   4.258   6.131
  830SOL    HW1 3389   0.885   4.228   6.208
  830SOL    HW2 3390   0.885   4.288   6.055
  831SOL     OW 3391   5.563   1.713   3.867
  831SOL    HW1 3392   5.580   1.670   3.956
  831SOL    HW2 3393   5.631   1.681   3.801
  832SOL     OW 3394   2.855   2.214   5.087
  832SOL    HW1 3395   2.948   2.226   5.050
  832SOL    HW2 3396   2.852   2.130   5.142
  833SOL     OW 3397   3.203   2.498   6.591
  833SOL    HW1 3398   3.252   2.584   6.607
  833SOL    HW2 3399   3.198   2.479   6.493
  834SOL     OW 3400   6.243   3.335   1.254
  834SOL    HW1 3401   6.315   3.344   1.185
  834SOL    HW2 3402   6.251   3.245   1.298
  835SOL     OW 3403   6.856   6.484   5.241
  835SOL    HW1 3404   6.813   6.448   5.323
  835SOL    HW2 3405   6.884   6.409   5.181
  836SOL     OW 3406   6.912   6.993   3.911
  836SOL    HW1 3407   6.897   0.001   3.818
  836SOL    HW2 3408   6.826   6.956   3.947
  837SOL     OW 3409   0.596   0.054   6.623
  837SOL    HW1 3410   0.614   0.097   6.535
  837SOL    HW2 3411   0.597   6.981   6.613
  838SOL     OW 3412   0.676   5.636   3.100
  838SOL    HW1 3413   0.695   5.655   3.197
  838SOL    HW2 3414   0.758   5.596   3.058
  839SOL     OW 3415   1.896   1.910   0.022
  839SOL    HW1 3416   1.960   1.975   0.063
  839SOL    HW2 3417   1.917   1.900   6.951
  840SOL     OW 3418   4.703   5.027   0.467
  840SOL    HW1 3419   4.785   4.969   0.462
  840SOL    HW2 3420   4.624   4.974   0.436
  841SOL     OW 3421   3.201   4.527   0.111
  841SOL    HW1 3422   3.167   4.488   0.025
  841SOL    HW2 3423   3.276   4.590   0.092
  842SOL     OW 3424   4.014   5.283   1.294
  842SOL    HW1 3425   3.969   5.372   1.302
  842SOL    HW2 3426   3.976   5.234   1.216
  843SOL     OW 3427   2.063   6.975   2.221
  843SOL    HW1 3428   2.047   0.020   2.288
  843SOL    HW2 3429   1.985   6.970   2.159
  844SOL     OW 3430   0.054   6.658   1.587
  844SOL    HW1 3431   0.039   6.757   1.581
  844SOL    HW2 3432   0.063   6.632   1.683
  845SOL     OW 3433   4.333   1.735   1.421
  845SOL    HW1 3434   4.376   1.648   1.397
  845SOL    HW2 3435   4.234   1.729   1.407
  846SOL     OW 3436   1.344   0.207   1.411
  846SOL    HW1 3437   1.421   0.146   1.395
  846SOL    HW2 3438   1.307   0.191   1.502
  847SOL     OW 3439   2.506   2.850   1.434
  847SOL    HW1 3440   2.552   2.763   1.452
  847SOL    HW2 3441   2.551   2.922   1.487
  848SOL     OW 3442   6.518   6.476   1.128
  848SOL    HW1 3443   6.562   6.523   1.052
  848SOL    HW2 3444   6.454   6.538   1.174
  849SOL     OW 3445   5.362   3.208   6.471
  849SOL    HW1 3446   5.401   3.118   6.453
  849SOL    HW2 3447   5.266   3.209   6.443
  850SOL     OW 3448   2.505   0.800   4.028
  850SOL    HW1 3449   2.539   0.878   3.976
  850SOL    HW2 3450   2.465   0.832   4.114
  851SOL     OW 3451   4.844   2.763   6.013
  851SOL    HW1 3452   4.852   2.758   6.113
  851SOL    HW2 3453   4.857   2.673   5.973
  852SOL     OW 3454   0.780   4.413   1.219
  852SOL    HW1 3455   0.700   4.370   1.260
  852SOL    HW2 3456   0.862   4.389   1.270
  853SOL     OW 3457   3.474   2.958   0.698
  853SOL    HW1 3458   3.409   2.948   0.773
  853SOL    HW2 3459   3.526   2.874   0.687
  854SOL     OW 3460   6.805   0.945   6.125
  854SOL    HW1 3461   6.887   0.998   6.104
  854SOL    HW2 3462   6.825   0.880   6.198
  855SOL     OW 3463   4.014   1.851   6.898
  855SOL    HW1 3464   4.051   1.902   6.821
  855SOL    HW2 3465   3.973   1.914   6.964
  856SOL     OW 3466   1.092   6.184   1.430
  856SOL    HW1 3467   1.142   6.271   1.435
  856SOL    HW2 3468   1.109   6.132   1.514
  857SOL     OW 3469   6.957   6.168   5.447
  857SOL    HW1 3470   7.025   6.095   5.441
  857SOL    HW2 3471   7.003   6.257   5.439
  858SOL     OW 3472   2.925   4.513   0.681
  858SOL    HW1 3473   2.825   4.520   0.671
  858SOL    HW2 3474   2.949   4.419   0.705
  859SOL     OW 3475   4.600   5.942   6.002
  859SOL    HW1 3476   4.619   5.881   6.078
  859SOL    HW2 3477   4.623   5.897   5.916
  860SOL     OW 3478   3.874   3.007   6.889
  860SOL    HW1 3479   3.874   3.079   6.958
  860SOL    HW2 3480   3.860   3.047   6.799
  861SOL     OW 3481   0.961   5.261   2.109
  861SOL    HW1 3482   0.870   5.276   2.070
  861SOL    HW2 3483   0.952   5.228   2.203
  862SOL     OW 3484   1.030   5.003   4.377
  862SOL    HW1 3485   0.973   5.032   4.453
  862SOL    HW2 3486   1.092   5.078   4.352
  863SOL     OW 3487   5.118   0.291   1.410
  863SOL    HW1 3488   5.112   0.225   1.335
  863SOL    HW2 3489   5.178   0.255   1.482
  864SOL     OW 3490   5.501   3.639   3.643
  864SOL    HW1 3491   5.422   3.699   3.642
  864SOL    HW2 3492   5.512   3.597   3.553
  865SOL     OW 3493   1.893   4.572   4.973
  865SOL    HW1 3494   1.858   4.553   4.881
  865SOL    HW2 3495   1.977   4.625   4.967
  866SOL     OW 3496   3.409   6.420   0.605
  866SOL    HW1 3497   3.331   6.457   0.656
  866SOL    HW2 3498   3.471   6.374   0.669
  867SOL     OW 3499   5.771   3.291   4.487
  867SOL    HW1 3500   5.859   3.282   4.441
  867SOL    HW2 3501   5.786   3.292   4.586
  868SOL     OW 3502   0.123   1.575   1.714
  868SOL    HW1 3503   0.180   1.505   1.670
  868SOL    HW2 3504   0.085   1.539   1.799
  869SOL     OW 3505   1.298   2.612   2.300
  869SOL    HW1 3506   1.345   2.542   2.355
  869SOL    HW2 3507   1.212   2.575   2.265
  870SOL     OW 3508   3.583   4.351   1.768
  870SOL    HW1 3509   3.564   4.449   1.767
  870SOL    HW2 3510   3.682   4.336   1.758
  871SOL     OW 3511   4.801   1.720   3.481
  871SOL    HW1 3512   4.823   1.816   3.499
  871SOL    HW2 3513   4.802   1.670   3.567
  872SOL     OW 3514   2.290   2.061   5.828
  872SOL    HW1 3515   2.387   2.073   5.809
  872SOL    HW2 3516   2.249   2.150   5.850
  873SOL     OW 3517   3.940   1.090   5.958
  873SOL    HW1 3518   3.853   1.132   5.986
  873SOL    HW2 3519   3.972   1.029   6.030
  874SOL     OW 3520   5.205   4.137   3.070
  874SOL    HW1 3521   5.294   4.157   3.029
  874SOL    HW2 3522   5.133   4.176   3.012
  875SOL     OW 3523   4.922   5.353   2.164
  875SOL    HW1 3524   4.886   5.427   2.222
  875SOL    HW2 3525   4.893   5.265   2.201
  876SOL     OW 3526   5.909   1.796   5.818
  876SOL    HW1 3527   5.946   1.873   5.869
  876SOL    HW2 3528   5.813   1.812   5.798
  877SOL     OW 3529   1.075   3.455   5.979
  877SOL    HW1 3530   1.165   3.414   5.998
  877SOL    HW2 3531   1.023   3.393   5.920
  878SOL     OW 3532   4.430   6.766   4.791
  878SOL    HW1 3533   4.465   6.690   4.737
  878SOL    HW2 3534   4.348   6.803   4.748
  879SOL     OW 3535   5.845   7.026   5.893
  879SOL    HW1 3536   5.928   0.040   5.853
  879SOL    HW2 3537   5.864   6.932   5.920
  880SOL     OW 3538   3.756   2.914   2.893
  880SOL    HW1 3539   3.758   2.825   2.937
  880SOL    HW2 3540   3.727   2.904   2.798
  881SOL     OW 3541   5.438   2.448   6.926
  881SOL    HW1 3542   5.407   2.365   6.878
  881SOL    HW2 3543   5.538   2.451   6.925
  882SOL     OW 3544   1.789   2.232   4.053
  882SOL    HW1 3545   1.804   2.265   3.960
  882SOL    HW2 3546   1.738   2.146   4.050
  883SOL     OW 3547   3.025   6.483   3.193
  883SOL    HW1 3548   2.946   6.527   3.236
  883SOL    HW2 3549   3.038   6.393   3.235
  884SOL     OW 3550   2.607   3.592   5.965
  884SOL    HW1 3551   2.550   3.675   5.971
  884SOL    HW2 3552   2.566   3.530   5.898
  885SOL     OW 3553   4.731   3.163   6.691
  885SOL    HW1 3554   4.636   3.190   6.677
  885SOL    HW2 3555   4.773   3.221   6.761
  886SOL     OW 3556   3.887   1.503   5.860
  886SOL    HW1 3557   3.877   1.419   5.806
  886SOL    HW2 3558   3.968   1.553   5.828
  887SOL     OW 3559   3.156   1.096   5.409
  887SOL    HW1 3560   3.100   1.017   5.433
  887SOL    HW2 3561   3.112   1.179   5.444
  888SOL     OW 3562   0.207   6.444   2.161
  888SOL    HW1 3563   0.239   6.351   2.178
  888SOL    HW2 3564   0.254   6.482   2.081
  889SOL     OW 3565   0.383   4.228   1.168
  889SOL    HW1 3566   0.329   4.144   1.169
  889SOL    HW2 3567   0.322   4.306   1.152
  890SOL     OW 3568   2.466   6.750   4.844
  890SOL    HW1 3569   2.368   6.761   4.865
  890SOL    HW2 3570   2.490   6.653   4.844
  891SOL     OW 3571   4.183   4.743   2.256
  891SOL    HW1 3572   4.162   4.812   2.325
  891SOL    HW2 3573   4.271   4.700   2.277
  892SOL     OW 3574   2.359   4.216   0.888
  892SOL    HW1 3575   2.373   4.302   0.937
  892SOL    HW2 3576   2.263   4.188   0.895
  893SOL     OW 3577   1.359   5.083   2.317
  893SOL    HW1 3578   1.290   5.011   2.322
  893SOL    HW2 3579   1.339   5.153   2.385
  894SOL     OW 3580   1.226   4.356   0.523
  894SOL    HW1 3581   1.324   4.365   0.506
  894SOL    HW2 3582   1.212   4.332   0.619
  895SOL     OW 3583   6.548   5.900   5.872
  895SOL    HW1 3584   6.481   5.958   5.826
  895SOL    HW2 3585   6.529   5.804   5.851
  896SOL     OW 3586   6.724   0.647   5.720
  896SOL    HW1 3587   6.684   0.557   5.699
  896SOL    HW2 3588   6.708   0.668   5.817
  897SOL     OW 3589   6.050   1.245   0.233
  897SOL    HW1 3590   6.028   1.231   0.329
  897SOL    HW2 3591   5.967   1.237   0.177
  898SOL     OW 3592   4.055   1.837   3.941
  898SOL    HW1 3593   4.120   1.808   3.871
  898SOL    HW2 3594   3.967   1.794   3.926
  899SOL     OW 3595   6.442   6.767   6.741
  899SOL    HW1 3596   6.530   6.808   6.720
  899SOL    HW2 3597   6.452   6.667   6.744
  900SOL     OW 3598   4.801   4.478   5.756
  900SOL    HW1 3599   4.798   4.577   5.744
  900SOL    HW2 3600   4.744   4.434   5.687
  901SOL     OW 3601   1.076   0.598   2.452
  901SOL    HW1 3602   1.162   0.574   2.408
  901SOL    HW2 3603   0.999   0.574   2.392
  902SOL     OW 3604   0.072   2.661   2.713
  902SOL    HW1 3605   0.081   2.667   2.614
  902SOL    HW2 3606   0.080   2.752   2.753
  903SOL     OW 3607   5.615   1.550   0.124
  903SOL    HW1 3608   5.710   1.575   0.144
  903SOL    HW2 3609   5.555   1.587   0.195
  904SOL     OW 3610   2.908   0.584   3.420
  904SOL    HW1 3611   2.919   0.683   3.425
  904SOL    HW2 3612   2.860   0.560   3.336
  905SOL     OW 3613   4.954   2.500   5.971
  905SOL    HW1 3614   4.977   2.481   6.066
  905SOL    HW2 3615   5.037   2.523   5.921
  906SOL     OW 3616   5.977   3.284   1.836
  906SOL    HW1 3617   5.999   3.314   1.743
  906SOL    HW2 3618   6.061   3.280   1.890
  907SOL     OW 3619   5.893   4.956   0.524
  907SOL    HW1 3620   5.884   5.052   0.499
  907SOL    HW2 3621   5.813   4.905   0.493
  908SOL     OW 3622   1.031   4.165   3.584
  908SOL    HW1 3623   1.063   4.260   3.588
  908SOL    HW2 3624   1.107   4.103   3.604
  909SOL     OW 3625   5.200   4.404   5.872
  909SOL    HW1 3626   5.162   4.496   5.883
  909SOL    HW2 3627   5.294   4.402   5.906
  910SOL     OW 3628   3.440   4.589   0.490
  910SOL    HW1 3629   3.386   4.590   0.575
  910SOL    HW2 3630   3.469   4.682   0.468
  911SOL     OW 3631   0.547   4.480   5.478
  911SOL    HW1 3632   0.547   4.550   5.549
  911SOL    HW2 3633   0.628   4.422   5.488
  912SOL     OW 3634   5.599   1.658   4.704
  912SOL    HW1 3635   5.658   1.658   4.623
  912SOL    HW2 3636   5.653   1.681   4.785
  913SOL     OW 3637   5.472   5.997   3.501
  913SOL    HW1 3638   5.465   6.091   3.534
  913SOL    HW2 3639   5.518   5.941   3.570
  914SOL     OW 3640   2.561   6.500   4.927
  914SOL    HW1 3641   2.622   6.423   4.909
  914SOL    HW2 3642   2.526   6.494   5.020
  915SOL     OW 3643   5.514   5.421   2.318
  915SOL    HW1 3644   5.418   5.396   2.323
  915SOL    HW2 3645   5.535   5.462   2.230
  916SOL     OW 3646   1.662   3.834   3.149
  916SOL    HW1 3647   1.592   3.771   3.182
  916SOL    HW2 3648   1.724   3.857   3.224
  917SOL     OW 3649   0.208   6.823   0.204
  917SOL    HW1 3650   0.172   6.743   0.253
  917SOL    HW2 3651   0.133   6.887   0.185
  918SOL     OW 3652   3.368   5.483   5.696
  918SOL    HW1 3653   3.342   5.462   5.602
  918SOL    HW2 3654   3.379   5.397   5.747
  919SOL     OW 3655   4.276   0.040   5.979
  919SOL    HW1 3656   4.241   6.992   5.922
  919SOL    HW2 3657   4.284   0.123   5.924
  920SOL     OW 3658   3.193   4.296   0.942
  920SOL    HW1 3659   3.259   4.370   0.932
  920SOL    HW2 3660   3.189   4.268   1.037
  921SOL     OW 3661   5.436   5.627   5.461
  921SOL    HW1 3662   5.380   5.706   5.489
  921SOL    HW2 3663   5.514   5.620   5.523
  922SOL     OW 3664   3.459   3.699   3.000
  922SOL    HW1 3665   3.557   3.702   3.021
  922SOL    HW2 3666   3.407   3.707   3.086
  923SOL     OW 3667   2.781   3.950   5.654
  923SOL    HW1 3668   2.687   3.977   5.633
  923SOL    HW2 3669   2.842   3.988   5.585
  924SOL     OW 3670   0.211   2.146   1.134
  924SOL    HW1 3671   0.298   2.138   1.085
  924SOL    HW2 3672   0.224   2.202   1.216
  925SOL     OW 3673   1.174   1.344   0.290
  925SOL    HW1 3674   1.183   1.443   0.297
  925SOL    HW2 3675   1.115   1.311   0.363
  926SOL     OW 3676   1.893   1.923   1.456
  926SOL    HW1 3677   1.851   2.012   1.440
  926SOL    HW2 3678   1.854   1.856   1.392
  927SOL     OW 3679   0.662   4.038   5.312
  927SOL    HW1 3680   0.699   3.985   5.388
  927SOL    HW2 3681   0.663   3.983   5.229
  928SOL     OW 3682   2.732   5.379   5.843
  928SOL    HW1 3683   2.691   5.365   5.752
  928SOL    HW2 3684   2.663   5.364   5.913
  929SOL     OW 3685   2.324   2.410   4.722
  929SOL    HW1 3686   2.316   2.458   4.809
  929SOL    HW2 3687   2.374   2.467   4.657
  930SOL     OW 3688   5.606   5.906   6.212
  930SOL    HW1 3689   5.524   5.850   6.224
  930SOL    HW2 3690   5.680   5.868   6.267
  931SOL     OW 3691   5.902   0.038   2.718
  931SOL    HW1 3692   5.879   6.969   2.736
  931SOL    HW2 3693   5.966   0.070   2.787
  932SOL     OW 3694   4.226   0.090   3.833
  932SOL    HW1 3695   4.320   0.059   3.842
  932SOL    HW2 3696   4.186   0.054   3.748
  933SOL     OW 3697   1.230   5.787   2.316
  933SOL    HW1 3698   1.181   5.758   2.398
  933SOL    HW2 3699   1.170   5.781   2.236
  934SOL     OW 3700   2.062   2.592   1.137
  934SOL    HW1 3701   2.000   2.628   1.206
  934SOL    HW2 3702   2.016   2.593   1.048
  935SOL     OW 3703   5.595   3.100   5.950
  935SOL    HW1 3704   5.642   3.038   6.013
  935SOL    HW2 3705   5.620   3.078   5.856
  936SOL     OW 3706   1.133   1.328   6.063
  936SOL    HW1 3707   1.090   1.238   6.061
  936SOL    HW2 3708   1.211   1.328   6.000
  937SOL     OW 3709   3.562   2.210   6.245
  937SOL    HW1 3710   3.519   2.141   6.302
  937SOL    HW2 3711   3.640   2.170   6.196
  938SOL     OW 3712   5.224   6.829   3.946
  938SOL    HW1 3713   5.198   6.740   3.984
  938SOL    HW2 3714   5.158   6.855   3.876
  939SOL     OW 3715   1.730   0.029   4.605
  939SOL    HW1 3716   1.658   7.024   4.543
  939SOL    HW2 3717   1.819   0.007   4.567
  940SOL     OW 3718   2.168   4.989   0.705
  940SOL    HW1 3719   2.197   5.019   0.796
  940SOL    HW2 3720   2.242   5.007   0.639
  941SOL     OW 3721   3.788   0.220   1.453
  941SOL    HW1 3722   3.715   0.154   1.467
  941SOL    HW2 3723   3.862   0.203   1.519
  942SOL     OW 3724   0.433   4.598   0.229
  942SOL    HW1 3725   0.433   4.519   0.290
  942SOL    HW2 3726   0.340   4.631   0.216
  943SOL     OW 3727   3.479   6.940   1.693
  943SOL    HW1 3728   3.447   7.017   1.748
  943SOL    HW2 3729   3.416   6.863   1.702
  944SOL     OW 3730   6.116   5.647   3.576
  944SOL    HW1 3731   6.038   5.622   3.518
  944SOL    HW2 3732   6.200   5.647   3.521
  945SOL     OW 3733   0.599   5.005   6.747
  945SOL    HW1 3734   0.622   4.943   6.672
  945SOL    HW2 3735   0.506   4.984   6.779
  946SOL     OW 3736   6.240   1.705   4.489
  946SOL    HW1 3737   6.154   1.663   4.462
  946SOL    HW2 3738   6.266   1.775   4.423
  947SOL     OW 3739   3.183   3.966   2.828
  947SOL    HW1 3740   3.156   4.000   2.738
  947SOL    HW2 3741   3.210   3.870   2.821
  948SOL     OW 3742   4.256   2.058   3.755
  948SOL    HW1 3743   4.328   2.127   3.746
  948SOL    HW2 3744   4.249   2.029   3.850
  949SOL     OW 3745   1.845   0.582   5.619
  949SOL    HW1 3746   1.759   0.614   5.659
  949SOL    HW2 3747   1.828   0.498   5.568
  950SOL     OW 3748   6.176   0.260   1.243
  950SOL    HW1 3749   6.198   0.229   1.151
  950SOL    HW2 3750   6.176   0.182   1.306
  951SOL     OW 3751   0.761   6.941   2.174
  951SOL    HW1 3752   0.765   7.005   2.097
  951SOL    HW2 3753   0.739   6.991   2.257
  952SOL     OW 3754   3.139   1.670   3.033
  952SOL    HW1 3755   3.159   1.762   2.998
  952SOL    HW2 3756   3.129   1.674   3.132
  953SOL     OW 3757   0.018   5.687   4.931
  953SOL    HW1 3758   6.979   5.760   4.946
  953SOL    HW2 3759   0.098   5.700   4.990
  954SOL     OW 3760   4.287   6.869   2.360
  954SOL    HW1 3761   4.229   6.787   2.359
  954SOL    HW2 3762   4.290   6.909   2.268
  955SOL     OW 3763   3.480   3.966   1.456
  955SOL    HW1 3764   3.412   3.935   1.390
  955SOL    HW2 3765   3.435   4.026   1.523
  956SOL     OW 3766   3.559   6.707   0.722
  956SOL    HW1 3767   3.570   6.618   0.678
  956SOL    HW2 3768   3.462   6.734   0.720
  957SOL     OW 3769   6.723   0.542   3.169
  957SOL    HW1 3770   6.651   0.557   3.237
  957SOL    HW2 3771   6.682   0.540   3.077
  958SOL     OW 3772   5.284   5.691   2.225
  958SOL    HW1 3773   5.296   5.619   2.157
  958SOL    HW2 3774   5.370   5.742   2.235
  959SOL     OW 3775   5.120   6.048   1.792
  959SOL    HW1 3776   5.181   6.112   1.745
  959SOL    HW2 3777   5.153   6.033   1.885
  960SOL     OW 3778   0.906   6.598   6.113
  960SOL    HW1 3779   0.851   6.622   6.033
  960SOL    HW2 3780   1.003   6.598   6.088
  961SOL     OW 3781   4.585   0.957   4.024
  961SOL    HW1 3782   4.571   1.052   4.055
  961SOL    HW2 3783   4.517   0.898   4.067
  962SOL     OW 3784   0.229   1.238   5.294
  962SOL    HW1 3785   0.175   1.246   5.210
  962SOL    HW2 3786   0.168   1.248   5.373
  963SOL     OW 3787   5.475   2.522   1.905
  963SOL    HW1 3788   5.504   2.427   1.911
  963SOL    HW2 3789   5.441   2.541   1.813
  964SOL     OW 3790   3.549   6.407   4.434
  964SOL    HW1 3791   3.588   6.485   4.483
  964SOL    HW2 3792   3.568   6.416   4.336
  965SOL     OW 3793   4.926   1.264   4.506
  965SOL    HW1 3794   4.864   1.197   4.547
  965SOL    HW2 3795   4.933   1.344   4.565
  966SOL     OW 3796   5.031   1.444   3.100
  966SOL    HW1 3797   5.064   1.402   3.184
  966SOL    HW2 3798   5.105   1.448   3.033
  967SOL     OW 3799   4.625   5.837   6.258
  967SOL    HW1 3800   4.541   5.888   6.277
  967SOL    HW2 3801   4.703   5.890   6.289
  968SOL     OW 3802   4.412   6.545   1.229
  968SOL    HW1 3803   4.344   6.473   1.243
  968SOL    HW2 3804   4.410   6.575   1.134
  969SOL     OW 3805   3.376   3.373   6.789
  969SOL    HW1 3806   3.448   3.383   6.857
  969SOL    HW2 3807   3.408   3.315   6.714
  970SOL     OW 3808   3.919   6.146   5.787
  970SOL    HW1 3809   3.839   6.183   5.739
  970SOL    HW2 3810   3.969   6.084   5.727
  971SOL     OW 3811   4.868   4.110   3.642
  971SOL    HW1 3812   4.821   4.094   3.728
  971SOL    HW2 3813   4.802   4.136   3.571
  972SOL     OW 3814   1.064   1.570   0.755
  972SOL    HW1 3815   1.020   1.596   0.670
  972SOL    HW2 3816   1.160   1.599   0.754
  973SOL     OW 3817   6.993   2.769   5.038
  973SOL    HW1 3818   6.994   2.869   5.029
  973SOL    HW2 3819   6.927   2.731   4.973
  974SOL     OW 3820   1.420   3.235   1.276
  974SOL    HW1 3821   1.326   3.264   1.258
  974SOL    HW2 3822   1.437   3.148   1.231
  975SOL     OW 3823   3.190   0.601   2.260
  975SOL    HW1 3824   3.201   0.646   2.349
  975SOL    HW2 3825   3.279   0.568   2.229
  976SOL     OW 3826   6.941   3.493   3.657
  976SOL    HW1 3827   6.994   3.540   3.586
  976SOL    HW2 3828   6.917   3.558   3.729
  977SOL     OW 3829   0.110   1.545   2.297
  977SOL    HW1 3830   0.105   1.489   2.214
  977SOL    HW2 3831   0.072   1.636   2.279
  978SOL     OW 3832   6.046   1.756   0.706
  978SOL    HW1 3833   5.999   1.825   0.651
  978SOL    HW2 3834   6.023   1.771   0.803
  979SOL     OW 3835   0.224   5.344   6.833
  979SOL    HW1 3836   0.266   5.335   6.923
  979SOL    HW2 3837   0.272   5.413   6.780
  980SOL     OW 3838   5.041   1.474   4.040
  980SOL    HW1 3839   5.025   1.565   4.078
  980SOL    HW2 3840   5.127   1.438   4.077
  981SOL     OW 3841   0.219   6.043   6.092
  981SOL    HW1 3842   0.296   6.104   6.078
  981SOL    HW2 3843   0.154   6.052   6.016
  982SOL     OW 3844   6.894   0.703   6.291
  982SOL    HW1 3845   6.943   0.642   6.229
  982SOL    HW2 3846   6.869   0.653   6.373
  983SOL     OW 3847   0.391   3.689   2.096
  983SOL    HW1 3848   0.418   3.643   2.011
  983SOL    HW2 3849   0.292   3.687   2.105
  984SOL     OW 3850   0.259   3.744   4.846
  984SOL    HW1 3851   0.255   3.746   4.946
  984SOL    HW2 3852   0.171   3.774   4.809
  985SOL     OW 3853   5.033   5.394   6.245
  985SOL    HW1 3854   5.101   5.323   6.230
  985SOL    HW2 3855   4.941   5.355   6.232
  986SOL     OW 3856   3.638   5.245   1.396
  986SOL    HW1 3857   3.649   5.337   1.434
  986SOL    HW2 3858   3.648   5.249   1.296
  987SOL     OW 3859   4.808   4.976   4.275
  987SOL    HW1 3860   4.749   4.956   4.352
  987SOL    HW2 3861   4.900   5.000   4.308
  988SOL     OW 3862   3.313   4.831   1.495
  988SOL    HW1 3863   3.284   4.736   1.508
  988SOL    HW2 3864   3.279   4.865   1.408
  989SOL     OW 3865   0.584   1.928   0.987
  989SOL    HW1 3866   0.543   1.894   1.071
  989SOL    HW2 3867   0.542   2.015   0.961
  990SOL     OW 3868   3.882   0.214   5.238
  990SOL    HW1 3869   3.817   0.284   5.207
  990SOL    HW2 3870   3.844   0.168   5.318
  991SOL     OW 3871   1.328   6.635   3.946
  991SOL    HW1 3872   1.381   6.552   3.960
  991SOL    HW2 3873   1.305   6.644   3.849
  992SOL     OW 3874   6.391   3.538   1.521
  992SOL    HW1 3875   6.418   3.490   1.437
  992SOL    HW2 3876   6.331   3.478   1.575
  993SOL     OW 3877   2.029   4.370   6.967
  993SOL    HW1 3878   1.959   4.406   0.002
  993SOL    HW2 3879   2.085   4.303   7.015
  994SOL     OW 3880   2.148   6.325   1.279
  994SOL    HW1 3881   2.130   6.262   1.356
  994SOL    HW2 3882   2.180   6.413   1.315
  995SOL     OW 3883   5.017   4.387   4.929
  995SOL    HW1 3884   5.010   4.288   4.940
  995SOL    HW2 3885   5.030   4.430   5.019
  996SOL     OW 3886   4.077   6.790   5.214
  996SOL    HW1 3887   4.081   6.873   5.158
  996SOL    HW2 3888   3.991   6.742   5.197
  997SOL     OW 3889   0.940   6.704   3.614
  997SOL    HW1 3890   0.902   6.666   3.698
  997SOL    HW2 3891   0.942   6.633   3.543
  998SOL     OW 3892   4.661   0.474   0.374
  998SOL    HW1 3893   4.627   0.493   0.282
  998SOL    HW2 3894   4.629   0.384   0.404
  999SOL     OW 3895   6.084   2.758   2.785
  999SOL    HW1 3896   6.143   2.820   2.734
  999SOL    HW2 3897   6.065   2.797   2.876
 1000SOL     OW 3898   6.150   1.559   2.884
 1000SOL    HW1 3899   6.183   1.598   2.798
 1000SOL    HW2 3900   6.072   1.613   2.917
 1001SOL     OW 3901   2.795   6.591   3.333
 1001SOL    HW1 3902   2.745   6.675   3.309
 1001SOL    HW2 3903   2.837   6.601   3.423
 1002SOL     OW 3904   4.839   2.452   0.346
 1002SOL    HW1 3905   4.849   2.540   0.391
 1002SOL    HW2 3906   4.929   2.408   0.340
 1003SOL     OW 3907   1.882   1.683   4.015
 1003SOL    HW1 3908   1.822   1.696   3.936
 1003SOL    HW2 3909   1.943   1.605   3.998
 1004SOL     OW 3910   4.477   1.833   4.834
 1004SOL    HW1 3911   4.417   1.790   4.901
 1004SOL    HW2 3912   4.550   1.883   4.882
 1005SOL     OW 3913   0.737   5.425   2.103
 1005SOL    HW1 3914   0.705   5.509   2.148
 1005SOL    HW2 3915   0.762   5.446   2.009
 1006SOL     OW 3916   1.929   3.772   2.306
 1006SOL    HW1 3917   2.001   3.794   2.240
 1006SOL    HW2 3918   1.864   3.708   2.265
 1007SOL     OW 3919   4.568   0.628   6.316
 1007SOL    HW1 3920   4.523   0.569   6.249
 1007SOL    HW2 3921   4.604   0.709   6.269
 1008SOL     OW 3922   0.115   4.374   4.173
 1008SOL    HW1 3923   0.146   4.405   4.084
 1008SOL    HW2 3924   0.093   4.277   4.169
 1009SOL     OW 3925   6.852   6.109   0.233
 1009SOL    HW1 3926   6.920   6.177   0.206
 1009SOL    HW2 3927   6.826   6.123   0.329
 1010SOL     OW 3928   3.029   4.203   0.173
 1010SOL    HW1 3929   2.991   4.177   0.262
 1010SOL    HW2 3930   3.126   4.178   0.170
 1011SOL     OW 3931   6.505   4.669   2.655
 1011SOL    HW1 3932   6.577   4.621   2.605
 1011SOL    HW2 3933   6.515   4.650   2.753
 1012SOL     OW 3934   5.116   6.226   2.957
 1012SOL    HW1 3935   5.190   6.168   2.923
 1012SOL    HW2 3936   5.079   6.281   2.882
 1013SOL     OW 3937   0.358   1.042   6.220
 1013SOL    HW1 3938   0.369   1.119   6.157
 1013SOL    HW2 3939   0.366   1.075   6.314
 1014SOL     OW 3940   0.671   4.803   4.234
 1014SOL    HW1 3941   0.630   4.810   4.325
 1014SOL    HW2 3942   0.631   4.726   4.185
 1015SOL     OW 3943   2.947   6.222   6.214
 1015SOL    HW1 3944   2.970   6.307   6.166
 1015SOL    HW2 3945   3.031   6.178   6.247
 1016SOL     OW 3946   6.833   4.269   0.422
 1016SOL    HW1 3947   6.913   4.286   0.364
 1016SOL    HW2 3948   6.752   4.260   0.365
 1017SOL     OW 3949   1.364   6.900   1.741
 1017SOL    HW1 3950   1.341   6.918   1.837
 1017SOL    HW2 3951   1.299   6.834   1.703
 1018SOL     OW 3952   5.495   5.739   6.495
 1018SOL    HW1 3953   5.542   5.685   6.425
 1018SOL    HW2 3954   5.560   5.802   6.537
 1019SOL     OW 3955   6.943   3.815   2.718
 1019SOL    HW1 3956   6.962   3.768   2.632
 1019SOL    HW2 3957   6.985   3.765   2.793
 1020SOL     OW 3958   5.500   1.550   1.263
 1020SOL    HW1 3959   5.445   1.499   1.197
 1020SOL    HW2 3960   5.503   1.647   1.235
 1021SOL     OW 3961   0.895   6.726   0.987
 1021SOL    HW1 3962   0.880   6.631   1.015
 1021SOL    HW2 3963   0.808   6.766   0.957
 1022SOL     OW 3964   2.251   4.952   5.636
 1022SOL    HW1 3965   2.181   4.882   5.647
 1022SOL    HW2 3966   2.340   4.910   5.619
 1023SOL     OW 3967   0.924   2.439   2.689
 1023SOL    HW1 3968   0.995   2.445   2.618
 1023SOL    HW2 3969   0.834   2.438   2.645
 1024SOL     OW 3970   1.951   3.361   4.806
 1024SOL    HW1 3971   2.018   3.393   4.874
 1024SOL    HW2 3972   1.875   3.316   4.853
 1025SOL     OW 3973   4.292   3.929   0.371
 1025SOL    HW1 3974   4.345   3.851   0.338
 1025SOL    HW2 3975   4.285   3.998   0.298
 1026SOL     OW 3976   3.072   2.663   1.729
 1026SOL    HW1 3977   3.140   2.605   1.683
 1026SOL    HW2 3978   3.022   2.608   1.796
 1027SOL     OW 3979   6.287   0.246   0.596
 1027SOL    HW1 3980   6.338   0.298   0.664
 1027SOL    HW2 3981   6.291   0.293   0.508
 1028SOL     OW 3982   0.251   5.651   4.248
 1028SOL    HW1 3983   0.211   5.683   4.333
 1028SOL    HW2 3984   0.297   5.727   4.201
 1029SOL     OW 3985   1.100   6.978   5.011
 1029SOL    HW1 3986   1.064   6.989   4.918
 1029SOL    HW2 3987   1.192   7.016   5.016
 1030SOL     OW 3988   4.277   3.326   0.568
 1030SOL    HW1 3989   4.265   3.283   0.479
 1030SOL    HW2 3990   4.290   3.256   0.638
 1031SOL     OW 3991   4.534   2.707   0.148
 1031SOL    HW1 3992   4.474   2.787   0.148
 1031SOL    HW2 3993   4.490   2.633   0.199
 1032SOL     OW 3994   1.424   1.481   1.436
 1032SOL    HW1 3995   1.343   1.533   1.461
 1032SOL    HW2 3996   1.481   1.534   1.373
 1033SOL     OW 3997   6.119   7.013   1.978
 1033SOL    HW1 3998   6.145   6.989   2.071
 1033SOL    HW2 3999   6.174   0.063   1.946
 1034SOL     OW 4000   1.838   0.760   4.329
 1034SOL    HW1 4001   1.741   0.781   4.314
 1034SOL    HW2 4002   1.884   0.838   4.370
 1035SOL     OW 4003   1.185   6.957   6.984
 1035SOL    HW1 4004   1.152   6.862   6.981
 1035SOL    HW2 4005   1.127   7.010   0.019
 1036SOL     OW 4006   5.480   1.399   2.341
 1036SOL    HW1 4007   5.383   1.394   2.365
 1036SOL    HW2 4008   5.509   1.495   2.344
 1037SOL     OW 4009   0.522   3.886   2.511
 1037SOL    HW1 4010   0.442   3.882   2.451
 1037SOL    HW2 4011   0.502   3.946   2.589
 1038SOL     OW 4012   1.142   5.945   6.512
 1038SOL    HW1 4013   1.225   5.984   6.472
 1038SOL    HW2 4014   1.154   5.934   6.611
 1039SOL     OW 4015   2.916   3.754   2.785
 1039SOL    HW1 4016   2.936   3.659   2.810
 1039SOL    HW2 4017   2.910   3.761   2.686
 1040SOL     OW 4018   4.290   1.407   2.902
 1040SOL    HW1 4019   4.228   1.472   2.945
 1040SOL    HW2 4020   4.299   1.326   2.960
 1041SOL     OW 4021   0.075   0.272   6.433
 1041SOL    HW1 4022   0.125   0.264   6.520
 1041SOL    HW2 4023   0.139   0.294   6.360
 1042SOL     OW 4024   5.368   2.938   4.028
 1042SOL    HW1 4025   5.319   3.025   4.039
 1042SOL    HW2 4026   5.303   2.865   4.007
 1043SOL     OW 4027   2.474   2.404   3.901
 1043SOL    HW1 4028   2.465   2.460   3.819
 1043SOL    HW2 4029   2.384   2.369   3.927
 1044SOL     OW 4030   4.898   4.536   2.360
 1044SOL    HW1 4031   4.904   4.493   2.269
 1044SOL    HW2 4032   4.980   4.514   2.412
 1045SOL     OW 4033   1.614   0.321   2.827
 1045SOL    HW1 4034   1.631   0.390   2.756
 1045SOL    HW2 4035   1.582   0.366   2.911
 1046SOL     OW 4036   4.067   2.953   0.293
 1046SOL    HW1 4037   4.124   2.937   0.213
 1046SOL    HW2 4038   4.010   2.873   0.310
 1047SOL     OW 4039   4.380   1.086   4.300
 1047SOL    HW1 4040   4.281   1.100   4.289
 1047SOL    HW2 4041   4.403   0.991   4.276
 1048SOL     OW 4042   6.737   0.483   1.746
 1048SOL    HW1 4043   6.686   0.568   1.734
 1048SOL    HW2 4044   6.830   0.503   1.776
 1049SOL     OW 4045   3.620   5.878   0.070
 1049SOL    HW1 4046   3.677   5.826   0.134
 1049SOL    HW2 4047   3.573   5.815   0.009
 1050SOL     OW 4048   2.680   1.514   4.281
 1050SOL    HW1 4049   2.742   1.578   4.235
 1050SOL    HW2 4050   2.687   1.424   4.237
 1051SOL     OW 4051   1.963   2.462   6.415
 1051SOL    HW1 4052   1.876   2.495   6.377
 1051SOL    HW2 4053   2.014   2.413   6.345
 1052SOL     OW 4054   4.486   2.180   6.145
 1052SOL    HW1 4055   4.571   2.133   6.118
 1052SOL    HW2 4056   4.421   2.113   6.180
 1053SOL     OW 4057   4.655   2.714   4.758
 1053SOL    HW1 4058   4.625   2.688   4.849
 1053SOL    HW2 4059   4.688   2.809   4.760
 1054SOL     OW 4060   5.297   5.215   6.792
 1054SOL    HW1 4061   5.250   5.128   6.806
 1054SOL    HW2 4062   5.380   5.217   6.848
 1055SOL     OW 4063   5.183   5.816   6.490
 1055SOL    HW1 4064   5.177   5.724   6.451
 1055SOL    HW2 4065   5.277   5.835   6.516
 1056SOL     OW 4066   3.457   3.491   0.374
 1056SOL    HW1 4067   3.494   3.581   0.398
 1056SOL    HW2 4068   3.408   3.497   0.287
 1057SOL     OW 4069   3.136   3.640   6.634
 1057SOL    HW1 4070   3.127   3.547   6.670
 1057SOL    HW2 4071   3.158   3.703   6.708
 1058SOL     OW 4072   3.568   1.784   2.028
 1058SOL    HW1 4073   3.588   1.773   1.930
 1058SOL    HW2 4074   3.475   1.754   2.047
 1059SOL     OW 4075   1.658   6.615   2.658
 1059SOL    HW1 4076   1.624   6.697   2.703
 1059SOL    HW2 4077   1.724   6.568   2.717
 1060SOL     OW 4078   6.569   6.515   5.114
 1060SOL    HW1 4079   6.593   6.504   5.210
 1060SOL    HW2 4080   6.616   6.595   5.077
 1061SOL     OW 4081   0.403   4.248   6.478
 1061SOL    HW1 4082   0.431   4.169   6.424
 1061SOL    HW2 4083   0.333   4.221   6.544
 1062SOL     OW 4084   4.057   4.735   5.651
 1062SOL    HW1 4085   4.075   4.661   5.717
 1062SOL    HW2 4086   4.144   4.772   5.619
 1063SOL     OW 4087   3.290   6.097   3.688
 1063SOL    HW1 4088   3.254   6.011   3.652
 1063SOL    HW2 4089   3.232   6.129   3.763
 1064SOL     OW 4090   1.110   3.846   0.054
 1064SOL    HW1 4091   1.167   3.897   0.118
 1064SOL    HW2 4092   1.087   3.904   7.003
 1065SOL     OW 4093   5.804   1.276   5.322
 1065SOL    HW1 4094   5.758   1.289   5.410
 1065SOL    HW2 4095   5.749   1.216   5.264
 1066SOL     OW 4096   4.534   5.993   1.055
 1066SOL    HW1 4097   4.619   6.043   1.038
 1066SOL    HW2 4098   4.488   6.032   1.135
 1067SOL     OW 4099   4.182   1.166   0.816
 1067SOL    HW1 4100   4.119   1.196   0.745
 1067SOL    HW2 4101   4.265   1.130   0.774
 1068SOL     OW 4102   6.168   2.522   3.537
 1068SOL    HW1 4103   6.152   2.619   3.521
 1068SOL    HW2 4104   6.118   2.468   3.469
 1069SOL     OW 4105   0.489   1.257   3.158
 1069SOL    HW1 4106   0.549   1.183   3.188
 1069SOL    HW2 4107   0.542   1.326   3.110
 1070SOL     OW 4108   1.290   0.297   2.129
 1070SOL    HW1 4109   1.288   0.357   2.049
 1070SOL    HW2 4110   1.197   0.279   2.159
 1071SOL     OW 4111   1.192   3.190   5.270
 1071SOL    HW1 4112   1.262   3.127   5.237
 1071SOL    HW2 4113   1.222   3.284   5.256
 1072SOL     OW 4114   2.205   1.132   1.617
 1072SOL    HW1 4115   2.284   1.073   1.631
 1072SOL    HW2 4116   2.235   1.227   1.609
 1073SOL     OW 4117   5.442   2.211   2.455
 1073SOL    HW1 4118   5.370   2.273   2.485
 1073SOL    HW2 4119   5.408   2.117   2.456
 1074SOL     OW 4120   3.634   6.622   1.397
 1074SOL    HW1 4121   3.636   6.721   1.386
 1074SOL    HW2 4122   3.552   6.584   1.354
 1075SOL     OW 4123   0.008   3.840   4.816
 1075SOL    HW1 4124   6.955   3.893   4.846
 1075SOL    HW2 4125   7.004   3.752   4.778
 1076SOL     OW 4126   2.976   4.855   5.945
 1076SOL    HW1 4127   3.042   4.924   5.916
 1076SOL    HW2 4128   2.995   4.769   5.897
 1077SOL     OW 4129   6.927   6.716   0.724
 1077SOL    HW1 4130   6.975   6.644   0.675
 1077SOL    HW2 4131   6.874   6.675   0.799
 1078SOL     OW 4132   5.607   6.631   3.905
 1078SOL    HW1 4133   5.689   6.621   3.849
 1078SOL    HW2 4134   5.630   6.611   4.000
 1079SOL     OW 4135   1.468   5.461   1.273
 1079SOL    HW1 4136   1.407   5.389   1.238
 1079SOL    HW2 4137   1.415   5.522   1.331
 1080SOL     OW 4138   5.043   5.904   0.591
 1080SOL    HW1 4139   5.086   5.982   0.546
 1080SOL    HW2 4140   4.989   5.852   0.525
 1081SOL     OW 4141   0.038   6.946   3.226
 1081SOL    HW1 4142   0.071   6.932   3.319
 1081SOL    HW2 4143   0.089   7.022   3.184
 1082SOL     OW 4144   4.815   6.935   0.150
 1082SOL    HW1 4145   4.900   6.980   0.177
 1082SOL    HW2 4146   4.745   7.004   0.132
 1083SOL     OW 4147   6.710   3.751   2.380
 1083SOL    HW1 4148   6.712   3.685   2.306
 1083SOL    HW2 4149   6.622   3.799   2.380
 1084SOL     OW 4150   4.283   0.138   5.524
 1084SOL    HW1 4151   4.278   0.218   5.465
 1084SOL    HW2 4152   4.196   0.125   5.571
 1085SOL     OW 4153   2.158   3.263   4.643
 1085SOL    HW1 4154   2.085   3.301   4.701
 1085SOL    HW2 4155   2.179   3.328   4.570
 1086SOL     OW 4156   4.955   4.556   2.810
 1086SOL    HW1 4157   4.924   4.484   2.873
 1086SOL    HW2 4158   4.888   4.566   2.736
 1087SOL     OW 4159   3.638   0.319   6.090
 1087SOL    HW1 4160   3.737   0.302   6.091
 1087SOL    HW2 4161   3.620   0.415   6.112
 1088SOL     OW 4162   5.951   5.785   4.436
 1088SOL    HW1 4163   5.937   5.760   4.340
 1088SOL    HW2 4164   5.862   5.797   4.480
 1089SOL     OW 4165   5.803   4.866   4.922
 1089SOL    HW1 4166   5.738   4.898   4.854
 1089SOL    HW2 4167   5.876   4.814   4.876
 1090SOL     OW 4168   6.355   2.945   5.234
 1090SOL    HW1 4169   6.428   2.881   5.261
 1090SOL    HW2 4170   6.268   2.896   5.230
 1091SOL     OW 4171   1.930   3.293   3.737
 1091SOL    HW1 4172   1.901   3.304   3.642
 1091SOL    HW2 4173   1.861   3.240   3.787
 1092SOL     OW 4174   0.712   6.075   0.338
 1092SOL    HW1 4175   0.641   6.066   0.408
 1092SOL    HW2 4176   0.681   6.032   0.253
 1093SOL     OW 4177   1.730   0.742   3.286
 1093SOL    HW1 4178   1.678   0.778   3.209
 1093SOL    HW2 4179   1.727   0.642   3.285
 1094SOL     OW 4180   0.224   0.515   3.516
 1094SOL    HW1 4181   0.206   0.594   3.458
 1094SOL    HW2 4182   0.291   0.456   3.472
 1095SOL     OW 4183   6.640   4.543   0.844
 1095SOL    HW1 4184   6.548   4.541   0.805
 1095SOL    HW2 4185   6.705   4.501   0.780
 1096SOL     OW 4186   2.044   5.828   1.944
 1096SOL    HW1 4187   2.120   5.879   1.985
 1096SOL    HW2 4188   2.069   5.732   1.935
 1097SOL     OW 4189   3.224   5.357   4.695
 1097SOL    HW1 4190   3.251   5.341   4.600
 1097SOL    HW2 4191   3.295   5.322   4.756
 1098SOL     OW 4192   6.722   4.176   0.033
 1098SOL    HW1 4193   6.729   4.258   7.003
 1098SOL    HW2 4194   6.798   4.174   0.098
 1099SOL     OW 4195   5.774   0.297   6.823
 1099SOL    HW1 4196   5.774   0.214   6.879
 1099SOL    HW2 4197   5.800   0.375   6.880
 1100SOL     OW 4198   4.936   0.764   4.291
 1100SOL    HW1 4199   4.967   0.679   4.250
 1100SOL    HW2 4200   5.005   0.835   4.276
 1101SOL     OW 4201   5.173   2.491   0.065
 1101SOL    HW1 4202   5.134   2.400   0.051
 1101SOL    HW2 4203   5.259   2.499   0.013
 1102SOL     OW 4204   3.770   1.365   4.693
 1102SOL    HW1 4205   3.768   1.462   4.716
 1102SOL    HW2 4206   3.693   1.343   4.633
 1103SOL     OW 4207   2.904   6.294   0.386
 1103SOL    HW1 4208   2.856   6.310   0.472
 1103SOL    HW2 4209   2.922   6.196   0.376
 1104SOL     OW 4210   6.425   0.578   4.140
 1104SOL    HW1 4211   6.348   0.610   4.196
 1104SOL    HW2 4212   6.490   0.653   4.127
 1105SOL     OW 4213   4.609   0.124   5.915
 1105SOL    HW1 4214   4.693   0.176   5.898
 1105SOL    HW2 4215   4.533   0.168   5.866
 1106SOL     OW 4216   6.489   1.290   2.277
 1106SOL    HW1 4217   6.441   1.204   2.297
 1106SOL    HW2 4218   6.505   1.340   2.362
 1107SOL     OW 4219   1.194   2.869   6.936
 1107SOL    HW1 4220   1.117   2.930   6.919
 1107SOL    HW2 4221   1.238   2.846   6.849
 1108SOL     OW 4222   2.667   1.107   2.095
 1108SOL    HW1 4223   2.574   1.073   2.085
 1108SOL    HW2 4224   2.725   1.069   2.023
 1109SOL     OW 4225   5.295   1.327   5.228
 1109SOL    HW1 4226   5.383   1.279   5.231
 1109SOL    HW2 4227   5.308   1.423   5.252
 1110SOL     OW 4228   1.516   0.284   1.655
 1110SOL    HW1 4229   1.587   0.321   1.594
 1110SOL    HW2 4230   1.492   0.192   1.625
 1111SOL     OW 4231   5.250   3.486   6.122
 1111SOL    HW1 4232   5.307   3.434   6.058
 1111SOL    HW2 4233   5.301   3.500   6.207
 1112SOL     OW 4234   5.786   0.501   2.575
 1112SOL    HW1 4235   5.790   0.403   2.558
 1112SOL    HW2 4236   5.877   0.536   2.596
 1113SOL     OW 4237   0.353   0.939   2.917
 1113SOL    HW1 4238   0.404   0.892   2.988
 1113SOL    HW2 4239   0.386   1.033   2.908
 1114SOL     OW 4240   3.776   3.445   4.625
 1114SOL    HW1 4241   3.750   3.402   4.712
 1114SOL    HW2 4242   3.866   3.486   4.633
 1115SOL     OW 4243   1.843   5.853   5.952
 1115SOL    HW1 4244   1.933   5.810   5.961
 1115SOL    HW2 4245   1.845   5.945   5.991
 1116SOL     OW 4246   4.554   0.233   0.441
 1116SOL    HW1 4247   4.529   0.136   0.440
 1116SOL    HW2 4248   4.472   0.289   0.434
 1117SOL     OW 4249   2.012   2.253   1.557
 1117SOL    HW1 4250   2.080   2.325   1.573
 1117SOL    HW2 4251   2.056   2.173   1.516
 1118SOL     OW 4252   4.545   6.759   0.120
 1118SOL    HW1 4253   4.472   6.736   0.055
 1118SOL    HW2 4254   4.628   6.710   0.095
 1119SOL     OW 4255   3.235   6.315   3.533
 1119SOL    HW1 4256   3.264   6.223   3.558
 1119SOL    HW2 4257   3.143   6.332   3.568
 1120SOL     OW 4258   0.628   2.950   1.949
 1120SOL    HW1 4259   0.692   2.983   1.881
 1120SOL    HW2 4260   0.672   2.881   2.006
 1121SOL     OW 4261   5.385   4.751   6.122
 1121SOL    HW1 4262   5.353   4.841   6.091
 1121SOL    HW2 4263   5.397   4.691   6.044
 1122SOL     OW 4264   6.201   0.890   2.530
 1122SOL    HW1 4265   6.295   0.858   2.533
 1122SOL    HW2 4266   6.169   0.910   2.623
 1123SOL     OW 4267   3.319   2.087   4.911
 1123SOL    HW1 4268   3.396   2.110   4.971
 1123SOL    HW2 4269   3.256   2.164   4.908
 1124SOL     OW 4270   2.743   2.426   3.552
 1124SOL    HW1 4271   2.745   2.406   3.650
 1124SOL    HW2 4272   2.800   2.507   3.534
 1125SOL     OW 4273   1.208   3.181   3.581
 1125SOL    HW1 4274   1.123   3.158   3.628
 1125SOL    HW2 4275   1.264   3.099   3.569
 1126SOL     OW 4276   5.095   4.879   3.639
 1126SOL    HW1 4277   5.145   4.793   3.644
 1126SOL    HW2 4278   5.122   4.938   3.715
 1127SOL     OW 4279   5.491   0.448   0.733
 1127SOL    HW1 4280   5.429   0.518   0.697
 1127SOL    HW2 4281   5.514   0.384   0.661
 1128SOL     OW 4282   3.127   1.726   4.710
 1128SOL    HW1 4283   3.222   1.754   4.695
 1128SOL    HW2 4284   3.084   1.706   4.622
 1129SOL     OW 4285   1.469   0.607   0.045
 1129SOL    HW1 4286   1.538   0.562   7.016
 1129SOL    HW2 4287   1.512   0.676   0.104
 1130SOL     OW 4288   2.458   5.720   0.637
 1130SOL    HW1 4289   2.467   5.637   0.691
 1130SOL    HW2 4290   2.548   5.755   0.612
 1131SOL     OW 4291   1.360   5.716   3.430
 1131SOL    HW1 4292   1.388   5.810   3.413
 1131SOL    HW2 4293   1.264   5.715   3.459
 1132SOL     OW 4294   1.459   2.629   3.014
 1132SOL    HW1 4295   1.451   2.663   3.108
 1132SOL    HW2 4296   1.418   2.538   3.009
 1133SOL     OW 4297   1.352   6.072   7.025
 1133SOL    HW1 4298   1.259   6.037   0.009
 1133SOL    HW2 4299   1.364   6.154   0.055
 1134SOL     OW 4300   3.957   5.144   1.072
 1134SOL    HW1 4301   3.990   5.174   0.983
 1134SOL    HW2 4302   4.025   5.086   1.116
 1135SOL     OW 4303   1.494   6.605   2.428
 1135SOL    HW1 4304   1.540   6.634   2.344
 1135SOL    HW2 4305   1.555   6.620   2.506
 1136SOL     OW 4306   1.552   5.103   3.132
 1136SOL    HW1 4307   1.527   5.117   3.036
 1136SOL    HW2 4308   1.579   5.189   3.173
 1137SOL     OW 4309   1.266   5.247   4.001
 1137SOL    HW1 4310   1.357   5.260   4.040
 1137SOL    HW2 4311   1.272   5.243   3.901
 1138SOL     OW 4312   2.671   4.687   4.428
 1138SOL    HW1 4313   2.627   4.762   4.378
 1138SOL    HW2 4314   2.616   4.604   4.420
 1139SOL     OW 4315   3.515   5.849   4.694
 1139SOL    HW1 4316   3.591   5.891   4.644
 1139SOL    HW2 4317   3.447   5.814   4.630
 1140SOL     OW 4318   1.868   2.757   1.334
 1140SOL    HW1 4319   1.799   2.817   1.294
 1140SOL    HW2 4320   1.844   2.737   1.429
 1141SOL     OW 4321   6.259   5.032   6.293
 1141SOL    HW1 4322   6.210   5.004   6.211
 1141SOL    HW2 4323   6.327   5.102   6.269
 1142SOL     OW 4324   1.031   5.904   3.347
 1142SOL    HW1 4325   1.095   5.829   3.331
 1142SOL    HW2 4326   0.956   5.897   3.281
 1143SOL     OW 4327   6.896   3.807   1.790
 1143SOL    HW1 4328   6.977   3.829   1.844
 1143SOL    HW2 4329   6.904   3.850   1.700
 1144SOL     OW 4330   4.944   4.617   7.020
 1144SOL    HW1 4331   4.967   4.519   7.018
 1144SOL    HW2 4332   4.851   4.630   6.988
 1145SOL     OW 4333   5.925   0.334   1.051
 1145SOL    HW1 4334   5.864   0.372   1.121
 1145SOL    HW2 4335   5.871   0.312   0.969
 1146SOL     OW 4336   1.724   0.251   1.450
 1146SOL    HW1 4337   1.702   0.202   1.366
 1146SOL    HW2 4338   1.800   0.206   1.497
 1147SOL     OW 4339   1.111   5.755   0.283
 1147SOL    HW1 4340   1.198   5.717   0.252
 1147SOL    HW2 4341   1.040   5.686   0.274
 1148SOL     OW 4342   3.616   5.830   1.745
 1148SOL    HW1 4343   3.704   5.863   1.713
 1148SOL    HW2 4344   3.630   5.763   1.818
 1149SOL     OW 4345   6.105   2.734   1.961
 1149SOL    HW1 4346   6.199   2.719   1.991
 1149SOL    HW2 4347   6.042   2.714   2.036
 1150SOL     OW 4348   0.692   1.540   0.672
 1150SOL    HW1 4349   0.771   1.599   0.664
 1150SOL    HW2 4350   0.609   1.595   0.684
 1151SOL     OW 4351   5.646   5.428   4.430
 1151SOL    HW1 4352   5.636   5.506   4.492
 1151SOL    HW2 4353   5.743   5.412   4.411
 1152SOL     OW 4354   3.235   6.273   5.556
 1152SOL    HW1 4355   3.182   6.354   5.531
 1152SOL    HW2 4356   3.181   6.215   5.618
 1153SOL     OW 4357   5.556   0.170   0.899
 1153SOL    HW1 4358   5.548   0.227   0.980
 1153SOL    HW2 4359   5.653   0.161   0.874
 1154SOL     OW 4360   1.347   3.022   0.995
 1154SOL    HW1 4361   1.279   3.094   0.986
 1154SOL    HW2 4362   1.346   2.986   1.088
 1155SOL     OW 4363   4.214   5.662   3.566
 1155SOL    HW1 4364   4.310   5.690   3.559
 1155SOL    HW2 4365   4.192   5.601   3.490
 1156SOL     OW 4366   3.192   0.213   1.121
 1156SOL    HW1 4367   3.269   0.257   1.076
 1156SOL    HW2 4368   3.166   0.265   1.203
 1157SOL     OW 4369   2.451   1.824   0.918
 1157SOL    HW1 4370   2.441   1.914   0.960
 1157SOL    HW2 4371   2.369   1.770   0.935
 1158SOL     OW 4372   5.434   5.004   3.760
 1158SOL    HW1 4373   5.509   4.999   3.826
 1158SOL    HW2 4374   5.446   4.933   3.690
 1159SOL     OW 4375   5.313   4.832   0.173
 1159SOL    HW1 4376   5.242   4.810   0.106
 1159SOL    HW2 4377   5.402   4.835   0.127
 1160SOL     OW 4378   4.183   2.268   1.133
 1160SOL    HW1 4379   4.280   2.252   1.117
 1160SOL    HW2 4380   4.132   2.255   1.048
 1161SOL     OW 4381   0.493   3.869   0.843
 1161SOL    HW1 4382   0.427   3.894   0.772
 1161SOL    HW2 4383   0.570   3.820   0.801
 1162SOL     OW 4384   2.135   3.115   5.060
 1162SOL    HW1 4385   2.218   3.060   5.055
 1162SOL    HW2 4386   2.055   3.055   5.068
 1163SOL     OW 4387   4.407   2.025   2.067
 1163SOL    HW1 4388   4.473   2.003   1.995
 1163SOL    HW2 4389   4.408   1.952   2.136
 1164SOL     OW 4390   3.908   2.257   6.744
 1164SOL    HW1 4391   3.851   2.335   6.719
 1164SOL    HW2 4392   3.872   2.174   6.701
 1165SOL     OW 4393   3.941   0.305   2.646
 1165SOL    HW1 4394   3.936   0.216   2.692
 1165SOL    HW2 4395   4.036   0.325   2.622
 1166SOL     OW 4396   4.059   4.165   6.862
 1166SOL    HW1 4397   4.043   4.151   6.960
 1166SOL    HW2 4398   4.153   4.196   6.848
 1167SOL     OW 4399   5.140   3.966   3.861
 1167SOL    HW1 4400   5.127   4.014   3.775
 1167SOL    HW2 4401   5.058   3.913   3.883
 1168SOL     OW 4402   0.160   0.284   0.396
 1168SOL    HW1 4403   0.108   0.319   0.318
 1168SOL    HW2 4404   0.256   0.273   0.370
 1169SOL     OW 4405   5.043   1.722   5.531
 1169SOL    HW1 4406   5.027   1.794   5.463
 1169SOL    HW2 4407   5.128   1.674   5.509
 1170SOL     OW 4408   5.159   4.512   3.161
 1170SOL    HW1 4409   5.120   4.573   3.092
 1170SOL    HW2 4410   5.088   4.451   3.196
 1171SOL     OW 4411   0.168   6.565   0.974
 1171SOL    HW1 4412   0.178   6.631   0.900
 1171SOL    HW2 4413   0.250   6.509   0.979
 1172SOL     OW 4414   5.695   2.523   6.949
 1172SOL    HW1 4415   5.773   2.556   6.895
 1172SOL    HW2 4416   5.666   2.594   7.013
 1173SOL     OW 4417   5.096   2.966   2.102
 1173SOL    HW1 4418   5.031   3.032   2.140
 1173SOL    HW2 4419   5.162   3.014   2.045
 1174SOL     OW 4420   2.767   5.365   6.364
 1174SOL    HW1 4421   2.671   5.336   6.358
 1174SOL    HW2 4422   2.777   5.456   6.323
 1175SOL     OW 4423   3.265   3.482   4.237
 1175SOL    HW1 4424   3.169   3.497   4.215
 1175SOL    HW2 4425   3.305   3.567   4.272
 1176SOL     OW 4426   5.434   3.811   7.015
 1176SOL    HW1 4427   5.494   3.875   6.966
 1176SOL    HW2 4428   5.488   3.733   0.021
 1177SOL     OW 4429   1.493   0.587   4.169
 1177SOL    HW1 4430   1.395   0.602   4.179
 1177SOL    HW2 4431   1.526   0.634   4.087
 1178SOL     OW 4432   4.059   6.700   6.827
 1178SOL    HW1 4433   4.061   6.757   6.745
 1178SOL    HW2 4434   4.073   6.604   6.801
 1179SOL     OW 4435   0.805   5.843   1.108
 1179SOL    HW1 4436   0.848   5.930   1.128
 1179SOL    HW2 4437   0.757   5.849   1.020
 1180SOL     OW 4438   3.758   6.336   0.586
 1180SOL    HW1 4439   3.746   6.329   0.685
 1180SOL    HW2 4440   3.855   6.329   0.563
 1181SOL     OW 4441   6.006   6.771   5.912
 1181SOL    HW1 4442   6.092   6.755   5.864
 1181SOL    HW2 4443   6.020   6.842   5.982
 1182SOL     OW 4444   5.207   3.611   4.239
 1182SOL    HW1 4445   5.118   3.655   4.225
 1182SOL    HW2 4446   5.275   3.656   4.180
 1183SOL     OW 4447   1.443   4.105   6.979
 1183SOL    HW1 4448   1.406   4.043   0.022
 1183SOL    HW2 4449   1.435   4.062   6.889
 1184SOL     OW 4450   0.522   1.763   4.788
 1184SOL    HW1 4451   0.462   1.683   4.786
 1184SOL    HW2 4452   0.495   1.822   4.864
 1185SOL     OW 4453   0.154   2.065   0.075
 1185SOL    HW1 4454   0.090   2.049   0.000
 1185SOL    HW2 4455   0.244   2.027   0.052
 1186SOL     OW 4456   4.770   6.237   3.541
 1186SOL    HW1 4457   4.698   6.305   3.531
 1186SOL    HW2 4458   4.842   6.273   3.601
 1187SOL     OW 4459   6.268   2.060   6.881
 1187SOL    HW1 4460   6.195   1.992   6.875
 1187SOL    HW2 4461   6.245   2.128   6.950
 1188SOL     OW 4462   4.367   1.670   6.853
 1188SOL    HW1 4463   4.447   1.617   6.826
 1188SOL    HW2 4464   4.373   1.762   6.812
 1189SOL     OW 4465   6.183   3.789   3.919
 1189SOL    HW1 4466   6.182   3.889   3.908
 1189SOL    HW2 4467   6.133   3.764   4.001
 1190SOL     OW 4468   2.398   0.967   3.810
 1190SOL    HW1 4469   2.304   0.940   3.788
 1190SOL    HW2 4470   2.403   1.067   3.815
 1191SOL     OW 4471   2.749   0.370   2.875
 1191SOL    HW1 4472   2.769   0.280   2.836
 1191SOL    HW2 4473   2.742   0.362   2.975
 1192SOL     OW 4474   5.909   5.331   4.379
 1192SOL    HW1 4475   5.915   5.303   4.284
 1192SOL    HW2 4476   5.982   5.289   4.432
 1193SOL     OW 4477   6.707   6.012   3.921
 1193SOL    HW1 4478   6.631   5.952   3.897
 1193SOL    HW2 4479   6.771   6.017   3.844
 1194SOL     OW 4480   3.842   0.088   1.045
 1194SOL    HW1 4481   3.871   7.019   1.036
 1194SOL    HW2 4482   3.892   0.132   1.119
 1195SOL     OW 4483   5.476   3.246   3.252
 1195SOL    HW1 4484   5.516   3.177   3.313
 1195SOL    HW2 4485   5.511   3.233   3.159
 1196SOL     OW 4486   0.273   6.347   5.387
 1196SOL    HW1 4487   0.293   6.389   5.298
 1196SOL    HW2 4488   0.193   6.391   5.427
 1197SOL     OW 4489   2.785   6.402   6.652
 1197SOL    HW1 4490   2.721   6.439   6.719
 1197SOL    HW2 4491   2.865   6.365   6.699
 1198SOL     OW 4492   1.420   2.520   0.645
 1198SOL    HW1 4493   1.339   2.577   0.660
 1198SOL    HW2 4494   1.494   2.553   0.703
 1199SOL     OW 4495   5.489   4.377   2.514
 1199SOL    HW1 4496   5.484   4.471   2.547
 1199SOL    HW2 4497   5.449   4.315   2.582
 1200SOL     OW 4498   3.052   3.860   1.841
 1200SOL    HW1 4499   3.050   3.921   1.920
 1200SOL    HW2 4500   3.045   3.913   1.757
 1201SOL     OW 4501   1.417   2.349   4.879
 1201SOL    HW1 4502   1.449   2.439   4.852
 1201SOL    HW2 4503   1.398   2.294   4.798
 1202SOL     OW 4504   0.810   6.727   5.048
 1202SOL    HW1 4505   0.844   6.790   4.978
 1202SOL    HW2 4506   0.873   6.650   5.057
 1203SOL     OW 4507   4.564   5.229   5.124
 1203SOL    HW1 4508   4.478   5.277   5.109
 1203SOL    HW2 4509   4.613   5.271   5.200
 1204SOL     OW 4510   1.681   0.544   2.674
 1204SOL    HW1 4511   1.754   0.522   2.609
 1204SOL    HW2 4512   1.719   0.552   2.766
 1205SOL     OW 4513   6.141   3.187   2.536
 1205SOL    HW1 4514   6.065   3.251   2.527
 1205SOL    HW2 4515   6.197   3.191   2.453
 1206SOL     OW 4516   3.253   2.973   4.223
 1206SOL    HW1 4517   3.339   2.964   4.275
 1206SOL    HW2 4518   3.246   2.899   4.157
 1207SOL     OW 4519   1.186   5.715   3.199
 1207SOL    HW1 4520   1.183   5.710   3.099
 1207SOL    HW2 4521   1.262   5.773   3.227
 1208SOL     OW 4522   3.619   2.404   6.895
 1208SOL    HW1 4523   3.602   2.502   6.884
 1208SOL    HW2 4524   3.569   2.353   6.825
 1209SOL     OW 4525   4.365   6.660   5.320
 1209SOL    HW1 4526   4.399   6.746   5.357
 1209SOL    HW2 4527   4.288   6.679   5.259
 1210SOL     OW 4528   2.466   1.067   3.349
 1210SOL    HW1 4529   2.530   1.117   3.408
 1210SOL    HW2 4530   2.493   0.971   3.345
 1211SOL     OW 4531   1.001   3.018   0.963
 1211SOL    HW1 4532   1.004   2.981   0.870
 1211SOL    HW2 4533   1.050   3.105   0.966
 1212SOL     OW 4534   0.647   6.945   0.200
 1212SOL    HW1 4535   0.566   6.943   0.142
 1212SOL    HW2 4536   0.723   6.986   0.151
 1213SOL     OW 4537   6.401   2.969   3.060
 1213SOL    HW1 4538   6.448   2.919   2.987
 1213SOL    HW2 4539   6.453   3.052   3.082
 1214SOL     OW 4540   1.302   2.872   2.340
 1214SOL    HW1 4541   1.314   2.774   2.321
 1214SOL    HW2 4542   1.273   2.919   2.257
 1215SOL     OW 4543   2.169   5.447   2.709
 1215SOL    HW1 4544   2.086   5.448   2.765
 1215SOL    HW2 4545   2.232   5.378   2.745
 1216SOL     OW 4546   3.702   0.209   1.944
 1216SOL    HW1 4547   3.749   0.260   2.017
 1216SOL    HW2 4548   3.715   0.111   1.958
 1217SOL     OW 4549   2.601   4.072   0.275
 1217SOL    HW1 4550   2.656   4.047   0.354
 1217SOL    HW2 4551   2.580   4.170   0.278
 1218SOL     OW 4552   2.041   4.991   4.262
 1218SOL    HW1 4553   2.136   5.023   4.263
 1218SOL    HW2 4554   2.039   4.891   4.255
 1219SOL     OW 4555   3.458   5.291   2.064
 1219SOL    HW1 4556   3.382   5.353   2.043
 1219SOL    HW2 4557   3.445   5.204   2.016
 1220SOL     OW 4558   0.958   4.827   1.976
 1220SOL    HW1 4559   0.952   4.754   1.908
 1220SOL    HW2 4560   0.936   4.790   2.067
 1221SOL     OW 4561   4.132   3.814   6.184
 1221SOL    HW1 4562   4.146   3.730   6.132
 1221SOL    HW2 4563   4.035   3.823   6.208
 1222SOL     OW 4564   6.709   1.960   6.690
 1222SOL    HW1 4565   6.784   1.895   6.700
 1222SOL    HW2 4566   6.713   2.027   6.765
 1223SOL     OW 4567   4.350   5.585   1.502
 1223SOL    HW1 4568   4.310   5.510   1.449
 1223SOL    HW2 4569   4.369   5.662   1.441
 1224SOL     OW 4570   3.021   0.849   1.445
 1224SOL    HW1 4571   2.950   0.856   1.374
 1224SOL    HW2 4572   3.088   0.779   1.418
 1225SOL     OW 4573   3.689   4.613   5.725
 1225SOL    HW1 4574   3.617   4.558   5.684
 1225SOL    HW2 4575   3.769   4.556   5.742
 1226SOL     OW 4576   2.322   5.503   0.957
 1226SOL    HW1 4577   2.299   5.435   0.887
 1226SOL    HW2 4578   2.240   5.553   0.984
 1227SOL     OW 4579   1.303   4.604   5.417
 1227SOL    HW1 4580   1.283   4.541   5.493
 1227SOL    HW2 4581   1.224   4.610   5.357
 1228SOL     OW 4582   3.336   2.408   0.593
 1228SOL    HW1 4583   3.249   2.375   0.631
 1228SOL    HW2 4584   3.320   2.489   0.538
 1229SOL     OW 4585   2.865   4.128   6.969
 1229SOL    HW1 4586   2.943   4.146   0.001
 1229SOL    HW2 4587   2.814   4.212   6.953
 1230SOL     OW 4588   3.921   0.366   3.095
 1230SOL    HW1 4589   3.847   0.414   3.142
 1230SOL    HW2 4590   4.003   0.367   3.153
 1231SOL     OW 4591   0.840   3.173   3.242
 1231SOL    HW1 4592   0.778   3.235   3.194
 1231SOL    HW2 4593   0.934   3.195   3.219
 1232SOL     OW 4594   1.918   1.217   2.466
 1232SOL    HW1 4595   1.883   1.308   2.445
 1232SOL    HW2 4596   1.983   1.189   2.396
 1233SOL     OW 4597   0.847   2.465   4.583
 1233SOL    HW1 4598   0.940   2.496   4.603
 1233SOL    HW2 4599   0.817   2.401   4.653
 1234SOL     OW 4600   6.570   4.373   4.059
 1234SOL    HW1 4601   6.600   4.391   3.965
 1234SOL    HW2 4602   6.649   4.382   4.121
 1235SOL     OW 4603   6.997   4.931   3.442
 1235SOL    HW1 4604   0.034   4.932   3.365
 1235SOL    HW2 4605   6.986   4.837   3.474
 1236SOL     OW 4606   6.119   0.673   6.862
 1236SOL    HW1 4607   6.097   0.639   6.770
 1236SOL    HW2 4608   6.181   0.609   6.907
 1237SOL     OW 4609   2.478   3.862   0.146
 1237SOL    HW1 4610   2.552   3.927   0.162
 1237SOL    HW2 4611   2.400   3.884   0.205
 1238SOL     OW 4612   1.936   1.036   1.288
 1238SOL    HW1 4613   1.993   1.118   1.279
 1238SOL    HW2 4614   1.931   0.990   1.199
 1239SOL     OW 4615   0.817   1.046   5.173
 1239SOL    HW1 4616   0.762   1.125   5.202
 1239SOL    HW2 4617   0.756   0.972   5.144
 1240SOL     OW 4618   6.033   5.457   0.812
 1240SOL    HW1 4619   5.956   5.470   0.874
 1240SOL    HW2 4620   6.095   5.535   0.820
 1241SOL     OW 4621   0.546   2.021   3.903
 1241SOL    HW1 4622   0.543   1.921   3.903
 1241SOL    HW2 4623   0.516   2.056   3.991
 1242SOL     OW 4624   1.890   1.876   6.516
 1242SOL    HW1 4625   1.949   1.876   6.597
 1242SOL    HW2 4626   1.875   1.781   6.486
 1243SOL     OW 4627   3.167   5.127   5.247
 1243SOL    HW1 4628   3.089   5.071   5.275
 1243SOL    HW2 4629   3.231   5.136   5.323
 1244SOL     OW 4630   1.255   1.505   2.991
 1244SOL    HW1 4631   1.301   1.419   3.012
 1244SOL    HW2 4632   1.260   1.566   3.071
 1245SOL     OW 4633   3.318   2.980   5.016
 1245SOL    HW1 4634   3.252   3.036   4.967
 1245SOL    HW2 4635   3.270   2.908   5.067
 1246SOL     OW 4636   1.196   6.709   1.657
 1246SOL    HW1 4637   1.115   6.724   1.713
 1246SOL    HW2 4638   1.181   6.631   1.596
 1247SOL     OW 4639   0.372   6.556   6.408
 1247SOL    HW1 4640   0.326   6.469   6.389
 1247SOL    HW2 4641   0.387   6.605   6.322
 1248SOL     OW 4642   2.347   6.874   4.106
 1248SOL    HW1 4643   2.354   6.950   4.170
 1248SOL    HW2 4644   2.425   6.877   4.043
 1249SOL     OW 4645   6.473   3.109   3.668
 1249SOL    HW1 4646   6.458   3.043   3.594
 1249SOL    HW2 4647   6.388   3.124   3.719
 1250SOL     OW 4648   6.174   3.358   4.636
 1250SOL    HW1 4649   6.264   3.366   4.680
 1250SOL    HW2 4650   6.165   3.428   4.566
 1251SOL     OW 4651   2.938   0.563   0.206
 1251SOL    HW1 4652   2.966   0.642   0.260
 1251SOL    HW2 4653   2.980   0.480   0.243
 1252SOL     OW 4654   3.998   3.701   0.063
 1252SOL    HW1 4655   4.044   3.660   0.142
 1252SOL    HW2 4656   3.928   3.766   0.095
 1253SOL     OW 4657   5.240   1.897   3.273
 1253SOL    HW1 4658   5.339   1.900   3.256
 1253SOL    HW2 4659   5.217   1.810   3.317
 1254SOL     OW 4660   5.431   1.140   3.827
 1254SOL    HW1 4661   5.345   1.100   3.793
 1254SOL    HW2 4662   5.411   1.206   3.899
 1255SOL     OW 4663   5.722   0.488   1.166
 1255SOL    HW1 4664   5.718   0.568   1.227
 1255SOL    HW2 4665   5.743   0.519   1.073
 1256SOL     OW 4666   5.518   2.998   3.364
 1256SOL    HW1 4667   5.545   2.901   3.370
 1256SOL    HW2 4668   5.421   3.004   3.341
 1257SOL     OW 4669   6.015   1.716   4.922
 1257SOL    HW1 4670   6.043   1.633   4.971
 1257SOL    HW2 4671   6.018   1.700   4.824
 1258SOL     OW 4672   0.105   5.107   3.951
 1258SOL    HW1 4673   0.089   5.093   4.049
 1258SOL    HW2 4674   0.181   5.169   3.938
 1259SOL     OW 4675   5.924   2.417   5.451
 1259SOL    HW1 4676   5.871   2.496   5.420
 1259SOL    HW2 4677   6.022   2.440   5.449
 1260SOL     OW 4678   1.013   1.539   4.408
 1260SOL    HW1 4679   1.100   1.493   4.428
 1260SOL    HW2 4680   0.983   1.590   4.489
 1261SOL     OW 4681   6.460   2.890   1.427
 1261SOL    HW1 4682   6.442   2.962   1.360
 1261SOL    HW2 4683   6.464   2.802   1.380
 1262SOL     OW 4684   5.503   5.751   1.793
 1262SOL    HW1 4685   5.553   5.685   1.736
 1262SOL    HW2 4686   5.545   5.841   1.785
 1263SOL     OW 4687   1.436   2.360   2.985
 1263SOL    HW1 4688   1.524   2.313   2.977
 1263SOL    HW2 4689   1.373   2.322   2.917
 1264SOL     OW 4690   1.351   3.000   5.457
 1264SOL    HW1 4691   1.386   3.013   5.365
 1264SOL    HW2 4692   1.303   2.912   5.462
 1265SOL     OW 4693   6.261   1.484   6.292
 1265SOL    HW1 4694   6.305   1.421   6.356
 1265SOL    HW2 4695   6.251   1.574   6.335
 1266SOL     OW 4696   3.696   1.774   6.104
 1266SOL    HW1 4697   3.702   1.772   6.204
 1266SOL    HW2 4698   3.696   1.680   6.069
 1267SOL     OW 4699   3.032   1.056   2.222
 1267SOL    HW1 4700   3.002   0.965   2.192
 1267SOL    HW2 4701   3.091   1.096   2.153
 1268SOL     OW 4702   4.265   2.067   5.063
 1268SOL    HW1 4703   4.296   2.051   4.969
 1268SOL    HW2 4704   4.288   1.988   5.120
 1269SOL     OW 4705   5.640   2.036   3.646
 1269SOL    HW1 4706   5.569   2.052   3.715
 1269SOL    HW2 4707   5.688   1.951   3.667
 1270SOL     OW 4708   5.768   5.540   3.737
 1270SOL    HW1 4709   5.709   5.608   3.694
 1270SOL    HW2 4710   5.839   5.512   3.672
 1271SOL     OW 4711   1.572   6.999   1.597
 1271SOL    HW1 4712   1.542   7.002   1.501
 1271SOL    HW2 4713   1.493   6.977   1.655
 1272SOL     OW 4714   5.638   2.149   1.427
 1272SOL    HW1 4715   5.547   2.113   1.409
 1272SOL    HW2 4716   5.674   2.192   1.343
 1273SOL     OW 4717   1.969   4.208   5.218
 1273SOL    HW1 4718   1.996   4.130   5.161
 1273SOL    HW2 4719   2.045   4.271   5.227
 1274SOL     OW 4720   6.783   4.441   4.229
 1274SOL    HW1 4721   6.835   4.470   4.149
 1274SOL    HW2 4722   6.842   4.444   4.310
 1275SOL     OW 4723   2.058   1.599   2.692
 1275SOL    HW1 4724   2.099   1.684   2.725
 1275SOL    HW2 4725   1.967   1.588   2.732
 1276SOL     OW 4726   5.786   3.995   3.771
 1276SOL    HW1 4727   5.754   4.022   3.862
 1276SOL    HW2 4728   5.862   4.054   3.743
 1277SOL     OW 4729   1.205   6.292   6.000
 1277SOL    HW1 4730   1.173   6.199   5.986
 1277SOL    HW2 4731   1.180   6.348   5.921
 1278SOL     OW 4732   7.011   6.182   2.892
 1278SOL    HW1 4733   0.053   6.222   2.831
 1278SOL    HW2 4734   6.986   6.248   2.963
 1279SOL     OW 4735   2.826   2.818   0.700
 1279SOL    HW1 4736   2.812   2.728   0.659
 1279SOL    HW2 4737   2.807   2.813   0.798
 1280SOL     OW 4738   2.822   2.080   2.764
 1280SOL    HW1 4739   2.769   2.157   2.800
 1280SOL    HW2 4740   2.911   2.113   2.732
 1281SOL     OW 4741   5.707   5.829   5.964
 1281SOL    HW1 4742   5.771   5.896   5.927
 1281SOL    HW2 4743   5.686   5.852   6.059
 1282SOL     OW 4744   0.878   2.233   1.352
 1282SOL    HW1 4745   0.885   2.303   1.423
 1282SOL    HW2 4746   0.967   2.220   1.308
 1283SOL     OW 4747   1.311   0.082   5.105
 1283SOL    HW1 4748   1.360   0.143   5.043
 1283SOL    HW2 4749   1.374   0.013   5.141
 1284SOL     OW 4750   3.961   2.336   1.435
 1284SOL    HW1 4751   3.896   2.259   1.437
 1284SOL    HW2 4752   3.912   2.421   1.453
 1285SOL     OW 4753   3.717   1.467   4.329
 1285SOL    HW1 4754   3.699   1.371   4.307
 1285SOL    HW2 4755   3.761   1.473   4.418
 1286SOL     OW 4756   5.318   0.607   2.313
 1286SOL    HW1 4757   5.347   0.596   2.408
 1286SOL    HW2 4758   5.382   0.560   2.253
 1287SOL     OW 4759   5.698   4.472   6.755
 1287SOL    HW1 4760   5.666   4.492   6.848
 1287SOL    HW2 4761   5.625   4.429   6.703
 1288SOL     OW 4762   4.996   4.306   5.726
 1288SOL    HW1 4763   5.072   4.334   5.785
 1288SOL    HW2 4764   4.916   4.362   5.744
 1289SOL     OW 4765   0.981   6.865   0.627
 1289SOL    HW1 4766   0.914   6.927   0.667
 1289SOL    HW2 4767   1.070   6.911   0.623
 1290SOL     OW 4768   1.256   6.992   4.325
 1290SOL    HW1 4769   1.189   0.038   4.338
 1290SOL    HW2 4770   1.235   6.940   4.243
 1291SOL     OW 4771   4.781   6.593   4.057
 1291SOL    HW1 4772   4.693   6.630   4.028
 1291SOL    HW2 4773   4.791   6.500   4.023
 1292SOL     OW 4774   6.900   6.517   3.129
 1292SOL    HW1 4775   6.975   6.451   3.137
 1292SOL    HW2 4776   6.842   6.491   3.051
 1293SOL     OW 4777   4.738   0.060   0.789
 1293SOL    HW1 4778   4.755   0.131   0.720
 1293SOL    HW2 4779   4.644   0.068   0.822
 1294SOL     OW 4780   2.070   4.363   5.545
 1294SOL    HW1 4781   2.075   4.437   5.478
 1294SOL    HW2 4782   2.027   4.283   5.502
 1295SOL     OW 4783   0.170   4.417   0.368
 1295SOL    HW1 4784   0.125   4.430   0.280
 1295SOL    HW2 4785   0.267   4.397   0.353
 1296SOL     OW 4786   3.618   0.575   6.163
 1296SOL    HW1 4787   3.544   0.590   6.229
 1296SOL    HW2 4788   3.617   0.648   6.095
 1297SOL     OW 4789   6.084   6.657   0.352
 1297SOL    HW1 4790   6.031   6.660   0.267
 1297SOL    HW2 4791   6.076   6.566   0.393
 1298SOL     OW 4792   4.684   0.047   2.389
 1298SOL    HW1 4793   4.705   7.016   2.311
 1298SOL    HW2 4794   4.652   0.137   2.357
 1299SOL     OW 4795   1.080   4.868   5.404
 1299SOL    HW1 4796   1.085   4.927   5.484
 1299SOL    HW2 4797   1.140   4.903   5.332
 1300SOL     OW 4798   1.438   5.585   0.659
 1300SOL    HW1 4799   1.354   5.630   0.629
 1300SOL    HW2 4800   1.417   5.521   0.733
 1301SOL     OW 4801   6.307   2.141   6.603
 1301SOL    HW1 4802   6.330   2.236   6.625
 1301SOL    HW2 4803   6.268   2.097   6.684
 1302SOL     OW 4804   6.770   6.710   5.027
 1302SOL    HW1 4805   6.812   6.775   5.090
 1302SOL    HW2 4806   6.818   6.622   5.033
 1303SOL     OW 4807   2.433   6.534   1.185
 1303SOL    HW1 4808   2.389   6.518   1.097
 1303SOL    HW2 4809   2.365   6.565   1.251
 1304SOL     OW 4810   6.363   1.361   6.864
 1304SOL    HW1 4811   6.316   1.338   6.779
 1304SOL    HW2 4812   6.315   1.318   6.941
 1305SOL     OW 4813   3.457   4.254   6.305
 1305SOL    HW1 4814   3.361   4.229   6.313
 1305SOL    HW2 4815   3.513   4.171   6.307
 1306SOL     OW 4816   2.522   6.313   4.195
 1306SOL    HW1 4817   2.530   6.405   4.157
 1306SOL    HW2 4818   2.524   6.318   4.295
 1307SOL     OW 4819   2.129   3.444   2.909
 1307SOL    HW1 4820   2.083   3.512   2.967
 1307SOL    HW2 4821   2.170   3.491   2.831
 1308SOL     OW 4822   0.612   3.842   5.764
 1308SOL    HW1 4823   0.590   3.748   5.791
 1308SOL    HW2 4824   0.694   3.873   5.814
 1309SOL     OW 4825   5.911   4.211   0.455
 1309SOL    HW1 4826   5.896   4.119   0.490
 1309SOL    HW2 4827   5.983   4.209   0.385
 1310SOL     OW 4828   2.432   2.659   3.399
 1310SOL    HW1 4829   2.462   2.685   3.307
 1310SOL    HW2 4830   2.365   2.725   3.433
 1311SOL     OW 4831   6.464   5.369   6.943
 1311SOL    HW1 4832   6.562   5.349   6.944
 1311SOL    HW2 4833   6.450   5.467   6.957
 1312SOL     OW 4834   2.121   1.483   6.588
 1312SOL    HW1 4835   2.200   1.541   6.573
 1312SOL    HW2 4836   2.146   1.408   6.650
 1313SOL     OW 4837   4.584   5.086   3.287
 1313SOL    HW1 4838   4.564   5.164   3.229
 1313SOL    HW2 4839   4.667   5.103   3.341
 1314SOL     OW 4840   3.010   1.849   3.476
 1314SOL    HW1 4841   3.049   1.760   3.497
 1314SOL    HW2 4842   3.009   1.905   3.559
 1315SOL     OW 4843   5.433   7.024   3.574
 1315SOL    HW1 4844   5.459   0.073   3.633
 1315SOL    HW2 4845   5.347   6.985   3.605
 1316SOL     OW 4846   4.964   0.289   6.455
 1316SOL    HW1 4847   4.929   0.303   6.363
 1316SOL    HW2 4848   4.942   0.196   6.485
 1317SOL     OW 4849   3.850   3.117   3.982
 1317SOL    HW1 4850   3.817   3.128   4.076
 1317SOL    HW2 4851   3.822   3.196   3.927
 1318SOL     OW 4852   1.779   1.120   0.366
 1318SOL    HW1 4853   1.833   1.196   0.402
 1318SOL    HW2 4854   1.697   1.107   0.423
 1319SOL     OW 4855   6.284   1.411   0.109
 1319SOL    HW1 4856   6.252   1.362   0.190
 1319SOL    HW2 4857   6.383   1.425   0.116
 1320SOL     OW 4858   2.789   2.933   6.018
 1320SOL    HW1 4859   2.751   2.996   5.950
 1320SOL    HW2 4860   2.743   2.949   6.106
 1321SOL     OW 4861   6.979   2.303   1.576
 1321SOL    HW1 4862   6.937   2.364   1.643
 1321SOL    HW2 4863   7.005   2.218   1.622
 1322SOL     OW 4864   1.988   2.764   0.339
 1322SOL    HW1 4865   2.005   2.817   0.256
 1322SOL    HW2 4866   2.070   2.712   0.363
 1323SOL     OW 4867   4.683   0.977   1.263
 1323SOL    HW1 4868   4.760   0.957   1.202
 1323SOL    HW2 4869   4.643   0.891   1.296
 1324SOL     OW 4870   2.425   3.833   5.959
 1324SOL    HW1 4871   2.339   3.839   5.907
 1324SOL    HW2 4872   2.415   3.881   6.046
 1325SOL     OW 4873   4.543   5.213   4.633
 1325SOL    HW1 4874   4.454   5.239   4.596
 1325SOL    HW2 4875   4.547   5.237   4.730
 1326SOL     OW 4876   3.804   1.497   5.002
 1326SOL    HW1 4877   3.710   1.483   5.036
 1326SOL    HW2 4878   3.802   1.550   4.918
 1327SOL     OW 4879   4.345   5.309   2.002
 1327SOL    HW1 4880   4.348   5.312   1.902
 1327SOL    HW2 4881   4.409   5.376   2.039
 1328SOL     OW 4882   1.274   2.622   5.370
 1328SOL    HW1 4883   1.226   2.704   5.400
 1328SOL    HW2 4884   1.208   2.558   5.331
 1329SOL     OW 4885   1.657   2.412   4.459
 1329SOL    HW1 4886   1.597   2.378   4.387
 1329SOL    HW2 4887   1.750   2.423   4.423
 1330SOL     OW 4888   6.526   2.997   2.638
 1330SOL    HW1 4889   6.537   2.956   2.547
 1330SOL    HW2 4890   6.567   3.089   2.638
 1331SOL     OW 4891   4.115   1.609   2.983
 1331SOL    HW1 4892   4.016   1.612   2.996
 1331SOL    HW2 4893   4.160   1.602   3.071
 1332SOL     OW 4894   2.560   6.688   6.611
 1332SOL    HW1 4895   2.531   6.593   6.619
 1332SOL    HW2 4896   2.480   6.747   6.600
 1333SOL     OW 4897   3.221   3.675   2.532
 1333SOL    HW1 4898   3.308   3.701   2.491
 1333SOL    HW2 4899   3.237   3.648   2.627
 1334SOL     OW 4900   0.421   4.408   1.572
 1334SOL    HW1 4901   0.487   4.391   1.645
 1334SOL    HW2 4902   0.440   4.346   1.495
 1335SOL     OW 4903   6.717   3.503   3.329
 1335SOL    HW1 4904   6.810   3.531   3.303
 1335SOL    HW2 4905   6.709   3.404   3.322
 1336SOL     OW 4906   1.894   6.368   5.819
 1336SOL    HW1 4907   1.941   6.388   5.905
 1336SOL    HW2 4908   1.824   6.298   5.834
 1337SOL     OW 4909   6.943   6.900   1.599
 1337SOL    HW1 4910   6.986   6.988   1.620
 1337SOL    HW2 4911   6.893   6.907   1.513
 1338SOL     OW 4912   0.531   4.238   4.907
 1338SOL    HW1 4913   0.621   4.280   4.921
 1338SOL    HW2 4914   0.513   4.231   4.808
 1339SOL     OW 4915   5.152   1.297   6.884
 1339SOL    HW1 4916   5.087   1.351   6.937
 1339SOL    HW2 4917   5.239   1.292   6.933
 1340SOL     OW 4918   2.536   2.829   0.572
 1340SOL    HW1 4919   2.557   2.915   0.525
 1340SOL    HW2 4920   2.603   2.813   0.643
 1341SOL     OW 4921   6.113   6.118   0.538
 1341SOL    HW1 4922   6.085   6.090   0.629
 1341SOL    HW2 4923   6.173   6.049   0.498
 1342SOL     OW 4924   1.794   6.104   0.606
 1342SOL    HW1 4925   1.737   6.033   0.565
 1342SOL    HW2 4926   1.738   6.184   0.628
 1343SOL     OW 4927   4.812   6.154   2.888
 1343SOL    HW1 4928   4.790   6.251   2.878
 1343SOL    HW2 4929   4.881   6.129   2.821
 1344SOL     OW 4930   1.514   0.739   3.094
 1344SOL    HW1 4931   1.438   0.676   3.078
 1344SOL    HW2 4932   1.523   0.801   3.017
 1345SOL     OW 4933   1.030   6.581   5.136
 1345SOL    HW1 4934   1.056   6.486   5.154
 1345SOL    HW2 4935   1.094   6.621   5.071
 1346SOL     OW 4936   3.880   6.110   3.758
 1346SOL    HW1 4937   3.939   6.170   3.812
 1346SOL    HW2 4938   3.821   6.058   3.819
 1347SOL     OW 4939   6.555   1.015   5.723
 1347SOL    HW1 4940   6.602   0.984   5.806
 1347SOL    HW2 4941   6.475   0.958   5.707
 1348SOL     OW 4942   1.519   6.349   4.490
 1348SOL    HW1 4943   1.610   6.315   4.517
 1348SOL    HW2 4944   1.529   6.435   4.440
 1349SOL     OW 4945   5.046   4.127   4.202
 1349SOL    HW1 4946   5.083   4.167   4.118
 1349SOL    HW2 4947   4.994   4.044   4.179
 1350SOL     OW 4948   5.389   4.583   6.881
 1350SOL    HW1 4949   5.312   4.641   6.906
 1350SOL    HW2 4950   5.357   4.505   6.827
 1351SOL     OW 4951   5.998   4.048   6.823
 1351SOL    HW1 4952   6.087   4.022   6.861
 1351SOL    HW2 4953   5.966   4.132   6.868
 1352SOL     OW 4954   0.303   0.909   4.351
 1352SOL    HW1 4955   0.226   0.951   4.303
 1352SOL    HW2 4956   0.271   0.829   4.401
 1353SOL     OW 4957   6.771   3.361   6.046
 1353SOL    HW1 4958   6.807   3.454   6.053
 1353SOL    HW2 4959   6.821   3.301   6.108
 1354SOL     OW 4960   5.008   5.359   3.317
 1354SOL    HW1 4961   4.982   5.455   3.324
 1354SOL    HW2 4962   4.935   5.301   3.354
 1355SOL     OW 4963   3.770   3.334   3.851
 1355SOL    HW1 4964   3.793   3.369   3.760
 1355SOL    HW2 4965   3.696   3.389   3.890
 1356SOL     OW 4966   2.870   3.443   6.882
 1356SOL    HW1 4967   2.957   3.443   6.831
 1356SOL    HW2 4968   2.860   3.356   6.930
 1357SOL     OW 4969   6.958   3.343   4.771
 1357SOL    HW1 4970   6.930   3.275   4.703
 1357SOL    HW2 4971   6.999   3.297   4.850
 1358SOL     OW 4972   2.763   6.290   5.994
 1358SOL    HW1 4973   2.722   6.365   6.046
 1358SOL    HW2 4974   2.799   6.221   6.057
 1359SOL     OW 4975   6.199   5.253   7.024
 1359SOL    HW1 4976   6.274   5.302   6.979
 1359SOL    HW2 4977   6.229   5.160   0.019
 1360SOL     OW 4978   2.328   1.845   5.971
 1360SOL    HW1 4979   2.314   1.925   5.913
 1360SOL    HW2 4980   2.293   1.763   5.924
 1361SOL     OW 4981   5.828   5.092   5.057
 1361SOL    HW1 4982   5.764   5.089   5.134
 1361SOL    HW2 4983   5.812   5.013   4.997
 1362SOL     OW 4984   3.150   4.037   4.623
 1362SOL    HW1 4985   3.244   4.041   4.658
 1362SOL    HW2 4986   3.090   4.091   4.683
 1363SOL     OW 4987   6.787   6.557   3.414
 1363SOL    HW1 4988   6.881   6.560   3.378
 1363SOL    HW2 4989   6.722   6.560   3.338
 1364SOL     OW 4990   3.301   4.176   0.092
 1364SOL    HW1 4991   3.302   4.119   0.010
 1364SOL    HW2 4992   3.300   4.273   0.066
 1365SOL     OW 4993   6.023   2.486   6.124
 1365SOL    HW1 4994   5.986   2.537   6.202
 1365SOL    HW2 4995   5.952   2.473   6.056
 1366SOL     OW 4996   2.093   0.764   4.070
 1366SOL    HW1 4997   2.144   0.682   4.043
 1366SOL    HW2 4998   2.138   0.808   4.147
 1367SOL     OW 4999   2.475   1.111   1.568
 1367SOL    HW1 5000   2.539   1.145   1.637
 1367SOL    HW2 5001   2.495   1.014   1.549
 1368SOL     OW 5002   0.348   0.872   3.314
 1368SOL    HW1 5003   0.359   0.832   3.223
 1368SOL    HW2 5004   0.431   0.857   3.367
 1369SOL     OW 5005   0.104   6.658   2.549
 1369SOL    HW1 5006   0.118   6.754   2.573
 1369SOL    HW2 5007   0.185   6.605   2.573
 1370SOL     OW 5008   0.521   0.777   2.469
 1370SOL    HW1 5009   0.464   0.782   2.551
 1370SOL    HW2 5010   0.482   0.835   2.398
 1371SOL     OW 5011   1.940   6.827   4.896
 1371SOL    HW1 5012   1.894   6.761   4.837
 1371SOL    HW2 5013   1.876   6.899   4.921
 1372SOL     OW 5014   3.393   1.855   1.026
 1372SOL    HW1 5015   3.408   1.805   1.111
 1372SOL    HW2 5016   3.302   1.897   1.028
 1373SOL     OW 5017   0.959   5.754   6.417
 1373SOL    HW1 5018   1.023   5.814   6.465
 1373SOL    HW2 5019   0.902   5.705   6.483
 1374SOL     OW 5020   5.572   3.054   4.670
 1374SOL    HW1 5021   5.514   2.974   4.662
 1374SOL    HW2 5022   5.565   3.109   4.587
 1375SOL     OW 5023   0.811   4.492   3.590
 1375SOL    HW1 5024   0.731   4.542   3.559
 1375SOL    HW2 5025   0.824   4.507   3.688
 1376SOL     OW 5026   5.345   0.366   2.583
 1376SOL    HW1 5027   5.379   0.272   2.580
 1376SOL    HW2 5028   5.423   0.429   2.584
 1377SOL     OW 5029   6.737   3.728   5.577
 1377SOL    HW1 5030   6.692   3.691   5.496
 1377SOL    HW2 5031   6.723   3.666   5.655
 1378SOL     OW 5032   2.102   1.532   0.497
 1378SOL    HW1 5033   2.088   1.626   0.465
 1378SOL    HW2 5034   2.190   1.498   0.464
 1379SOL     OW 5035   4.477   5.306   1.621
 1379SOL    HW1 5036   4.441   5.385   1.570
 1379SOL    HW2 5037   4.463   5.223   1.568
 1380SOL     OW 5038   6.246   5.440   2.773
 1380SOL    HW1 5039   6.326   5.430   2.832
 1380SOL    HW2 5040   6.175   5.490   2.822
 1381SOL     OW 5041   3.841   6.966   2.001
 1381SOL    HW1 5042   3.933   6.949   1.964
 1381SOL    HW2 5043   3.831   6.917   2.088
 1382SOL     OW 5044   6.475   3.772   0.252
 1382SOL    HW1 5045   6.455   3.692   0.309
 1382SOL    HW2 5046   6.531   3.837   0.304
 1383SOL     OW 5047   3.674   7.002   0.622
 1383SOL    HW1 5048   3.647   6.997   0.719
 1383SOL    HW2 5049   3.664   0.070   0.590
 1384SOL     OW 5050   1.026   1.788   3.129
 1384SOL    HW1 5051   1.058   1.803   3.035
 1384SOL    HW2 5052   0.950   1.849   3.148
 1385SOL     OW 5053   4.923   3.230   4.619
 1385SOL    HW1 5054   4.943   3.257   4.713
 1385SOL    HW2 5055   5.007   3.198   4.576
 1386SOL     OW 5056   2.390   2.751   3.119
 1386SOL    HW1 5057   2.331   2.832   3.122
 1386SOL    HW2 5058   2.333   2.669   3.130
 1387SOL     OW 5059   4.016   0.926   4.835
 1387SOL    HW1 5060   3.945   0.978   4.788
 1387SOL    HW2 5061   3.991   0.829   4.836
 1388SOL     OW 5062   4.787   2.433   3.515
 1388SOL    HW1 5063   4.731   2.391   3.444
 1388SOL    HW2 5064   4.879   2.394   3.512
 1389SOL     OW 5065   0.266   1.644   5.111
 1389SOL    HW1 5066   0.243   1.592   5.193
 1389SOL    HW2 5067   0.356   1.614   5.077
 1390SOL     OW 5068   6.150   2.499   3.155
 1390SOL    HW1 5069   6.087   2.491   3.079
 1390SOL    HW2 5070   6.196   2.587   3.152
 1391SOL     OW 5071   5.727   0.834   5.463
 1391SOL    HW1 5072   5.707   0.932   5.466
 1391SOL    HW2 5073   5.804   0.815   5.524
 1392SOL     OW 5074   3.063   0.136   4.803
 1392SOL    HW1 5075   3.150   0.156   4.757
 1392SOL    HW2 5076   3.014   0.066   4.751
 1393SOL     OW 5077   4.582   7.011   6.898
 1393SOL    HW1 5078   4.663   6.986   6.845
 1393SOL    HW2 5079   4.592   6.977   6.991
 1394SOL     OW 5080   4.026   0.811   5.217
 1394SOL    HW1 5081   3.999   0.784   5.310
 1394SOL    HW2 5082   4.038   0.729   5.161
 1395SOL     OW 5083   0.987   4.786   2.712
 1395SOL    HW1 5084   0.945   4.744   2.631
 1395SOL    HW2 5085   0.992   4.718   2.786
 1396SOL     OW 5086   1.536   2.110   3.227
 1396SOL    HW1 5087   1.592   2.107   3.309
 1396SOL    HW2 5088   1.589   2.148   3.151
 1397SOL     OW 5089   2.378   5.514   5.650
 1397SOL    HW1 5090   2.291   5.496   5.696
 1397SOL    HW2 5091   2.422   5.593   5.694
 1398SOL     OW 5092   3.046   6.898   6.302
 1398SOL    HW1 5093   3.052   6.819   6.363
 1398SOL    HW2 5094   2.961   6.893   6.249
 1399SOL     OW 5095   3.873   0.056   0.276
 1399SOL    HW1 5096   3.877   7.003   0.336
 1399SOL    HW2 5097   3.797   0.114   0.304
 1400SOL     OW 5098   0.778   2.321   5.999
 1400SOL    HW1 5099   0.823   2.233   5.987
 1400SOL    HW2 5100   0.751   2.357   5.910
 1401SOL     OW 5101   4.375   0.075   3.045
 1401SOL    HW1 5102   4.337   7.009   3.038
 1401SOL    HW2 5103   4.396   0.109   2.953
 1402SOL     OW 5104   4.838   3.859   2.998
 1402SOL    HW1 5105   4.837   3.824   2.904
 1402SOL    HW2 5106   4.884   3.949   2.999
 1403SOL     OW 5107   2.828   3.107   6.782
 1403SOL    HW1 5108   2.877   3.143   6.703
 1403SOL    HW2 5109   2.738   3.074   6.754
 1404SOL     OW 5110   3.627   6.097   6.841
 1404SOL    HW1 5111   3.546   6.120   6.896
 1404SOL    HW2 5112   3.685   6.177   6.831
 1405SOL     OW 5113   1.381   5.128   0.200
 1405SOL    HW1 5114   1.394   5.086   0.110
 1405SOL    HW2 5115   1.303   5.085   0.246
 1406SOL     OW 5116   1.920   2.083   0.898
 1406SOL    HW1 5117   1.940   2.181   0.896
 1406SOL    HW2 5118   1.906   2.050   0.805
 1407SOL     OW 5119   6.466   3.471   1.863
 1407SOL    HW1 5120   6.402   3.502   1.933
 1407SOL    HW2 5121   6.540   3.537   1.854
 1408SOL     OW 5122   6.162   6.317   1.635
 1408SOL    HW1 5123   6.241   6.260   1.614
 1408SOL    HW2 5124   6.186   6.414   1.622
 1409SOL     OW 5125   6.209   2.590   5.925
 1409SOL    HW1 5126   6.176   2.645   5.849
 1409SOL    HW2 5127   6.145   2.596   6.002
 1410SOL     OW 5128   3.315   0.454   0.536
 1410SOL    HW1 5129   3.225   0.410   0.536
 1410SOL    HW2 5130   3.380   0.396   0.486
 1411SOL     OW 5131   3.574   0.218   6.833
 1411SOL    HW1 5132   3.521   0.163   6.898
 1411SOL    HW2 5133   3.630   0.284   6.883
 1412SOL     OW 5134   1.370   1.035   6.272
 1412SOL    HW1 5135   1.445   0.972   6.254
 1412SOL    HW2 5136   1.401   1.129   6.259
 1413SOL     OW 5137   1.651   1.041   4.053
 1413SOL    HW1 5138   1.565   1.037   4.104
 1413SOL    HW2 5139   1.702   1.123   4.082
 1414SOL     OW 5140   0.281   5.211   2.805
 1414SOL    HW1 5141   0.348   5.139   2.786
 1414SOL    HW2 5142   0.200   5.196   2.749
 1415SOL     OW 5143   3.065   1.855   5.112
 1415SOL    HW1 5144   3.098   1.944   5.144
 1415SOL    HW2 5145   3.113   1.783   5.162
 1416SOL     OW 5146   4.168   0.425   5.509
 1416SOL    HW1 5147   4.162   0.442   5.608
 1416SOL    HW2 5148   4.247   0.473   5.472
 1417SOL     OW 5149   3.862   3.662   4.196
 1417SOL    HW1 5150   3.773   3.677   4.240
 1417SOL    HW2 5151   3.906   3.750   4.179
 1418SOL     OW 5152   3.124   3.861   6.391
 1418SOL    HW1 5153   3.059   3.822   6.457
 1418SOL    HW2 5154   3.156   3.790   6.330
 1419SOL     OW 5155   0.388   5.361   1.645
 1419SOL    HW1 5156   0.382   5.390   1.741
 1419SOL    HW2 5157   0.478   5.320   1.628
 1420SOL     OW 5158   2.657   6.388   3.450
 1420SOL    HW1 5159   2.692   6.469   3.404
 1420SOL    HW2 5160   2.580   6.351   3.399
 1421SOL     OW 5161   1.555   5.151   1.417
 1421SOL    HW1 5162   1.567   5.242   1.377
 1421SOL    HW2 5163   1.458   5.127   1.418
 1422SOL     OW 5164   1.616   3.518   6.505
 1422SOL    HW1 5165   1.558   3.484   6.579
 1422SOL    HW2 5166   1.600   3.464   6.422
 1423SOL     OW 5167   4.898   0.473   5.739
 1423SOL    HW1 5168   4.921   0.504   5.832
 1423SOL    HW2 5169   4.873   0.553   5.684
 1424SOL     OW 5170   5.788   3.948   1.600
 1424SOL    HW1 5171   5.725   3.978   1.672
 1424SOL    HW2 5172   5.823   4.028   1.551
 1425SOL     OW 5173   5.577   6.851   2.667
 1425SOL    HW1 5174   5.591   6.869   2.765
 1425SOL    HW2 5175   5.533   6.762   2.656
 1426SOL     OW 5176   3.759   0.561   0.630
 1426SOL    HW1 5177   3.809   0.538   0.546
 1426SOL    HW2 5178   3.663   0.578   0.608
 1427SOL     OW 5179   1.195   0.522   4.053
 1427SOL    HW1 5180   1.197   0.609   4.102
 1427SOL    HW2 5181   1.204   0.539   3.955
 1428SOL     OW 5182   2.809   4.762   3.702
 1428SOL    HW1 5183   2.816   4.666   3.677
 1428SOL    HW2 5184   2.823   4.772   3.801
 1429SOL     OW 5185   5.892   0.912   0.869
 1429SOL    HW1 5186   5.925   0.883   0.958
 1429SOL    HW2 5187   5.963   0.898   0.800
 1430SOL     OW 5188   2.110   3.699   4.232
 1430SOL    HW1 5189   2.132   3.627   4.166
 1430SOL    HW2 5190   2.036   3.756   4.197
 1431SOL     OW 5191   3.593   1.990   0.698
 1431SOL    HW1 5192   3.501   2.026   0.681
 1431SOL    HW2 5193   3.588   1.914   0.763
 1432SOL     OW 5194   2.547   6.873   2.837
 1432SOL    HW1 5195   2.613   6.941   2.867
 1432SOL    HW2 5196   2.565   6.846   2.743
 1433SOL     OW 5197   3.943   1.676   3.579
 1433SOL    HW1 5198   3.891   1.642   3.658
 1433SOL    HW2 5199   3.966   1.600   3.519
 1434SOL     OW 5200   6.510   3.530   1.220
 1434SOL    HW1 5201   6.578   3.458   1.203
 1434SOL    HW2 5202   6.442   3.529   1.147
 1435SOL     OW 5203   6.781   5.812   4.207
 1435SOL    HW1 5204   6.771   5.866   4.124
 1435SOL    HW2 5205   6.693   5.806   4.254
 1436SOL     OW 5206   6.107   1.042   6.825
 1436SOL    HW1 5207   6.113   1.049   6.725
 1436SOL    HW2 5208   6.034   0.978   6.850
 1437SOL     OW 5209   3.869   1.031   0.505
 1437SOL    HW1 5210   3.811   1.075   0.436
 1437SOL    HW2 5211   3.942   1.094   0.531
 1438SOL     OW 5212   2.732   5.622   3.600
 1438SOL    HW1 5213   2.669   5.640   3.524
 1438SOL    HW2 5214   2.687   5.641   3.686
 1439SOL     OW 5215   6.611   4.989   4.456
 1439SOL    HW1 5216   6.537   4.939   4.500
 1439SOL    HW2 5217   6.594   5.087   4.463
 1440SOL     OW 5218   3.516   3.121   2.033
 1440SOL    HW1 5219   3.479   3.040   2.078
 1440SOL    HW2 5220   3.603   3.145   2.075
 1441SOL     OW 5221   0.709   2.292   6.975
 1441SOL    HW1 5222   0.799   2.303   6.932
 1441SOL    HW2 5223   0.673   2.381   7.001
 1442SOL     OW 5224   5.710   5.553   0.075
 1442SOL    HW1 5225   5.712   5.653   0.073
 1442SOL    HW2 5226   5.636   5.521   0.017
 1443SOL     OW 5227   2.130   3.171   4.356
 1443SOL    HW1 5228   2.139   3.088   4.411
 1443SOL    HW2 5229   2.040   3.212   4.372
 1444SOL     OW 5230   4.662   6.749   5.274
 1444SOL    HW1 5231   4.591   6.767   5.205
 1444SOL    HW2 5232   4.635   6.671   5.330
 1445SOL     OW 5233   6.618   3.180   6.925
 1445SOL    HW1 5234   6.566   3.245   6.870
 1445SOL    HW2 5235   6.621   3.210   7.020
 1446SOL     OW 5236   3.072   5.806   2.619
 1446SOL    HW1 5237   3.124   5.746   2.680
 1446SOL    HW2 5238   3.121   5.892   2.609
 1447SOL     OW 5239   6.674   1.330   4.817
 1447SOL    HW1 5240   6.655   1.349   4.720
 1447SOL    HW2 5241   6.742   1.257   4.824
 1448SOL     OW 5242   5.145   1.661   0.973
 1448SOL    HW1 5243   5.186   1.602   1.043
 1448SOL    HW2 5244   5.074   1.717   1.015
 1449SOL     OW 5245   4.856   6.039   6.723
 1449SOL    HW1 5246   4.932   5.974   6.727
 1449SOL    HW2 5247   4.892   6.132   6.735
 1450SOL     OW 5248   5.402   1.303   4.059
 1450SOL    HW1 5249   5.342   1.292   4.138
 1450SOL    HW2 5250   5.453   1.389   4.068
 1451SOL     OW 5251   0.203   6.299   2.778
 1451SOL    HW1 5252   0.203   6.385   2.727
 1451SOL    HW2 5253   0.272   6.305   2.850
 1452SOL     OW 5254   1.374   0.475   6.222
 1452SOL    HW1 5255   1.312   0.401   6.195
 1452SOL    HW2 5256   1.444   0.439   6.284
 1453SOL     OW 5257   6.254   4.580   4.359
 1453SOL    HW1 5258   6.209   4.507   4.411
 1453SOL    HW2 5259   6.251   4.557   4.262
 1454SOL     OW 5260   6.495   4.856   1.295
 1454SOL    HW1 5261   6.547   4.907   1.364
 1454SOL    HW2 5262   6.544   4.773   1.270
 1455SOL     OW 5263   2.839   0.957   1.884
 1455SOL    HW1 5264   2.902   0.919   1.816
 1455SOL    HW2 5265   2.778   0.885   1.917
 1456SOL     OW 5266   5.506   4.507   5.202
 1456SOL    HW1 5267   5.550   4.472   5.284
 1456SOL    HW2 5268   5.560   4.582   5.164
 1457SOL     OW 5269   2.487   1.639   4.428
 1457SOL    HW1 5270   2.421   1.571   4.461
 1457SOL    HW2 5271   2.550   1.595   4.364
 1458SOL     OW 5272   6.449   5.633   6.713
 1458SOL    HW1 5273   6.352   5.624   6.738
 1458SOL    HW2 5274   6.482   5.723   6.740
 1459SOL     OW 5275   3.476   6.877   1.124
 1459SOL    HW1 5276   3.490   6.800   1.061
 1459SOL    HW2 5277   3.380   6.881   1.151
 1460SOL     OW 5278   0.804   1.491   0.073
 1460SOL    HW1 5279   0.787   1.489   7.001
 1460SOL    HW2 5280   0.878   1.429   0.095
 1461SOL     OW 5281   5.406   3.893   2.478
 1461SOL    HW1 5282   5.472   3.927   2.545
 1461SOL    HW2 5283   5.313   3.904   2.514
 1462SOL     OW 5284   6.001   0.286   5.054
 1462SOL    HW1 5285   6.084   0.231   5.053
 1462SOL    HW2 5286   6.019   0.375   5.011
 1463SOL     OW 5287   0.908   2.901   5.555
 1463SOL    HW1 5288   0.832   2.953   5.515
 1463SOL    HW2 5289   0.894   2.804   5.535
 1464SOL     OW 5290   0.328   0.742   1.321
 1464SOL    HW1 5291   0.326   0.775   1.227
 1464SOL    HW2 5292   0.378   0.808   1.378
 1465SOL     OW 5293   2.653   0.141   4.124
 1465SOL    HW1 5294   2.655   0.233   4.086
 1465SOL    HW2 5295   2.594   0.139   4.205
 1466SOL     OW 5296   5.722   6.151   4.633
 1466SOL    HW1 5297   5.810   6.172   4.676
 1466SOL    HW2 5298   5.679   6.235   4.601
 1467SOL     OW 5299   0.987   4.766   4.268
 1467SOL    HW1 5300   1.006   4.855   4.309
 1467SOL    HW2 5301   0.891   4.741   4.284
 1468SOL     OW 5302   4.659   0.302   2.258
 1468SOL    HW1 5303   4.756   0.325   2.270
 1468SOL    HW2 5304   4.635   0.309   2.161
 1469SOL     OW 5305   6.538   0.296   1.981
 1469SOL    HW1 5306   6.614   0.319   1.921
 1469SOL    HW2 5307   6.567   0.227   2.047
 1470SOL     OW 5308   6.958   0.902   2.303
 1470SOL    HW1 5309   6.993   0.843   2.231
 1470SOL    HW2 5310   6.923   0.987   2.263
 1471SOL     OW 5311   6.752   1.283   1.031
 1471SOL    HW1 5312   6.691   1.217   1.075
 1471SOL    HW2 5313   6.840   1.240   1.012
 1472SOL     OW 5314   4.654   5.284   4.886
 1472SOL    HW1 5315   4.729   5.228   4.852
 1472SOL    HW2 5316   4.634   5.259   4.981
 1473SOL     OW 5317   0.566   3.390   3.618
 1473SOL    HW1 5318   0.567   3.372   3.716
 1473SOL    HW2 5319   0.654   3.365   3.578
 1474SOL     OW 5320   4.552   6.590   2.287
 1474SOL    HW1 5321   4.541   6.682   2.249
 1474SOL    HW2 5322   4.466   6.541   2.279
 1475SOL     OW 5323   6.427   6.938   3.012
 1475SOL    HW1 5324   6.497   6.870   2.994
 1475SOL    HW2 5325   6.337   6.898   2.994
 1476SOL     OW 5326   1.268   2.207   0.906
 1476SOL    HW1 5327   1.197   2.163   0.961
 1476SOL    HW2 5328   1.357   2.196   0.950
 1477SOL     OW 5329   3.085   6.443   4.122
 1477SOL    HW1 5330   3.085   6.379   4.198
 1477SOL    HW2 5331   3.088   6.537   4.157
 1478SOL     OW 5332   6.994   4.521   1.169
 1478SOL    HW1 5333   6.926   4.450   1.148
 1478SOL    HW2 5334   0.059   4.485   1.154
 1479SOL     OW 5335   1.552   4.739   6.591
 1479SOL    HW1 5336   1.466   4.688   6.591
 1479SOL    HW2 5337   1.543   4.820   6.649
 1480SOL     OW 5338   3.318   0.754   6.927
 1480SOL    HW1 5339   3.223   0.724   6.938
 1480SOL    HW2 5340   3.377   0.703   6.990
 1481SOL     OW 5341   6.808   2.909   1.084
 1481SOL    HW1 5342   6.801   2.948   1.176
 1481SOL    HW2 5343   6.764   2.819   1.083
 1482SOL     OW 5344   6.672   0.353   5.816
 1482SOL    HW1 5345   6.748   0.404   5.856
 1482SOL    HW2 5346   6.695   0.325   5.723
 1483SOL     OW 5347   0.152   1.958   0.827
 1483SOL    HW1 5348   0.094   1.985   0.750
 1483SOL    HW2 5349   0.131   2.017   0.906
 1484SOL     OW 5350   5.541   6.611   3.018
 1484SOL    HW1 5351   5.610   6.656   3.074
 1484SOL    HW2 5352   5.580   6.587   2.930
 1485SOL     OW 5353   5.326   3.881   4.718
 1485SOL    HW1 5354   5.314   3.830   4.803
 1485SOL    HW2 5355   5.383   3.828   4.655
 1486SOL     OW 5356   5.252   2.777   2.230
 1486SOL    HW1 5357   5.171   2.831   2.205
 1486SOL    HW2 5358   5.250   2.690   2.180
 1487SOL     OW 5359   0.526   6.629   5.585
 1487SOL    HW1 5360   0.437   6.659   5.551
 1487SOL    HW2 5361   0.594   6.701   5.567
 1488SOL     OW 5362   4.612   2.057   4.219
 1488SOL    HW1 5363   4.521   2.062   4.260
 1488SOL    HW2 5364   4.610   2.101   4.129
 1489SOL     OW 5365   3.369   5.215   4.477
 1489SOL    HW1 5366   3.316   5.151   4.532
 1489SOL    HW2 5367   3.341   5.207   4.381
 1490SOL     OW 5368   3.017   3.109   0.753
 1490SOL    HW1 5369   3.081   3.041   0.788
 1490SOL    HW2 5370   3.063   3.166   0.684
 1491SOL     OW 5371   2.126   1.629   3.651
 1491SOL    HW1 5372   2.044   1.609   3.597
 1491SOL    HW2 5373   2.127   1.571   3.732
 1492SOL     OW 5374   6.661   2.188   1.908
 1492SOL    HW1 5375   6.659   2.255   1.983
 1492SOL    HW2 5376   6.744   2.133   1.914
 1493SOL     OW 5377   6.599   3.198   4.761
 1493SOL    HW1 5378   6.635   3.138   4.689
 1493SOL    HW2 5379   6.536   3.145   4.818
 1494SOL     OW 5380   5.950   1.910   4.586
 1494SOL    HW1 5381   5.878   1.938   4.522
 1494SOL    HW2 5382   5.915   1.836   4.644
 1495SOL     OW 5383   0.979   3.870   1.773
 1495SOL    HW1 5384   1.054   3.861   1.838
 1495SOL    HW2 5385   0.902   3.813   1.803
 1496SOL     OW 5386   6.669   0.176   2.187
 1496SOL    HW1 5387   6.687   0.078   2.199
 1496SOL    HW2 5388   6.734   0.229   2.243
 1497SOL     OW 5389   5.448   4.278   5.977
 1497SOL    HW1 5390   5.468   4.256   5.881
 1497SOL    HW2 5391   5.477   4.203   6.035
 1498SOL     OW 5392   3.205   6.141   6.272
 1498SOL    HW1 5393   3.206   6.043   6.256
 1498SOL    HW2 5394   3.283   6.167   6.330
 1499SOL     OW 5395   1.972   4.182   3.572
 1499SOL    HW1 5396   1.912   4.166   3.651
 1499SOL    HW2 5397   1.951   4.271   3.531
 1500SOL     OW 5398   4.128   5.941   5.024
 1500SOL    HW1 5399   4.156   6.018   5.082
 1500SOL    HW2 5400   4.207   5.909   4.972
 1501SOL     OW 5401   3.610   1.392   1.499
 1501SOL    HW1 5402   3.526   1.445   1.495
 1501SOL    HW2 5403   3.613   1.340   1.584
 1502SOL     OW 5404   6.768   0.377   6.156
 1502SOL    HW1 5405   6.694   0.444   6.159
 1502SOL    HW2 5406   6.730   0.285   6.151
 1503SOL     OW 5407   3.193   3.755   5.707
 1503SOL    HW1 5408   3.168   3.744   5.804
 1503SOL    HW2 5409   3.179   3.850   5.680
 1504SOL     OW 5410   2.183   0.573   3.139
 1504SOL    HW1 5411   2.214   0.499   3.079
 1504SOL    HW2 5412   2.089   0.555   3.167
 1505SOL     OW 5413   5.840   6.277   3.127
 1505SOL    HW1 5414   5.792   6.271   3.039
 1505SOL    HW2 5415   5.776   6.259   3.202
 1506SOL     OW 5416   6.569   0.479   3.875
 1506SOL    HW1 5417   6.628   0.457   3.953
 1506SOL    HW2 5418   6.474   0.469   3.902
 1507SOL     OW 5419   2.673   1.901   6.252
 1507SOL    HW1 5420   2.579   1.871   6.272
 1507SOL    HW2 5421   2.671   1.977   6.186
 1508SOL     OW 5422   3.811   6.293   0.910
 1508SOL    HW1 5423   3.791   6.307   1.007
 1508SOL    HW2 5424   3.778   6.203   0.881
 1509SOL     OW 5425   4.907   2.218   6.093
 1509SOL    HW1 5426   4.831   2.160   6.121
 1509SOL    HW2 5427   4.986   2.199   6.151
 1510SOL     OW 5428   6.783   1.797   2.217
 1510SOL    HW1 5429   6.861   1.821   2.275
 1510SOL    HW2 5430   6.711   1.866   2.229
 1511SOL     OW 5431   7.019   2.571   0.379
 1511SOL    HW1 5432   0.083   2.528   0.368
 1511SOL    HW2 5433   7.019   2.625   0.463
 1512SOL     OW 5434   0.418   7.020   2.620
 1512SOL    HW1 5435   0.456   6.961   2.691
 1512SOL    HW2 5436   0.482   0.068   2.601
 1513SOL     OW 5437   2.335   0.158   2.870
 1513SOL    HW1 5438   2.420   0.123   2.831
 1513SOL    HW2 5439   2.268   0.084   2.878
 1514SOL     OW 5440   4.329   0.268   5.829
 1514SOL    HW1 5441   4.259   0.318   5.779
 1514SOL    HW2 5442   4.418   0.286   5.787
 1515SOL     OW 5443   5.447   5.766   4.894
 1515SOL    HW1 5444   5.415   5.718   4.812
 1515SOL    HW2 5445   5.496   5.849   4.867
 1516SOL     OW 5446   6.196   2.206   2.713
 1516SOL    HW1 5447   6.186   2.113   2.749
 1516SOL    HW2 5448   6.228   2.267   2.785
 1517SOL     OW 5449   2.693   5.306   1.563
 1517SOL    HW1 5450   2.693   5.391   1.615
 1517SOL    HW2 5451   2.786   5.271   1.555
 1518SOL     OW 5452   0.958   4.832   0.357
 1518SOL    HW1 5453   1.005   4.807   0.442
 1518SOL    HW2 5454   0.943   4.749   0.303
 1519SOL     OW 5455   1.377   4.200   1.668
 1519SOL    HW1 5456   1.376   4.119   1.726
 1519SOL    HW2 5457   1.284   4.220   1.636
 1520SOL     OW 5458   1.953   3.889   3.600
 1520SOL    HW1 5459   2.030   3.829   3.579
 1520SOL    HW2 5460   1.925   3.875   3.695
 1521SOL     OW 5461   1.966   6.058   5.631
 1521SOL    HW1 5462   1.900   6.120   5.588
 1521SOL    HW2 5463   1.920   5.973   5.658
 1522SOL     OW 5464   1.511   2.339   6.232
 1522SOL    HW1 5465   1.530   2.259   6.176
 1522SOL    HW2 5466   1.525   2.316   6.329
 1523SOL     OW 5467   5.099   1.424   0.342
 1523SOL    HW1 5468   5.049   1.481   0.278
 1523SOL    HW2 5469   5.077   1.328   0.326
 1524SOL     OW 5470   1.850   2.057   2.060
 1524SOL    HW1 5471   1.756   2.024   2.053
 1524SOL    HW2 5472   1.870   2.082   2.154
 1525SOL     OW 5473   4.427   2.302   5.253
 1525SOL    HW1 5474   4.468   2.349   5.175
 1525SOL    HW2 5475   4.423   2.363   5.332
 1526SOL     OW 5476   5.807   2.856   1.312
 1526SOL    HW1 5477   5.825   2.834   1.408
 1526SOL    HW2 5478   5.848   2.785   1.254
 1527SOL     OW 5479   1.981   0.084   5.023
 1527SOL    HW1 5480   2.066   0.032   5.010
 1527SOL    HW2 5481   1.945   0.113   4.935
 1528SOL     OW 5482   5.152   5.991   3.504
 1528SOL    HW1 5483   5.220   6.060   3.478
 1528SOL    HW2 5484   5.065   6.012   3.460
 1529SOL     OW 5485   0.944   0.088   5.994
 1529SOL    HW1 5486   0.914   0.182   5.973
 1529SOL    HW2 5487   0.863   0.032   6.014
 1530SOL     OW 5488   4.090   0.077   1.400
 1530SOL    HW1 5489   4.034   0.117   1.327
 1530SOL    HW2 5490   4.184   0.110   1.392
 1531SOL     OW 5491   4.884   1.846   6.738
 1531SOL    HW1 5492   4.818   1.777   6.709
 1531SOL    HW2 5493   4.977   1.811   6.725
 1532SOL     OW 5494   2.811   1.312   4.970
 1532SOL    HW1 5495   2.817   1.292   5.068
 1532SOL    HW2 5496   2.756   1.395   4.956
 1533SOL     OW 5497   4.141   2.725   1.618
 1533SOL    HW1 5498   4.127   2.754   1.523
 1533SOL    HW2 5499   4.059   2.678   1.650
 1534SOL     OW 5500   5.709   0.799   0.280
 1534SOL    HW1 5501   5.798   0.835   0.252
 1534SOL    HW2 5502   5.692   0.712   0.234
 1535SOL     OW 5503   4.536   4.486   4.238
 1535SOL    HW1 5504   4.533   4.479   4.338
 1535SOL    HW2 5505   4.450   4.524   4.205
 1536SOL     OW 5506   2.772   6.187   3.151
 1536SOL    HW1 5507   2.686   6.221   3.189
 1536SOL    HW2 5508   2.759   6.163   3.055
 1537SOL     OW 5509   1.749   4.974   5.033
 1537SOL    HW1 5510   1.735   5.071   5.056
 1537SOL    HW2 5511   1.847   4.956   5.026
 1538SOL     OW 5512   3.652   6.121   0.375
 1538SOL    HW1 5513   3.618   6.130   0.468
 1538SOL    HW2 5514   3.610   6.192   0.318
 1539SOL     OW 5515   1.965   6.450   1.103
 1539SOL    HW1 5516   1.905   6.386   1.055
 1539SOL    HW2 5517   2.013   6.401   1.176
 1540SOL     OW 5518   6.120   0.993   5.977
 1540SOL    HW1 5519   6.061   0.912   5.968
 1540SOL    HW2 5520   6.200   0.969   6.032
 1541SOL     OW 5521   5.038   1.952   2.409
 1541SOL    HW1 5522   5.036   1.893   2.328
 1541SOL    HW2 5523   4.956   2.009   2.411
 1542SOL     OW 5524   0.268   5.458   0.948
 1542SOL    HW1 5525   0.316   5.542   0.972
 1542SOL    HW2 5526   0.227   5.418   1.030
 1543SOL     OW 5527   3.414   3.009   2.709
 1543SOL    HW1 5528   3.376   3.088   2.662
 1543SOL    HW2 5529   3.495   2.977   2.661
 1544SOL     OW 5530   3.092   3.276   1.483
 1544SOL    HW1 5531   3.067   3.331   1.563
 1544SOL    HW2 5532   3.159   3.326   1.428
 1545SOL     OW 5533   0.590   6.456   5.801
 1545SOL    HW1 5534   0.610   6.361   5.776
 1545SOL    HW2 5535   0.579   6.511   5.718
 1546SOL     OW 5536   6.912   6.243   1.124
 1546SOL    HW1 5537   6.984   6.214   1.061
 1546SOL    HW2 5538   6.876   6.331   1.094
 1547SOL     OW 5539   2.939   6.658   0.620
 1547SOL    HW1 5540   3.011   6.613   0.567
 1547SOL    HW2 5541   2.867   6.690   0.558
 1548SOL     OW 5542   6.388   4.190   3.216
 1548SOL    HW1 5543   6.453   4.177   3.291
 1548SOL    HW2 5544   6.436   4.226   3.136
 1549SOL     OW 5545   6.087   2.161   1.631
 1549SOL    HW1 5546   5.989   2.146   1.636
 1549SOL    HW2 5547   6.105   2.258   1.610
 1550SOL     OW 5548   2.736   4.693   2.261
 1550SOL    HW1 5549   2.787   4.758   2.317
 1550SOL    HW2 5550   2.790   4.670   2.180
 1551SOL     OW 5551   0.867   2.160   2.138
 1551SOL    HW1 5552   0.791   2.153   2.073
 1551SOL    HW2 5553   0.934   2.088   2.119
 1552SOL     OW 5554   1.554   6.580   2.121
 1552SOL    HW1 5555   1.524   6.644   2.049
 1552SOL    HW2 5556   1.637   6.533   2.091
 1553SOL     OW 5557   6.314   1.482   5.374
 1553SOL    HW1 5558   6.377   1.462   5.299
 1553SOL    HW2 5559   6.258   1.401   5.393
 1554SOL     OW 5560   2.262   3.054   0.078
 1554SOL    HW1 5561   2.324   3.118   0.032
 1554SOL    HW2 5562   2.308   3.013   0.156
 1555SOL     OW 5563   4.404   1.301   1.115
 1555SOL    HW1 5564   4.404   1.397   1.085
 1555SOL    HW2 5565   4.315   1.277   1.152
 1556SOL     OW 5566   2.546   1.774   0.477
 1556SOL    HW1 5567   2.465   1.830   0.461
 1556SOL    HW2 5568   2.555   1.755   0.575
 1557SOL     OW 5569   2.450   2.085   1.518
 1557SOL    HW1 5570   2.429   2.110   1.423
 1557SOL    HW2 5571   2.368   2.094   1.574
 1558SOL     OW 5572   4.909   1.600   0.218
 1558SOL    HW1 5573   4.849   1.594   0.298
 1558SOL    HW2 5574   4.886   1.682   0.165
 1559SOL     OW 5575   2.453   5.919   3.648
 1559SOL    HW1 5576   2.373   5.973   3.672
 1559SOL    HW2 5577   2.448   5.892   3.552
 1560SOL     OW 5578   4.723   3.106   1.649
 1560SOL    HW1 5579   4.800   3.158   1.686
 1560SOL    HW2 5580   4.673   3.064   1.725
 1561SOL     OW 5581   5.816   6.844   0.722
 1561SOL    HW1 5582   5.849   6.912   0.787
 1561SOL    HW2 5583   5.718   6.829   0.737
 1562SOL     OW 5584   2.356   6.451   3.377
 1562SOL    HW1 5585   2.269   6.414   3.346
 1562SOL    HW2 5586   2.340   6.510   3.457
 1563SOL     OW 5587   2.257   4.674   3.965
 1563SOL    HW1 5588   2.174   4.681   4.021
 1563SOL    HW2 5589   2.312   4.597   3.998
 1564SOL     OW 5590   2.217   2.527   3.187
 1564SOL    HW1 5591   2.198   2.561   3.279
 1564SOL    HW2 5592   2.131   2.505   3.141
 1565SOL     OW 5593   5.607   1.896   5.793
 1565SOL    HW1 5594   5.554   1.980   5.781
 1565SOL    HW2 5595   5.593   1.836   5.714
 1566SOL     OW 5596   0.987   3.530   3.477
 1566SOL    HW1 5597   0.930   3.509   3.557
 1566SOL    HW2 5598   1.083   3.515   3.500
 1567SOL     OW 5599   5.122   0.847   3.502
 1567SOL    HW1 5600   5.084   0.763   3.540
 1567SOL    HW2 5601   5.160   0.903   3.575
 1568SOL     OW 5602   2.298   4.736   0.862
 1568SOL    HW1 5603   2.294   4.835   0.876
 1568SOL    HW2 5604   2.267   4.689   0.945
 1569SOL     OW 5605   2.382   0.998   2.047
 1569SOL    HW1 5606   2.320   0.966   2.119
 1569SOL    HW2 5607   2.333   1.061   1.987
 1570SOL     OW 5608   2.524   6.261   5.510
 1570SOL    HW1 5609   2.433   6.245   5.546
 1570SOL    HW2 5610   2.527   6.232   5.414
 1571SOL     OW 5611   1.963   1.815   4.272
 1571SOL    HW1 5612   1.913   1.782   4.192
 1571SOL    HW2 5613   2.032   1.882   4.242
 1572SOL     OW 5614   2.492   5.244   4.325
 1572SOL    HW1 5615   2.498   5.157   4.275
 1572SOL    HW2 5616   2.518   5.229   4.420
 1573SOL     OW 5617   5.625   6.067   6.871
 1573SOL    HW1 5618   5.698   6.122   6.911
 1573SOL    HW2 5619   5.544   6.125   6.855
 1574SOL     OW 5620   1.008   2.781   3.397
 1574SOL    HW1 5621   0.984   2.845   3.323
 1574SOL    HW2 5622   1.020   2.689   3.359
 1575SOL     OW 5623   6.955   2.113   0.950
 1575SOL    HW1 5624   6.954   2.148   0.856
 1575SOL    HW2 5625   6.923   2.185   1.012
 1576SOL     OW 5626   1.225   6.326   2.650
 1576SOL    HW1 5627   1.131   6.306   2.623
 1576SOL    HW2 5628   1.284   6.325   2.570
 1577SOL     OW 5629   4.645   5.927   3.889
 1577SOL    HW1 5630   4.558   5.903   3.847
 1577SOL    HW2 5631   4.655   5.880   3.977
 1578SOL     OW 5632   5.515   1.701   2.309
 1578SOL    HW1 5633   5.416   1.683   2.314
 1578SOL    HW2 5634   5.545   1.689   2.214
 1579SOL     OW 5635   1.961   3.941   2.746
 1579SOL    HW1 5636   1.916   3.964   2.660
 1579SOL    HW2 5637   1.927   4.002   2.818
 1580SOL     OW 5638   3.847   3.408   4.354
 1580SOL    HW1 5639   3.814   3.421   4.447
 1580SOL    HW2 5640   3.920   3.475   4.335
 1581SOL     OW 5641   5.192   4.203   5.196
 1581SOL    HW1 5642   5.266   4.215   5.262
 1581SOL    HW2 5643   5.212   4.125   5.138
 1582SOL     OW 5644   3.961   6.344   4.203
 1582SOL    HW1 5645   3.925   6.436   4.215
 1582SOL    HW2 5646   4.059   6.348   4.183
 1583SOL     OW 5647   0.112   4.729   4.127
 1583SOL    HW1 5648   0.026   4.769   4.096
 1583SOL    HW2 5649   0.176   4.724   4.049
 1584SOL     OW 5650   0.508   4.460   0.795
 1584SOL    HW1 5651   0.423   4.496   0.833
 1584SOL    HW2 5652   0.488   4.384   0.733
 1585SOL     OW 5653   4.174   6.131   4.555
 1585SOL    HW1 5654   4.078   6.150   4.576
 1585SOL    HW2 5655   4.182   6.097   4.462
 1586SOL     OW 5656   3.245   6.118   2.944
 1586SOL    HW1 5657   3.187   6.197   2.965
 1586SOL    HW2 5658   3.339   6.137   2.973
 1587SOL     OW 5659   4.217   0.557   0.577
 1587SOL    HW1 5660   4.188   0.551   0.672
 1587SOL    HW2 5661   4.137   0.573   0.518
 1588SOL     OW 5662   6.413   1.678   4.103
 1588SOL    HW1 5663   6.379   1.606   4.043
 1588SOL    HW2 5664   6.513   1.670   4.112
 1589SOL     OW 5665   6.922   1.428   3.849
 1589SOL    HW1 5666   6.968   1.463   3.931
 1589SOL    HW2 5667   6.894   1.506   3.791
 1590SOL     OW 5668   5.463   7.009   3.887
 1590SOL    HW1 5669   5.421   6.938   3.830
 1590SOL    HW2 5670   5.448   6.987   3.984
 1591SOL     OW 5671   6.485   5.011   0.571
 1591SOL    HW1 5672   6.426   5.090   0.591
 1591SOL    HW2 5673   6.484   4.993   0.473
 1592SOL     OW 5674   6.915   4.477   3.989
 1592SOL    HW1 5675   6.932   4.435   3.900
 1592SOL    HW2 5676   6.970   4.559   3.998
 1593SOL     OW 5677   4.272   4.801   0.860
 1593SOL    HW1 5678   4.301   4.706   0.855
 1593SOL    HW2 5679   4.186   4.807   0.911
 1594SOL     OW 5680   5.497   1.395   2.843
 1594SOL    HW1 5681   5.471   1.332   2.770
 1594SOL    HW2 5682   5.592   1.377   2.870
 1595SOL     OW 5683   0.077   4.003   0.611
 1595SOL    HW1 5684   0.087   4.093   0.655
 1595SOL    HW2 5685   0.077   4.015   0.511
 1596SOL     OW 5686   5.482   4.214   4.594
 1596SOL    HW1 5687   5.516   4.205   4.687
 1596SOL    HW2 5688   5.482   4.124   4.550
 1597SOL     OW 5689   4.018   6.451   0.814
 1597SOL    HW1 5690   3.949   6.391   0.854
 1597SOL    HW2 5691   4.102   6.445   0.868
 1598SOL     OW 5692   0.523   6.340   6.203
 1598SOL    HW1 5693   0.490   6.288   6.125
 1598SOL    HW2 5694   0.520   6.283   6.285
 1599SOL     OW 5695   4.970   5.814   4.077
 1599SOL    HW1 5696   4.968   5.877   3.999
 1599SOL    HW2 5697   5.033   5.739   4.058
 1600SOL     OW 5698   5.520   0.904   1.379
 1600SOL    HW1 5699   5.550   0.886   1.285
 1600SOL    HW2 5700   5.465   0.827   1.411
 1601SOL     OW 5701   6.391   0.770   5.540
 1601SOL    HW1 5702   6.355   0.677   5.533
 1601SOL    HW2 5703   6.464   0.783   5.472
 1602SOL     OW 5704   3.800   6.002   3.305
 1602SOL    HW1 5705   3.759   6.007   3.396
 1602SOL    HW2 5706   3.803   6.093   3.264
 1603SOL     OW 5707   2.859   5.607   1.509
 1603SOL    HW1 5708   2.783   5.623   1.572
 1603SOL    HW2 5709   2.857   5.674   1.435
 1604SOL     OW 5710   4.350   5.020   1.883
 1604SOL    HW1 5711   4.325   5.062   1.796
 1604SOL    HW2 5712   4.389   5.090   1.944
 1605SOL     OW 5713   3.393   4.700   0.023
 1605SOL    HW1 5714   3.417   4.789   0.060
 1605SOL    HW2 5715   3.475   4.654   7.015
 1606SOL     OW 5716   5.365   5.747   5.151
 1606SOL    HW1 5717   5.397   5.750   5.057
 1606SOL    HW2 5718   5.395   5.662   5.195
 1607SOL     OW 5719   4.372   4.738   4.036
 1607SOL    HW1 5720   4.412   4.822   3.998
 1607SOL    HW2 5721   4.415   4.658   3.994
 1608SOL     OW 5722   5.969   3.197   2.951
 1608SOL    HW1 5723   5.948   3.237   3.040
 1608SOL    HW2 5724   5.995   3.269   2.887
 1609SOL     OW 5725   1.129   0.282   0.806
 1609SOL    HW1 5726   1.128   0.373   0.848
 1609SOL    HW2 5727   1.219   0.240   0.821
 1610SOL     OW 5728   4.967   5.037   0.864
 1610SOL    HW1 5729   4.982   5.100   0.941
 1610SOL    HW2 5730   5.011   4.949   0.885
 1611SOL     OW 5731   0.849   4.454   0.390
 1611SOL    HW1 5732   0.778   4.518   0.361
 1611SOL    HW2 5733   0.936   4.503   0.400
 1612SOL     OW 5734   4.793   0.094   1.964
 1612SOL    HW1 5735   4.733   0.174   1.969
 1612SOL    HW2 5736   4.782   0.049   1.876
 1613SOL     OW 5737   6.439   6.281   3.051
 1613SOL    HW1 5738   6.346   6.247   3.039
 1613SOL    HW2 5739   6.476   6.309   2.963
 1614SOL     OW 5740   5.974   1.215   5.973
 1614SOL    HW1 5741   6.020   1.126   5.965
 1614SOL    HW2 5742   5.917   1.231   5.892
 1615SOL     OW 5743   6.303   3.265   5.908
 1615SOL    HW1 5744   6.268   3.344   5.959
 1615SOL    HW2 5745   6.373   3.219   5.962
 1616SOL     OW 5746   2.190   1.016   3.510
 1616SOL    HW1 5747   2.270   0.985   3.459
 1616SOL    HW2 5748   2.156   1.101   3.472
 1617SOL     OW 5749   0.164   6.585   4.203
 1617SOL    HW1 5750   0.221   6.604   4.283
 1617SOL    HW2 5751   0.213   6.522   4.142
 1618SOL     OW 5752   3.427   5.034   2.587
 1618SOL    HW1 5753   3.331   5.053   2.603
 1618SOL    HW2 5754   3.481   5.118   2.600
 1619SOL     OW 5755   1.463   4.229   6.471
 1619SOL    HW1 5756   1.477   4.131   6.453
 1619SOL    HW2 5757   1.536   4.282   6.428
 1620SOL     OW 5758   3.118   0.024   5.063
 1620SOL    HW1 5759   3.132   6.969   5.007
 1620SOL    HW2 5760   3.096   0.102   5.004
 1621SOL     OW 5761   4.682   5.069   0.853
 1621SOL    HW1 5762   4.619   4.992   0.855
 1621SOL    HW2 5763   4.775   5.036   0.835
 1622SOL     OW 5764   6.465   3.101   4.333
 1622SOL    HW1 5765   6.401   3.103   4.410
 1622SOL    HW2 5766   6.496   3.007   4.319
 1623SOL     OW 5767   0.599   2.366   4.302
 1623SOL    HW1 5768   0.678   2.424   4.324
 1623SOL    HW2 5769   0.515   2.418   4.316
 1624SOL     OW 5770   4.408   2.967   6.772
 1624SOL    HW1 5771   4.380   3.032   6.701
 1624SOL    HW2 5772   4.444   3.017   6.851
 1625SOL     OW 5773   0.603   6.410   0.530
 1625SOL    HW1 5774   0.675   6.403   0.600
 1625SOL    HW2 5775   0.565   6.503   0.530
 1626SOL     OW 5776   3.029   1.496   1.742
 1626SOL    HW1 5777   3.114   1.456   1.776
 1626SOL    HW2 5778   3.049   1.579   1.690
 1627SOL     OW 5779   4.354   1.192   6.125
 1627SOL    HW1 5780   4.383   1.252   6.200
 1627SOL    HW2 5781   4.433   1.171   6.067
 1628SOL     OW 5782   5.828   5.741   1.203
 1628SOL    HW1 5783   5.855   5.676   1.274
 1628SOL    HW2 5784   5.866   5.831   1.224
 1629SOL     OW 5785   1.461   5.994   2.111
 1629SOL    HW1 5786   1.479   5.912   2.055
 1629SOL    HW2 5787   1.534   6.061   2.096
 1630SOL     OW 5788   0.221   4.872   5.769
 1630SOL    HW1 5789   0.146   4.805   5.763
 1630SOL    HW2 5790   0.308   4.824   5.780
 1631SOL     OW 5791   4.876   4.244   6.402
 1631SOL    HW1 5792   4.799   4.307   6.414
 1631SOL    HW2 5793   4.844   4.160   6.359
 1632SOL     OW 5794   5.936   4.883   1.949
 1632SOL    HW1 5795   6.011   4.830   1.911
 1632SOL    HW2 5796   5.858   4.881   1.886
 1633SOL     OW 5797   6.337   4.382   5.466
 1633SOL    HW1 5798   6.421   4.418   5.507
 1633SOL    HW2 5799   6.278   4.457   5.438
 1634SOL     OW 5800   1.281   4.209   6.015
 1634SOL    HW1 5801   1.347   4.151   6.064
 1634SOL    HW2 5802   1.321   4.299   5.999
 1635SOL     OW 5803   3.165   1.150   3.901
 1635SOL    HW1 5804   3.243   1.122   3.846
 1635SOL    HW2 5805   3.197   1.209   3.976
 1636SOL     OW 5806   0.065   6.118   2.138
 1636SOL    HW1 5807   0.020   6.178   2.072
 1636SOL    HW2 5808   0.061   6.159   2.229
 1637SOL     OW 5809   1.734   1.257   1.667
 1637SOL    HW1 5810   1.782   1.176   1.632
 1637SOL    HW2 5811   1.642   1.260   1.628
 1638SOL     OW 5812   5.527   1.167   3.197
 1638SOL    HW1 5813   5.502   1.262   3.175
 1638SOL    HW2 5814   5.593   1.134   3.130
 1639SOL     OW 5815   5.117   2.244   1.084
 1639SOL    HW1 5816   5.075   2.232   0.994
 1639SOL    HW2 5817   5.069   2.316   1.134
 1640SOL     OW 5818   7.014   1.384   6.400
 1640SOL    HW1 5819   6.968   1.302   6.366
 1640SOL    HW2 5820   0.019   1.439   6.324
 1641SOL     OW 5821   6.088   0.891   2.781
 1641SOL    HW1 5822   6.114   0.868   2.875
 1641SOL    HW2 5823   6.023   0.967   2.783
 1642SOL     OW 5824   0.400   3.678   6.573
 1642SOL    HW1 5825   0.317   3.642   6.614
 1642SOL    HW2 5826   0.377   3.757   6.516
 1643SOL     OW 5827   2.283   5.362   4.200
 1643SOL    HW1 5828   2.238   5.296   4.140
 1643SOL    HW2 5829   2.372   5.326   4.228
 1644SOL     OW 5830   5.672   1.895   2.092
 1644SOL    HW1 5831   5.759   1.909   2.140
 1644SOL    HW2 5832   5.609   1.969   2.115
 1645SOL     OW 5833   2.249   1.196   4.032
 1645SOL    HW1 5834   2.311   1.238   3.966
 1645SOL    HW2 5835   2.205   1.268   4.087
 1646SOL     OW 5836   0.083   5.257   1.739
 1646SOL    HW1 5837   0.178   5.253   1.709
 1646SOL    HW2 5838   0.032   5.181   1.699
 1647SOL     OW 5839   6.430   4.244   5.221
 1647SOL    HW1 5840   6.356   4.200   5.272
 1647SOL    HW2 5841   6.479   4.307   5.281
 1648SOL     OW 5842   5.925   5.792   1.871
 1648SOL    HW1 5843   5.966   5.883   1.883
 1648SOL    HW2 5844   5.910   5.774   1.774
 1649SOL     OW 5845   3.630   1.074   3.676
 1649SOL    HW1 5846   3.683   1.149   3.637
 1649SOL    HW2 5847   3.653   1.063   3.773
 1650SOL     OW 5848   2.437   3.041   5.637
 1650SOL    HW1 5849   2.390   2.979   5.700
 1650SOL    HW2 5850   2.444   3.132   5.679
 1651SOL     OW 5851   2.079   2.087   4.817
 1651SOL    HW1 5852   2.058   2.108   4.721
 1651SOL    HW2 5853   2.169   2.044   4.823
 1652SOL     OW 5854   6.970   4.426   1.770
 1652SOL    HW1 5855   7.021   4.478   1.702
 1652SOL    HW2 5856   0.006   4.393   1.841
 1653SOL     OW 5857   5.477   3.812   1.640
 1653SOL    HW1 5858   5.537   3.884   1.674
 1653SOL    HW2 5859   5.503   3.724   1.681
 1654SOL     OW 5860   0.113   2.748   1.588
 1654SOL    HW1 5861   0.177   2.673   1.573
 1654SOL    HW2 5862   0.116   2.811   1.510
 1655SOL     OW 5863   6.686   0.729   5.970
 1655SOL    HW1 5864   6.730   0.806   6.016
 1655SOL    HW2 5865   6.646   0.667   6.038
 1656SOL     OW 5866   1.991   4.926   2.845
 1656SOL    HW1 5867   2.017   4.949   2.751
 1656SOL    HW2 5868   2.026   4.996   2.907
 1657SOL     OW 5869   0.685   1.909   6.087
 1657SOL    HW1 5870   0.630   1.896   6.170
 1657SOL    HW2 5871   0.627   1.895   6.006
 1658SOL     OW 5872   4.543   0.294   5.659
 1658SOL    HW1 5873   4.525   0.288   5.561
 1658SOL    HW2 5874   4.620   0.234   5.683
 1659SOL     OW 5875   2.208   1.255   6.710
 1659SOL    HW1 5876   2.293   1.256   6.762
 1659SOL    HW2 5877   2.223   1.217   6.619
 1660SOL     OW 5878   2.472   0.835   1.512
 1660SOL    HW1 5879   2.447   0.777   1.590
 1660SOL    HW2 5880   2.424   0.803   1.430
 1661SOL     OW 5881   4.410   5.152   3.013
 1661SOL    HW1 5882   4.439   5.219   3.082
 1661SOL    HW2 5883   4.490   5.119   2.964
 1662SOL     OW 5884   0.958   2.334   4.369
 1662SOL    HW1 5885   1.036   2.309   4.427
 1662SOL    HW2 5886   0.894   2.390   4.422
 1663SOL     OW 5887   6.397   4.047   1.445
 1663SOL    HW1 5888   6.402   3.950   1.421
 1663SOL    HW2 5889   6.334   4.059   1.522
 1664SOL     OW 5890   0.921   0.982   6.713
 1664SOL    HW1 5891   0.870   0.930   6.781
 1664SOL    HW2 5892   0.974   0.919   6.655
 1665SOL     OW 5893   1.650   3.087   1.004
 1665SOL    HW1 5894   1.690   3.059   0.917
 1665SOL    HW2 5895   1.551   3.072   1.001
 1666SOL     OW 5896   6.068   6.230   5.236
 1666SOL    HW1 5897   6.133   6.304   5.219
 1666SOL    HW2 5898   5.978   6.268   5.256
 1667SOL     OW 5899   6.034   5.431   1.504
 1667SOL    HW1 5900   6.050   5.506   1.567
 1667SOL    HW2 5901   6.093   5.442   1.424
 1668SOL     OW 5902   6.893   2.871   2.516
 1668SOL    HW1 5903   6.836   2.807   2.568
 1668SOL    HW2 5904   6.921   2.946   2.575
 1669SOL     OW 5905   6.636   2.545   5.734
 1669SOL    HW1 5906   6.573   2.549   5.656
 1669SOL    HW2 5907   6.653   2.449   5.759
 1670SOL     OW 5908   3.142   4.449   5.346
 1670SOL    HW1 5909   3.118   4.363   5.301
 1670SOL    HW2 5910   3.068   4.515   5.331
 1671SOL     OW 5911   5.994   2.900   0.371
 1671SOL    HW1 5912   6.089   2.887   0.397
 1671SOL    HW2 5913   5.970   2.837   0.297
 1672SOL     OW 5914   1.057   1.951   2.112
 1672SOL    HW1 5915   1.136   1.913   2.159
 1672SOL    HW2 5916   1.065   1.932   2.014
 1673SOL     OW 5917   0.899   0.633   6.482
 1673SOL    HW1 5918   0.969   0.682   6.535
 1673SOL    HW2 5919   0.943   0.574   6.415
 1674SOL     OW 5920   4.971   2.686   3.228
 1674SOL    HW1 5921   4.973   2.686   3.328
 1674SOL    HW2 5922   4.991   2.594   3.194
 1675SOL     OW 5923   5.263   1.021   2.054
 1675SOL    HW1 5924   5.323   0.973   1.990
 1675SOL    HW2 5925   5.226   1.103   2.011
 1676SOL     OW 5926   2.653   1.763   3.675
 1676SOL    HW1 5927   2.574   1.813   3.711
 1676SOL    HW2 5928   2.697   1.817   3.603
 1677SOL     OW 5929   2.703   2.981   1.648
 1677SOL    HW1 5930   2.721   3.068   1.602
 1677SOL    HW2 5931   2.789   2.941   1.679
 1678SOL     OW 5932   6.617   0.111   1.366
 1678SOL    HW1 5933   6.558   0.066   1.433
 1678SOL    HW2 5934   6.649   0.199   1.402
 1679SOL     OW 5935   6.922   2.307   6.598
 1679SOL    HW1 5936   6.851   2.274   6.661
 1679SOL    HW2 5937   7.012   2.284   6.634
 1680SOL     OW 5938   5.547   1.542   4.081
 1680SOL    HW1 5939   5.637   1.511   4.047
 1680SOL    HW2 5940   5.557   1.579   4.173
 1681SOL     OW 5941   4.736   6.772   4.333
 1681SOL    HW1 5942   4.682   6.753   4.251
 1681SOL    HW2 5943   4.680   6.824   4.398
 1682SOL     OW 5944   4.531   1.763   5.396
 1682SOL    HW1 5945   4.566   1.855   5.377
 1682SOL    HW2 5946   4.589   1.695   5.350
 1683SOL     OW 5947   0.911   4.551   3.849
 1683SOL    HW1 5948   1.009   4.563   3.859
 1683SOL    HW2 5949   0.864   4.634   3.878
 1684SOL     OW 5950   3.462   5.765   1.530
 1684SOL    HW1 5951   3.428   5.671   1.527
 1684SOL    HW2 5952   3.521   5.777   1.610
 1685SOL     OW 5953   6.794   2.050   6.136
 1685SOL    HW1 5954   6.729   2.022   6.065
 1685SOL    HW2 5955   6.744   2.084   6.216
 1686SOL     OW 5956   2.669   6.029   1.035
 1686SOL    HW1 5957   2.626   5.951   0.991
 1686SOL    HW2 5958   2.663   6.020   1.135
 1687SOL     OW 5959   4.518   4.266   6.608
 1687SOL    HW1 5960   4.550   4.177   6.641
 1687SOL    HW2 5961   4.419   4.273   6.619
 1688SOL     OW 5962   2.494   0.440   2.326
 1688SOL    HW1 5963   2.574   0.463   2.382
 1688SOL    HW2 5964   2.502   0.346   2.292
 1689SOL     OW 5965   4.566   1.096   2.098
 1689SOL    HW1 5966   4.606   1.081   2.007
 1689SOL    HW2 5967   4.589   1.019   2.157
 1690SOL     OW 5968   0.552   4.592   4.092
 1690SOL    HW1 5969   0.537   4.641   4.006
 1690SOL    HW2 5970   0.469   4.594   4.147
 1691SOL     OW 5971   4.784   2.890   5.557
 1691SOL    HW1 5972   4.770   2.980   5.598
 1691SOL    HW2 5973   4.696   2.844   5.547
 1692SOL     OW 5974   5.881   5.371   2.773
 1692SOL    HW1 5975   5.827   5.288   2.785
 1692SOL    HW2 5976   5.957   5.352   2.710
 1693SOL     OW 5977   5.658   0.107   6.066
 1693SOL    HW1 5978   5.735   0.075   6.011
 1693SOL    HW2 5979   5.674   0.203   6.092
 1694SOL     OW 5980   4.445   1.341   6.365
 1694SOL    HW1 5981   4.437   1.440   6.366
 1694SOL    HW2 5982   4.371   1.301   6.418
 1695SOL     OW 5983   5.959   1.008   5.513
 1695SOL    HW1 5984   5.897   1.040   5.584
 1695SOL    HW2 5985   6.053   1.026   5.541
 1696SOL     OW 5986   5.306   6.609   1.025
 1696SOL    HW1 5987   5.366   6.688   1.034
 1696SOL    HW2 5988   5.335   6.553   0.947
 1697SOL     OW 5989   4.015   3.901   1.766
 1697SOL    HW1 5990   3.922   3.927   1.793
 1697SOL    HW2 5991   4.064   3.867   1.846
 1698SOL     OW 5992   4.578   2.432   1.327
 1698SOL    HW1 5993   4.500   2.493   1.343
 1698SOL    HW2 5994   4.614   2.401   1.415
 1699SOL     OW 5995   1.448   0.436   0.886
 1699SOL    HW1 5996   1.543   0.446   0.915
 1699SOL    HW2 5997   1.388   0.482   0.951
 1700SOL     OW 5998   5.851   3.290   3.169
 1700SOL    HW1 5999   5.893   3.374   3.201
 1700SOL    HW2 6000   5.794   3.251   3.242
 1701SOL     OW 6001   1.476   5.817   5.089
 1701SOL    HW1 6002   1.439   5.862   5.171
 1701SOL    HW2 6003   1.402   5.798   5.025
 1702SOL     OW 6004   2.037   2.177   6.799
 1702SOL    HW1 6005   2.103   2.215   6.864
 1702SOL    HW2 6006   2.050   2.219   6.709
 1703SOL     OW 6007   2.890   1.331   1.933
 1703SOL    HW1 6008   2.936   1.391   1.867
 1703SOL    HW2 6009   2.811   1.289   1.889
 1704SOL     OW 6010   2.936   2.438   6.641
 1704SOL    HW1 6011   2.892   2.422   6.729
 1704SOL    HW2 6012   3.035   2.426   6.651
 1705SOL     OW 6013   5.974   3.260   1.094
 1705SOL    HW1 6014   6.045   3.232   1.029
 1705SOL    HW2 6015   5.963   3.188   1.164
 1706SOL     OW 6016   6.174   0.338   5.600
 1706SOL    HW1 6017   6.254   0.316   5.544
 1706SOL    HW2 6018   6.095   0.354   5.541
 1707SOL     OW 6019   2.939   1.708   2.670
 1707SOL    HW1 6020   2.899   1.758   2.747
 1707SOL    HW2 6021   2.990   1.630   2.704
 1708SOL     OW 6022   2.484   4.223   1.466
 1708SOL    HW1 6023   2.427   4.294   1.424
 1708SOL    HW2 6024   2.511   4.253   1.558
 1709SOL     OW 6025   6.080   5.240   2.632
 1709SOL    HW1 6026   6.094   5.142   2.628
 1709SOL    HW2 6027   6.155   5.283   2.683
 1710SOL     OW 6028   4.802   2.788   2.188
 1710SOL    HW1 6029   4.883   2.833   2.226
 1710SOL    HW2 6030   4.760   2.847   2.119
 1711SOL     OW 6031   3.811   5.291   0.340
 1711SOL    HW1 6032   3.886   5.327   0.284
 1711SOL    HW2 6033   3.813   5.191   0.335
 1712SOL     OW 6034   0.368   2.691   1.948
 1712SOL    HW1 6035   0.445   2.715   1.887
 1712SOL    HW2 6036   0.356   2.592   1.949
 1713SOL     OW 6037   2.739   1.703   2.471
 1713SOL    HW1 6038   2.746   1.609   2.438
 1713SOL    HW2 6039   2.826   1.733   2.509
 1714SOL     OW 6040   3.210   4.671   1.020
 1714SOL    HW1 6041   3.162   4.626   1.095
 1714SOL    HW2 6042   3.263   4.604   0.969
 1715SOL     OW 6043   1.319   5.827   1.116
 1715SOL    HW1 6044   1.375   5.758   1.071
 1715SOL    HW2 6045   1.303   5.800   1.211
 1716SOL     OW 6046   5.003   1.793   2.187
 1716SOL    HW1 6047   4.915   1.750   2.206
 1716SOL    HW2 6048   4.988   1.874   2.129
 1717SOL     OW 6049   3.949   6.863   4.119
 1717SOL    HW1 6050   3.969   6.774   4.076
 1717SOL    HW2 6051   3.975   6.860   4.215
 1718SOL     OW 6052   1.588   4.038   2.176
 1718SOL    HW1 6053   1.605   4.135   2.157
 1718SOL    HW2 6054   1.602   4.020   2.273
 1719SOL     OW 6055   1.142   4.932   2.971
 1719SOL    HW1 6056   1.098   4.844   2.985
 1719SOL    HW2 6057   1.186   4.933   2.881
 1720SOL     OW 6058   1.912   3.009   5.413
 1720SOL    HW1 6059   1.857   2.948   5.357
 1720SOL    HW2 6060   1.949   3.083   5.355
 1721SOL     OW 6061   1.945   2.263   0.295
 1721SOL    HW1 6062   1.923   2.316   0.213
 1721SOL    HW2 6063   1.913   2.313   0.376
 1722SOL     OW 6064   3.566   2.116   3.037
 1722SOL    HW1 6065   3.574   2.127   3.136
 1722SOL    HW2 6066   3.653   2.085   3.000
 1723SOL     OW 6067   6.517   5.622   1.984
 1723SOL    HW1 6068   6.616   5.612   1.994
 1723SOL    HW2 6069   6.497   5.713   1.947
 1724SOL     OW 6070   5.744   3.785   1.398
 1724SOL    HW1 6071   5.785   3.694   1.403
 1724SOL    HW2 6072   5.737   3.823   1.490
 1725SOL     OW 6073   2.008   6.551   4.697
 1725SOL    HW1 6074   2.052   6.494   4.627
 1725SOL    HW2 6075   2.071   6.564   4.774
 1726SOL     OW 6076   5.821   5.105   2.530
 1726SOL    HW1 6077   5.792   5.170   2.459
 1726SOL    HW2 6078   5.857   5.022   2.487
 1727SOL     OW 6079   2.918   3.740   3.965
 1727SOL    HW1 6080   2.951   3.646   3.956
 1727SOL    HW2 6081   2.853   3.746   4.040
 1728SOL     OW 6082   5.498   2.040   4.294
 1728SOL    HW1 6083   5.403   2.022   4.270
 1728SOL    HW2 6084   5.537   2.106   4.230
 1729SOL     OW 6085   1.758   3.059   2.696
 1729SOL    HW1 6086   1.819   3.135   2.719
 1729SOL    HW2 6087   1.673   3.069   2.746
 1730SOL     OW 6088   3.241   0.485   4.369
 1730SOL    HW1 6089   3.322   0.543   4.361
 1730SOL    HW2 6090   3.193   0.483   4.281
 1731SOL     OW 6091   6.709   4.916   2.826
 1731SOL    HW1 6092   6.680   4.941   2.734
 1731SOL    HW2 6093   6.646   4.955   2.893
 1732SOL     OW 6094   3.633   2.908   4.840
 1732SOL    HW1 6095   3.651   2.821   4.885
 1732SOL    HW2 6096   3.541   2.939   4.861
 1733SOL     OW 6097   1.442   1.966   6.989
 1733SOL    HW1 6098   1.388   2.030   6.935
 1733SOL    HW2 6099   1.459   2.005   0.053
 1734SOL     OW 6100   0.723   4.733   2.493
 1734SOL    HW1 6101   0.788   4.659   2.511
 1734SOL    HW2 6102   0.631   4.694   2.485
 1735SOL     OW 6103   3.697   5.804   5.725
 1735SOL    HW1 6104   3.640   5.725   5.704
 1735SOL    HW2 6105   3.702   5.864   5.645
 1736SOL     OW 6106   4.396   2.114   4.808
 1736SOL    HW1 6107   4.417   2.019   4.833
 1736SOL    HW2 6108   4.480   2.168   4.807
 1737SOL     OW 6109   1.567   0.087   6.889
 1737SOL    HW1 6110   1.467   0.095   6.884
 1737SOL    HW2 6111   1.592   0.049   6.978
 1738SOL     OW 6112   1.304   3.264   2.018
 1738SOL    HW1 6113   1.287   3.363   2.022
 1738SOL    HW2 6114   1.349   3.242   1.931
 1739SOL     OW 6115   4.463   6.289   2.531
 1739SOL    HW1 6116   4.460   6.330   2.622
 1739SOL    HW2 6117   4.434   6.356   2.463
 1740SOL     OW 6118   0.680   2.015   4.627
 1740SOL    HW1 6119   0.753   2.066   4.673
 1740SOL    HW2 6120   0.664   1.928   4.675
 1741SOL     OW 6121   1.466   1.939   4.533
 1741SOL    HW1 6122   1.445   1.843   4.551
 1741SOL    HW2 6123   1.540   1.944   4.466
 1742SOL     OW 6124   6.390   0.344   6.341
 1742SOL    HW1 6125   6.420   0.364   6.247
 1742SOL    HW2 6126   6.328   0.266   6.339
 1743SOL     OW 6127   1.130   2.460   2.968
 1743SOL    HW1 6128   1.099   2.381   3.021
 1743SOL    HW2 6129   1.169   2.429   2.881
 1744SOL     OW 6130   2.973   1.746   5.431
 1744SOL    HW1 6131   2.882   1.708   5.449
 1744SOL    HW2 6132   2.975   1.842   5.461
 1745SOL     OW 6133   5.706   6.781   1.052
 1745SOL    HW1 6134   5.614   6.796   1.015
 1745SOL    HW2 6135   5.742   6.867   1.089
 1746SOL     OW 6136   2.829   5.137   1.989
 1746SOL    HW1 6137   2.917   5.139   2.035
 1746SOL    HW2 6138   2.804   5.229   1.961
 1747SOL     OW 6139   2.254   6.469   2.324
 1747SOL    HW1 6140   2.325   6.506   2.384
 1747SOL    HW2 6141   2.181   6.536   2.313
 1748SOL     OW 6142   6.384   1.221   4.198
 1748SOL    HW1 6143   6.379   1.250   4.102
 1748SOL    HW2 6144   6.360   1.298   4.257
 1749SOL     OW 6145   6.718   5.167   2.023
 1749SOL    HW1 6146   6.658   5.245   2.006
 1749SOL    HW2 6147   6.707   5.135   2.117
 1750SOL     OW 6148   2.659   2.086   0.394
 1750SOL    HW1 6149   2.596   2.119   0.463
 1750SOL    HW2 6150   2.615   2.012   0.342
 1751SOL     OW 6151   6.521   4.087   4.101
 1751SOL    HW1 6152   6.524   4.187   4.099
 1751SOL    HW2 6153   6.526   4.056   4.196
 1752SOL     OW 6154   6.051   0.137   2.947
 1752SOL    HW1 6155   6.064   0.083   3.030
 1752SOL    HW2 6156   6.019   0.229   2.971
 1753SOL     OW 6157   6.978   1.570   0.504
 1753SOL    HW1 6158   6.951   1.607   0.592
 1753SOL    HW2 6159   7.025   1.483   0.518
 1754SOL     OW 6160   2.188   4.681   3.669
 1754SOL    HW1 6161   2.216   4.705   3.762
 1754SOL    HW2 6162   2.258   4.713   3.604
 1755SOL     OW 6163   5.098   6.962   5.399
 1755SOL    HW1 6164   5.136   0.022   5.366
 1755SOL    HW2 6165   5.125   6.949   5.495
 1756SOL     OW 6166   4.367   5.239   0.858
 1756SOL    HW1 6167   4.402   5.314   0.801
 1756SOL    HW2 6168   4.299   5.187   0.805
 1757SOL     OW 6169   2.869   5.295   5.311
 1757SOL    HW1 6170   2.915   5.319   5.226
 1757SOL    HW2 6171   2.899   5.204   5.341
 1758SOL     OW 6172   0.059   6.284   3.993
 1758SOL    HW1 6173   0.007   6.264   4.076
 1758SOL    HW2 6174   7.026   6.324   3.924
 1759SOL     OW 6175   1.623   5.651   5.917
 1759SOL    HW1 6176   1.691   5.721   5.901
 1759SOL    HW2 6177   1.532   5.693   5.923
 1760SOL     OW 6178   5.735   1.238   4.372
 1760SOL    HW1 6179   5.691   1.202   4.290
 1760SOL    HW2 6180   5.833   1.247   4.356
 1761SOL     OW 6181   4.666   2.513   4.567
 1761SOL    HW1 6182   4.604   2.436   4.584
 1761SOL    HW2 6183   4.652   2.583   4.638
 1762SOL     OW 6184   0.795   1.328   5.252
 1762SOL    HW1 6185   0.893   1.335   5.269
 1762SOL    HW2 6186   0.755   1.419   5.244
 1763SOL     OW 6187   1.448   5.297   4.377
 1763SOL    HW1 6188   1.508   5.261   4.306
 1763SOL    HW2 6189   1.502   5.348   4.444
 1764SOL     OW 6190   6.908   5.077   2.908
 1764SOL    HW1 6191   6.938   5.121   2.824
 1764SOL    HW2 6192   6.853   4.996   2.886
 1765SOL     OW 6193   5.171   3.939   2.618
 1765SOL    HW1 6194   5.122   4.025   2.624
 1765SOL    HW2 6195   5.127   3.880   2.550
 1766SOL     OW 6196   3.889   5.038   3.899
 1766SOL    HW1 6197   3.789   5.046   3.904
 1766SOL    HW2 6198   3.927   5.121   3.857
 1767SOL     OW 6199   2.723   4.508   1.636
 1767SOL    HW1 6200   2.645   4.462   1.679
 1767SOL    HW2 6201   2.795   4.523   1.705
 1768SOL     OW 6202   3.814   5.585   2.447
 1768SOL    HW1 6203   3.856   5.630   2.368
 1768SOL    HW2 6204   3.768   5.502   2.417
 1769SOL     OW 6205   5.318   0.116   0.341
 1769SOL    HW1 6206   5.370   0.170   0.408
 1769SOL    HW2 6207   5.227   0.157   0.329
 1770SOL     OW 6208   2.049   3.413   0.141
 1770SOL    HW1 6209   1.996   3.329   0.153
 1770SOL    HW2 6210   2.142   3.400   0.176
 1771SOL     OW 6211   1.502   3.284   6.373
 1771SOL    HW1 6212   1.408   3.269   6.341
 1771SOL    HW2 6213   1.554   3.199   6.362
 1772SOL     OW 6214   2.748   4.847   1.349
 1772SOL    HW1 6215   2.846   4.832   1.338
 1772SOL    HW2 6216   2.729   4.871   1.444
 1773SOL     OW 6217   2.010   5.840   4.386
 1773SOL    HW1 6218   1.948   5.764   4.367
 1773SOL    HW2 6219   2.104   5.813   4.366
 1774SOL     OW 6220   5.778   4.578   1.611
 1774SOL    HW1 6221   5.864   4.596   1.562
 1774SOL    HW2 6222   5.796   4.575   1.709
 1775SOL     OW 6223   2.249   6.541   0.550
 1775SOL    HW1 6224   2.208   6.504   0.633
 1775SOL    HW2 6225   2.182   6.540   0.476
 1776SOL     OW 6226   4.503   3.013   5.807
 1776SOL    HW1 6227   4.416   2.970   5.833
 1776SOL    HW2 6228   4.518   3.094   5.863
 1777SOL     OW 6229   4.553   5.132   6.018
 1777SOL    HW1 6230   4.577   5.229   6.007
 1777SOL    HW2 6231   4.526   5.115   6.113
 1778SOL     OW 6232   7.006   0.250   2.734
 1778SOL    HW1 6233   0.029   0.261   2.648
 1778SOL    HW2 6234   6.917   0.296   2.727
 1779SOL     OW 6235   7.008   6.269   5.089
 1779SOL    HW1 6236   6.981   6.294   4.996
 1779SOL    HW2 6237   0.048   6.194   5.085
 1780SOL     OW 6238   2.654   6.942   4.934
 1780SOL    HW1 6239   2.616   0.004   4.960
 1780SOL    HW2 6240   2.583   6.885   4.893
 1781SOL     OW 6241   3.956   0.950   5.714
 1781SOL    HW1 6242   3.909   0.961   5.626
 1781SOL    HW2 6243   3.923   1.019   5.778
 1782SOL     OW 6244   6.249   0.244   2.262
 1782SOL    HW1 6245   6.293   0.323   2.219
 1782SOL    HW2 6246   6.174   0.211   2.204
 1783SOL     OW 6247   1.243   3.193   6.632
 1783SOL    HW1 6248   1.184   3.150   6.564
 1783SOL    HW2 6249   1.188   3.226   6.708
 1784SOL     OW 6250   1.324   6.092   1.181
 1784SOL    HW1 6251   1.347   6.002   1.142
 1784SOL    HW2 6252   1.305   6.081   1.279
 1785SOL     OW 6253   2.585   5.382   4.799
 1785SOL    HW1 6254   2.682   5.404   4.809
 1785SOL    HW2 6255   2.539   5.393   4.887
 1786SOL     OW 6256   0.414   5.071   2.230
 1786SOL    HW1 6257   0.508   5.105   2.240
 1786SOL    HW2 6258   0.365   5.081   2.317
 1787SOL     OW 6259   2.781   1.283   6.319
 1787SOL    HW1 6260   2.718   1.359   6.305
 1787SOL    HW2 6261   2.774   1.250   6.413
 1788SOL     OW 6262   3.746   3.966   0.410
 1788SOL    HW1 6263   3.744   3.872   0.444
 1788SOL    HW2 6264   3.655   4.007   0.418
 1789SOL     OW 6265   5.800   3.172   4.049
 1789SOL    HW1 6266   5.777   3.188   3.953
 1789SOL    HW2 6267   5.801   3.074   4.067
 1790SOL     OW 6268   2.617   2.495   4.764
 1790SOL    HW1 6269   2.688   2.425   4.767
 1790SOL    HW2 6270   2.594   2.515   4.668
 1791SOL     OW 6271   6.358   0.295   3.038
 1791SOL    HW1 6272   6.432   0.232   3.059
 1791SOL    HW2 6273   6.324   0.279   2.946
 1792SOL     OW 6274   0.143   3.551   5.915
 1792SOL    HW1 6275   0.210   3.609   5.960
 1792SOL    HW2 6276   0.056   3.601   5.905
 1793SOL     OW 6277   1.210   2.862   5.190
 1793SOL    HW1 6278   1.119   2.891   5.220
 1793SOL    HW2 6279   1.201   2.780   5.133
 1794SOL     OW 6280   0.136   2.205   6.696
 1794SOL    HW1 6281   0.121   2.107   6.709
 1794SOL    HW2 6282   0.126   2.252   6.784
 1795SOL     OW 6283   5.704   3.698   0.948
 1795SOL    HW1 6284   5.656   3.712   0.861
 1795SOL    HW2 6285   5.799   3.727   0.938
 1796SOL     OW 6286   6.129   6.317   6.234
 1796SOL    HW1 6287   6.035   6.283   6.229
 1796SOL    HW2 6288   6.181   6.262   6.299
 1797SOL     OW 6289   3.330   6.582   5.446
 1797SOL    HW1 6290   3.392   6.503   5.453
 1797SOL    HW2 6291   3.263   6.565   5.374
 1798SOL     OW 6292   2.295   4.940   6.603
 1798SOL    HW1 6293   2.341   4.931   6.691
 1798SOL    HW2 6294   2.228   4.866   6.593
 1799SOL     OW 6295   3.435   1.683   1.567
 1799SOL    HW1 6296   3.433   1.624   1.647
 1799SOL    HW2 6297   3.442   1.779   1.596
 1800SOL     OW 6298   5.398   2.462   5.628
 1800SOL    HW1 6299   5.315   2.438   5.578
 1800SOL    HW2 6300   5.469   2.490   5.564
 1801SOL     OW 6301   1.272   2.259   2.761
 1801SOL    HW1 6302   1.247   2.164   2.775
 1801SOL    HW2 6303   1.298   2.273   2.665
 1802SOL     OW 6304   6.099   4.465   4.840
 1802SOL    HW1 6305   6.167   4.449   4.911
 1802SOL    HW2 6306   6.067   4.560   4.845
 1803SOL     OW 6307   5.851   6.155   3.853
 1803SOL    HW1 6308   5.882   6.180   3.761
 1803SOL    HW2 6309   5.843   6.055   3.859
 1804SOL     OW 6310   1.311   2.819   5.965
 1804SOL    HW1 6311   1.352   2.903   5.928
 1804SOL    HW2 6312   1.318   2.746   5.897
 1805SOL     OW 6313   6.845   4.954   6.468
 1805SOL    HW1 6314   6.785   4.873   6.475
 1805SOL    HW2 6315   6.930   4.928   6.421
 1806SOL     OW 6316   7.020   1.211   2.425
 1806SOL    HW1 6317   0.074   1.219   2.484
 1806SOL    HW2 6318   6.942   1.182   2.481
 1807SOL     OW 6319   6.522   2.754   2.877
 1807SOL    HW1 6320   6.516   2.793   2.785
 1807SOL    HW2 6321   6.588   2.806   2.931
 1808SOL     OW 6322   5.380   1.299   7.017
 1808SOL    HW1 6323   5.477   1.293   6.993
 1808SOL    HW2 6324   5.364   1.383   0.042
 1809SOL     OW 6325   4.400   1.142   5.027
 1809SOL    HW1 6326   4.403   1.215   5.095
 1809SOL    HW2 6327   4.445   1.173   4.943
 1810SOL     OW 6328   1.029   1.123   3.480
 1810SOL    HW1 6329   1.028   1.180   3.562
 1810SOL    HW2 6330   0.984   1.171   3.404
 1811SOL     OW 6331   2.911   5.126   1.535
 1811SOL    HW1 6332   2.992   5.070   1.547
 1811SOL    HW2 6333   2.898   5.147   1.438
 1812SOL     OW 6334   3.825   0.711   6.478
 1812SOL    HW1 6335   3.765   0.698   6.556
 1812SOL    HW2 6336   3.827   0.628   6.422
 1813SOL     OW 6337   5.274   3.400   1.794
 1813SOL    HW1 6338   5.261   3.479   1.855
 1813SOL    HW2 6339   5.352   3.346   1.826
 1814SOL     OW 6340   6.641   6.062   1.710
 1814SOL    HW1 6341   6.620   5.986   1.772
 1814SOL    HW2 6342   6.735   6.053   1.678
 1815SOL     OW 6343   6.332   6.166   1.328
 1815SOL    HW1 6344   6.398   6.095   1.304
 1815SOL    HW2 6345   6.381   6.249   1.354
 1816SOL     OW 6346   3.668   5.539   4.816
 1816SOL    HW1 6347   3.601   5.610   4.837
 1816SOL    HW2 6348   3.674   5.476   4.894
 1817SOL     OW 6349   6.819   2.597   4.794
 1817SOL    HW1 6350   6.767   2.541   4.860
 1817SOL    HW2 6351   6.757   2.629   4.722
 1818SOL     OW 6352   2.164   2.528   0.282
 1818SOL    HW1 6353   2.096   2.459   0.304
 1818SOL    HW2 6354   2.198   2.570   0.366
 1819SOL     OW 6355   0.892   3.637   0.696
 1819SOL    HW1 6356   0.828   3.711   0.674
 1819SOL    HW2 6357   0.983   3.674   0.710
 1820SOL     OW 6358   3.668   6.717   4.291
 1820SOL    HW1 6359   3.590   6.692   4.234
 1820SOL    HW2 6360   3.650   6.805   4.336
 1821SOL     OW 6361   3.906   1.350   2.753
 1821SOL    HW1 6362   3.948   1.262   2.773
 1821SOL    HW2 6363   3.976   1.415   2.723
 1822SOL     OW 6364   2.445   4.821   4.940
 1822SOL    HW1 6365   2.470   4.757   5.012
 1822SOL    HW2 6366   2.494   4.907   4.953
 1823SOL     OW 6367   4.771   6.781   5.009
 1823SOL    HW1 6368   4.752   6.770   5.106
 1823SOL    HW2 6369   4.764   6.693   4.962
 1824SOL     OW 6370   4.603   2.728   1.836
 1824SOL    HW1 6371   4.555   2.721   1.749
 1824SOL    HW2 6372   4.578   2.813   1.882
 1825SOL     OW 6373   1.467   3.260   0.194
 1825SOL    HW1 6374   1.515   3.189   0.142
 1825SOL    HW2 6375   1.373   3.230   0.212
 1826SOL     OW 6376   4.038   3.454   6.988
 1826SOL    HW1 6377   3.997   3.405   0.038
 1826SOL    HW2 6378   4.021   3.552   6.999
 1827SOL     OW 6379   5.263   4.624   0.364
 1827SOL    HW1 6380   5.286   4.677   0.283
 1827SOL    HW2 6381   5.346   4.585   0.404
 1828SOL     OW 6382   2.711   6.274   4.921
 1828SOL    HW1 6383   2.682   6.179   4.934
 1828SOL    HW2 6384   2.808   6.277   4.899
 1829SOL     OW 6385   2.353   5.695   2.431
 1829SOL    HW1 6386   2.260   5.675   2.463
 1829SOL    HW2 6387   2.355   5.692   2.331
 1830SOL     OW 6388   4.605   1.548   6.863
 1830SOL    HW1 6389   4.630   1.590   6.776
 1830SOL    HW2 6390   4.658   1.464   6.876
 1831SOL     OW 6391   3.509   3.745   6.685
 1831SOL    HW1 6392   3.463   3.736   6.596
 1831SOL    HW2 6393   3.562   3.830   6.687
 1832SOL     OW 6394   2.273   2.330   5.471
 1832SOL    HW1 6395   2.188   2.314   5.521
 1832SOL    HW2 6396   2.289   2.428   5.463
 1833SOL     OW 6397   5.955   2.026   0.417
 1833SOL    HW1 6398   5.915   1.968   0.488
 1833SOL    HW2 6399   5.906   2.013   0.331
 1834SOL     OW 6400   1.190   3.755   6.312
 1834SOL    HW1 6401   1.276   3.753   6.260
 1834SOL    HW2 6402   1.117   3.715   6.257
 1835SOL     OW 6403   6.094   0.729   6.381
 1835SOL    HW1 6404   6.113   0.655   6.446
 1835SOL    HW2 6405   6.096   0.693   6.288
 1836SOL     OW 6406   5.804   0.263   5.257
 1836SOL    HW1 6407   5.866   0.271   5.179
 1836SOL    HW2 6408   5.724   0.208   5.230
 1837SOL     OW 6409   1.385   1.773   1.627
 1837SOL    HW1 6410   1.313   1.734   1.569
 1837SOL    HW2 6411   1.416   1.859   1.587
 1838SOL     OW 6412   4.564   0.459   0.133
 1838SOL    HW1 6413   4.502   0.530   0.100
 1838SOL    HW2 6414   4.558   0.379   0.073
 1839SOL     OW 6415   0.516   2.169   6.821
 1839SOL    HW1 6416   0.470   2.256   6.805
 1839SOL    HW2 6417   0.606   2.186   6.862
 1840SOL     OW 6418   1.629   6.848   5.602
 1840SOL    HW1 6419   1.722   6.819   5.583
 1840SOL    HW2 6420   1.628   6.946   5.624
 1841SOL     OW 6421   1.895   0.007   1.133
 1841SOL    HW1 6422   1.951   0.014   1.215
 1841SOL    HW2 6423   1.928   0.071   1.064
 1842SOL     OW 6424   0.804   4.972   1.784
 1842SOL    HW1 6425   0.856   4.944   1.703
 1842SOL    HW2 6426   0.840   4.924   1.864
 1843SOL     OW 6427   3.632   0.634   6.663
 1843SOL    HW1 6428   3.688   0.633   6.746
 1843SOL    HW2 6429   3.585   0.547   6.654
 1844SOL     OW 6430   5.216   3.292   1.394
 1844SOL    HW1 6431   5.211   3.262   1.299
 1844SOL    HW2 6432   5.235   3.212   1.452
 1845SOL     OW 6433   0.445   2.615   4.597
 1845SOL    HW1 6434   0.478   2.524   4.624
 1845SOL    HW2 6435   0.451   2.625   4.498
 1846SOL     OW 6436   3.940   0.782   1.898
 1846SOL    HW1 6437   3.919   0.859   1.957
 1846SOL    HW2 6438   4.024   0.801   1.846
 1847SOL     OW 6439   2.821   6.139   6.942
 1847SOL    HW1 6440   2.728   6.149   6.906
 1847SOL    HW2 6441   2.856   6.049   6.919
 1848SOL     OW 6442   2.851   5.975   4.553
 1848SOL    HW1 6443   2.791   6.052   4.575
 1848SOL    HW2 6444   2.830   5.898   4.613
 1849SOL     OW 6445   4.779   2.918   2.609
 1849SOL    HW1 6446   4.798   2.824   2.583
 1849SOL    HW2 6447   4.720   2.960   2.539
 1850SOL     OW 6448   5.108   1.314   0.590
 1850SOL    HW1 6449   5.136   1.378   0.518
 1850SOL    HW2 6450   5.064   1.364   0.664
 1851SOL     OW 6451   2.178   4.977   3.397
 1851SOL    HW1 6452   2.209   5.048   3.334
 1851SOL    HW2 6453   2.104   4.925   3.355
 1852SOL     OW 6454   0.150   0.671   4.412
 1852SOL    HW1 6455   0.094   0.593   4.441
 1852SOL    HW2 6456   0.110   0.756   4.448
 1853SOL     OW 6457   0.901   2.121   4.750
 1853SOL    HW1 6458   1.000   2.121   4.760
 1853SOL    HW2 6459   0.864   2.209   4.782
 1854SOL     OW 6460   1.472   6.895   3.744
 1854SOL    HW1 6461   1.502   6.846   3.826
 1854SOL    HW2 6462   1.497   6.843   3.663
 1855SOL     OW 6463   6.669   1.421   5.418
 1855SOL    HW1 6464   6.618   1.357   5.475
 1855SOL    HW2 6465   6.622   1.432   5.330
 1856SOL     OW 6466   4.623   3.792   6.731
 1856SOL    HW1 6467   4.552   3.838   6.677
 1856SOL    HW2 6468   4.711   3.799   6.683
 1857SOL     OW 6469   4.559   1.092   6.944
 1857SOL    HW1 6470   4.550   1.077   6.845
 1857SOL    HW2 6471   4.607   1.014   6.985
 1858SOL     OW 6472   4.154   1.822   4.535
 1858SOL    HW1 6473   4.194   1.913   4.527
 1858SOL    HW2 6474   4.217   1.762   4.584
 1859SOL     OW 6475   6.621   5.806   3.553
 1859SOL    HW1 6476   6.713   5.845   3.564
 1859SOL    HW2 6477   6.565   5.868   3.498
 1860SOL     OW 6478   1.100   6.621   0.301
 1860SOL    HW1 6479   1.137   6.613   0.208
 1860SOL    HW2 6480   1.025   6.688   0.301
 1861SOL     OW 6481   6.241   0.156   5.217
 1861SOL    HW1 6482   6.229   0.176   5.120
 1861SOL    HW2 6483   6.261   0.059   5.229
 1862SOL     OW 6484   4.327   4.795   4.990
 1862SOL    HW1 6485   4.340   4.700   5.018
 1862SOL    HW2 6486   4.394   4.853   5.038
 1863SOL     OW 6487   6.726   1.022   0.740
 1863SOL    HW1 6488   6.798   1.023   0.671
 1863SOL    HW2 6489   6.678   1.109   0.740
 1864SOL     OW 6490   2.902   5.345   2.570
 1864SOL    HW1 6491   2.977   5.371   2.510
 1864SOL    HW2 6492   2.840   5.422   2.582
 1865SOL     OW 6493   6.188   2.840   6.673
 1865SOL    HW1 6494   6.209   2.897   6.593
 1865SOL    HW2 6495   6.219   2.747   6.656
 1866SOL     OW 6496   6.617   4.546   5.215
 1866SOL    HW1 6497   6.529   4.592   5.228
 1866SOL    HW2 6498   6.690   4.614   5.209
 1867SOL     OW 6499   1.216   6.999   0.594
 1867SOL    HW1 6500   1.255   6.931   0.532
 1867SOL    HW2 6501   1.290   0.019   0.643
 1868SOL     OW 6502   5.869   3.624   6.162
 1868SOL    HW1 6503   5.807   3.547   6.161
 1868SOL    HW2 6504   5.857   3.678   6.078
 1869SOL     OW 6505   4.347   1.217   5.608
 1869SOL    HW1 6506   4.340   1.311   5.577
 1869SOL    HW2 6507   4.273   1.197   5.673
 1870SOL     OW 6508   5.566   1.534   6.000
 1870SOL    HW1 6509   5.594   1.444   5.967
 1870SOL    HW2 6510   5.599   1.547   6.094
 1871SOL     OW 6511   2.654   4.444   0.342
 1871SOL    HW1 6512   2.748   4.417   0.320
 1871SOL    HW2 6513   2.610   4.482   0.260
 1872SOL     OW 6514   1.935   3.807   6.417
 1872SOL    HW1 6515   1.948   3.803   6.516
 1872SOL    HW2 6516   1.901   3.898   6.391
 1873SOL     OW 6517   5.627   0.806   2.348
 1873SOL    HW1 6518   5.584   0.716   2.362
 1873SOL    HW2 6519   5.561   0.867   2.304
 1874SOL     OW 6520   1.991   4.839   6.304
 1874SOL    HW1 6521   1.924   4.785   6.354
 1874SOL    HW2 6522   2.020   4.917   6.360
 1875SOL     OW 6523   1.616   6.792   1.919
 1875SOL    HW1 6524   1.557   6.861   1.878
 1875SOL    HW2 6525   1.601   6.704   1.874
 1876SOL     OW 6526   1.768   4.805   5.607
 1876SOL    HW1 6527   1.772   4.799   5.507
 1876SOL    HW2 6528   1.860   4.798   5.645
 1877SOL     OW 6529   0.457   1.185   3.540
 1877SOL    HW1 6530   0.382   1.125   3.511
 1877SOL    HW2 6531   0.423   1.251   3.607
 1878SOL     OW 6532   5.495   3.757   3.236
 1878SOL    HW1 6533   5.403   3.720   3.229
 1878SOL    HW2 6534   5.491   3.857   3.240
 1879SOL     OW 6535   3.917   6.581   5.196
 1879SOL    HW1 6536   3.842   6.516   5.184
 1879SOL    HW2 6537   4.001   6.543   5.156
 1880SOL     OW 6538   2.187   3.963   3.875
 1880SOL    HW1 6539   2.124   3.887   3.889
 1880SOL    HW2 6540   2.237   3.950   3.790
 1881SOL     OW 6541   3.088   2.172   2.725
 1881SOL    HW1 6542   3.118   2.174   2.629
 1881SOL    HW2 6543   3.168   2.184   2.784
 1882SOL     OW 6544   4.286   0.184   6.403
 1882SOL    HW1 6545   4.299   0.110   6.336
 1882SOL    HW2 6546   4.338   0.164   6.486
 1883SOL     OW 6547   1.929   3.737   3.290
 1883SOL    HW1 6548   2.015   3.760   3.244
 1883SOL    HW2 6549   1.908   3.807   3.358
 1884SOL     OW 6550   4.907   0.882   0.435
 1884SOL    HW1 6551   4.814   0.919   0.428
 1884SOL    HW2 6552   4.921   0.814   0.364
 1885SOL     OW 6553   6.488   1.449   1.291
 1885SOL    HW1 6554   6.418   1.378   1.288
 1885SOL    HW2 6555   6.496   1.484   1.385
 1886SOL     OW 6556   3.847   2.874   5.173
 1886SOL    HW1 6557   3.879   2.863   5.079
 1886SOL    HW2 6558   3.802   2.790   5.203
 1887SOL     OW 6559   0.657   6.063   5.702
 1887SOL    HW1 6560   0.630   5.967   5.708
 1887SOL    HW2 6561   0.583   6.116   5.660
 1888SOL     OW 6562   2.484   1.363   5.194
 1888SOL    HW1 6563   2.398   1.414   5.201
 1888SOL    HW2 6564   2.551   1.417   5.144
 1889SOL     OW 6565   3.892   3.899   6.565
 1889SOL    HW1 6566   3.866   3.808   6.533
 1889SOL    HW2 6567   3.867   3.908   6.662
 1890SOL     OW 6568   6.324   6.865   6.002
 1890SOL    HW1 6569   6.311   6.926   5.924
 1890SOL    HW2 6570   6.318   6.770   5.972
 1891SOL     OW 6571   5.032   3.460   0.116
 1891SOL    HW1 6572   5.032   3.383   0.051
 1891SOL    HW2 6573   4.995   3.541   0.072
 1892SOL     OW 6574   2.526   0.063   3.531
 1892SOL    HW1 6575   2.601   0.128   3.521
 1892SOL    HW2 6576   2.448   0.094   3.476
 1893SOL     OW 6577   2.731   2.645   6.603
 1893SOL    HW1 6578   2.778   2.575   6.656
 1893SOL    HW2 6579   2.660   2.603   6.546
 1894SOL     OW 6580   5.358   3.297   1.132
 1894SOL    HW1 6581   5.317   3.324   1.045
 1894SOL    HW2 6582   5.423   3.368   1.161
 1895SOL     OW 6583   4.157   6.550   2.998
 1895SOL    HW1 6584   4.210   6.529   3.080
 1895SOL    HW2 6585   4.065   6.511   3.007
 1896SOL     OW 6586   0.180   2.283   4.150
 1896SOL    HW1 6587   0.220   2.367   4.186
 1896SOL    HW2 6588   0.153   2.224   4.227
 1897SOL     OW 6589   5.471   5.640   3.313
 1897SOL    HW1 6590   5.415   5.722   3.326
 1897SOL    HW2 6591   5.477   5.590   3.399
 1898SOL     OW 6592   5.222   5.809   0.121
 1898SOL    HW1 6593   5.295   5.815   0.053
 1898SOL    HW2 6594   5.145   5.867   0.093
 1899SOL     OW 6595   1.622   3.327   4.111
 1899SOL    HW1 6596   1.597   3.347   4.016
 1899SOL    HW2 6597   1.587   3.236   4.136
 1900SOL     OW 6598   2.580   5.266   1.319
 1900SOL    HW1 6599   2.609   5.277   1.414
 1900SOL    HW2 6600   2.525   5.345   1.292
 1901SOL     OW 6601   0.196   1.427   0.157
 1901SOL    HW1 6602   0.154   1.516   0.171
 1901SOL    HW2 6603   0.190   1.373   0.241
 1902SOL     OW 6604   1.853   2.808   5.197
 1902SOL    HW1 6605   1.821   2.713   5.199
 1902SOL    HW2 6606   1.911   2.823   5.118
 1903SOL     OW 6607   0.016   5.973   4.292
 1903SOL    HW1 6608   0.067   5.941   4.213
 1903SOL    HW2 6609   6.961   5.915   4.304
 1904SOL     OW 6610   0.316   0.883   3.738
 1904SOL    HW1 6611   0.270   0.795   3.749
 1904SOL    HW2 6612   0.368   0.904   3.820
 1905SOL     OW 6613   5.966   3.097   6.515
 1905SOL    HW1 6614   6.040   3.098   6.448
 1905SOL    HW2 6615   5.998   3.056   6.600
 1906SOL     OW 6616   2.305   5.765   6.109
 1906SOL    HW1 6617   2.317   5.837   6.177
 1906SOL    HW2 6618   2.360   5.685   6.134
 1907SOL     OW 6619   3.939   1.058   2.401
 1907SOL    HW1 6620   3.972   1.138   2.451
 1907SOL    HW2 6621   4.015   1.015   2.353
 1908SOL     OW 6622   5.692   4.593   0.936
 1908SOL    HW1 6623   5.611   4.641   0.970
 1908SOL    HW2 6624   5.769   4.657   0.931
 1909SOL     OW 6625   4.941   5.319   4.591
 1909SOL    HW1 6626   4.882   5.394   4.621
 1909SOL    HW2 6627   4.924   5.238   4.647
 1910SOL     OW 6628   4.827   3.929   4.133
 1910SOL    HW1 6629   4.778   3.990   4.195
 1910SOL    HW2 6630   4.835   3.839   4.175
 1911SOL     OW 6631   0.945   2.601   5.530
 1911SOL    HW1 6632   0.997   2.543   5.468
 1911SOL    HW2 6633   0.995   2.612   5.616
 1912SOL     OW 6634   3.418   0.435   2.217
 1912SOL    HW1 6635   3.437   0.386   2.302
 1912SOL    HW2 6636   3.504   0.469   2.179
 1913SOL     OW 6637   3.077   3.652   0.181
 1913SOL    HW1 6638   3.056   3.701   0.265
 1913SOL    HW2 6639   3.066   3.553   0.196
 1914SOL     OW 6640   4.636   1.375   5.073
 1914SOL    HW1 6641   4.595   1.372   4.982
 1914SOL    HW2 6642   4.700   1.299   5.083
 1915SOL     OW 6643   2.845   6.782   5.085
 1915SOL    HW1 6644   2.905   6.799   5.007
 1915SOL    HW2 6645   2.762   6.838   5.077
 1916SOL     OW 6646   3.643   0.182   2.934
 1916SOL    HW1 6647   3.632   0.278   2.958
 1916SOL    HW2 6648   3.694   0.174   2.848
 1917SOL     OW 6649   3.901   3.986   3.078
 1917SOL    HW1 6650   3.952   3.994   3.164
 1917SOL    HW2 6651   3.803   3.983   3.098
 1918SOL     OW 6652   0.498   6.996   6.130
 1918SOL    HW1 6653   0.553   6.974   6.049
 1918SOL    HW2 6654   0.471   6.911   6.175
 1919SOL     OW 6655   5.390   0.840   1.863
 1919SOL    HW1 6656   5.444   0.920   1.838
 1919SOL    HW2 6657   5.331   0.815   1.786
 1920SOL     OW 6658   6.114   6.359   4.680
 1920SOL    HW1 6659   6.105   6.429   4.751
 1920SOL    HW2 6660   6.041   6.291   4.691
 1921SOL     OW 6661   2.414   6.907   0.255
 1921SOL    HW1 6662   2.510   6.928   0.271
 1921SOL    HW2 6663   2.360   6.942   0.332
 1922SOL     OW 6664   3.306   5.342   7.015
 1922SOL    HW1 6665   3.225   5.285   7.014
 1922SOL    HW2 6666   3.341   5.353   6.922
 1923SOL     OW 6667   1.484   2.652   1.598
 1923SOL    HW1 6668   1.444   2.568   1.635
 1923SOL    HW2 6669   1.509   2.714   1.672
 1924SOL     OW 6670   1.196   3.736   2.220
 1924SOL    HW1 6671   1.152   3.695   2.299
 1924SOL    HW2 6672   1.294   3.742   2.235
 1925SOL     OW 6673   2.920   4.786   0.432
 1925SOL    HW1 6674   3.007   4.834   0.423
 1925SOL    HW2 6675   2.923   4.702   0.378
 1926SOL     OW 6676   6.907   7.000   2.684
 1926SOL    HW1 6677   6.888   0.067   2.713
 1926SOL    HW2 6678   6.986   7.000   2.623
 1927SOL     OW 6679   5.442   3.404   1.452
 1927SOL    HW1 6680   5.387   3.486   1.469
 1927SOL    HW2 6681   5.386   3.334   1.409
 1928SOL     OW 6682   0.101   4.714   4.544
 1928SOL    HW1 6683   0.029   4.757   4.599
 1928SOL    HW2 6684   0.068   4.627   4.507
 1929SOL     OW 6685   1.807   4.474   3.193
 1929SOL    HW1 6686   1.864   4.529   3.131
 1929SOL    HW2 6687   1.801   4.381   3.158
 1930SOL     OW 6688   6.383   5.913   6.427
 1930SOL    HW1 6689   6.416   5.905   6.333
 1930SOL    HW2 6690   6.461   5.911   6.489
 1931SOL     OW 6691   2.258   2.974   3.828
 1931SOL    HW1 6692   2.286   3.022   3.745
 1931SOL    HW2 6693   2.243   3.041   3.901
 1932SOL     OW 6694   5.905   2.422   3.188
 1932SOL    HW1 6695   5.893   2.458   3.095
 1932SOL    HW2 6696   6.002   2.423   3.211
 1933SOL     OW 6697   2.550   4.730   0.365
 1933SOL    HW1 6698   2.471   4.728   0.427
 1933SOL    HW2 6699   2.588   4.638   0.357
 1934SOL     OW 6700   0.449   5.963   3.200
 1934SOL    HW1 6701   0.442   5.891   3.268
 1934SOL    HW2 6702   0.464   5.923   3.110
 1935SOL     OW 6703   0.474   1.357   2.369
 1935SOL    HW1 6704   0.416   1.427   2.327
 1935SOL    HW2 6705   0.497   1.383   2.463
 1936SOL     OW 6706   0.407   5.950   5.082
 1936SOL    HW1 6707   0.452   5.955   4.993
 1936SOL    HW2 6708   0.455   6.009   5.147
 1937SOL     OW 6709   5.121   1.972   3.628
 1937SOL    HW1 6710   5.142   2.012   3.539
 1937SOL    HW2 6711   5.203   1.928   3.665
 1938SOL     OW 6712   4.493   0.294   3.721
 1938SOL    HW1 6713   4.515   0.225   3.790
 1938SOL    HW2 6714   4.427   0.359   3.759
 1939SOL     OW 6715   2.440   1.033   4.222
 1939SOL    HW1 6716   2.414   1.127   4.200
 1939SOL    HW2 6717   2.539   1.023   4.213
 1940SOL     OW 6718   6.502   1.070   6.535
 1940SOL    HW1 6719   6.523   1.092   6.630
 1940SOL    HW2 6720   6.583   1.030   6.491
 1941SOL     OW 6721   4.690   4.852   2.519
 1941SOL    HW1 6722   4.642   4.935   2.490
 1941SOL    HW2 6723   4.787   4.872   2.530
 1942SOL     OW 6724   0.200   3.527   2.403
 1942SOL    HW1 6725   0.286   3.570   2.376
 1942SOL    HW2 6726   0.218   3.449   2.463
 1943SOL     OW 6727   4.115   5.265   3.756
 1943SOL    HW1 6728   4.173   5.189   3.726
 1943SOL    HW2 6729   4.152   5.303   3.842
 1944SOL     OW 6730   6.194   6.570   2.180
 1944SOL    HW1 6731   6.159   6.501   2.116
 1944SOL    HW2 6732   6.277   6.612   2.142
 1945SOL     OW 6733   3.688   5.373   2.350
 1945SOL    HW1 6734   3.612   5.325   2.393
 1945SOL    HW2 6735   3.687   5.355   2.251
 1946SOL     OW 6736   1.408   6.763   6.575
 1946SOL    HW1 6737   1.340   6.787   6.506
 1946SOL    HW2 6738   1.498   6.755   6.531
 1947SOL     OW 6739   4.261   1.213   3.989
 1947SOL    HW1 6740   4.312   1.234   3.905
 1947SOL    HW2 6741   4.260   1.293   4.048
 1948SOL     OW 6742   6.578   2.810   5.292
 1948SOL    HW1 6743   6.590   2.740   5.221
 1948SOL    HW2 6744   6.667   2.843   5.322
 1949SOL     OW 6745   4.684   3.597   6.935
 1949SOL    HW1 6746   4.760   3.614   6.998
 1949SOL    HW2 6747   4.654   3.684   6.895
 1950SOL     OW 6748   2.345   4.752   0.557
 1950SOL    HW1 6749   2.397   4.836   0.576
 1950SOL    HW2 6750   2.276   4.739   0.628
 1951SOL     OW 6751   5.561   3.052   6.648
 1951SOL    HW1 6752   5.612   2.974   6.682
 1951SOL    HW2 6753   5.463   3.031   6.649
 1952SOL     OW 6754   3.150   3.116   2.949
 1952SOL    HW1 6755   3.240   3.076   2.964
 1952SOL    HW2 6756   3.108   3.137   3.037
 1953SOL     OW 6757   1.191   2.127   4.194
 1953SOL    HW1 6758   1.126   2.172   4.255
 1953SOL    HW2 6759   1.162   2.033   4.179
 1954SOL     OW 6760   2.545   2.153   4.026
 1954SOL    HW1 6761   2.551   2.252   4.028
 1954SOL    HW2 6762   2.585   2.118   3.941
 1955SOL     OW 6763   6.677   5.357   2.865
 1955SOL    HW1 6764   6.701   5.300   2.944
 1955SOL    HW2 6765   6.606   5.422   2.892
 1956SOL     OW 6766   4.010   6.314   3.871
 1956SOL    HW1 6767   3.988   6.384   3.804
 1956SOL    HW2 6768   4.103   6.328   3.904
 1957SOL     OW 6769   2.432   6.419   5.970
 1957SOL    HW1 6770   2.492   6.389   6.044
 1957SOL    HW2 6771   2.401   6.340   5.918
 1958SOL     OW 6772   4.090   3.562   6.066
 1958SOL    HW1 6773   4.065   3.580   5.971
 1958SOL    HW2 6774   4.097   3.463   6.080
 1959SOL     OW 6775   3.404   0.089   0.816
 1959SOL    HW1 6776   3.469   0.080   0.891
 1959SOL    HW2 6777   3.346   0.169   0.832
 1960SOL     OW 6778   4.895   5.993   3.125
 1960SOL    HW1 6779   4.879   6.052   3.046
 1960SOL    HW2 6780   4.877   5.898   3.100
 1961SOL     OW 6781   5.892   5.119   5.636
 1961SOL    HW1 6782   5.807   5.076   5.605
 1961SOL    HW2 6783   5.970   5.070   5.598
 1962SOL     OW 6784   0.590   6.445   4.357
 1962SOL    HW1 6785   0.609   6.389   4.438
 1962SOL    HW2 6786   0.659   6.516   4.349
 1963SOL     OW 6787   2.907   2.002   3.959
 1963SOL    HW1 6788   2.882   1.910   3.927
 1963SOL    HW2 6789   2.974   1.995   4.033
 1964SOL     OW 6790   6.556   2.450   2.429
 1964SOL    HW1 6791   6.465   2.465   2.467
 1964SOL    HW2 6792   6.625   2.486   2.492
 1965SOL     OW 6793   1.774   6.140   3.535
 1965SOL    HW1 6794   1.866   6.101   3.528
 1965SOL    HW2 6795   1.772   6.206   3.610
 1966SOL     OW 6796   0.015   5.885   0.170
 1966SOL    HW1 6797   6.986   5.959   0.209
 1966SOL    HW2 6798   7.014   5.798   0.209
 1967SOL     OW 6799   0.039   2.496   4.869
 1967SOL    HW1 6800   0.018   2.405   4.833
 1967SOL    HW2 6801   6.995   2.561   4.840
 1968SOL     OW 6802   4.630   5.559   4.910
 1968SOL    HW1 6803   4.673   5.584   4.997
 1968SOL    HW2 6804   4.644   5.461   4.893
 1969SOL     OW 6805   6.139   1.034   1.268
 1969SOL    HW1 6806   6.138   0.983   1.353
 1969SOL    HW2 6807   6.224   1.087   1.261
 1970SOL     OW 6808   2.152   1.234   4.552
 1970SOL    HW1 6809   2.135   1.194   4.461
 1970SOL    HW2 6810   2.204   1.319   4.542
 1971SOL     OW 6811   0.029   1.366   5.813
 1971SOL    HW1 6812   6.976   1.354   5.754
 1971SOL    HW2 6813   0.062   1.460   5.805
 1972SOL     OW 6814   1.095   6.474   4.003
 1972SOL    HW1 6815   1.140   6.437   3.922
 1972SOL    HW2 6816   1.164   6.503   4.069
 1973SOL     OW 6817   3.609   3.094   0.145
 1973SOL    HW1 6818   3.595   3.018   0.082
 1973SOL    HW2 6819   3.543   3.088   0.220
 1974SOL     OW 6820   6.129   6.339   4.106
 1974SOL    HW1 6821   6.202   6.278   4.073
 1974SOL    HW2 6822   6.089   6.389   4.029
 1975SOL     OW 6823   2.705   6.824   3.563
 1975SOL    HW1 6824   2.805   6.821   3.557
 1975SOL    HW2 6825   2.674   6.919   3.552
 1976SOL     OW 6826   6.143   4.234   6.667
 1976SOL    HW1 6827   6.080   4.298   6.622
 1976SOL    HW2 6828   6.092   4.171   6.724
 1977SOL     OW 6829   2.949   2.347   5.304
 1977SOL    HW1 6830   3.039   2.367   5.266
 1977SOL    HW2 6831   2.890   2.311   5.232
 1978SOL     OW 6832   0.214   2.399   5.030
 1978SOL    HW1 6833   0.147   2.434   4.965
 1978SOL    HW2 6834   0.215   2.299   5.027
 1979SOL     OW 6835   6.730   4.293   2.038
 1979SOL    HW1 6836   6.781   4.216   2.001
 1979SOL    HW2 6837   6.768   4.318   2.127
 1980SOL     OW 6838   2.464   0.697   2.698
 1980SOL    HW1 6839   2.395   0.692   2.770
 1980SOL    HW2 6840   2.423   0.739   2.617
 1981SOL     OW 6841   5.903   3.049   2.705
 1981SOL    HW1 6842   5.911   3.102   2.790
 1981SOL    HW2 6843   5.849   2.967   2.723
 1982SOL     OW 6844   0.509   7.002   5.071
 1982SOL    HW1 6845   0.498   6.906   5.045
 1982SOL    HW2 6846   0.440   7.026   5.139
 1983SOL     OW 6847   1.145   5.443   1.509
 1983SOL    HW1 6848   1.135   5.351   1.547
 1983SOL    HW2 6849   1.142   5.510   1.583
 1984SOL     OW 6850   3.873   0.474   5.854
 1984SOL    HW1 6851   3.797   0.457   5.791
 1984SOL    HW2 6852   3.864   0.565   5.893
 1985SOL     OW 6853   1.232   5.163   2.080
 1985SOL    HW1 6854   1.258   5.134   2.172
 1985SOL    HW2 6855   1.141   5.204   2.083
 1986SOL     OW 6856   5.762   2.158   1.678
 1986SOL    HW1 6857   5.747   2.065   1.711
 1986SOL    HW2 6858   5.734   2.164   1.582
 1987SOL     OW 6859   1.916   2.877   0.825
 1987SOL    HW1 6860   1.816   2.885   0.819
 1987SOL    HW2 6861   1.950   2.938   0.897
 1988SOL     OW 6862   5.206   2.596   1.390
 1988SOL    HW1 6863   5.167   2.684   1.361
 1988SOL    HW2 6864   5.289   2.613   1.443
 1989SOL     OW 6865   2.445   2.364   3.140
 1989SOL    HW1 6866   2.369   2.402   3.193
 1989SOL    HW2 6867   2.511   2.323   3.203
 1990SOL     OW 6868   1.443   6.843   3.214
 1990SOL    HW1 6869   1.436   6.931   3.168
 1990SOL    HW2 6870   1.407   6.771   3.153
 1991SOL     OW 6871   5.104   5.709   2.440
 1991SOL    HW1 6872   5.091   5.797   2.486
 1991SOL    HW2 6873   5.189   5.711   2.387
 1992SOL     OW 6874   2.413   5.935   5.183
 1992SOL    HW1 6875   2.400   5.873   5.261
 1992SOL    HW2 6876   2.453   5.884   5.107
 1993SOL     OW 6877   3.408   3.735   4.280
 1993SOL    HW1 6878   3.448   3.752   4.190
 1993SOL    HW2 6879   3.472   3.762   4.351
 1994SOL     OW 6880   6.211   2.274   1.263
 1994SOL    HW1 6881   6.280   2.311   1.326
 1994SOL    HW2 6882   6.256   2.240   1.181
 1995SOL     OW 6883   3.898   2.968   1.578
 1995SOL    HW1 6884   3.969   2.936   1.516
 1995SOL    HW2 6885   3.920   2.940   1.672
 1996SOL     OW 6886   2.039   5.671   6.035
 1996SOL    HW1 6887   2.130   5.667   6.078
 1996SOL    HW2 6888   1.988   5.588   6.057
 1997SOL     OW 6889   6.087   6.547   4.912
 1997SOL    HW1 6890   6.003   6.597   4.890
 1997SOL    HW2 6891   6.089   6.528   5.010
 1998SOL     OW 6892   3.532   4.999   4.753
 1998SOL    HW1 6893   3.566   4.994   4.847
 1998SOL    HW2 6894   3.607   5.026   4.692
 1999SOL     OW 6895   3.287   0.768   1.824
 1999SOL    HW1 6896   3.320   0.863   1.821
 1999SOL    HW2 6897   3.215   0.760   1.893
 2000SOL     OW 6898   2.904   1.062   6.507
 2000SOL    HW1 6899   2.862   0.975   6.530
 2000SOL    HW2 6900   2.896   1.125   6.585
 2001SOL     OW 6901   2.193   3.381   6.901
 2001SOL    HW1 6902   2.148   3.315   6.841
 2001SOL    HW2 6903   2.135   3.398   6.981
 2002SOL     OW 6904   2.508   5.000   5.235
 2002SOL    HW1 6905   2.524   5.005   5.137
 2002SOL    HW2 6906   2.534   4.909   5.269
 2003SOL     OW 6907   6.080   4.297   3.962
 2003SOL    HW1 6908   6.008   4.341   4.014
 2003SOL    HW2 6909   6.098   4.349   3.878
 2004SOL     OW 6910   3.040   0.078   6.513
 2004SOL    HW1 6911   3.135   0.103   6.531
 2004SOL    HW2 6912   3.037   0.006   6.443
 2005SOL     OW 6913   2.379   0.013   5.523
 2005SOL    HW1 6914   2.374   6.954   5.472
 2005SOL    HW2 6915   2.475   0.039   5.534
 2006SOL     OW 6916   4.600   0.318   1.996
 2006SOL    HW1 6917   4.512   0.301   1.952
 2006SOL    HW2 6918   4.666   0.347   1.926
 2007SOL     OW 6919   6.454   5.715   0.357
 2007SOL    HW1 6920   6.382   5.656   0.320
 2007SOL    HW2 6921   6.497   5.669   0.435
 2008SOL     OW 6922   0.276   5.807   5.816
 2008SOL    HW1 6923   0.305   5.711   5.820
 2008SOL    HW2 6924   0.330   5.861   5.880
 2009SOL     OW 6925   1.047   0.114   0.142
 2009SOL    HW1 6926   1.142   0.133   0.115
 2009SOL    HW2 6927   1.021   0.176   0.216
 2010SOL     OW 6928   2.901   0.825   0.706
 2010SOL    HW1 6929   2.894   0.742   0.762
 2010SOL    HW2 6930   2.996   0.835   0.675
 2011SOL     OW 6931   0.275   1.885   4.958
 2011SOL    HW1 6932   0.362   1.933   4.966
 2011SOL    HW2 6933   0.277   1.803   5.015
 2012SOL     OW 6934   0.103   3.345   2.236
 2012SOL    HW1 6935   0.007   3.319   2.247
 2012SOL    HW2 6936   0.130   3.403   2.314
 2013SOL     OW 6937   3.412   2.188   1.726
 2013SOL    HW1 6938   3.352   2.151   1.797
 2013SOL    HW2 6939   3.480   2.249   1.768
 2014SOL     OW 6940   3.861   4.925   3.638
 2014SOL    HW1 6941   3.891   4.920   3.733
 2014SOL    HW2 6942   3.935   4.894   3.578
 2015SOL     OW 6943   2.646   5.511   6.872
 2015SOL    HW1 6944   2.705   5.440   6.832
 2015SOL    HW2 6945   2.664   5.517   6.971
 2016SOL     OW 6946   6.828   5.767   5.146
 2016SOL    HW1 6947   6.731   5.785   5.161
 2016SOL    HW2 6948   6.866   5.835   5.083
 2017SOL     OW 6949   2.590   5.020   2.104
 2017SOL    HW1 6950   2.685   5.048   2.087
 2017SOL    HW2 6951   2.581   4.992   2.200
 2018SOL     OW 6952   0.297   4.807   4.359
 2018SOL    HW1 6953   0.227   4.776   4.424
 2018SOL    HW2 6954   0.255   4.823   4.270
 2019SOL     OW 6955   5.686   0.909   2.751
 2019SOL    HW1 6956   5.729   0.893   2.662
 2019SOL    HW2 6957   5.607   0.969   2.739
 2020SOL     OW 6958   2.181   5.338   3.345
 2020SOL    HW1 6959   2.096   5.287   3.363
 2020SOL    HW2 6960   2.164   5.408   3.276
 2021SOL     OW 6961   1.824   6.488   1.586
 2021SOL    HW1 6962   1.736   6.502   1.631
 2021SOL    HW2 6963   1.821   6.402   1.535
 2022SOL     OW 6964   4.083   5.277   1.665
 2022SOL    HW1 6965   3.984   5.264   1.672
 2022SOL    HW2 6966   4.126   5.194   1.629
 2023SOL     OW 6967   0.436   2.705   6.224
 2023SOL    HW1 6968   0.507   2.666   6.165
 2023SOL    HW2 6969   0.346   2.693   6.181
 2024SOL     OW 6970   5.379   6.546   3.699
 2024SOL    HW1 6971   5.427   6.470   3.654
 2024SOL    HW2 6972   5.441   6.592   3.762
 2025SOL     OW 6973   6.487   1.094   0.992
 2025SOL    HW1 6974   6.527   1.026   1.054
 2025SOL    HW2 6975   6.409   1.137   1.036
 2026SOL     OW 6976   2.343   1.905   5.142
 2026SOL    HW1 6977   2.293   1.835   5.193
 2026SOL    HW2 6978   2.357   1.986   5.200
 2027SOL     OW 6979   6.242   7.000   2.269
 2027SOL    HW1 6980   6.197   6.971   2.354
 2027SOL    HW2 6981   6.247   0.073   2.267
 2028SOL     OW 6982   3.804   4.172   5.721
 2028SOL    HW1 6983   3.859   4.119   5.658
 2028SOL    HW2 6984   3.856   4.251   5.754
 2029SOL     OW 6985   2.154   0.207   6.659
 2029SOL    HW1 6986   2.223   0.135   6.669
 2029SOL    HW2 6987   2.182   0.287   6.712
 2030SOL     OW 6988   2.081   2.594   2.790
 2030SOL    HW1 6989   2.026   2.655   2.733
 2030SOL    HW2 6990   2.174   2.630   2.796
 2031SOL     OW 6991   6.047   6.983   2.481
 2031SOL    HW1 6992   6.000   7.007   2.566
 2031SOL    HW2 6993   5.980   6.961   2.410
 2032SOL     OW 6994   4.318   6.440   2.324
 2032SOL    HW1 6995   4.285   6.377   2.254
 2032SOL    HW2 6996   4.241   6.495   2.358
 2033SOL     OW 6997   0.048   4.987   0.320
 2033SOL    HW1 6998   7.020   4.908   0.349
 2033SOL    HW2 6999   0.142   4.975   0.351
 2034SOL     OW 7000   2.001   5.372   3.661
 2034SOL    HW1 7001   2.040   5.390   3.751
 2034SOL    HW2 7002   2.033   5.284   3.626
 2035SOL     OW 7003   0.779   0.650   2.717
 2035SOL    HW1 7004   0.872   0.640   2.753
 2035SOL    HW2 7005   0.766   0.744   2.685
 2036SOL     OW 7006   1.106   4.474   2.080
 2036SOL    HW1 7007   1.076   4.508   1.991
 2036SOL    HW2 7008   1.155   4.388   2.068
 2037SOL     OW 7009   0.875   2.887   5.841
 2037SOL    HW1 7010   0.810   2.962   5.861
 2037SOL    HW2 7011   0.892   2.883   5.743
 2038SOL     OW 7012   1.779   6.282   5.228
 2038SOL    HW1 7013   1.825   6.370   5.237
 2038SOL    HW2 7014   1.792   6.246   5.136
 2039SOL     OW 7015   1.315   5.279   1.831
 2039SOL    HW1 7016   1.315   5.379   1.823
 2039SOL    HW2 7017   1.290   5.253   1.924
 2040SOL     OW 7018   3.860   3.024   4.680
 2040SOL    HW1 7019   3.882   3.115   4.715
 2040SOL    HW2 7020   3.782   2.987   4.731
 2041SOL     OW 7021   5.152   2.754   0.078
 2041SOL    HW1 7022   5.155   2.655   0.092
 2041SOL    HW2 7023   5.063   2.780   0.040
 2042SOL     OW 7024   3.933   6.850   0.397
 2042SOL    HW1 7025   3.990   6.787   0.345
 2042SOL    HW2 7026   3.837   6.824   0.388
 2043SOL     OW 7027   5.211   5.415   2.766
 2043SOL    HW1 7028   5.281   5.344   2.763
 2043SOL    HW2 7029   5.152   5.401   2.846
 2044SOL     OW 7030   6.095   1.238   1.968
 2044SOL    HW1 7031   5.999   1.234   1.941
 2044SOL    HW2 7032   6.133   1.328   1.943
 2045SOL     OW 7033   3.453   6.303   5.394
 2045SOL    HW1 7034   3.539   6.282   5.442
 2045SOL    HW2 7035   3.376   6.273   5.450
 2046SOL     OW 7036   6.549   0.795   5.180
 2046SOL    HW1 7037   6.607   0.790   5.099
 2046SOL    HW2 7038   6.607   0.797   5.262
 2047SOL     OW 7039   5.311   3.285   0.070
 2047SOL    HW1 7040   5.328   3.296   0.168
 2047SOL    HW2 7041   5.228   3.231   0.056
 2048SOL     OW 7042   4.772   5.855   5.720
 2048SOL    HW1 7043   4.690   5.798   5.714
 2048SOL    HW2 7044   4.746   5.951   5.726
 2049SOL     OW 7045   5.649   5.819   0.003
 2049SOL    HW1 7046   5.651   5.903   6.974
 2049SOL    HW2 7047   5.605   5.746   6.977
 2050SOL     OW 7048   5.726   0.894   3.992
 2050SOL    HW1 7049   5.816   0.921   3.960
 2050SOL    HW2 7050   5.690   0.821   3.934
 2051SOL     OW 7051   3.138   5.998   0.871
 2051SOL    HW1 7052   3.145   6.037   0.963
 2051SOL    HW2 7053   3.125   6.072   0.804
 2052SOL     OW 7054   1.119   2.178   1.239
 2052SOL    HW1 7055   1.079   2.129   1.162
 2052SOL    HW2 7056   1.212   2.207   1.217
 2053SOL     OW 7057   5.472   0.485   6.986
 2053SOL    HW1 7058   5.501   0.579   6.973
 2053SOL    HW2 7059   5.437   0.448   6.899
 2054SOL     OW 7060   0.648   3.002   0.602
 2054SOL    HW1 7061   0.672   2.916   0.648
 2054SOL    HW2 7062   0.658   3.078   0.667
 2055SOL     OW 7063   6.414   1.143   4.672
 2055SOL    HW1 7064   6.321   1.154   4.707
 2055SOL    HW2 7065   6.438   1.222   4.617
 2056SOL     OW 7066   6.550   6.549   2.300
 2056SOL    HW1 7067   6.533   6.646   2.286
 2056SOL    HW2 7068   6.592   6.534   2.389
 2057SOL     OW 7069   4.805   3.115   3.572
 2057SOL    HW1 7070   4.759   3.030   3.544
 2057SOL    HW2 7071   4.833   3.107   3.667
 2058SOL     OW 7072   1.111   1.023   1.609
 2058SOL    HW1 7073   1.081   1.061   1.522
 2058SOL    HW2 7074   1.135   0.926   1.596
 2059SOL     OW 7075   1.538   0.286   0.137
 2059SOL    HW1 7076   1.440   0.294   0.157
 2059SOL    HW2 7077   1.585   0.242   0.214
 2060SOL     OW 7078   0.625   4.699   3.295
 2060SOL    HW1 7079   0.588   4.696   3.202
 2060SOL    HW2 7080   0.695   4.770   3.300
 2061SOL     OW 7081   1.196   0.769   0.565
 2061SOL    HW1 7082   1.141   0.818   0.497
 2061SOL    HW2 7083   1.148   0.686   0.594
 2062SOL     OW 7084   3.677   0.166   3.416
 2062SOL    HW1 7085   3.685   0.102   3.339
 2062SOL    HW2 7086   3.614   0.240   3.391
 2063SOL     OW 7087   2.505   3.092   1.149
 2063SOL    HW1 7088   2.554   3.145   1.218
 2063SOL    HW2 7089   2.448   3.024   1.194
 2064SOL     OW 7090   0.621   1.661   1.296
 2064SOL    HW1 7091   0.700   1.679   1.237
 2064SOL    HW2 7092   0.537   1.691   1.250
 2065SOL     OW 7093   0.072   3.108   3.056
 2065SOL    HW1 7094   0.116   3.147   3.137
 2065SOL    HW2 7095   0.083   3.171   2.979
 2066SOL     OW 7096   0.754   5.645   3.362
 2066SOL    HW1 7097   0.841   5.601   3.340
 2066SOL    HW2 7098   0.764   5.699   3.446
 2067SOL     OW 7099   6.522   0.501   0.557
 2067SOL    HW1 7100   6.469   0.471   0.636
 2067SOL    HW2 7101   6.600   0.440   0.544
 2068SOL     OW 7102   2.289   1.776   5.478
 2068SOL    HW1 7103   2.291   1.872   5.502
 2068SOL    HW2 7104   2.373   1.731   5.509
 2069SOL     OW 7105   2.202   1.868   1.728
 2069SOL    HW1 7106   2.110   1.827   1.729
 2069SOL    HW2 7107   2.227   1.896   1.821
 2070SOL     OW 7108   0.889   2.082   2.623
 2070SOL    HW1 7109   0.796   2.064   2.592
 2070SOL    HW2 7110   0.885   2.137   2.707
 2071SOL     OW 7111   2.621   6.148   5.805
 2071SOL    HW1 7112   2.613   6.203   5.722
 2071SOL    HW2 7113   2.672   6.198   5.874
 2072SOL     OW 7114   5.386   4.215   2.706
 2072SOL    HW1 7115   5.300   4.211   2.655
 2072SOL    HW2 7116   5.419   4.122   2.723
 2073SOL     OW 7117   3.389   7.018   5.170
 2073SOL    HW1 7118   3.369   6.955   5.245
 2073SOL    HW2 7119   3.309   7.023   5.109
 2074SOL     OW 7120   4.487   1.668   3.247
 2074SOL    HW1 7121   4.581   1.666   3.282
 2074SOL    HW2 7122   4.485   1.718   3.161
 2075SOL     OW 7123   3.817   2.560   5.743
 2075SOL    HW1 7124   3.745   2.627   5.764
 2075SOL    HW2 7125   3.884   2.602   5.682
 2076SOL     OW 7126   4.942   6.207   0.126
 2076SOL    HW1 7127   4.927   6.175   0.219
 2076SOL    HW2 7128   5.040   6.218   0.109
 2077SOL     OW 7129   3.726   1.163   4.899
 2077SOL    HW1 7130   3.763   1.135   4.987
 2077SOL    HW2 7131   3.754   1.257   4.879
 2078SOL     OW 7132   4.228   6.415   4.070
 2078SOL    HW1 7133   4.276   6.503   4.074
 2078SOL    HW2 7134   4.261   6.356   4.144
 2079SOL     OW 7135   5.273   0.186   3.722
 2079SOL    HW1 7136   5.355   0.240   3.705
 2079SOL    HW2 7137   5.291   0.122   3.797
 2080SOL     OW 7138   3.174   1.865   2.578
 2080SOL    HW1 7139   3.232   1.793   2.541
 2080SOL    HW2 7140   3.078   1.839   2.567
 2081SOL     OW 7141   1.344   5.486   2.951
 2081SOL    HW1 7142   1.316   5.581   2.937
 2081SOL    HW2 7143   1.412   5.482   3.024
 2082SOL     OW 7144   4.574   1.241   2.880
 2082SOL    HW1 7145   4.552   1.262   2.975
 2082SOL    HW2 7146   4.620   1.153   2.874
 2083SOL     OW 7147   3.635   4.251   5.940
 2083SOL    HW1 7148   3.706   4.240   5.871
 2083SOL    HW2 7149   3.545   4.256   5.895
 2084SOL     OW 7150   0.434   2.180   3.355
 2084SOL    HW1 7151   0.472   2.203   3.444
 2084SOL    HW2 7152   0.416   2.265   3.304
 2085SOL     OW 7153   5.816   6.986   0.483
 2085SOL    HW1 7154   5.789   6.918   0.551
 2085SOL    HW2 7155   5.898   0.007   0.514
 2086SOL     OW 7156   3.256   6.049   6.816
 2086SOL    HW1 7157   3.208   6.131   6.785
 2086SOL    HW2 7158   3.317   6.073   6.892
 2087SOL     OW 7159   6.297   5.700   2.608
 2087SOL    HW1 7160   6.366   5.646   2.657
 2087SOL    HW2 7161   6.228   5.638   2.571
 2088SOL     OW 7162   2.258   6.190   1.045
 2088SOL    HW1 7163   2.184   6.171   0.980
 2088SOL    HW2 7164   2.221   6.234   1.126
 2089SOL     OW 7165   2.189   0.929   6.924
 2089SOL    HW1 7166   2.103   0.878   6.936
 2089SOL    HW2 7167   2.183   1.016   6.972
 2090SOL     OW 7168   2.962   3.324   3.378
 2090SOL    HW1 7169   2.967   3.423   3.387
 2090SOL    HW2 7170   2.878   3.291   3.422
 2091SOL     OW 7171   2.517   4.016   1.292
 2091SOL    HW1 7172   2.466   4.007   1.207
 2091SOL    HW2 7173   2.479   4.091   1.347
 2092SOL     OW 7174   5.754   0.157   0.262
 2092SOL    HW1 7175   5.772   0.091   0.335
 2092SOL    HW2 7176   5.687   0.120   0.199
 2093SOL     OW 7177   0.935   1.427   2.266
 2093SOL    HW1 7178   0.836   1.417   2.263
 2093SOL    HW2 7179   0.959   1.501   2.329
 2094SOL     OW 7180   0.182   0.903   2.450
 2094SOL    HW1 7181   0.090   0.904   2.412
 2094SOL    HW2 7182   0.237   0.975   2.407
 2095SOL     OW 7183   6.752   4.202   4.902
 2095SOL    HW1 7184   6.672   4.171   4.850
 2095SOL    HW2 7185   6.725   4.277   4.962
 2096SOL     OW 7186   4.962   4.583   3.585
 2096SOL    HW1 7187   4.932   4.516   3.653
 2096SOL    HW2 7188   5.060   4.599   3.595
 2097SOL     OW 7189   6.716   3.473   5.187
 2097SOL    HW1 7190   6.773   3.540   5.140
 2097SOL    HW2 7191   6.760   3.383   5.183
 2098SOL     OW 7192   4.759   0.231   4.658
 2098SOL    HW1 7193   4.808   0.263   4.577
 2098SOL    HW2 7194   4.817   0.245   4.739
 2099SOL     OW 7195   3.155   1.704   3.854
 2099SOL    HW1 7196   3.198   1.629   3.903
 2099SOL    HW2 7197   3.197   1.713   3.763
 2100SOL     OW 7198   4.551   4.276   5.802
 2100SOL    HW1 7199   4.565   4.229   5.889
 2100SOL    HW2 7200   4.615   4.240   5.734
 2101SOL     OW 7201   5.668   0.027   1.694
 2101SOL    HW1 7202   5.617   7.023   1.613
 2101SOL    HW2 7203   5.628   0.112   1.728
 2102SOL     OW 7204   6.749   5.173   0.976
 2102SOL    HW1 7205   6.716   5.254   1.024
 2102SOL    HW2 7206   6.727   5.180   0.879
 2103SOL     OW 7207   3.818   3.667   6.513
 2103SOL    HW1 7208   3.909   3.626   6.510
 2103SOL    HW2 7209   3.750   3.595   6.525
 2104SOL     OW 7210   0.335   5.209   6.509
 2104SOL    HW1 7211   0.432   5.223   6.488
 2104SOL    HW2 7212   0.324   5.192   6.607
 2105SOL     OW 7213   5.035   6.155   2.159
 2105SOL    HW1 7214   5.107   6.086   2.161
 2105SOL    HW2 7215   4.975   6.144   2.238
 2106SOL     OW 7216   6.221   6.626   6.509
 2106SOL    HW1 7217   6.291   6.593   6.447
 2106SOL    HW2 7218   6.131   6.597   6.476
 2107SOL     OW 7219   2.611   5.128   6.625
 2107SOL    HW1 7220   2.519   5.107   6.594
 2107SOL    HW2 7221   2.641   5.057   6.689
 2108SOL     OW 7222   5.306   4.702   6.584
 2108SOL    HW1 7223   5.313   4.717   6.485
 2108SOL    HW2 7224   5.384   4.743   6.630
 2109SOL     OW 7225   5.306   5.831   2.724
 2109SOL    HW1 7226   5.352   5.751   2.686
 2109SOL    HW2 7227   5.261   5.882   2.651
 2110SOL     OW 7228   1.374   5.281   5.617
 2110SOL    HW1 7229   1.473   5.296   5.619
 2110SOL    HW2 7230   1.352   5.216   5.545
 2111SOL     OW 7231   1.394   1.734   6.703
 2111SOL    HW1 7232   1.413   1.678   6.622
 2111SOL    HW2 7233   1.455   1.813   6.703
 2112SOL     OW 7234   5.165   4.110   0.214
 2112SOL    HW1 7235   5.103   4.120   0.137
 2112SOL    HW2 7236   5.112   4.102   0.299
 2113SOL     OW 7237   6.407   1.273   3.882
 2113SOL    HW1 7238   6.481   1.328   3.921
 2113SOL    HW2 7239   6.434   1.177   3.881
 2114SOL     OW 7240   1.247   3.825   5.823
 2114SOL    HW1 7241   1.201   3.894   5.879
 2114SOL    HW2 7242   1.334   3.801   5.865
 2115SOL     OW 7243   4.238   5.042   1.603
 2115SOL    HW1 7244   4.318   5.043   1.543
 2115SOL    HW2 7245   4.236   4.955   1.653
 2116SOL     OW 7246   0.544   3.838   4.821
 2116SOL    HW1 7247   0.592   3.863   4.738
 2116SOL    HW2 7248   0.446   3.851   4.808
 2117SOL     OW 7249   5.994   5.610   6.227
 2117SOL    HW1 7250   6.086   5.605   6.188
 2117SOL    HW2 7251   5.981   5.700   6.269
 2118SOL     OW 7252   0.269   3.114   2.250
 2118SOL    HW1 7253   0.313   3.090   2.163
 2118SOL    HW2 7254   0.221   3.201   2.241
 2119SOL     OW 7255   4.088   6.668   0.260
 2119SOL    HW1 7256   4.063   6.574   0.236
 2119SOL    HW2 7257   4.073   6.727   0.181
 2120SOL     OW 7258   6.687   3.693   1.915
 2120SOL    HW1 7259   6.755   3.731   1.852
 2120SOL    HW2 7260   6.662   3.763   1.982
 2121SOL     OW 7261   0.774   3.573   4.409
 2121SOL    HW1 7262   0.808   3.655   4.454
 2121SOL    HW2 7263   0.684   3.550   4.444
 2122SOL     OW 7264   4.026   5.513   5.638
 2122SOL    HW1 7265   3.979   5.582   5.692
 2122SOL    HW2 7266   4.010   5.530   5.540
 2123SOL     OW 7267   3.860   6.255   3.205
 2123SOL    HW1 7268   3.874   6.345   3.164
 2123SOL    HW2 7269   3.929   6.239   3.276
 2124SOL     OW 7270   2.576   2.627   1.804
 2124SOL    HW1 7271   2.647   2.640   1.734
 2124SOL    HW2 7272   2.506   2.566   1.768
 2125SOL     OW 7273   5.082   5.883   6.742
 2125SOL    HW1 7274   5.161   5.884   6.803
 2125SOL    HW2 7275   5.110   5.851   6.651
 2126SOL     OW 7276   2.967   1.676   1.182
 2126SOL    HW1 7277   2.922   1.737   1.247
 2126SOL    HW2 7278   2.919   1.589   1.178
 2127SOL     OW 7279   6.035   2.500   4.809
 2127SOL    HW1 7280   6.016   2.597   4.795
 2127SOL    HW2 7281   6.027   2.452   4.721
 2128SOL     OW 7282   1.090   3.711   4.664
 2128SOL    HW1 7283   1.018   3.648   4.694
 2128SOL    HW2 7284   1.174   3.660   4.650
 2129SOL     OW 7285   4.488   2.445   5.019
 2129SOL    HW1 7286   4.388   2.443   5.016
 2129SOL    HW2 7287   4.519   2.539   5.030
 2130SOL     OW 7288   4.130   6.560   2.516
 2130SOL    HW1 7289   4.126   6.463   2.538
 2130SOL    HW2 7290   4.153   6.612   2.599
 2131SOL     OW 7291   4.608   1.837   6.964
 2131SOL    HW1 7292   4.585   1.912   6.902
 2131SOL    HW2 7293   4.590   1.750   6.919
 2132SOL     OW 7294   0.452   2.360   1.207
 2132SOL    HW1 7295   0.544   2.338   1.175
 2132SOL    HW2 7296   0.429   2.454   1.179
 2133SOL     OW 7297   2.651   4.281   6.008
 2133SOL    HW1 7298   2.644   4.198   5.952
 2133SOL    HW2 7299   2.671   4.256   6.103
 2134SOL     OW 7300   6.917   0.152   0.772
 2134SOL    HW1 7301   6.966   0.109   0.847
 2134SOL    HW2 7302   6.844   0.210   0.810
 2135SOL     OW 7303   6.010   5.230   6.001
 2135SOL    HW1 7304   5.972   5.148   5.958
 2135SOL    HW2 7305   5.960   5.250   6.085
 2136SOL     OW 7306   1.774   4.715   6.406
 2136SOL    HW1 7307   1.806   4.623   6.429
 2136SOL    HW2 7308   1.686   4.732   6.450
 2137SOL     OW 7309   2.038   6.028   3.547
 2137SOL    HW1 7310   2.001   5.936   3.560
 2137SOL    HW2 7311   2.118   6.041   3.606
 2138SOL     OW 7312   4.914   2.123   1.736
 2138SOL    HW1 7313   4.816   2.136   1.719
 2138SOL    HW2 7314   4.933   2.025   1.748
 2139SOL     OW 7315   2.571   6.136   5.246
 2139SOL    HW1 7316   2.503   6.064   5.230
 2139SOL    HW2 7317   2.661   6.104   5.218
 2140SOL     OW 7318   2.168   2.644   3.617
 2140SOL    HW1 7319   2.101   2.616   3.549
 2140SOL    HW2 7320   2.222   2.721   3.582
 2141SOL     OW 7321   6.542   3.587   3.028
 2141SOL    HW1 7322   6.468   3.632   2.977
 2141SOL    HW2 7323   6.533   3.609   3.125
 2142SOL     OW 7324   2.217   1.411   1.680
 2142SOL    HW1 7325   2.120   1.432   1.692
 2142SOL    HW2 7326   2.271   1.490   1.709
 2143SOL     OW 7327   6.769   5.429   5.340
 2143SOL    HW1 7328   6.779   5.438   5.241
 2143SOL    HW2 7329   6.780   5.519   5.383
 2144SOL     OW 7330   5.838   4.605   2.807
 2144SOL    HW1 7331   5.883   4.689   2.837
 2144SOL    HW2 7332   5.855   4.532   2.873
 2145SOL     OW 7333   3.443   1.062   3.097
 2145SOL    HW1 7334   3.502   1.002   3.042
 2145SOL    HW2 7335   3.348   1.041   3.078
 2146SOL     OW 7336   2.007   1.509   0.156
 2146SOL    HW1 7337   2.073   1.582   0.178
 2146SOL    HW2 7338   2.044   1.451   0.084
 2147SOL     OW 7339   5.763   6.674   4.690
 2147SOL    HW1 7340   5.776   6.675   4.789
 2147SOL    HW2 7341   5.852   6.677   4.644
 2148SOL     OW 7342   2.083   2.644   5.220
 2148SOL    HW1 7343   2.156   2.670   5.156
 2148SOL    HW2 7344   2.066   2.720   5.283
 2149SOL     OW 7345   0.424   6.838   0.044
 2149SOL    HW1 7346   0.461   6.748   0.067
 2149SOL    HW2 7347   0.331   6.846   0.080
 2150SOL     OW 7348   1.243   2.437   0.293
 2150SOL    HW1 7349   1.281   2.503   0.227
 2150SOL    HW2 7350   1.316   2.381   0.331
 2151SOL     OW 7351   0.967   5.185   0.316
 2151SOL    HW1 7352   0.875   5.146   0.316
 2151SOL    HW2 7353   0.986   5.226   0.406
 2152SOL     OW 7354   5.487   6.223   3.700
 2152SOL    HW1 7355   5.434   6.278   3.636
 2152SOL    HW2 7356   5.428   6.156   3.744
 2153SOL     OW 7357   4.598   0.378   3.477
 2153SOL    HW1 7358   4.530   0.341   3.540
 2153SOL    HW2 7359   4.580   0.474   3.460
 2154SOL     OW 7360   1.862   6.085   1.987
 2154SOL    HW1 7361   1.920   6.132   1.921
 2154SOL    HW2 7362   1.904   5.997   2.011
 2155SOL     OW 7363   5.259   0.766   0.428
 2155SOL    HW1 7364   5.204   0.849   0.427
 2155SOL    HW2 7365   5.262   0.726   0.336
 2156SOL     OW 7366   6.292   1.478   4.314
 2156SOL    HW1 7367   6.310   1.547   4.385
 2156SOL    HW2 7368   6.258   1.523   4.232
 2157SOL     OW 7369   4.378   6.360   3.209
 2157SOL    HW1 7370   4.305   6.380   3.274
 2157SOL    HW2 7371   4.434   6.285   3.245
 2158SOL     OW 7372   3.388   0.322   0.166
 2158SOL    HW1 7373   3.415   0.242   0.113
 2158SOL    HW2 7374   3.415   0.309   0.262
 2159SOL     OW 7375   1.186   2.346   5.663
 2159SOL    HW1 7376   1.133   2.321   5.744
 2159SOL    HW2 7377   1.123   2.374   5.590
 2160SOL     OW 7378   5.828   6.736   6.620
 2160SOL    HW1 7379   5.869   6.791   6.693
 2160SOL    HW2 7380   5.730   6.756   6.614
 2161SOL     OW 7381   1.409   3.751   6.991
 2161SOL    HW1 7382   1.317   3.788   6.980
 2161SOL    HW2 7383   1.404   3.652   7.002
 2162SOL     OW 7384   1.294   6.813   0.408
 2162SOL    HW1 7385   1.199   6.790   0.388
 2162SOL    HW2 7386   1.342   6.731   0.442
 2163SOL     OW 7387   0.806   3.078   4.476
 2163SOL    HW1 7388   0.824   3.161   4.529
 2163SOL    HW2 7389   0.883   3.015   4.488
 2164SOL     OW 7390   1.571   4.517   1.983
 2164SOL    HW1 7391   1.670   4.528   1.987
 2164SOL    HW2 7392   1.538   4.548   1.894
 2165SOL     OW 7393   5.941   1.543   5.900
 2165SOL    HW1 7394   5.940   1.638   5.869
 2165SOL    HW2 7395   5.997   1.535   5.983
 2166SOL     OW 7396   6.260   2.279   2.467
 2166SOL    HW1 7397   6.265   2.231   2.555
 2166SOL    HW2 7398   6.278   2.376   2.482
 2167SOL     OW 7399   1.612   2.551   2.809
 2167SOL    HW1 7400   1.612   2.594   2.719
 2167SOL    HW2 7401   1.586   2.618   2.878
 2168SOL     OW 7402   1.668   1.998   4.082
 2168SOL    HW1 7403   1.689   1.956   3.994
 2168SOL    HW2 7404   1.584   2.052   4.074
 2169SOL     OW 7405   6.506   7.011   0.628
 2169SOL    HW1 7406   6.581   6.981   0.569
 2169SOL    HW2 7407   6.457   6.931   0.664
 2170SOL     OW 7408   1.980   2.904   6.085
 2170SOL    HW1 7409   2.017   2.882   5.995
 2170SOL    HW2 7410   2.026   2.849   6.154
 2171SOL     OW 7411   5.859   6.854   1.540
 2171SOL    HW1 7412   5.761   6.831   1.548
 2171SOL    HW2 7413   5.881   6.926   1.605
 2172SOL     OW 7414   2.471   2.599   4.949
 2172SOL    HW1 7415   2.532   2.580   4.873
 2172SOL    HW2 7416   2.506   2.555   5.032
 2173SOL     OW 7417   4.278   0.908   4.800
 2173SOL    HW1 7418   4.179   0.915   4.818
 2173SOL    HW2 7419   4.319   0.999   4.802
 2174SOL     OW 7420   5.009   6.638   5.506
 2174SOL    HW1 7421   5.005   6.615   5.603
 2174SOL    HW2 7422   4.945   6.713   5.487
 2175SOL     OW 7423   2.972   2.761   5.852
 2175SOL    HW1 7424   2.904   2.831   5.831
 2175SOL    HW2 7425   2.935   2.671   5.829
 2176SOL     OW 7426   6.906   1.136   2.820
 2176SOL    HW1 7427   6.812   1.136   2.854
 2176SOL    HW2 7428   6.906   1.118   2.721
 2177SOL     OW 7429   0.856   0.734   4.521
 2177SOL    HW1 7430   0.931   0.791   4.556
 2177SOL    HW2 7431   0.779   0.737   4.584
 2178SOL     OW 7432   2.071   3.715   2.007
 2178SOL    HW1 7433   2.130   3.636   2.026
 2178SOL    HW2 7434   1.983   3.682   1.972
 2179SOL     OW 7435   1.517   4.292   6.743
 2179SOL    HW1 7436   1.512   4.265   6.647
 2179SOL    HW2 7437   1.494   4.389   6.752
 2180SOL     OW 7438   0.049   4.770   2.241
 2180SOL    HW1 7439   6.984   4.807   2.254
 2180SOL    HW2 7440   0.043   4.685   2.188
 2181SOL     OW 7441   4.490   4.956   2.738
 2181SOL    HW1 7442   4.536   4.947   2.826
 2181SOL    HW2 7443   4.466   5.052   2.723
 2182SOL     OW 7444   0.395   6.919   1.430
 2182SOL    HW1 7445   0.350   6.967   1.505
 2182SOL    HW2 7446   0.380   6.820   1.440
 2183SOL     OW 7447   4.305   2.678   6.420
 2183SOL    HW1 7448   4.382   2.682   6.484
 2183SOL    HW2 7449   4.223   2.650   6.468
 2184SOL     OW 7450   6.466   2.694   6.861
 2184SOL    HW1 7451   6.442   2.789   6.883
 2184SOL    HW2 7452   6.553   2.671   6.904
 2185SOL     OW 7453   6.888   1.863   6.365
 2185SOL    HW1 7454   6.963   1.896   6.422
 2185SOL    HW2 7455   6.886   1.914   6.279
 2186SOL     OW 7456   6.743   6.282   5.745
 2186SOL    HW1 7457   6.762   6.197   5.793
 2186SOL    HW2 7458   6.764   6.360   5.805
 2187SOL     OW 7459   5.847   3.575   1.578
 2187SOL    HW1 7460   5.827   3.494   1.524
 2187SOL    HW2 7461   5.937   3.565   1.622
 2188SOL     OW 7462   2.697   2.337   0.740
 2188SOL    HW1 7463   2.642   2.263   0.701
 2188SOL    HW2 7464   2.763   2.298   0.804
 2189SOL     OW 7465   2.239   0.387   2.554
 2189SOL    HW1 7466   2.234   0.292   2.586
 2189SOL    HW2 7467   2.332   0.406   2.523
 2190SOL     OW 7468   6.850   4.844   1.478
 2190SOL    HW1 7469   6.764   4.807   1.512
 2190SOL    HW2 7470   6.860   4.823   1.381
 2191SOL     OW 7471   3.369   0.258   6.352
 2191SOL    HW1 7472   3.301   0.213   6.294
 2191SOL    HW2 7473   3.382   0.205   6.435
 2192SOL     OW 7474   5.309   1.898   1.897
 2192SOL    HW1 7475   5.278   1.916   1.804
 2192SOL    HW2 7476   5.301   1.982   1.952
 2193SOL     OW 7477   1.805   0.132   5.780
 2193SOL    HW1 7478   1.757   0.180   5.707
 2193SOL    HW2 7479   1.871   0.193   5.823
 2194SOL     OW 7480   0.666   4.583   5.256
 2194SOL    HW1 7481   0.732   4.658   5.259
 2194SOL    HW2 7482   0.620   4.574   5.344
 2195SOL     OW 7483   0.457   4.230   5.381
 2195SOL    HW1 7484   0.535   4.169   5.369
 2195SOL    HW2 7485   0.490   4.321   5.410
 2196SOL     OW 7486   3.557   1.625   6.716
 2196SOL    HW1 7487   3.516   1.616   6.807
 2196SOL    HW2 7488   3.490   1.600   6.647
 2197SOL     OW 7489   3.878   4.994   6.845
 2197SOL    HW1 7490   3.950   4.942   6.798
 2197SOL    HW2 7491   3.807   4.931   6.877
 2198SOL     OW 7492   1.288   0.888   5.905
 2198SOL    HW1 7493   1.372   0.923   5.865
 2198SOL    HW2 7494   1.254   0.812   5.851
 2199SOL     OW 7495   4.811   6.650   3.479
 2199SOL    HW1 7496   4.846   6.740   3.452
 2199SOL    HW2 7497   4.887   6.592   3.508
 2200SOL     OW 7498   2.829   1.967   5.240
 2200SOL    HW1 7499   2.902   1.932   5.181
 2200SOL    HW2 7500   2.759   1.896   5.252
 2201SOL     OW 7501   5.958   3.220   4.267
 2201SOL    HW1 7502   5.889   3.222   4.195
 2201SOL    HW2 7503   6.035   3.278   4.241
 2202SOL     OW 7504   5.086   7.016   4.373
 2202SOL    HW1 7505   5.099   0.020   4.279
 2202SOL    HW2 7506   5.094   6.916   4.377
 2203SOL     OW 7507   2.069   6.173   0.848
 2203SOL    HW1 7508   1.983   6.212   0.881
 2203SOL    HW2 7509   2.074   6.184   0.748
 2204SOL     OW 7510   4.756   3.676   0.354
 2204SOL    HW1 7511   4.845   3.710   0.385
 2204SOL    HW2 7512   4.712   3.626   0.427
 2205SOL     OW 7513   4.732   5.020   1.265
 2205SOL    HW1 7514   4.737   5.119   1.280
 2205SOL    HW2 7515   4.683   5.002   1.179
 2206SOL     OW 7516   2.830   3.541   5.146
 2206SOL    HW1 7517   2.884   3.622   5.122
 2206SOL    HW2 7518   2.835   3.475   5.071
 2207SOL     OW 7519   4.473   4.751   1.159
 2207SOL    HW1 7520   4.465   4.840   1.114
 2207SOL    HW2 7521   4.526   4.690   1.101
 2208SOL     OW 7522   6.554   5.760   3.236
 2208SOL    HW1 7523   6.634   5.821   3.241
 2208SOL    HW2 7524   6.517   5.762   3.143
 2209SOL     OW 7525   2.311   5.784   3.933
 2209SOL    HW1 7526   2.290   5.776   3.836
 2209SOL    HW2 7527   2.243   5.841   3.979
 2210SOL     OW 7528   5.373   6.504   1.892
 2210SOL    HW1 7529   5.276   6.500   1.914
 2210SOL    HW2 7530   5.424   6.536   1.972
 2211SOL     OW 7531   1.801   0.960   1.052
 2211SOL    HW1 7532   1.702   0.951   1.067
 2211SOL    HW2 7533   1.821   0.958   0.955
 2212SOL     OW 7534   2.830   6.559   6.170
 2212SOL    HW1 7535   2.770   6.539   6.248
 2212SOL    HW2 7536   2.914   6.603   6.203
 2213SOL     OW 7537   3.578   1.969   4.230
 2213SOL    HW1 7538   3.581   1.988   4.328
 2213SOL    HW2 7539   3.518   2.035   4.185
 2214SOL     OW 7540   3.948   4.795   0.093
 2214SOL    HW1 7541   4.035   4.787   0.043
 2214SOL    HW2 7542   3.951   4.735   0.172
 2215SOL     OW 7543   6.937   5.219   0.132
 2215SOL    HW1 7544   6.947   5.121   0.149
 2215SOL    HW2 7545   6.949   5.269   0.217
 2216SOL     OW 7546   0.245   6.225   0.454
 2216SOL    HW1 7547   0.189   6.146   0.480
 2216SOL    HW2 7548   0.245   6.291   0.529
 2217SOL     OW 7549   4.143   1.428   3.761
 2217SOL    HW1 7550   4.221   1.366   3.752
 2217SOL    HW2 7551   4.168   1.518   3.725
 2218SOL     OW 7552   5.960   5.429   6.449
 2218SOL    HW1 7553   5.986   5.476   6.365
 2218SOL    HW2 7554   6.031   5.363   6.474
 2219SOL     OW 7555   5.717   2.522   0.871
 2219SOL    HW1 7556   5.638   2.579   0.890
 2219SOL    HW2 7557   5.688   2.440   0.821
 2220SOL     OW 7558   6.388   6.987   4.629
 2220SOL    HW1 7559   6.333   6.912   4.667
 2220SOL    HW2 7560   6.472   6.996   4.682
 2221SOL     OW 7561   5.050   0.351   3.400
 2221SOL    HW1 7562   5.048   0.256   3.429
 2221SOL    HW2 7563   5.136   0.369   3.351
 2222SOL     OW 7564   3.956   0.316   4.520
 2222SOL    HW1 7565   4.045   0.361   4.507
 2222SOL    HW2 7566   3.953   0.275   4.611
 2223SOL     OW 7567   0.689   0.161   5.743
 2223SOL    HW1 7568   0.684   0.196   5.836
 2223SOL    HW2 7569   0.627   0.084   5.732
 2224SOL     OW 7570   4.758   5.006   6.311
 2224SOL    HW1 7571   4.690   5.067   6.271
 2224SOL    HW2 7572   4.721   4.914   6.318
 2225SOL     OW 7573   6.505   0.904   0.582
 2225SOL    HW1 7574   6.594   0.906   0.628
 2225SOL    HW2 7575   6.509   0.841   0.505
 2226SOL     OW 7576   2.759   3.504   6.416
 2226SOL    HW1 7577   2.797   3.559   6.342
 2226SOL    HW2 7578   2.669   3.469   6.389
 2227SOL     OW 7579   4.457   2.020   1.504
 2227SOL    HW1 7580   4.397   2.099   1.487
 2227SOL    HW2 7581   4.404   1.936   1.496
 2228SOL     OW 7582   4.872   6.560   6.847
 2228SOL    HW1 7583   4.902   6.644   6.891
 2228SOL    HW2 7584   4.777   6.570   6.816
 2229SOL     OW 7585   3.706   2.901   4.437
 2229SOL    HW1 7586   3.784   2.943   4.391
 2229SOL    HW2 7587   3.739   2.838   4.507
 2230SOL     OW 7588   0.066   1.948   6.725
 2230SOL    HW1 7589   0.090   1.891   6.646
 2230SOL    HW2 7590   0.026   1.891   6.797
 2231SOL     OW 7591   1.115   0.041   5.633
 2231SOL    HW1 7592   1.132   0.003   5.542
 2231SOL    HW2 7593   1.115   0.140   5.629
 2232SOL     OW 7594   1.198   0.762   0.167
 2232SOL    HW1 7595   1.101   0.740   0.155
 2232SOL    HW2 7596   1.249   0.678   0.187
 2233SOL     OW 7597   3.350   5.267   0.738
 2233SOL    HW1 7598   3.253   5.292   0.744
 2233SOL    HW2 7599   3.359   5.168   0.743
 2234SOL     OW 7600   5.247   1.653   2.218
 2234SOL    HW1 7601   5.291   1.638   2.129
 2234SOL    HW2 7602   5.177   1.724   2.210
 2235SOL     OW 7603   1.378   1.783   4.093
 2235SOL    HW1 7604   1.454   1.756   4.152
 2235SOL    HW2 7605   1.389   1.739   4.003
 2236SOL     OW 7606   2.945   5.094   4.934
 2236SOL    HW1 7607   2.948   4.995   4.918
 2236SOL    HW2 7608   2.956   5.142   4.847
 2237SOL     OW 7609   6.204   6.879   6.678
 2237SOL    HW1 7610   6.161   6.803   6.629
 2237SOL    HW2 7611   6.296   6.852   6.708
 2238SOL     OW 7612   5.013   3.859   1.587
 2238SOL    HW1 7613   5.008   3.958   1.573
 2238SOL    HW2 7614   5.001   3.812   1.500
 2239SOL     OW 7615   3.145   0.291   2.802
 2239SOL    HW1 7616   3.212   0.229   2.842
 2239SOL    HW2 7617   3.055   0.247   2.801
 2240SOL     OW 7618   4.573   5.349   3.180
 2240SOL    HW1 7619   4.589   5.419   3.250
 2240SOL    HW2 7620   4.640   5.360   3.107
 2241SOL     OW 7621   1.566   2.166   3.518
 2241SOL    HW1 7622   1.619   2.087   3.550
 2241SOL    HW2 7623   1.526   2.213   3.596
 2242SOL     OW 7624   5.337   2.319   4.280
 2242SOL    HW1 7625   5.294   2.258   4.346
 2242SOL    HW2 7626   5.360   2.268   4.197
 2243SOL     OW 7627   2.539   0.423   6.729
 2243SOL    HW1 7628   2.604   0.497   6.716
 2243SOL    HW2 7629   2.584   0.345   6.773
 2244SOL     OW 7630   2.319   1.797   1.227
 2244SOL    HW1 7631   2.413   1.772   1.251
 2244SOL    HW2 7632   2.310   1.897   1.228
 2245SOL     OW 7633   6.827   1.349   6.860
 2245SOL    HW1 7634   6.873   1.363   6.948
 2245SOL    HW2 7635   6.896   1.330   6.790
 2246SOL     OW 7636   5.672   0.596   5.887
 2246SOL    HW1 7637   5.719   0.545   5.815
 2246SOL    HW2 7638   5.713   0.574   5.976
 2247SOL     OW 7639   3.740   3.348   1.822
 2247SOL    HW1 7640   3.740   3.325   1.724
 2247SOL    HW2 7641   3.660   3.405   1.842
 2248SOL     OW 7642   4.946   3.045   4.220
 2248SOL    HW1 7643   4.934   2.994   4.135
 2248SOL    HW2 7644   5.033   3.019   4.263
 2249SOL     OW 7645   2.641   6.050   3.778
 2249SOL    HW1 7646   2.616   6.142   3.745
 2249SOL    HW2 7647   2.595   5.981   3.723
 2250SOL     OW 7648   4.092   5.800   6.057
 2250SOL    HW1 7649   4.171   5.743   6.078
 2250SOL    HW2 7650   4.014   5.770   6.113
 2251SOL     OW 7651   3.631   6.731   4.976
 2251SOL    HW1 7652   3.720   6.692   4.951
 2251SOL    HW2 7653   3.613   6.714   5.073
 2252SOL     OW 7654   3.588   1.846   2.349
 2252SOL    HW1 7655   3.568   1.757   2.389
 2252SOL    HW2 7656   3.643   1.834   2.266
 2253SOL     OW 7657   1.095   2.184   1.751
 2253SOL    HW1 7658   1.118   2.192   1.654
 2253SOL    HW2 7659   1.132   2.098   1.786
 2254SOL     OW 7660   3.641   2.890   2.577
 2254SOL    HW1 7661   3.606   2.850   2.493
 2254SOL    HW2 7662   3.727   2.938   2.558
 2255SOL     OW 7663   1.907   1.941   6.043
 2255SOL    HW1 7664   1.880   2.023   5.992
 2255SOL    HW2 7665   1.986   1.962   6.100
 2256SOL     OW 7666   4.961   6.942   0.865
 2256SOL    HW1 7667   4.920   6.851   0.871
 2256SOL    HW2 7668   4.889   7.011   0.856
 2257SOL     OW 7669   0.415   1.406   6.555
 2257SOL    HW1 7670   0.442   1.501   6.536
 2257SOL    HW2 7671   0.489   1.345   6.526
 2258SOL     OW 7672   1.621   0.663   3.715
 2258SOL    HW1 7673   1.619   0.713   3.802
 2258SOL    HW2 7674   1.673   0.716   3.648
 2259SOL     OW 7675   6.158   6.790   5.107
 2259SOL    HW1 7676   6.201   6.784   5.017
 2259SOL    HW2 7677   6.124   6.700   5.134
 2260SOL     OW 7678   1.156   3.294   1.198
 2260SOL    HW1 7679   1.086   3.361   1.221
 2260SOL    HW2 7680   1.148   3.268   1.102
 2261SOL     OW 7681   4.113   4.869   6.693
 2261SOL    HW1 7682   4.094   4.822   6.607
 2261SOL    HW2 7683   4.162   4.955   6.674
 2262SOL     OW 7684   6.842   0.941   3.735
 2262SOL    HW1 7685   6.767   0.909   3.678
 2262SOL    HW2 7686   6.837   0.897   3.825
 2263SOL     OW 7687   2.495   4.319   0.003
 2263SOL    HW1 7688   2.562   4.376   0.051
 2263SOL    HW2 7689   2.543   4.254   6.971
 2264SOL     OW 7690   1.746   0.566   6.738
 2264SOL    HW1 7691   1.700   0.655   6.732
 2264SOL    HW2 7692   1.732   0.527   6.829
 2265SOL     OW 7693   0.287   6.458   3.708
 2265SOL    HW1 7694   0.361   6.415   3.658
 2265SOL    HW2 7695   0.205   6.463   3.650
 2266SOL     OW 7696   4.151   4.027   6.575
 2266SOL    HW1 7697   4.151   4.104   6.638
 2266SOL    HW2 7698   4.058   4.011   6.542
 2267SOL     OW 7699   5.765   2.712   5.122
 2267SOL    HW1 7700   5.682   2.707   5.066
 2267SOL    HW2 7701   5.829   2.640   5.094
 2268SOL     OW 7702   1.111   6.155   4.478
 2268SOL    HW1 7703   1.095   6.114   4.568
 2268SOL    HW2 7704   1.028   6.144   4.422
 2269SOL     OW 7705   1.494   2.314   5.404
 2269SOL    HW1 7706   1.488   2.398   5.458
 2269SOL    HW2 7707   1.440   2.242   5.448
 2270SOL     OW 7708   4.104   1.550   6.597
 2270SOL    HW1 7709   4.138   1.516   6.685
 2270SOL    HW2 7710   4.011   1.583   6.608
 2271SOL     OW 7711   3.838   5.763   5.239
 2271SOL    HW1 7712   3.852   5.792   5.144
 2271SOL    HW2 7713   3.770   5.690   5.242
 2272SOL     OW 7714   5.827   1.134   5.726
 2272SOL    HW1 7715   5.807   1.059   5.789
 2272SOL    HW2 7716   5.781   1.217   5.757
 2273SOL     OW 7717   2.030   1.985   4.538
 2273SOL    HW1 7718   1.973   1.926   4.596
 2273SOL    HW2 7719   1.992   1.988   4.446
 2274SOL     OW 7720   1.140   0.943   0.357
 2274SOL    HW1 7721   1.211   1.003   0.394
 2274SOL    HW2 7722   1.181   0.881   0.290
 2275SOL     OW 7723   5.191   3.282   2.923
 2275SOL    HW1 7724   5.276   3.334   2.923
 2275SOL    HW2 7725   5.156   3.276   2.830
 2276SOL     OW 7726   1.924   1.477   1.758
 2276SOL    HW1 7727   1.903   1.382   1.735
 2276SOL    HW2 7728   1.841   1.533   1.750
 2277SOL     OW 7729   4.047   3.512   3.607
 2277SOL    HW1 7730   4.068   3.547   3.515
 2277SOL    HW2 7731   4.070   3.582   3.675
 2278SOL     OW 7732   6.386   3.525   3.932
 2278SOL    HW1 7733   6.435   3.440   3.948
 2278SOL    HW2 7734   6.393   3.584   4.012
 2279SOL     OW 7735   0.642   5.769   5.604
 2279SOL    HW1 7736   0.570   5.756   5.536
 2279SOL    HW2 7737   0.731   5.760   5.560
 2280SOL     OW 7738   4.992   2.782   5.165
 2280SOL    HW1 7739   4.990   2.846   5.242
 2280SOL    HW2 7740   5.022   2.831   5.083
 2281SOL     OW 7741   5.208   6.790   2.441
 2281SOL    HW1 7742   5.226   6.788   2.539
 2281SOL    HW2 7743   5.293   6.776   2.390
 2282SOL     OW 7744   3.794   5.378   5.701
 2282SOL    HW1 7745   3.882   5.425   5.694
 2282SOL    HW2 7746   3.733   5.411   5.629
 2283SOL     OW 7747   6.861   0.877   5.002
 2283SOL    HW1 7748   6.878   0.780   4.986
 2283SOL    HW2 7749   6.769   0.900   4.970
 2284SOL     OW 7750   1.731   4.202   5.847
 2284SOL    HW1 7751   1.714   4.213   5.945
 2284SOL    HW2 7752   1.742   4.292   5.805
 2285SOL     OW 7753   1.893   5.144   0.251
 2285SOL    HW1 7754   1.798   5.112   0.251
 2285SOL    HW2 7755   1.920   5.167   0.157
 2286SOL     OW 7756   4.954   4.789   2.254
 2286SOL    HW1 7757   4.939   4.796   2.156
 2286SOL    HW2 7758   4.920   4.701   2.287
 2287SOL     OW 7759   2.443   1.309   3.882
 2287SOL    HW1 7760   2.398   1.348   3.802
 2287SOL    HW2 7761   2.525   1.259   3.853
 2288SOL     OW 7762   6.555   4.599   2.924
 2288SOL    HW1 7763   6.542   4.505   2.895
 2288SOL    HW2 7764   6.642   4.607   2.974
 2289SOL     OW 7765   0.456   4.363   0.352
 2289SOL    HW1 7766   0.471   4.291   0.285
 2289SOL    HW2 7767   0.529   4.362   0.420
 2290SOL     OW 7768   0.823   5.447   0.015
 2290SOL    HW1 7769   0.846   5.350   0.014
 2290SOL    HW2 7770   0.762   5.467   0.091
 2291SOL     OW 7771   1.750   1.479   0.203
 2291SOL    HW1 7772   1.848   1.488   0.187
 2291SOL    HW2 7773   1.702   1.472   0.116
 2292SOL     OW 7774   2.055   0.936   4.726
 2292SOL    HW1 7775   2.048   1.031   4.757
 2292SOL    HW2 7776   2.115   0.885   4.787
 2293SOL     OW 7777   5.206   4.185   3.395
 2293SOL    HW1 7778   5.283   4.149   3.343
 2293SOL    HW2 7779   5.185   4.122   3.471
 2294SOL     OW 7780   4.005   0.090   6.510
 2294SOL    HW1 7781   4.015   0.006   6.458
 2294SOL    HW2 7782   4.080   0.153   6.488
 2295SOL     OW 7783   0.802   0.773   1.876
 2295SOL    HW1 7784   0.834   0.864   1.850
 2295SOL    HW2 7785   0.732   0.743   1.811
 2296SOL     OW 7786   3.262   6.597   6.683
 2296SOL    HW1 7787   3.188   6.658   6.712
 2296SOL    HW2 7788   3.225   6.508   6.660
 2297SOL     OW 7789   3.912   5.967   6.333
 2297SOL    HW1 7790   3.891   5.980   6.236
 2297SOL    HW2 7791   3.827   5.965   6.385
 2298SOL     OW 7792   4.758   2.703   6.547
 2298SOL    HW1 7793   4.820   2.731   6.620
 2298SOL    HW2 7794   4.736   2.606   6.559
 2299SOL     OW 7795   5.317   0.148   1.580
 2299SOL    HW1 7796   5.391   0.086   1.604
 2299SOL    HW2 7797   5.229   0.101   1.590
 2300SOL     OW 7798   0.999   4.015   1.445
 2300SOL    HW1 7799   0.970   3.919   1.449
 2300SOL    HW2 7800   0.924   4.072   1.412
 2301SOL     OW 7801   3.700   2.516   1.201
 2301SOL    HW1 7802   3.759   2.492   1.278
 2301SOL    HW2 7803   3.615   2.555   1.235
 2302SOL     OW 7804   3.469   5.424   2.951
 2302SOL    HW1 7805   3.503   5.404   3.043
 2302SOL    HW2 7806   3.394   5.363   2.928
 2303SOL     OW 7807   0.837   3.566   5.680
 2303SOL    HW1 7808   0.818   3.468   5.666
 2303SOL    HW2 7809   0.934   3.583   5.668
 2304SOL     OW 7810   2.077   1.126   4.305
 2304SOL    HW1 7811   2.128   1.080   4.233
 2304SOL    HW2 7812   2.025   1.059   4.358
 2305SOL     OW 7813   4.545   4.758   1.783
 2305SOL    HW1 7814   4.518   4.688   1.717
 2305SOL    HW2 7815   4.551   4.847   1.738
 2306SOL     OW 7816   0.083   4.868   0.647
 2306SOL    HW1 7817   0.035   4.911   0.723
 2306SOL    HW2 7818   0.022   4.805   0.600
 2307SOL     OW 7819   0.261   1.102   3.211
 2307SOL    HW1 7820   0.332   1.169   3.233
 2307SOL    HW2 7821   0.294   1.010   3.235
 2308SOL     OW 7822   0.691   0.610   0.189
 2308SOL    HW1 7823   0.681   0.610   0.289
 2308SOL    HW2 7824   0.612   0.655   0.148
 2309SOL     OW 7825   1.935   5.121   6.200
 2309SOL    HW1 7826   1.942   5.026   6.230
 2309SOL    HW2 7827   1.843   5.139   6.165
 2310SOL     OW 7828   5.671   1.357   3.581
 2310SOL    HW1 7829   5.583   1.308   3.578
 2310SOL    HW2 7830   5.719   1.344   3.494
 2311SOL     OW 7831   2.834   6.454   2.640
 2311SOL    HW1 7832   2.803   6.448   2.734
 2311SOL    HW2 7833   2.895   6.378   2.619
 2312SOL     OW 7834   2.800   0.320   1.940
 2312SOL    HW1 7835   2.852   0.281   1.865
 2312SOL    HW2 7836   2.705   0.287   1.936
 2313SOL     OW 7837   4.746   4.861   1.496
 2313SOL    HW1 7838   4.811   4.787   1.479
 2313SOL    HW2 7839   4.720   4.903   1.409
 2314SOL     OW 7840   0.375   6.279   3.004
 2314SOL    HW1 7841   0.337   6.198   3.050
 2314SOL    HW2 7842   0.350   6.361   3.055
 2315SOL     OW 7843   5.302   6.830   5.292
 2315SOL    HW1 7844   5.339   6.749   5.337
 2315SOL    HW2 7845   5.215   6.855   5.335
 2316SOL     OW 7846   3.815   2.494   6.653
 2316SOL    HW1 7847   3.755   2.548   6.711
 2316SOL    HW2 7848   3.798   2.516   6.557
 2317SOL     OW 7849   0.139   4.980   1.904
 2317SOL    HW1 7850   0.119   4.883   1.915
 2317SOL    HW2 7851   0.218   4.991   1.843
 2318SOL     OW 7852   1.090   4.881   3.814
 2318SOL    HW1 7853   1.175   4.830   3.798
 2318SOL    HW2 7854   1.087   4.910   3.910
 2319SOL     OW 7855   2.893   4.736   3.033
 2319SOL    HW1 7856   2.937   4.733   2.944
 2319SOL    HW2 7857   2.806   4.786   3.026
 2320SOL     OW 7858   1.648   2.190   4.997
 2320SOL    HW1 7859   1.602   2.278   4.983
 2320SOL    HW2 7860   1.579   2.121   5.020
 2321SOL     OW 7861   2.085   5.273   5.227
 2321SOL    HW1 7862   2.143   5.331   5.285
 2321SOL    HW2 7863   2.113   5.284   5.131
 2322SOL     OW 7864   1.552   3.402   1.878
 2322SOL    HW1 7865   1.534   3.351   1.794
 2322SOL    HW2 7866   1.642   3.376   1.914
 2323SOL     OW 7867   1.978   5.897   6.250
 2323SOL    HW1 7868   1.982   5.805   6.291
 2323SOL    HW2 7869   2.032   5.898   6.166
 2324SOL     OW 7870   6.368   4.598   2.393
 2324SOL    HW1 7871   6.406   4.628   2.306
 2324SOL    HW2 7872   6.415   4.645   2.468
 2325SOL     OW 7873   6.326   3.693   2.536
 2325SOL    HW1 7874   6.252   3.745   2.580
 2325SOL    HW2 7875   6.380   3.647   2.607
 2326SOL     OW 7876   2.036   0.271   0.144
 2326SOL    HW1 7877   2.017   0.195   0.082
 2326SOL    HW2 7878   1.959   0.336   0.142
 2327SOL     OW 7879   6.354   6.261   2.176
 2327SOL    HW1 7880   6.367   6.258   2.077
 2327SOL    HW2 7881   6.263   6.224   2.198
 2328SOL     OW 7882   1.829   3.988   2.440
 2328SOL    HW1 7883   1.862   4.079   2.417
 2328SOL    HW2 7884   1.874   3.920   2.382
 2329SOL     OW 7885   1.220   4.937   1.897
 2329SOL    HW1 7886   1.139   4.902   1.944
 2329SOL    HW2 7887   1.252   5.020   1.943
 2330SOL     OW 7888   5.953   3.679   1.926
 2330SOL    HW1 7889   5.857   3.692   1.952
 2330SOL    HW2 7890   6.011   3.736   1.984
 2331SOL     OW 7891   4.993   5.383   1.509
 2331SOL    HW1 7892   4.912   5.426   1.472
 2331SOL    HW2 7893   4.980   5.365   1.607
 2332SOL     OW 7894   6.240   0.130   6.395
 2332SOL    HW1 7895   6.142   0.147   6.387
 2332SOL    HW2 7896   6.264   0.116   6.491
 2333SOL     OW 7897   1.364   4.619   2.594
 2333SOL    HW1 7898   1.367   4.519   2.603
 2333SOL    HW2 7899   1.435   4.650   2.532
 2334SOL     OW 7900   3.603   1.038   5.786
 2334SOL    HW1 7901   3.572   0.963   5.728
 2334SOL    HW2 7902   3.621   1.003   5.878
 2335SOL     OW 7903   5.962   0.035   3.634
 2335SOL    HW1 7904   5.910   0.055   3.717
 2335SOL    HW2 7905   6.048   0.086   3.635
 2336SOL     OW 7906   1.906   1.947   2.628
 2336SOL    HW1 7907   1.986   1.909   2.675
 2336SOL    HW2 7908   1.929   1.966   2.533
 2337SOL     OW 7909   4.294   1.187   2.431
 2337SOL    HW1 7910   4.274   1.122   2.357
 2337SOL    HW2 7911   4.254   1.276   2.408
 2338SOL     OW 7912   6.801   3.692   3.809
 2338SOL    HW1 7913   6.737   3.753   3.856
 2338SOL    HW2 7914   6.807   3.717   3.713
 2339SOL     OW 7915   3.189   3.156   2.290
 2339SOL    HW1 7916   3.197   3.118   2.382
 2339SOL    HW2 7917   3.171   3.254   2.297
 2340SOL     OW 7918   1.980   4.191   6.546
 2340SOL    HW1 7919   2.073   4.173   6.579
 2340SOL    HW2 7920   1.920   4.115   6.572
 2341SOL     OW 7921   3.164   5.139   4.285
 2341SOL    HW1 7922   3.124   5.052   4.314
 2341SOL    HW2 7923   3.251   5.122   4.238
 2342SOL     OW 7924   3.623   1.730   4.378
 2342SOL    HW1 7925   3.697   1.666   4.358
 2342SOL    HW2 7926   3.647   1.820   4.341
 2343SOL     OW 7927   6.673   6.894   0.906
 2343SOL    HW1 7928   6.656   6.980   0.955
 2343SOL    HW2 7929   6.760   6.900   0.858
 2344SOL     OW 7930   6.171   4.669   7.018
 2344SOL    HW1 7931   6.188   4.627   6.928
 2344SOL    HW2 7932   6.191   4.767   7.013
 2345SOL     OW 7933   3.974   6.500   3.652
 2345SOL    HW1 7934   3.909   6.551   3.596
 2345SOL    HW2 7935   4.066   6.533   3.635
 2346SOL     OW 7936   4.910   3.426   0.516
 2346SOL    HW1 7937   4.841   3.475   0.568
 2346SOL    HW2 7938   4.988   3.405   0.576
 2347SOL     OW 7939   1.713   1.223   1.153
 2347SOL    HW1 7940   1.643   1.216   1.082
 2347SOL    HW2 7941   1.743   1.132   1.180
 2348SOL     OW 7942   0.208   5.815   2.666
 2348SOL    HW1 7943   0.294   5.781   2.702
 2348SOL    HW2 7944   0.146   5.837   2.741
 2349SOL     OW 7945   0.905   5.128   4.599
 2349SOL    HW1 7946   0.828   5.191   4.600
 2349SOL    HW2 7947   0.960   5.141   4.682
 2350SOL     OW 7948   5.631   3.957   0.553
 2350SOL    HW1 7949   5.577   4.035   0.583
 2350SOL    HW2 7950   5.728   3.974   0.569
 2351SOL     OW 7951   2.526   6.227   1.438
 2351SOL    HW1 7952   2.510   6.210   1.341
 2351SOL    HW2 7953   2.449   6.279   1.475
 2352SOL     OW 7954   7.000   2.154   3.153
 2352SOL    HW1 7955   0.046   2.177   3.217
 2352SOL    HW2 7956   6.928   2.223   3.157
 2353SOL     OW 7957   3.126   5.615   3.977
 2353SOL    HW1 7958   3.174   5.546   4.031
 2353SOL    HW2 7959   3.175   5.702   3.983
 2354SOL     OW 7960   2.854   2.201   4.241
 2354SOL    HW1 7961   2.757   2.188   4.264
 2354SOL    HW2 7962   2.900   2.244   4.318
 2355SOL     OW 7963   2.017   5.486   4.480
 2355SOL    HW1 7964   1.988   5.418   4.548
 2355SOL    HW2 7965   2.085   5.547   4.522
 2356SOL     OW 7966   0.024   2.340   6.916
 2356SOL    HW1 7967   0.027   2.440   6.909
 2356SOL    HW2 7968   6.955   2.310   6.916
 2357SOL     OW 7969   2.259   6.627   3.127
 2357SOL    HW1 7970   2.219   6.537   3.142
 2357SOL    HW2 7971   2.286   6.667   3.214
 2358SOL     OW 7972   4.401   5.543   6.016
 2358SOL    HW1 7973   4.404   5.593   6.102
 2358SOL    HW2 7974   4.307   5.514   5.998
 2359SOL     OW 7975   1.558   0.326   5.302
 2359SOL    HW1 7976   1.499   0.246   5.290
 2359SOL    HW2 7977   1.654   0.300   5.286
 2360SOL     OW 7978   6.862   3.693   7.005
 2360SOL    HW1 7979   6.795   3.661   6.938
 2360SOL    HW2 7980   6.954   3.674   6.972
 2361SOL     OW 7981   3.216   1.154   0.346
 2361SOL    HW1 7982   3.153   1.221   0.385
 2361SOL    HW2 7983   3.207   1.155   0.246
 2362SOL     OW 7984   3.368   5.179   2.888
 2362SOL    HW1 7985   3.392   5.098   2.942
 2362SOL    HW2 7986   3.308   5.152   2.813
 2363SOL     OW 7987   3.624   0.677   3.379
 2363SOL    HW1 7988   3.705   0.674   3.437
 2363SOL    HW2 7989   3.550   0.626   3.423
 2364SOL     OW 7990   0.858   2.373   1.636
 2364SOL    HW1 7991   0.936   2.324   1.673
 2364SOL    HW2 7992   0.862   2.469   1.664
 2365SOL     OW 7993   5.714   2.265   0.764
 2365SOL    HW1 7994   5.640   2.198   0.770
 2365SOL    HW2 7995   5.765   2.265   0.850
 2366SOL     OW 7996   4.547   5.776   0.540
 2366SOL    HW1 7997   4.577   5.717   0.615
 2366SOL    HW2 7998   4.467   5.736   0.495
 2367SOL     OW 7999   2.466   3.344   5.961
 2367SOL    HW1 8000   2.515   3.378   6.041
 2367SOL    HW2 8001   2.368   3.354   5.975
 2368SOL     OW 8002   5.439   6.189   2.291
 2368SOL    HW1 8003   5.485   6.211   2.205
 2368SOL    HW2 8004   5.449   6.265   2.355
 2369SOL     OW 8005   2.796   1.384   3.406
 2369SOL    HW1 8006   2.858   1.328   3.351
 2369SOL    HW2 8007   2.755   1.454   3.347
 2370SOL     OW 8008   5.920   2.636   6.339
 2370SOL    HW1 8009   5.840   2.631   6.398
 2370SOL    HW2 8010   5.903   2.701   6.265
 2371SOL     OW 8011   1.539   5.775   1.717
 2371SOL    HW1 8012   1.579   5.782   1.808
 2371SOL    HW2 8013   1.481   5.855   1.700
 2372SOL     OW 8014   6.626   2.166   3.277
 2372SOL    HW1 8015   6.703   2.103   3.268
 2372SOL    HW2 8016   6.642   2.247   3.221
 2373SOL     OW 8017   2.257   4.103   6.727
 2373SOL    HW1 8018   2.300   4.177   6.675
 2373SOL    HW2 8019   2.202   4.143   6.801
 2374SOL     OW 8020   5.050   2.633   4.809
 2374SOL    HW1 8021   5.037   2.604   4.714
 2374SOL    HW2 8022   4.993   2.712   4.829
 2375SOL     OW 8023   1.115   0.261   5.231
 2375SOL    HW1 8024   1.203   0.216   5.248
 2375SOL    HW2 8025   1.092   0.254   5.134
 2376SOL     OW 8026   6.705   2.002   4.152
 2376SOL    HW1 8027   6.625   1.979   4.208
 2376SOL    HW2 8028   6.678   2.002   4.055
 2377SOL     OW 8029   3.614   2.916   4.049
 2377SOL    HW1 8030   3.658   2.860   4.120
 2377SOL    HW2 8031   3.675   2.991   4.023
 2378SOL     OW 8032   5.480   1.835   1.140
 2378SOL    HW1 8033   5.400   1.889   1.168
 2378SOL    HW2 8034   5.486   1.833   1.040
 2379SOL     OW 8035   6.883   0.024   6.000
 2379SOL    HW1 8036   6.793   0.034   5.958
 2379SOL    HW2 8037   6.944   0.093   5.964
 2380SOL     OW 8038   6.174   1.956   3.638
 2380SOL    HW1 8039   6.201   1.965   3.542
 2380SOL    HW2 8040   6.123   2.037   3.667
 2381SOL     OW 8041   1.857   6.049   2.375
 2381SOL    HW1 8042   1.868   5.957   2.413
 2381SOL    HW2 8043   1.918   6.061   2.296
 2382SOL     OW 8044   1.761   2.450   5.658
 2382SOL    HW1 8045   1.802   2.380   5.600
 2382SOL    HW2 8046   1.662   2.452   5.643
 2383SOL     OW 8047   5.579   5.331   1.381
 2383SOL    HW1 8048   5.600   5.277   1.300
 2383SOL    HW2 8049   5.528   5.274   1.446
 2384SOL     OW 8050   4.329   1.537   1.696
 2384SOL    HW1 8051   4.241   1.583   1.685
 2384SOL    HW2 8052   4.372   1.526   1.606
 2385SOL     OW 8053   1.066   3.046   0.485
 2385SOL    HW1 8054   1.148   3.017   0.437
 2385SOL    HW2 8055   1.064   3.146   0.490
 2386SOL     OW 8056   4.493   4.672   2.639
 2386SOL    HW1 8057   4.490   4.772   2.637
 2386SOL    HW2 8058   4.517   4.642   2.731
 2387SOL     OW 8059   1.087   1.411   2.571
 2387SOL    HW1 8060   1.084   1.479   2.497
 2387SOL    HW2 8061   1.033   1.331   2.545
 2388SOL     OW 8062   6.827   1.389   4.200
 2388SOL    HW1 8063   6.748   1.328   4.208
 2388SOL    HW2 8064   6.872   1.397   4.289
 2389SOL     OW 8065   3.475   6.912   2.197
 2389SOL    HW1 8066   3.410   6.934   2.125
 2389SOL    HW2 8067   3.517   6.997   2.231
 2390SOL     OW 8068   3.051   4.773   0.796
 2390SOL    HW1 8069   3.099   4.744   0.879
 2390SOL    HW2 8070   2.992   4.699   0.764
 2391SOL     OW 8071   4.050   5.312   4.417
 2391SOL    HW1 8072   4.007   5.266   4.494
 2391SOL    HW2 8073   4.021   5.408   4.415
 2392SOL     OW 8074   3.806   1.141   6.740
 2392SOL    HW1 8075   3.835   1.083   6.663
 2392SOL    HW2 8076   3.763   1.224   6.704
 2393SOL     OW 8077   3.637   5.813   4.929
 2393SOL    HW1 8078   3.594   5.832   4.841
 2393SOL    HW2 8079   3.735   5.799   4.915
 2394SOL     OW 8080   0.207   5.099   5.132
 2394SOL    HW1 8081   0.251   5.130   5.048
 2394SOL    HW2 8082   0.223   5.001   5.144
 2395SOL     OW 8083   4.596   6.523   6.418
 2395SOL    HW1 8084   4.688   6.483   6.419
 2395SOL    HW2 8085   4.602   6.620   6.393
 2396SOL     OW 8086   3.032   6.558   0.375
 2396SOL    HW1 8087   2.978   6.599   0.302
 2396SOL    HW2 8088   3.011   6.460   0.381
 2397SOL     OW 8089   0.579   3.124   4.755
 2397SOL    HW1 8090   0.607   3.110   4.660
 2397SOL    HW2 8091   0.594   3.219   4.780
 2398SOL     OW 8092   5.311   3.747   5.368
 2398SOL    HW1 8093   5.349   3.738   5.461
 2398SOL    HW2 8094   5.374   3.799   5.311
 2399SOL     OW 8095   5.111   2.733   1.867
 2399SOL    HW1 8096   5.027   2.786   1.872
 2399SOL    HW2 8097   5.177   2.768   1.934
 2400SOL     OW 8098   1.322   4.400   6.969
 2400SOL    HW1 8099   1.392   4.328   6.976
 2400SOL    HW2 8100   1.348   4.464   6.896
 2401SOL     OW 8101   6.368   5.991   0.087
 2401SOL    HW1 8102   6.402   6.019   7.024
 2401SOL    HW2 8103   6.345   5.894   0.086
 2402SOL     OW 8104   6.935   6.379   3.788
 2402SOL    HW1 8105   6.965   6.474   3.787
 2402SOL    HW2 8106   6.835   6.375   3.780
 2403SOL     OW 8107   1.384   0.767   3.344
 2403SOL    HW1 8108   1.414   0.754   3.249
 2403SOL    HW2 8109   1.381   0.679   3.390
 2404SOL     OW 8110   1.074   0.501   0.500
 2404SOL    HW1 8111   1.139   0.476   0.571
 2404SOL    HW2 8112   1.123   0.526   0.416
 2405SOL     OW 8113   3.313   4.442   1.304
 2405SOL    HW1 8114   3.366   4.528   1.301
 2405SOL    HW2 8115   3.312   4.408   1.398
 2406SOL     OW 8116   4.781   1.481   1.187
 2406SOL    HW1 8117   4.741   1.390   1.179
 2406SOL    HW2 8118   4.737   1.542   1.121
 2407SOL     OW 8119   4.847   6.984   3.392
 2407SOL    HW1 8120   4.862   0.027   3.322
 2407SOL    HW2 8121   4.892   7.011   3.477
 2408SOL     OW 8122   4.145   4.840   2.003
 2408SOL    HW1 8123   4.160   4.831   2.102
 2408SOL    HW2 8124   4.158   4.936   1.977
 2409SOL     OW 8125   1.123   4.188   1.001
 2409SOL    HW1 8126   1.214   4.169   1.039
 2409SOL    HW2 8127   1.068   4.105   1.003
 2410SOL     OW 8128   4.098   3.326   2.608
 2410SOL    HW1 8129   4.158   3.273   2.547
 2410SOL    HW2 8130   4.133   3.321   2.701
 2411SOL     OW 8131   3.631   0.452   5.706
 2411SOL    HW1 8132   3.568   0.510   5.757
 2411SOL    HW2 8133   3.598   0.442   5.612
 2412SOL     OW 8134   4.308   3.619   1.053
 2412SOL    HW1 8135   4.310   3.642   1.150
 2412SOL    HW2 8136   4.301   3.520   1.042
 2413SOL     OW 8137   3.324   0.756   2.856
 2413SOL    HW1 8138   3.317   0.678   2.793
 2413SOL    HW2 8139   3.237   0.806   2.857
 2414SOL     OW 8140   4.914   2.985   3.947
 2414SOL    HW1 8141   4.882   2.933   3.868
 2414SOL    HW2 8142   5.011   2.967   3.961
 2415SOL     OW 8143   3.380   0.162   2.943
 2415SOL    HW1 8144   3.338   0.123   3.025
 2415SOL    HW2 8145   3.479   0.156   2.951
 2416SOL     OW 8146   5.176   2.002   6.411
 2416SOL    HW1 8147   5.203   2.067   6.340
 2416SOL    HW2 8148   5.114   2.047   6.475
 2417SOL     OW 8149   3.153   3.795   5.987
 2417SOL    HW1 8150   3.242   3.837   6.001
 2417SOL    HW2 8151   3.118   3.761   6.075
 2418SOL     OW 8152   3.836   2.959   2.205
 2418SOL    HW1 8153   3.906   2.897   2.169
 2418SOL    HW2 8154   3.746   2.916   2.196
 2419SOL     OW 8155   6.838   0.575   4.208
 2419SOL    HW1 8156   6.927   0.575   4.163
 2419SOL    HW2 8157   6.831   0.655   4.267
 2420SOL     OW 8158   1.953   0.170   2.033
 2420SOL    HW1 8159   1.857   0.148   2.017
 2420SOL    HW2 8160   1.964   0.269   2.043
 2421SOL     OW 8161   4.441   2.269   3.182
 2421SOL    HW1 8162   4.377   2.199   3.215
 2421SOL    HW2 8163   4.424   2.287   3.085
 2422SOL     OW 8164   5.899   1.730   1.312
 2422SOL    HW1 8165   5.988   1.774   1.304
 2422SOL    HW2 8166   5.832   1.796   1.344
 2423SOL     OW 8167   1.352   4.953   2.641
 2423SOL    HW1 8168   1.444   4.991   2.635
 2423SOL    HW2 8169   1.356   4.854   2.629
 2424SOL     OW 8170   6.599   6.519   0.119
 2424SOL    HW1 8171   6.677   6.566   0.160
 2424SOL    HW2 8172   6.515   6.569   0.141
 2425SOL     OW 8173   6.966   6.683   4.726
 2425SOL    HW1 8174   6.885   6.719   4.773
 2425SOL    HW2 8175   6.944   6.669   4.629
 2426SOL     OW 8176   1.758   5.607   4.558
 2426SOL    HW1 8177   1.695   5.680   4.584
 2426SOL    HW2 8178   1.811   5.635   4.478
 2427SOL     OW 8179   6.119   0.631   5.403
 2427SOL    HW1 8180   6.128   0.681   5.489
 2427SOL    HW2 8181   6.065   0.548   5.418
 2428SOL     OW 8182   5.978   2.322   0.649
 2428SOL    HW1 8183   5.989   2.407   0.598
 2428SOL    HW2 8184   5.881   2.304   0.664
 2429SOL     OW 8185   4.682   4.310   2.709
 2429SOL    HW1 8186   4.623   4.316   2.790
 2429SOL    HW2 8187   4.676   4.395   2.657
 2430SOL     OW 8188   5.548   0.235   1.845
 2430SOL    HW1 8189   5.476   0.302   1.830
 2430SOL    HW2 8190   5.610   0.268   1.916
 2431SOL     OW 8191   4.308   6.971   2.100
 2431SOL    HW1 8192   4.235   6.916   2.058
 2431SOL    HW2 8193   4.308   0.035   2.060
 2432SOL     OW 8194   2.865   5.655   2.512
 2432SOL    HW1 8195   2.814   5.656   2.597
 2432SOL    HW2 8196   2.952   5.704   2.524
 2433SOL     OW 8197   5.393   0.001   0.765
 2433SOL    HW1 8198   5.308   0.049   0.742
 2433SOL    HW2 8199   5.457   0.065   0.809
 2434SOL     OW 8200   3.110   3.080   4.882
 2434SOL    HW1 8201   3.020   3.046   4.855
 2434SOL    HW2 8202   3.168   3.089   4.802
 2435SOL     OW 8203   5.663   5.046   6.918
 2435SOL    HW1 8204   5.763   5.053   6.917
 2435SOL    HW2 8205   5.625   5.118   6.975
 2436SOL     OW 8206   3.211   4.606   0.637
 2436SOL    HW1 8207   3.120   4.577   0.608
 2436SOL    HW2 8208   3.221   4.705   0.623
 2437SOL     OW 8209   0.324   1.465   5.597
 2437SOL    HW1 8210   0.357   1.536   5.659
 2437SOL    HW2 8211   0.363   1.376   5.624
 2438SOL     OW 8212   3.647   3.702   0.458
 2438SOL    HW1 8213   3.726   3.643   0.473
 2438SOL    HW2 8214   3.610   3.732   0.546
 2439SOL     OW 8215   6.230   3.970   6.208
 2439SOL    HW1 8216   6.322   4.007   6.214
 2439SOL    HW2 8217   6.232   3.882   6.160
 2440SOL     OW 8218   6.688   5.155   6.313
 2440SOL    HW1 8219   6.714   5.060   6.297
 2440SOL    HW2 8220   6.745   5.194   6.385
 2441SOL     OW 8221   6.360   2.506   0.444
 2441SOL    HW1 8222   6.363   2.493   0.543
 2441SOL    HW2 8223   6.294   2.443   0.404
 2442SOL     OW 8224   6.717   1.915   4.923
 2442SOL    HW1 8225   6.707   2.013   4.907
 2442SOL    HW2 8226   6.808   1.896   4.961
 2443SOL     OW 8227   3.100   5.162   6.962
 2443SOL    HW1 8228   3.014   5.181   7.009
 2443SOL    HW2 8229   3.102   5.067   6.931
 2444SOL     OW 8230   3.989   2.767   6.287
 2444SOL    HW1 8231   4.022   2.679   6.252
 2444SOL    HW2 8232   3.892   2.759   6.311
 2445SOL     OW 8233   1.083   0.982   0.935
 2445SOL    HW1 8234   1.163   0.999   0.877
 2445SOL    HW2 8235   1.003   1.028   0.896
 2446SOL     OW 8236   5.354   3.014   6.154
 2446SOL    HW1 8237   5.403   3.069   6.087
 2446SOL    HW2 8238   5.372   2.917   6.136
 2447SOL     OW 8239   0.817   3.683   6.436
 2447SOL    HW1 8240   0.734   3.699   6.383
 2447SOL    HW2 8241   0.890   3.652   6.375
 2448SOL     OW 8242   6.237   0.417   4.955
 2448SOL    HW1 8243   6.273   0.461   5.037
 2448SOL    HW2 8244   6.303   0.351   4.920
 2449SOL     OW 8245   0.241   2.912   5.846
 2449SOL    HW1 8246   0.276   2.836   5.791
 2449SOL    HW2 8247   0.246   2.997   5.794
 2450SOL     OW 8248   2.905   2.931   0.965
 2450SOL    HW1 8249   2.935   3.011   0.913
 2450SOL    HW2 8250   2.976   2.905   1.029
 2451SOL     OW 8251   1.909   5.765   3.577
 2451SOL    HW1 8252   1.896   5.686   3.517
 2451SOL    HW2 8253   1.950   5.735   3.663
 2452SOL     OW 8254   3.228   1.504   4.025
 2452SOL    HW1 8255   3.209   1.577   4.091
 2452SOL    HW2 8256   3.231   1.416   4.072
 2453SOL     OW 8257   0.558   3.487   1.303
 2453SOL    HW1 8258   0.488   3.489   1.232
 2453SOL    HW2 8259   0.621   3.564   1.292
 2454SOL     OW 8260   6.915   6.895   2.353
 2454SOL    HW1 8261   7.007   6.908   2.318
 2454SOL    HW2 8262   6.908   6.805   2.398
 2455SOL     OW 8263   5.291   3.809   1.227
 2455SOL    HW1 8264   5.207   3.863   1.219
 2455SOL    HW2 8265   5.299   3.775   1.320
 2456SOL     OW 8266   2.652   6.676   1.265
 2456SOL    HW1 8267   2.680   6.710   1.175
 2456SOL    HW2 8268   2.578   6.609   1.253
 2457SOL     OW 8269   5.376   5.845   0.756
 2457SOL    HW1 8270   5.319   5.925   0.737
 2457SOL    HW2 8271   5.353   5.771   0.693
 2458SOL     OW 8272   0.309   6.649   1.979
 2458SOL    HW1 8273   0.394   6.701   1.984
 2458SOL    HW2 8274   0.277   6.645   1.885
 2459SOL     OW 8275   1.481   2.300   0.356
 2459SOL    HW1 8276   1.426   2.259   0.428
 2459SOL    HW2 8277   1.562   2.342   0.395
 2460SOL     OW 8278   1.373   4.207   1.134
 2460SOL    HW1 8279   1.378   4.150   1.216
 2460SOL    HW2 8280   1.372   4.303   1.160
 2461SOL     OW 8281   4.781   0.909   2.968
 2461SOL    HW1 8282   4.806   0.879   2.876
 2461SOL    HW2 8283   4.810   1.003   2.982
 2462SOL     OW 8284   3.092   5.310   6.725
 2462SOL    HW1 8285   3.136   5.398   6.739
 2462SOL    HW2 8286   3.110   5.251   6.804
 2463SOL     OW 8287   2.126   3.106   5.772
 2463SOL    HW1 8288   2.075   3.123   5.688
 2463SOL    HW2 8289   2.099   3.017   5.810
 2464SOL     OW 8290   0.629   3.925   1.087
 2464SOL    HW1 8291   0.582   3.919   1.175
 2464SOL    HW2 8292   0.568   3.894   1.014
 2465SOL     OW 8293   6.089   4.406   3.225
 2465SOL    HW1 8294   6.076   4.428   3.128
 2465SOL    HW2 8295   6.119   4.311   3.234
 2466SOL     OW 8296   4.107   1.646   1.651
 2466SOL    HW1 8297   4.113   1.742   1.677
 2466SOL    HW2 8298   4.089   1.639   1.552
 2467SOL     OW 8299   1.587   1.257   4.363
 2467SOL    HW1 8300   1.589   1.343   4.414
 2467SOL    HW2 8301   1.629   1.271   4.273
 2468SOL     OW 8302   6.988   4.677   6.645
 2468SOL    HW1 8303   6.924   4.614   6.690
 2468SOL    HW2 8304   7.006   4.645   6.552
 2469SOL     OW 8305   2.795   1.907   6.621
 2469SOL    HW1 8306   2.863   1.964   6.667
 2469SOL    HW2 8307   2.804   1.918   6.522
 2470SOL     OW 8308   5.275   2.793   0.537
 2470SOL    HW1 8309   5.233   2.726   0.599
 2470SOL    HW2 8310   5.290   2.751   0.448
 2471SOL     OW 8311   0.940   1.522   3.173
 2471SOL    HW1 8312   1.023   1.477   3.138
 2471SOL    HW2 8313   0.928   1.610   3.126
 2472SOL     OW 8314   6.758   0.605   4.473
 2472SOL    HW1 8315   6.687   0.554   4.424
 2472SOL    HW2 8316   6.838   0.547   4.486
 2473SOL     OW 8317   0.458   5.085   4.631
 2473SOL    HW1 8318   0.367   5.045   4.625
 2473SOL    HW2 8319   0.513   5.034   4.697
 2474SOL     OW 8320   5.823   6.855   4.254
 2474SOL    HW1 8321   5.734   6.849   4.299
 2474SOL    HW2 8322   5.853   6.763   4.227
 2475SOL     OW 8323   3.740   2.719   6.407
 2475SOL    HW1 8324   3.655   2.674   6.380
 2475SOL    HW2 8325   3.808   2.649   6.431
 2476SOL     OW 8326   0.493   1.766   3.927
 2476SOL    HW1 8327   0.575   1.709   3.923
 2476SOL    HW2 8328   0.438   1.740   4.006
 2477SOL     OW 8329   4.796   4.189   2.163
 2477SOL    HW1 8330   4.734   4.262   2.191
 2477SOL    HW2 8331   4.840   4.150   2.243
 2478SOL     OW 8332   6.880   0.794   1.982
 2478SOL    HW1 8333   6.968   0.789   2.031
 2478SOL    HW2 8334   6.809   0.749   2.036
 2479SOL     OW 8335   1.318   3.444   0.539
 2479SOL    HW1 8336   1.416   3.431   0.552
 2479SOL    HW2 8337   1.269   3.361   0.567
 2480SOL     OW 8338   6.441   4.892   0.316
 2480SOL    HW1 8339   6.432   4.798   0.284
 2480SOL    HW2 8340   6.531   4.928   0.292
 2481SOL     OW 8341   4.083   5.094   2.520
 2481SOL    HW1 8342   4.152   5.166   2.526
 2481SOL    HW2 8343   4.123   5.013   2.478
 2482SOL     OW 8344   3.876   2.173   4.545
 2482SOL    HW1 8345   3.844   2.128   4.629
 2482SOL    HW2 8346   3.959   2.225   4.565
 2483SOL     OW 8347   0.725   2.765   6.814
 2483SOL    HW1 8348   0.665   2.841   6.790
 2483SOL    HW2 8349   0.816   2.781   6.776
 2484SOL     OW 8350   3.487   3.947   5.392
 2484SOL    HW1 8351   3.477   3.881   5.466
 2484SOL    HW2 8352   3.398   3.961   5.348
 2485SOL     OW 8353   1.033   4.788   0.624
 2485SOL    HW1 8354   1.042   4.871   0.678
 2485SOL    HW2 8355   0.942   4.748   0.639
 2486SOL     OW 8356   0.277   5.320   3.954
 2486SOL    HW1 8357   0.228   5.371   3.883
 2486SOL    HW2 8358   0.263   5.364   4.042
 2487SOL     OW 8359   2.977   1.130   1.199
 2487SOL    HW1 8360   2.934   1.040   1.194
 2487SOL    HW2 8361   3.022   1.141   1.288
 2488SOL     OW 8362   2.304   5.677   6.449
 2488SOL    HW1 8363   2.361   5.667   6.530
 2488SOL    HW2 8364   2.301   5.590   6.400
 2489SOL     OW 8365   6.434   5.269   4.924
 2489SOL    HW1 8366   6.403   5.252   5.017
 2489SOL    HW2 8367   6.467   5.184   4.883
 2490SOL     OW 8368   5.828   2.850   1.587
 2490SOL    HW1 8369   5.760   2.923   1.578
 2490SOL    HW2 8370   5.800   2.787   1.659
 2491SOL     OW 8371   0.137   3.692   2.133
 2491SOL    HW1 8372   0.078   3.619   2.098
 2491SOL    HW2 8373   0.141   3.686   2.233
 2492SOL     OW 8374   4.228   1.437   0.563
 2492SOL    HW1 8375   4.314   1.437   0.614
 2492SOL    HW2 8376   4.241   1.487   0.477
 2493SOL     OW 8377   6.306   0.588   5.931
 2493SOL    HW1 8378   6.358   0.503   5.926
 2493SOL    HW2 8379   6.368   0.666   5.932
 2494SOL     OW 8380   5.819   5.246   0.990
 2494SOL    HW1 8381   5.880   5.200   0.925
 2494SOL    HW2 8382   5.783   5.329   0.948
 2495SOL     OW 8383   6.616   1.264   3.302
 2495SOL    HW1 8384   6.660   1.260   3.392
 2495SOL    HW2 8385   6.678   1.226   3.233
 2496SOL     OW 8386   1.694   4.724   0.697
 2496SOL    HW1 8387   1.775   4.776   0.724
 2496SOL    HW2 8388   1.696   4.633   0.739
 2497SOL     OW 8389   6.097   1.621   6.138
 2497SOL    HW1 8390   6.180   1.652   6.092
 2497SOL    HW2 8391   6.114   1.532   6.181
 2498SOL     OW 8392   1.634   3.258   4.654
 2498SOL    HW1 8393   1.651   3.265   4.556
 2498SOL    HW2 8394   1.558   3.318   4.679
 2499SOL     OW 8395   4.888   0.281   0.170
 2499SOL    HW1 8396   4.902   0.331   0.084
 2499SOL    HW2 8397   4.798   0.239   0.170
 2500SOL     OW 8398   5.157   2.829   5.962
 2500SOL    HW1 8399   5.067   2.832   6.005
 2500SOL    HW2 8400   5.185   2.922   5.936
 2501SOL     OW 8401   5.941   5.092   0.797
 2501SOL    HW1 8402   5.928   5.164   0.729
 2501SOL    HW2 8403   6.034   5.098   0.835
 2502SOL     OW 8404   1.281   6.620   3.115
 2502SOL    HW1 8405   1.322   6.562   3.186
 2502SOL    HW2 8406   1.260   6.564   3.035
 2503SOL     OW 8407   5.563   5.697   3.644
 2503SOL    HW1 8408   5.583   5.733   3.735
 2503SOL    HW2 8409   5.472   5.725   3.616
 2504SOL     OW 8410   3.556   4.870   2.759
 2504SOL    HW1 8411   3.542   4.956   2.708
 2504SOL    HW2 8412   3.491   4.802   2.726
 2505SOL     OW 8413   4.879   3.529   4.500
 2505SOL    HW1 8414   4.964   3.580   4.515
 2505SOL    HW2 8415   4.888   3.438   4.541
 2506SOL     OW 8416   1.517   1.114   6.952
 2506SOL    HW1 8417   1.468   1.176   6.891
 2506SOL    HW2 8418   1.452   1.056   7.000
 2507SOL     OW 8419   6.599   5.366   1.112
 2507SOL    HW1 8420   6.655   5.409   1.183
 2507SOL    HW2 8421   6.566   5.436   1.048
 2508SOL     OW 8422   1.480   1.565   1.762
 2508SOL    HW1 8423   1.462   1.649   1.711
 2508SOL    HW2 8424   1.417   1.494   1.732
 2509SOL     OW 8425   6.224   0.176   3.669
 2509SOL    HW1 8426   6.319   0.205   3.654
 2509SOL    HW2 8427   6.170   0.254   3.701
 2510SOL     OW 8428   3.751   5.898   2.836
 2510SOL    HW1 8429   3.847   5.927   2.834
 2510SOL    HW2 8430   3.725   5.860   2.748
 2511SOL     OW 8431   0.943   5.414   4.512
 2511SOL    HW1 8432   1.025   5.364   4.539
 2511SOL    HW2 8433   0.882   5.353   4.462
 2512SOL     OW 8434   5.971   3.189   4.749
 2512SOL    HW1 8435   6.049   3.225   4.698
 2512SOL    HW2 8436   6.002   3.150   4.835
 2513SOL     OW 8437   1.075   4.280   1.805
 2513SOL    HW1 8438   0.990   4.228   1.807
 2513SOL    HW2 8439   1.067   4.357   1.742
 2514SOL     OW 8440   0.175   2.208   4.556
 2514SOL    HW1 8441   0.249   2.141   4.548
 2514SOL    HW2 8442   0.115   2.182   4.631
 2515SOL     OW 8443   0.300   5.294   6.229
 2515SOL    HW1 8444   0.307   5.278   6.328
 2515SOL    HW2 8445   0.336   5.214   6.180
 2516SOL     OW 8446   4.945   6.392   5.075
 2516SOL    HW1 8447   4.945   6.448   4.992
 2516SOL    HW2 8448   5.018   6.424   5.137
 2517SOL     OW 8449   2.730   5.811   6.564
 2517SOL    HW1 8450   2.640   5.829   6.602
 2517SOL    HW2 8451   2.730   5.832   6.466
 2518SOL     OW 8452   2.016   2.332   0.896
 2518SOL    HW1 8453   2.020   2.430   0.878
 2518SOL    HW2 8454   2.102   2.302   0.939
 2519SOL     OW 8455   5.852   3.983   4.452
 2519SOL    HW1 8456   5.846   4.074   4.412
 2519SOL    HW2 8457   5.821   3.986   4.547
 2520SOL     OW 8458   4.383   5.808   1.369
 2520SOL    HW1 8459   4.434   5.753   1.303
 2520SOL    HW2 8460   4.390   5.905   1.344
 2521SOL     OW 8461   5.476   6.106   6.050
 2521SOL    HW1 8462   5.553   6.066   6.100
 2521SOL    HW2 8463   5.418   6.033   6.015
 2522SOL     OW 8464   3.298   5.788   4.474
 2522SOL    HW1 8465   3.322   5.788   4.377
 2522SOL    HW2 8466   3.198   5.784   4.483
 2523SOL     OW 8467   1.021   1.845   0.010
 2523SOL    HW1 8468   0.954   1.780   7.000
 2523SOL    HW2 8469   0.982   1.937   0.010
 2524SOL     OW 8470   1.930   0.434   4.605
 2524SOL    HW1 8471   2.006   0.391   4.653
 2524SOL    HW2 8472   1.960   0.463   4.514
 2525SOL     OW 8473   3.129   4.918   2.534
 2525SOL    HW1 8474   3.109   4.909   2.436
 2525SOL    HW2 8475   3.060   4.977   2.576
 2526SOL     OW 8476   2.330   3.401   5.249
 2526SOL    HW1 8477   2.427   3.424   5.258
 2526SOL    HW2 8478   2.314   3.310   5.286
 2527SOL     OW 8479   6.855   0.150   4.185
 2527SOL    HW1 8480   6.900   0.105   4.107
 2527SOL    HW2 8481   6.805   0.230   4.152
 2528SOL     OW 8482   5.484   5.001   2.904
 2528SOL    HW1 8483   5.547   4.924   2.891
 2528SOL    HW2 8484   5.396   4.966   2.937
 2529SOL     OW 8485   5.004   5.786   4.916
 2529SOL    HW1 8486   4.909   5.807   4.892
 2529SOL    HW2 8487   5.034   5.705   4.866
 2530SOL     OW 8488   1.361   6.811   3.471
 2530SOL    HW1 8489   1.415   6.811   3.387
 2530SOL    HW2 8490   1.288   6.879   3.464
 2531SOL     OW 8491   5.202   2.559   5.832
 2531SOL    HW1 8492   5.237   2.638   5.882
 2531SOL    HW2 8493   5.272   2.525   5.769
 2532SOL     OW 8494   6.476   5.165   0.080
 2532SOL    HW1 8495   6.447   5.201   0.169
 2532SOL    HW2 8496   6.459   5.234   0.010
 2533SOL     OW 8497   4.701   0.596   3.936
 2533SOL    HW1 8498   4.636   0.616   3.863
 2533SOL    HW2 8499   4.657   0.612   4.025
 2534SOL     OW 8500   6.356   0.449   2.120
 2534SOL    HW1 8501   6.418   0.399   2.059
 2534SOL    HW2 8502   6.356   0.546   2.096
 2535SOL     OW 8503   3.130   1.111   1.408
 2535SOL    HW1 8504   3.109   1.015   1.424
 2535SOL    HW2 8505   3.229   1.123   1.400
 2536SOL     OW 8506   0.593   6.885   2.814
 2536SOL    HW1 8507   0.687   6.891   2.780
 2536SOL    HW2 8508   0.565   6.789   2.815
 2537SOL     OW 8509   2.156   6.768   1.828
 2537SOL    HW1 8510   2.136   6.864   1.848
 2537SOL    HW2 8511   2.095   6.737   1.755
 2538SOL     OW 8512   6.983   5.309   4.794
 2538SOL    HW1 8513   6.917   5.279   4.863
 2538SOL    HW2 8514   7.024   5.229   4.750
 2539SOL     OW 8515   0.629   0.221   5.120
 2539SOL    HW1 8516   0.723   0.235   5.090
 2539SOL    HW2 8517   0.600   0.128   5.095
 2540SOL     OW 8518   5.698   3.071   2.307
 2540SOL    HW1 8519   5.604   3.062   2.275
 2540SOL    HW2 8520   5.737   2.980   2.321
 2541SOL     OW 8521   1.618   0.418   6.926
 2541SOL    HW1 8522   1.569   0.376   7.003
 2541SOL    HW2 8523   1.615   0.357   6.847
 2542SOL     OW 8524   4.043   2.210   2.934
 2542SOL    HW1 8525   4.047   2.110   2.935
 2542SOL    HW2 8526   4.056   2.245   3.027
 2543SOL     OW 8527   5.759   6.387   5.492
 2543SOL    HW1 8528   5.707   6.388   5.577
 2543SOL    HW2 8529   5.853   6.359   5.510
 2544SOL     OW 8530   0.013   0.795   0.355
 2544SOL    HW1 8531   0.012   0.796   0.255
 2544SOL    HW2 8532   0.095   0.746   0.387
 2545SOL     OW 8533   0.831   1.345   0.466
 2545SOL    HW1 8534   0.767   1.334   0.390
 2545SOL    HW2 8535   0.795   1.413   0.530
 2546SOL     OW 8536   6.337   2.803   3.823
 2546SOL    HW1 8537   6.355   2.815   3.921
 2546SOL    HW2 8538   6.309   2.709   3.805
 2547SOL     OW 8539   6.539   3.349   0.478
 2547SOL    HW1 8540   6.600   3.314   0.549
 2547SOL    HW2 8541   6.468   3.282   0.459
 2548SOL     OW 8542   5.557   0.062   5.539
 2548SOL    HW1 8543   5.621   0.024   5.472
 2548SOL    HW2 8544   5.562   0.008   5.623
 2549SOL     OW 8545   3.048   4.132   6.527
 2549SOL    HW1 8546   3.097   4.126   6.441
 2549SOL    HW2 8547   2.986   4.054   6.536
 2550SOL     OW 8548   4.141   0.774   1.717
 2550SOL    HW1 8549   4.237   0.780   1.690
 2550SOL    HW2 8550   4.083   0.796   1.639
 2551SOL     OW 8551   2.497   4.579   0.153
 2551SOL    HW1 8552   2.495   4.662   0.209
 2551SOL    HW2 8553   2.504   4.605   0.056
 2552SOL     OW 8554   3.094   5.188   0.573
 2552SOL    HW1 8555   3.145   5.106   0.599
 2552SOL    HW2 8556   3.050   5.227   0.655
 2553SOL     OW 8557   3.783   2.139   1.465
 2553SOL    HW1 8558   3.706   2.178   1.414
 2553SOL    HW2 8559   3.761   2.138   1.563
 2554SOL     OW 8560   1.316   5.410   0.829
 2554SOL    HW1 8561   1.286   5.325   0.786
 2554SOL    HW2 8562   1.238   5.455   0.873
 2555SOL     OW 8563   0.294   5.801   4.707
 2555SOL    HW1 8564   0.200   5.808   4.738
 2555SOL    HW2 8565   0.314   5.707   4.681
 2556SOL     OW 8566   5.596   0.309   6.613
 2556SOL    HW1 8567   5.605   0.399   6.570
 2556SOL    HW2 8568   5.666   0.299   6.684
 2557SOL     OW 8569   2.573   1.028   0.622
 2557SOL    HW1 8570   2.608   1.119   0.601
 2557SOL    HW2 8571   2.609   0.962   0.556
 2558SOL     OW 8572   5.431   2.921   1.731
 2558SOL    HW1 8573   5.507   2.965   1.779
 2558SOL    HW2 8574   5.345   2.946   1.775
 2559SOL     OW 8575   0.139   6.135   3.323
 2559SOL    HW1 8576   0.155   6.037   3.306
 2559SOL    HW2 8577   0.152   6.155   3.420
 2560SOL     OW 8578   3.760   3.244   1.558
 2560SOL    HW1 8579   3.664   3.227   1.536
 2560SOL    HW2 8580   3.807   3.157   1.573
 2561SOL     OW 8581   3.608   0.727   4.607
 2561SOL    HW1 8582   3.678   0.678   4.554
 2561SOL    HW2 8583   3.646   0.814   4.639
 2562SOL     OW 8584   0.896   6.896   4.834
 2562SOL    HW1 8585   0.944   6.904   4.746
 2562SOL    HW2 8586   0.799   6.915   4.820
 2563SOL     OW 8587   4.634   1.799   0.249
 2563SOL    HW1 8588   4.622   1.849   0.163
 2563SOL    HW2 8589   4.628   1.701   0.230
 2564SOL     OW 8590   2.020   0.377   1.303
 2564SOL    HW1 8591   2.029   0.457   1.244
 2564SOL    HW2 8592   1.981   0.405   1.391
 2565SOL     OW 8593   6.022   0.507   0.441
 2565SOL    HW1 8594   6.072   0.506   0.527
 2565SOL    HW2 8595   5.930   0.545   0.455
 2566SOL     OW 8596   2.852   1.821   0.725
 2566SOL    HW1 8597   2.761   1.780   0.734
 2566SOL    HW2 8598   2.920   1.760   0.765
 2567SOL     OW 8599   1.972   0.420   6.179
 2567SOL    HW1 8600   1.943   0.466   6.095
 2567SOL    HW2 8601   1.903   0.352   6.205
 2568SOL     OW 8602   3.253   6.373   6.866
 2568SOL    HW1 8603   3.291   6.462   6.892
 2568SOL    HW2 8604   3.153   6.377   6.873
 2569SOL     OW 8605   3.041   6.637   6.409
 2569SOL    HW1 8606   3.072   6.542   6.418
 2569SOL    HW2 8607   2.942   6.640   6.417
 2570SOL     OW 8608   0.208   0.239   3.813
 2570SOL    HW1 8609   0.203   0.271   3.908
 2570SOL    HW2 8610   0.130   0.274   3.762
 2571SOL     OW 8611   3.124   3.453   2.002
 2571SOL    HW1 8612   3.209   3.424   2.046
 2571SOL    HW2 8613   3.080   3.524   2.058
 2572SOL     OW 8614   2.068   6.256   2.251
 2572SOL    HW1 8615   2.149   6.314   2.258
 2572SOL    HW2 8616   2.094   6.165   2.219
 2573SOL     OW 8617   6.460   0.183   2.425
 2573SOL    HW1 8618   6.514   0.123   2.367
 2573SOL    HW2 8619   6.372   0.202   2.380
 2574SOL     OW 8620   0.823   4.549   1.584
 2574SOL    HW1 8621   0.739   4.568   1.633
 2574SOL    HW2 8622   0.835   4.615   1.510
 2575SOL     OW 8623   4.174   3.351   5.268
 2575SOL    HW1 8624   4.133   3.420   5.208
 2575SOL    HW2 8625   4.271   3.371   5.280
 2576SOL     OW 8626   1.491   0.984   3.750
 2576SOL    HW1 8627   1.583   0.966   3.785
 2576SOL    HW2 8628   1.488   0.965   3.652
 2577SOL     OW 8629   1.266   4.588   0.131
 2577SOL    HW1 8630   1.261   4.680   0.090
 2577SOL    HW2 8631   1.303   4.524   0.063
 2578SOL     OW 8632   5.510   0.784   5.181
 2578SOL    HW1 8633   5.512   0.747   5.088
 2578SOL    HW2 8634   5.511   0.708   5.247
 2579SOL     OW 8635   0.690   2.357   6.441
 2579SOL    HW1 8636   0.618   2.303   6.485
 2579SOL    HW2 8637   0.685   2.451   6.474
 2580SOL     OW 8638   1.687   2.559   5.131
 2580SOL    HW1 8639   1.709   2.547   5.034
 2580SOL    HW2 8640   1.589   2.574   5.141
 2581SOL     OW 8641   4.932   6.863   4.116
 2581SOL    HW1 8642   4.953   6.780   4.065
 2581SOL    HW2 8643   4.900   6.839   4.208
 2582SOL     OW 8644   6.761   4.614   2.519
 2582SOL    HW1 8645   6.745   4.645   2.425
 2582SOL    HW2 8646   6.818   4.680   2.566
 2583SOL     OW 8647   3.230   0.385   6.988
 2583SOL    HW1 8648   3.181   0.472   6.981
 2583SOL    HW2 8649   3.277   0.381   0.050
 2584SOL     OW 8650   3.589   1.174   4.339
 2584SOL    HW1 8651   3.533   1.125   4.272
 2584SOL    HW2 8652   3.529   1.213   4.409
 2585SOL     OW 8653   3.561   0.848   2.899
 2585SOL    HW1 8654   3.466   0.817   2.893
 2585SOL    HW2 8655   3.582   0.909   2.823
 2586SOL     OW 8656   2.026   1.579   4.580
 2586SOL    HW1 8657   2.113   1.598   4.625
 2586SOL    HW2 8658   1.966   1.659   4.590
 2587SOL     OW 8659   6.358   4.606   3.283
 2587SOL    HW1 8660   6.361   4.643   3.190
 2587SOL    HW2 8661   6.401   4.516   3.285
 2588SOL     OW 8662   2.563   6.929   2.500
 2588SOL    HW1 8663   2.660   6.913   2.521
 2588SOL    HW2 8664   2.519   6.841   2.481
 2589SOL     OW 8665   5.113   6.663   1.983
 2589SOL    HW1 8666   5.034   6.601   1.979
 2589SOL    HW2 8667   5.099   6.730   2.055
 2590SOL     OW 8668   4.485   6.187   3.920
 2590SOL    HW1 8669   4.530   6.107   3.881
 2590SOL    HW2 8670   4.386   6.182   3.903
 2591SOL     OW 8671   5.288   0.611   0.650
 2591SOL    HW1 8672   5.196   0.573   0.663
 2591SOL    HW2 8673   5.286   0.678   0.576
 2592SOL     OW 8674   2.785   6.089   1.734
 2592SOL    HW1 8675   2.869   6.111   1.784
 2592SOL    HW2 8676   2.730   6.172   1.724
 2593SOL     OW 8677   2.983   0.087   4.315
 2593SOL    HW1 8678   2.929   0.048   4.389
 2593SOL    HW2 8679   3.057   0.025   4.290
 2594SOL     OW 8680   1.424   5.794   6.539
 2594SOL    HW1 8681   1.439   5.880   6.491
 2594SOL    HW2 8682   1.389   5.812   6.631
 2595SOL     OW 8683   6.979   3.481   5.406
 2595SOL    HW1 8684   7.020   3.521   5.488
 2595SOL    HW2 8685   7.011   3.530   5.325
 2596SOL     OW 8686   4.334   1.629   0.907
 2596SOL    HW1 8687   4.347   1.549   0.849
 2596SOL    HW2 8688   4.236   1.647   0.917
 2597SOL     OW 8689   2.951   2.418   5.881
 2597SOL    HW1 8690   2.924   2.457   5.969
 2597SOL    HW2 8691   3.024   2.351   5.896
 2598SOL     OW 8692   6.518   1.314   3.602
 2598SOL    HW1 8693   6.477   1.273   3.683
 2598SOL    HW2 8694   6.469   1.398   3.578
 2599SOL     OW 8695   4.928   5.810   6.114
 2599SOL    HW1 8696   4.900   5.784   6.207
 2599SOL    HW2 8697   4.858   5.868   6.073
 2600SOL     OW 8698   6.942   3.554   5.029
 2600SOL    HW1 8699   6.945   3.492   4.951
 2600SOL    HW2 8700   0.006   3.561   5.069
 2601SOL     OW 8701   4.049   4.204   5.245
 2601SOL    HW1 8702   4.109   4.280   5.221
 2601SOL    HW2 8703   4.092   4.118   5.219
 2602SOL     OW 8704   5.982   0.327   0.201
 2602SOL    HW1 8705   5.897   0.291   0.240
 2602SOL    HW2 8706   6.048   0.343   0.274
 2603SOL     OW 8707   2.081   1.324   6.949
 2603SOL    HW1 8708   2.127   1.277   6.874
 2603SOL    HW2 8709   1.987   1.346   6.922
 2604SOL     OW 8710   5.752   1.278   0.372
 2604SOL    HW1 8711   5.797   1.217   0.437
 2604SOL    HW2 8712   5.689   1.225   0.315
 2605SOL     OW 8713   5.625   1.499   5.349
 2605SOL    HW1 8714   5.576   1.516   5.264
 2605SOL    HW2 8715   5.723   1.512   5.333
 2606SOL     OW 8716   6.167   4.524   1.178
 2606SOL    HW1 8717   6.103   4.447   1.176
 2606SOL    HW2 8718   6.179   4.560   1.085
 2607SOL     OW 8719   0.485   0.095   2.888
 2607SOL    HW1 8720   0.517   0.015   2.837
 2607SOL    HW2 8721   0.479   0.073   2.985
 2608SOL     OW 8722   4.729   0.887   0.053
 2608SOL    HW1 8723   4.679   0.818   0.000
 2608SOL    HW2 8724   4.807   0.844   0.098
 2609SOL     OW 8725   0.785   4.140   3.694
 2609SOL    HW1 8726   0.775   4.198   3.776
 2609SOL    HW2 8727   0.883   4.126   3.675
 2610SOL     OW 8728   5.626   4.726   5.060
 2610SOL    HW1 8729   5.696   4.777   5.010
 2610SOL    HW2 8730   5.542   4.724   5.007
 2611SOL     OW 8731   2.879   6.680   1.432
 2611SOL    HW1 8732   2.796   6.678   1.376
 2611SOL    HW2 8733   2.906   6.587   1.457
 2612SOL     OW 8734   0.366   0.042   3.745
 2612SOL    HW1 8735   0.451   0.064   3.792
 2612SOL    HW2 8736   0.295   0.106   3.772
 2613SOL     OW 8737   3.951   1.478   0.161
 2613SOL    HW1 8738   4.028   1.538   0.184
 2613SOL    HW2 8739   3.970   1.386   0.193
 2614SOL     OW 8740   5.921   6.646   0.121
 2614SOL    HW1 8741   5.863   6.578   0.076
 2614SOL    HW2 8742   5.971   6.698   0.052
 2615SOL     OW 8743   7.025   5.013   1.124
 2615SOL    HW1 8744   6.981   5.094   1.164
 2615SOL    HW2 8745   6.972   4.931   1.147
 2616SOL     OW 8746   3.948   3.534   1.804
 2616SOL    HW1 8747   3.879   3.473   1.765
 2616SOL    HW2 8748   3.924   3.629   1.783
 2617SOL     OW 8749   3.429   6.723   0.173
 2617SOL    HW1 8750   3.443   6.668   0.091
 2617SOL    HW2 8751   3.518   6.755   0.207
 2618SOL     OW 8752   1.377   5.758   0.212
 2618SOL    HW1 8753   1.401   5.854   0.195
 2618SOL    HW2 8754   1.460   5.703   0.215
 2619SOL     OW 8755   6.044   0.617   2.620
 2619SOL    HW1 8756   6.093   0.563   2.551
 2619SOL    HW2 8757   6.079   0.711   2.620
 2620SOL     OW 8758   1.913   6.139   4.145
 2620SOL    HW1 8759   1.846   6.114   4.074
 2620SOL    HW2 8760   2.002   6.157   4.101
 2621SOL     OW 8761   1.409   6.051   4.532
 2621SOL    HW1 8762   1.319   6.053   4.490
 2621SOL    HW2 8763   1.479   6.065   4.462
 2622SOL     OW 8764   2.420   2.686   4.208
 2622SOL    HW1 8765   2.426   2.725   4.117
 2622SOL    HW2 8766   2.440   2.588   4.204
 2623SOL     OW 8767   3.258   0.240   5.387
 2623SOL    HW1 8768   3.327   0.286   5.332
 2623SOL    HW2 8769   3.220   0.163   5.336
 2624SOL     OW 8770   4.793   1.951   4.448
 2624SOL    HW1 8771   4.857   1.899   4.391
 2624SOL    HW2 8772   4.706   1.960   4.400
 2625SOL     OW 8773   1.515   0.453   5.584
 2625SOL    HW1 8774   1.472   0.378   5.635
 2625SOL    HW2 8775   1.574   0.415   5.513
 2626SOL     OW 8776   2.649   6.818   3.256
 2626SOL    HW1 8777   2.554   6.845   3.266
 2626SOL    HW2 8778   2.708   6.898   3.261
 2627SOL     OW 8779   1.559   0.163   3.951
 2627SOL    HW1 8780   1.579   0.243   3.893
 2627SOL    HW2 8781   1.611   0.085   3.919
 2628SOL     OW 8782   4.743   4.980   6.598
 2628SOL    HW1 8783   4.676   5.048   6.628
 2628SOL    HW2 8784   4.758   4.989   6.499
 2629SOL     OW 8785   3.049   4.033   1.633
 2629SOL    HW1 8786   3.034   4.002   1.539
 2629SOL    HW2 8787   3.022   4.128   1.641
 2630SOL     OW 8788   3.508   1.594   2.440
 2630SOL    HW1 8789   3.506   1.544   2.353
 2630SOL    HW2 8790   3.415   1.599   2.477
 2631SOL     OW 8791   3.168   6.617   3.444
 2631SOL    HW1 8792   3.116   6.557   3.383
 2631SOL    HW2 8793   3.226   6.561   3.504
 2632SOL     OW 8794   5.290   1.620   0.263
 2632SOL    HW1 8795   5.235   1.565   0.325
 2632SOL    HW2 8796   5.351   1.679   0.317
 2633SOL     OW 8797   0.275   2.425   0.453
 2633SOL    HW1 8798   0.370   2.416   0.481
 2633SOL    HW2 8799   0.242   2.336   0.419
 2634SOL     OW 8800   2.545   5.029   0.063
 2634SOL    HW1 8801   2.469   5.015   0.126
 2634SOL    HW2 8802   2.558   5.128   0.048
 2635SOL     OW 8803   5.995   4.134   3.703
 2635SOL    HW1 8804   6.051   4.126   3.786
 2635SOL    HW2 8805   5.945   4.221   3.706
 2636SOL     OW 8806   5.198   4.939   6.047
 2636SOL    HW1 8807   5.256   5.015   6.018
 2636SOL    HW2 8808   5.108   4.974   6.074
 2637SOL     OW 8809   5.426   5.243   2.029
 2637SOL    HW1 8810   5.484   5.170   1.994
 2637SOL    HW2 8811   5.483   5.314   2.070
 2638SOL     OW 8812   4.567   5.282   0.283
 2638SOL    HW1 8813   4.601   5.365   0.238
 2638SOL    HW2 8814   4.584   5.287   0.381
 2639SOL     OW 8815   6.184   0.607   0.193
 2639SOL    HW1 8816   6.170   0.704   0.170
 2639SOL    HW2 8817   6.125   0.582   0.269
 2640SOL     OW 8818   6.723   6.527   1.336
 2640SOL    HW1 8819   6.687   6.608   1.383
 2640SOL    HW2 8820   6.654   6.491   1.273
 2641SOL     OW 8821   6.589   5.527   1.393
 2641SOL    HW1 8822   6.551   5.434   1.397
 2641SOL    HW2 8823   6.523   5.591   1.432
 2642SOL     OW 8824   6.972   6.674   4.074
 2642SOL    HW1 8825   0.008   6.629   4.138
 2642SOL    HW2 8826   6.910   6.733   4.125
 2643SOL     OW 8827   1.171   0.797   2.013
 2643SOL    HW1 8828   1.251   0.782   2.070
 2643SOL    HW2 8829   1.136   0.890   2.029
 2644SOL     OW 8830   6.278   6.292   4.441
 2644SOL    HW1 8831   6.223   6.346   4.505
 2644SOL    HW2 8832   6.221   6.220   4.401
 2645SOL     OW 8833   6.142   6.060   6.453
 2645SOL    HW1 8834   6.236   6.030   6.435
 2645SOL    HW2 8835   6.142   6.128   6.526
 2646SOL     OW 8836   5.610   4.850   5.723
 2646SOL    HW1 8837   5.544   4.782   5.754
 2646SOL    HW2 8838   5.645   4.823   5.633
 2647SOL     OW 8839   2.999   3.996   0.794
 2647SOL    HW1 8840   3.089   3.995   0.838
 2647SOL    HW2 8841   2.944   3.920   0.827
 2648SOL     OW 8842   4.739   1.181   3.236
 2648SOL    HW1 8843   4.648   1.151   3.263
 2648SOL    HW2 8844   4.794   1.198   3.318
 2649SOL     OW 8845   2.989   3.846   5.323
 2649SOL    HW1 8846   2.917   3.835   5.255
 2649SOL    HW2 8847   3.031   3.757   5.341
 2650SOL     OW 8848   6.886   6.468   2.662
 2650SOL    HW1 8849   6.945   6.543   2.691
 2650SOL    HW2 8850   6.889   6.460   2.562
 2651SOL     OW 8851   1.823   0.618   2.979
 2651SOL    HW1 8852   1.788   0.712   2.982
 2651SOL    HW2 8853   1.806   0.574   3.067
 2652SOL     OW 8854   3.029   2.034   1.492
 2652SOL    HW1 8855   3.052   2.065   1.585
 2652SOL    HW2 8856   2.952   2.086   1.457
 2653SOL     OW 8857   5.561   0.410   0.362
 2653SOL    HW1 8858   5.636   0.418   0.297
 2653SOL    HW2 8859   5.556   0.316   0.396
 2654SOL     OW 8860   0.557   3.574   5.699
 2654SOL    HW1 8861   0.477   3.559   5.641
 2654SOL    HW2 8862   0.634   3.605   5.642
 2655SOL     OW 8863   5.642   4.654   3.896
 2655SOL    HW1 8864   5.676   4.697   3.812
 2655SOL    HW2 8865   5.543   4.645   3.891
 2656SOL     OW 8866   5.632   3.708   5.032
 2656SOL    HW1 8867   5.628   3.609   5.040
 2656SOL    HW2 8868   5.690   3.733   4.954
 2657SOL     OW 8869   4.280   1.967   5.751
 2657SOL    HW1 8870   4.331   1.884   5.730
 2657SOL    HW2 8871   4.297   2.036   5.681
 2658SOL     OW 8872   0.292   4.217   5.804
 2658SOL    HW1 8873   0.362   4.228   5.733
 2658SOL    HW2 8874   0.301   4.291   5.870
 2659SOL     OW 8875   6.049   0.434   3.501
 2659SOL    HW1 8876   5.990   0.354   3.490
 2659SOL    HW2 8877   6.052   0.486   3.416
 2660SOL     OW 8878   1.223   1.643   3.860
 2660SOL    HW1 8879   1.165   1.713   3.818
 2660SOL    HW2 8880   1.184   1.615   3.947
 2661SOL     OW 8881   3.601   6.769   3.409
 2661SOL    HW1 8882   3.507   6.803   3.399
 2661SOL    HW2 8883   3.630   6.780   3.504
 2662SOL     OW 8884   4.244   1.749   5.019
 2662SOL    HW1 8885   4.206   1.657   5.029
 2662SOL    HW2 8886   4.279   1.780   5.107
 2663SOL     OW 8887   1.229   4.256   3.381
 2663SOL    HW1 8888   1.204   4.159   3.379
 2663SOL    HW2 8889   1.182   4.301   3.456
 2664SOL     OW 8890   4.808   4.226   1.877
 2664SOL    HW1 8891   4.799   4.195   1.972
 2664SOL    HW2 8892   4.772   4.156   1.816
 2665SOL     OW 8893   3.735   0.567   5.414
 2665SOL    HW1 8894   3.832   0.575   5.437
 2665SOL    HW2 8895   3.725   0.548   5.317
 2666SOL     OW 8896   4.471   6.066   1.562
 2666SOL    HW1 8897   4.388   6.121   1.571
 2666SOL    HW2 8898   4.486   6.014   1.646
 2667SOL     OW 8899   1.748   5.207   2.830
 2667SOL    HW1 8900   1.819   5.172   2.768
 2667SOL    HW2 8901   1.790   5.240   2.914
 2668SOL     OW 8902   0.603   2.616   5.331
 2668SOL    HW1 8903   0.692   2.599   5.287
 2668SOL    HW2 8904   0.557   2.529   5.347
 2669SOL     OW 8905   3.929   5.184   4.642
 2669SOL    HW1 8906   3.883   5.097   4.655
 2669SOL    HW2 8907   3.863   5.259   4.655
 2670SOL     OW 8908   1.985   6.964   4.489
 2670SOL    HW1 8909   1.945   6.873   4.488
 2670SOL    HW2 8910   1.971   7.008   4.401
 2671SOL     OW 8911   2.751   3.611   6.696
 2671SOL    HW1 8912   2.804   3.544   6.748
 2671SOL    HW2 8913   2.766   3.597   6.598
 2672SOL     OW 8914   1.292   4.598   0.773
 2672SOL    HW1 8915   1.338   4.513   0.796
 2672SOL    HW2 8916   1.200   4.579   0.741
 2673SOL     OW 8917   4.250   2.047   3.279
 2673SOL    HW1 8918   4.211   2.051   3.371
 2673SOL    HW2 8919   4.204   1.975   3.226
 2674SOL     OW 8920   5.069   5.457   5.456
 2674SOL    HW1 8921   5.153   5.414   5.486
 2674SOL    HW2 8922   5.034   5.517   5.528
 2675SOL     OW 8923   0.218   5.313   5.623
 2675SOL    HW1 8924   0.263   5.355   5.702
 2675SOL    HW2 8925   0.238   5.367   5.541
 2676SOL     OW 8926   4.397   0.347   1.747
 2676SOL    HW1 8927   4.415   0.270   1.686
 2676SOL    HW2 8928   4.398   0.432   1.694
 2677SOL     OW 8929   2.293   4.599   2.432
 2677SOL    HW1 8930   2.360   4.573   2.363
 2677SOL    HW2 8931   2.322   4.684   2.476
 2678SOL     OW 8932   1.011   6.259   0.055
 2678SOL    HW1 8933   0.939   6.321   0.086
 2678SOL    HW2 8934   1.096   6.281   0.103
 2679SOL     OW 8935   2.799   4.651   1.103
 2679SOL    HW1 8936   2.752   4.668   1.189
 2679SOL    HW2 8937   2.798   4.553   1.083
 2680SOL     OW 8938   6.811   1.839   0.923
 2680SOL    HW1 8939   6.723   1.871   0.890
 2680SOL    HW2 8940   6.872   1.917   0.938
 2681SOL     OW 8941   1.601   1.752   1.399
 2681SOL    HW1 8942   1.562   1.691   1.331
 2681SOL    HW2 8943   1.537   1.827   1.418
 2682SOL     OW 8944   0.823   2.903   3.596
 2682SOL    HW1 8945   0.884   2.895   3.517
 2682SOL    HW2 8946   0.731   2.925   3.565
 2683SOL     OW 8947   1.782   0.306   0.967
 2683SOL    HW1 8948   1.779   0.323   0.869
 2683SOL    HW2 8949   1.877   0.294   0.996
 2684SOL     OW 8950   3.703   5.053   3.308
 2684SOL    HW1 8951   3.771   4.981   3.320
 2684SOL    HW2 8952   3.711   5.119   3.382
 2685SOL     OW 8953   5.342   4.883   5.586
 2685SOL    HW1 8954   5.395   4.853   5.506
 2685SOL    HW2 8955   5.381   4.969   5.621
 2686SOL     OW 8956   1.313   3.542   4.008
 2686SOL    HW1 8957   1.233   3.482   3.999
 2686SOL    HW2 8958   1.324   3.567   4.105
 2687SOL     OW 8959   4.704   5.361   2.931
 2687SOL    HW1 8960   4.708   5.280   2.874
 2687SOL    HW2 8961   4.620   5.412   2.912
 2688SOL     OW 8962   3.332   4.598   5.482
 2688SOL    HW1 8963   3.268   4.531   5.443
 2688SOL    HW2 8964   3.319   4.686   5.437
 2689SOL     OW 8965   6.320   0.925   4.135
 2689SOL    HW1 8966   6.321   1.024   4.146
 2689SOL    HW2 8967   6.243   0.885   4.184
 2690SOL     OW 8968   3.503   4.073   3.495
 2690SOL    HW1 8969   3.453   4.120   3.423
 2690SOL    HW2 8970   3.465   4.096   3.584
 2691SOL     OW 8971   0.818   6.344   1.378
 2691SOL    HW1 8972   0.893   6.279   1.386
 2691SOL    HW2 8973   0.810   6.397   1.463
 2692SOL     OW 8974   0.144   3.902   4.157
 2692SOL    HW1 8975   0.182   3.834   4.220
 2692SOL    HW2 8976   0.071   3.860   4.102
 2693SOL     OW 8977   1.987   3.502   2.582
 2693SOL    HW1 8978   2.040   3.457   2.510
 2693SOL    HW2 8979   2.047   3.560   2.637
 2694SOL     OW 8980   2.159   1.850   2.742
 2694SOL    HW1 8981   2.178   1.895   2.830
 2694SOL    HW2 8982   2.243   1.845   2.688
 2695SOL     OW 8983   3.826   2.360   1.690
 2695SOL    HW1 8984   3.739   2.329   1.728
 2695SOL    HW2 8985   3.894   2.286   1.697
 2696SOL     OW 8986   3.098   3.383   6.731
 2696SOL    HW1 8987   3.194   3.385   6.757
 2696SOL    HW2 8988   3.078   3.296   6.685
 2697SOL     OW 8989   2.170   1.056   5.247
 2697SOL    HW1 8990   2.249   1.041   5.188
 2697SOL    HW2 8991   2.097   0.992   5.222
 2698SOL     OW 8992   2.079   2.080   0.155
 2698SOL    HW1 8993   2.056   2.149   0.224
 2698SOL    HW2 8994   2.133   2.123   0.082
 2699SOL     OW 8995   1.676   4.215   3.757
 2699SOL    HW1 8996   1.761   4.171   3.785
 2699SOL    HW2 8997   1.609   4.208   3.830
 2700SOL     OW 8998   1.923   4.404   3.432
 2700SOL    HW1 8999   1.866   4.414   3.351
 2700SOL    HW2 9000   1.920   4.489   3.486
 2701SOL     OW 9001   1.077   0.875   4.617
 2701SOL    HW1 9002   1.113   0.962   4.651
 2701SOL    HW2 9003   1.147   0.804   4.626
 2702SOL     OW 9004   6.044   5.627   2.192
 2702SOL    HW1 9005   5.988   5.584   2.122
 2702SOL    HW2 9006   6.026   5.584   2.281
 2703SOL     OW 9007   2.035   3.010   2.362
 2703SOL    HW1 9008   2.090   3.032   2.442
 2703SOL    HW2 9009   2.033   2.911   2.349
 2704SOL     OW 9010   0.572   5.642   0.851
 2704SOL    HW1 9011   0.632   5.666   0.775
 2704SOL    HW2 9012   0.502   5.712   0.861
 2705SOL     OW 9013   0.280   2.795   3.076
 2705SOL    HW1 9014   0.367   2.835   3.105
 2705SOL    HW2 9015   0.214   2.867   3.059
 2706SOL     OW 9016   6.797   1.935   3.252
 2706SOL    HW1 9017   6.723   1.902   3.194
 2706SOL    HW2 9018   6.857   1.994   3.198
 2707SOL     OW 9019   3.563   0.792   0.320
 2707SOL    HW1 9020   3.657   0.766   0.338
 2707SOL    HW2 9021   3.542   0.878   0.367
 2708SOL     OW 9022   1.175   4.556   6.692
 2708SOL    HW1 9023   1.113   4.486   6.656
 2708SOL    HW2 9024   1.123   4.635   6.723
 2709SOL     OW 9025   3.868   0.379   1.693
 2709SOL    HW1 9026   3.880   0.475   1.717
 2709SOL    HW2 9027   3.897   0.321   1.770
 2710SOL     OW 9028   5.743   4.024   3.342
 2710SOL    HW1 9029   5.643   4.028   3.347
 2710SOL    HW2 9030   5.774   4.073   3.260
 2711SOL     OW 9031   6.927   6.504   2.141
 2711SOL    HW1 9032   7.025   6.482   2.135
 2711SOL    HW2 9033   6.875   6.438   2.086
 2712SOL     OW 9034   4.094   5.536   2.877
 2712SOL    HW1 9035   4.119   5.461   2.938
 2712SOL    HW2 9036   4.173   5.596   2.863
 2713SOL     OW 9037   2.674   2.896   5.563
 2713SOL    HW1 9038   2.590   2.947   5.583
 2713SOL    HW2 9039   2.688   2.893   5.464
 2714SOL     OW 9040   5.968   0.305   6.603
 2714SOL    HW1 9041   6.049   0.253   6.631
 2714SOL    HW2 9042   5.903   0.309   6.679
 2715SOL     OW 9043   5.973   6.650   6.210
 2715SOL    HW1 9044   5.956   6.597   6.293
 2715SOL    HW2 9045   6.051   6.711   6.224
 2716SOL     OW 9046   5.977   6.618   1.897
 2716SOL    HW1 9047   6.025   6.530   1.893
 2716SOL    HW2 9048   6.037   6.690   1.863
 2717SOL     OW 9049   6.821   0.034   3.173
 2717SOL    HW1 9050   6.896   7.002   3.203
 2717SOL    HW2 9051   6.859   0.115   3.127
 2718SOL     OW 9052   6.733   3.915   3.278
 2718SOL    HW1 9053   6.784   3.947   3.198
 2718SOL    HW2 9054   6.715   3.992   3.339
 2719SOL     OW 9055   4.828   4.031   3.249
 2719SOL    HW1 9056   4.777   3.946   3.236
 2719SOL    HW2 9057   4.850   4.070   3.159
 2720SOL     OW 9058   0.196   7.025   4.308
 2720SOL    HW1 9059   0.155   0.089   4.320
 2720SOL    HW2 9060   0.176   6.992   4.215
 2721SOL     OW 9061   4.807   6.188   2.329
 2721SOL    HW1 9062   4.761   6.235   2.254
 2721SOL    HW2 9063   4.830   6.253   2.401
 2722SOL     OW 9064   0.602   6.285   2.667
 2722SOL    HW1 9065   0.568   6.348   2.738
 2722SOL    HW2 9066   0.611   6.194   2.706
 2723SOL     OW 9067   2.709   1.842   4.763
 2723SOL    HW1 9068   2.672   1.887   4.682
 2723SOL    HW2 9069   2.807   1.829   4.753
 2724SOL     OW 9070   4.523   5.719   5.788
 2724SOL    HW1 9071   4.491   5.672   5.870
 2724SOL    HW2 9072   4.512   5.659   5.708
 2725SOL     OW 9073   1.740   5.667   2.190
 2725SOL    HW1 9074   1.714   5.574   2.217
 2725SOL    HW2 9075   1.806   5.704   2.255
 2726SOL     OW 9076   4.111   6.229   2.285
 2726SOL    HW1 9077   4.167   6.166   2.338
 2726SOL    HW2 9078   4.031   6.256   2.339
 2727SOL     OW 9079   2.448   5.221   3.973
 2727SOL    HW1 9080   2.529   5.275   3.995
 2727SOL    HW2 9081   2.455   5.131   4.016
 2728SOL     OW 9082   2.248   6.514   5.197
 2728SOL    HW1 9083   2.251   6.614   5.191
 2728SOL    HW2 9084   2.342   6.479   5.203
 2729SOL     OW 9085   6.973   3.715   2.458
 2729SOL    HW1 9086   7.001   3.619   2.461
 2729SOL    HW2 9087   6.874   3.721   2.447
 2730SOL     OW 9088   1.800   2.667   1.584
 2730SOL    HW1 9089   1.735   2.742   1.595
 2730SOL    HW2 9090   1.813   2.621   1.672
 2731SOL     OW 9091   1.444   3.640   5.944
 2731SOL    HW1 9092   1.470   3.616   5.850
 2731SOL    HW2 9093   1.522   3.683   5.990
 2732SOL     OW 9094   5.306   2.965   4.419
 2732SOL    HW1 9095   5.261   2.884   4.383
 2732SOL    HW2 9096   5.403   2.965   4.393
 2733SOL     OW 9097   2.051   0.669   6.642
 2733SOL    HW1 9098   1.977   0.701   6.701
 2733SOL    HW2 9099   2.013   0.615   6.567
 2734SOL     OW 9100   2.532   6.981   3.916
 2734SOL    HW1 9101   2.580   7.019   3.995
 2734SOL    HW2 9102   2.465   0.021   3.883
 2735SOL     OW 9103   1.276   6.230   0.959
 2735SOL    HW1 9104   1.295   6.194   1.050
 2735SOL    HW2 9105   1.326   6.176   0.891
 2736SOL     OW 9106   4.245   0.359   6.854
 2736SOL    HW1 9107   4.213   0.265   6.841
 2736SOL    HW2 9108   4.299   0.386   6.775
 2737SOL     OW 9109   4.240   3.700   5.297
 2737SOL    HW1 9110   4.215   3.642   5.220
 2737SOL    HW2 9111   4.340   3.711   5.300
 2738SOL     OW 9112   0.714   3.838   5.523
 2738SOL    HW1 9113   0.811   3.850   5.499
 2738SOL    HW2 9114   0.706   3.816   5.620
 2739SOL     OW 9115   3.683   4.217   6.878
 2739SOL    HW1 9116   3.639   4.275   6.809
 2739SOL    HW2 9117   3.702   4.271   6.960
 2740SOL     OW 9118   6.358   2.750   4.913
 2740SOL    HW1 9119   6.262   2.778   4.916
 2740SOL    HW2 9120   6.367   2.666   4.860
 2741SOL     OW 9121   2.427   3.066   6.224
 2741SOL    HW1 9122   2.453   2.970   6.223
 2741SOL    HW2 9123   2.373   3.087   6.143
 2742SOL     OW 9124   2.530   5.924   4.456
 2742SOL    HW1 9125   2.495   5.870   4.533
 2742SOL    HW2 9126   2.629   5.909   4.447
 2743SOL     OW 9127   5.689   3.857   6.641
 2743SOL    HW1 9128   5.734   3.906   6.566
 2743SOL    HW2 9129   5.633   3.783   6.605
 2744SOL     OW 9130   4.844   6.412   1.135
 2744SOL    HW1 9131   4.936   6.394   1.099
 2744SOL    HW2 9132   4.823   6.510   1.125
 2745SOL     OW 9133   3.646   5.372   3.151
 2745SOL    HW1 9134   3.576   5.326   3.205
 2745SOL    HW2 9135   3.681   5.309   3.082
 2746SOL     OW 9136   1.331   2.628   0.082
 2746SOL    HW1 9137   1.255   2.693   0.086
 2746SOL    HW2 9138   1.330   2.581   7.021
 2747SOL     OW 9139   4.601   6.466   3.576
 2747SOL    HW1 9140   4.551   6.488   3.659
 2747SOL    HW2 9141   4.671   6.535   3.560
 2748SOL     OW 9142   5.807   0.568   4.934
 2748SOL    HW1 9143   5.730   0.508   4.951
 2748SOL    HW2 9144   5.808   0.641   5.002
 2749SOL     OW 9145   6.614   5.280   2.602
 2749SOL    HW1 9146   6.632   5.306   2.697
 2749SOL    HW2 9147   6.609   5.363   2.546
 2750SOL     OW 9148   0.744   0.891   0.378
 2750SOL    HW1 9149   0.815   0.960   0.398
 2750SOL    HW2 9150   0.778   0.800   0.403
 2751SOL     OW 9151   0.755   0.388   0.056
 2751SOL    HW1 9152   0.720   0.465   0.110
 2751SOL    HW2 9153   0.855   0.392   0.054
 2752SOL     OW 9154   0.579   6.898   5.889
 2752SOL    HW1 9155   0.676   6.875   5.878
 2752SOL    HW2 9156   0.526   6.813   5.897
 2753SOL     OW 9157   3.024   5.673   4.432
 2753SOL    HW1 9158   3.015   5.579   4.401
 2753SOL    HW2 9159   3.025   5.734   4.353
 2754SOL     OW 9160   0.847   5.389   4.132
 2754SOL    HW1 9161   0.809   5.342   4.212
 2754SOL    HW2 9162   0.857   5.324   4.057
 2755SOL     OW 9163   4.178   7.020   2.545
 2755SOL    HW1 9164   4.131   0.066   2.496
 2755SOL    HW2 9165   4.240   6.972   2.483
 2756SOL     OW 9166   0.244   2.693   5.038
 2756SOL    HW1 9167   0.258   2.595   5.052
 2756SOL    HW2 9168   0.146   2.712   5.034
 2757SOL     OW 9169   5.480   3.878   5.186
 2757SOL    HW1 9170   5.455   3.964   5.143
 2757SOL    HW2 9171   5.551   3.833   5.132
 2758SOL     OW 9172   0.141   6.368   1.246
 2758SOL    HW1 9173   0.106   6.363   1.340
 2758SOL    HW2 9174   0.076   6.417   1.189
 2759SOL     OW 9175   4.047   3.874   4.188
 2759SOL    HW1 9176   4.142   3.848   4.199
 2759SOL    HW2 9177   4.021   3.938   4.261
 2760SOL     OW 9178   5.167   6.050   3.175
 2760SOL    HW1 9179   5.196   6.135   3.131
 2760SOL    HW2 9180   5.075   6.026   3.145
 2761SOL     OW 9181   2.154   3.511   4.009
 2761SOL    HW1 9182   2.230   3.458   3.971
 2761SOL    HW2 9183   2.079   3.450   4.032
 2762SOL     OW 9184   4.569   1.891   2.677
 2762SOL    HW1 9185   4.487   1.926   2.633
 2762SOL    HW2 9186   4.547   1.807   2.726
 2763SOL     OW 9187   5.155   0.469   3.106
 2763SOL    HW1 9188   5.199   0.553   3.136
 2763SOL    HW2 9189   5.209   0.390   3.136
 2764SOL     OW 9190   0.221   1.597   2.785
 2764SOL    HW1 9191   0.192   1.546   2.866
 2764SOL    HW2 9192   0.181   1.688   2.787
 2765SOL     OW 9193   6.693   6.847   6.658
 2765SOL    HW1 9194   6.706   6.809   6.750
 2765SOL    HW2 9195   6.744   6.792   6.592
 2766SOL     OW 9196   5.148   0.121   6.996
 2766SOL    HW1 9197   5.194   0.198   0.013
 2766SOL    HW2 9198   5.160   0.127   6.897
 2767SOL     OW 9199   6.652   6.625   6.865
 2767SOL    HW1 9200   6.632   6.603   6.960
 2767SOL    HW2 9201   6.707   6.551   6.825
 2768SOL     OW 9202   4.386   0.529   1.550
 2768SOL    HW1 9203   4.457   0.465   1.521
 2768SOL    HW2 9204   4.306   0.520   1.490
 2769SOL     OW 9205   0.841   5.115   5.986
 2769SOL    HW1 9206   0.800   5.139   5.898
 2769SOL    HW2 9207   0.889   5.027   5.977
 2770SOL     OW 9208   1.498   6.682   0.057
 2770SOL    HW1 9209   1.462   6.744   7.014
 2770SOL    HW2 9210   1.423   6.631   0.100
 2771SOL     OW 9211   4.271   6.432   5.759
 2771SOL    HW1 9212   4.346   6.497   5.771
 2771SOL    HW2 9213   4.293   6.345   5.803
 2772SOL     OW 9214   6.367   2.219   3.276
 2772SOL    HW1 9215   6.301   2.159   3.231
 2772SOL    HW2 9216   6.459   2.182   3.264
 2773SOL     OW 9217   4.346   0.559   5.954
 2773SOL    HW1 9218   4.285   0.526   6.026
 2773SOL    HW2 9219   4.440   0.559   5.988
 2774SOL     OW 9220   6.085   6.754   3.916
 2774SOL    HW1 9221   6.132   6.837   3.885
 2774SOL    HW2 9222   6.142   6.674   3.896
 2775SOL     OW 9223   0.215   2.445   4.366
 2775SOL    HW1 9224   0.198   2.541   4.386
 2775SOL    HW2 9225   0.191   2.390   4.446
 2776SOL     OW 9226   5.086   3.992   6.067
 2776SOL    HW1 9227   5.131   3.910   6.032
 2776SOL    HW2 9228   5.088   4.064   5.997
 2777SOL     OW 9229   1.652   1.918   1.103
 2777SOL    HW1 9230   1.673   1.882   1.012
 2777SOL    HW2 9231   1.702   1.866   1.172
 2778SOL     OW 9232   2.517   6.394   5.196
 2778SOL    HW1 9233   2.600   6.445   5.217
 2778SOL    HW2 9234   2.536   6.296   5.200
 2779SOL     OW 9235   5.329   1.399   3.530
 2779SOL    HW1 9236   5.383   1.317   3.512
 2779SOL    HW2 9237   5.323   1.413   3.629
 2780SOL     OW 9238   0.742   6.764   5.495
 2780SOL    HW1 9239   0.768   6.845   5.549
 2780SOL    HW2 9240   0.724   6.791   5.401
 2781SOL     OW 9241   6.807   6.774   2.817
 2781SOL    HW1 9242   6.878   6.757   2.885
 2781SOL    HW2 9243   6.837   6.846   2.754
 2782SOL     OW 9244   5.571   6.380   4.968
 2782SOL    HW1 9245   5.494   6.317   4.955
 2782SOL    HW2 9246   5.579   6.441   4.889
 2783SOL     OW 9247   0.339   1.911   2.239
 2783SOL    HW1 9248   0.349   1.990   2.179
 2783SOL    HW2 9249   0.398   1.922   2.320
 2784SOL     OW 9250   1.037   1.839   2.561
 2784SOL    HW1 9251   0.987   1.924   2.577
 2784SOL    HW2 9252   0.981   1.762   2.591
 2785SOL     OW 9253   5.509   3.361   3.751
 2785SOL    HW1 9254   5.540   3.446   3.708
 2785SOL    HW2 9255   5.420   3.375   3.793
 2786SOL     OW 9256   0.442   6.312   1.514
 2786SOL    HW1 9257   0.438   6.212   1.520
 2786SOL    HW2 9258   0.519   6.345   1.568
 2787SOL     OW 9259   0.076   6.835   5.238
 2787SOL    HW1 9260   0.099   6.842   5.336
 2787SOL    HW2 9261   0.088   6.741   5.208
 2788SOL     OW 9262   3.029   6.585   5.850
 2788SOL    HW1 9263   3.058   6.489   5.854
 2788SOL    HW2 9264   3.022   6.614   5.755
 2789SOL     OW 9265   2.401   2.266   4.398
 2789SOL    HW1 9266   2.322   2.311   4.354
 2789SOL    HW2 9267   2.373   2.176   4.431
 2790SOL     OW 9268   1.318   4.786   0.590
 2790SOL    HW1 9269   1.330   4.729   0.671
 2790SOL    HW2 9270   1.222   4.787   0.564
 2791SOL     OW 9271   0.805   4.389   5.543
 2791SOL    HW1 9272   0.843   4.479   5.521
 2791SOL    HW2 9273   0.770   4.390   5.637
 2792SOL     OW 9274   2.553   2.690   0.148
 2792SOL    HW1 9275   2.650   2.692   0.127
 2792SOL    HW2 9276   2.506   2.633   0.080
 2793SOL     OW 9277   3.807   3.644   5.977
 2793SOL    HW1 9278   3.834   3.600   5.891
 2793SOL    HW2 9279   3.875   3.621   6.047
 2794SOL     OW 9280   1.561   1.602   0.357
 2794SOL    HW1 9281   1.637   1.579   0.296
 2794SOL    HW2 9282   1.485   1.640   0.304
 2795SOL     OW 9283   0.818   0.661   0.485
 2795SOL    HW1 9284   0.901   0.605   0.496
 2795SOL    HW2 9285   0.760   0.650   0.565
 2796SOL     OW 9286   2.931   6.066   6.572
 2796SOL    HW1 9287   2.856   6.051   6.508
 2796SOL    HW2 9288   2.956   5.979   6.615
 2797SOL     OW 9289   5.064   3.922   5.316
 2797SOL    HW1 9290   5.114   3.937   5.231
 2797SOL    HW2 9291   5.100   3.841   5.362
 2798SOL     OW 9292   5.855   2.399   2.449
 2798SOL    HW1 9293   5.877   2.367   2.540
 2798SOL    HW2 9294   5.891   2.492   2.436
 2799SOL     OW 9295   3.683   0.444   4.204
 2799SOL    HW1 9296   3.642   0.380   4.139
 2799SOL    HW2 9297   3.712   0.394   4.286
 2800SOL     OW 9298   5.028   1.515   0.740
 2800SOL    HW1 9299   4.933   1.531   0.767
 2800SOL    HW2 9300   5.089   1.546   0.813
 2801SOL     OW 9301   0.297   4.206   3.133
 2801SOL    HW1 9302   0.205   4.237   3.158
 2801SOL    HW2 9303   0.326   4.135   3.198
 2802SOL     OW 9304   2.141   4.009   4.507
 2802SOL    HW1 9305   2.057   3.984   4.554
 2802SOL    HW2 9306   2.207   4.044   4.573
 2803SOL     OW 9307   2.819   2.693   0.017
 2803SOL    HW1 9308   2.761   2.741   6.978
 2803SOL    HW2 9309   2.872   2.622   6.995
 2804SOL     OW 9310   5.630   2.551   3.747
 2804SOL    HW1 9311   5.664   2.473   3.695
 2804SOL    HW2 9312   5.585   2.615   3.686
 2805SOL     OW 9313   3.465   5.665   6.981
 2805SOL    HW1 9314   3.516   5.584   7.009
 2805SOL    HW2 9315   3.409   5.643   6.901
 2806SOL     OW 9316   1.308   3.295   5.012
 2806SOL    HW1 9317   1.371   3.322   4.939
 2806SOL    HW2 9318   1.278   3.377   5.061
 2807SOL     OW 9319   5.211   0.987   3.748
 2807SOL    HW1 9320   5.112   1.001   3.754
 2807SOL    HW2 9321   5.237   0.911   3.808
 2808SOL     OW 9322   0.666   6.861   6.944
 2808SOL    HW1 9323   0.699   6.955   6.952
 2808SOL    HW2 9324   0.580   6.851   6.995
 2809SOL     OW 9325   0.681   6.014   0.713
 2809SOL    HW1 9326   0.628   6.066   0.646
 2809SOL    HW2 9327   0.695   6.071   0.794
 2810SOL     OW 9328   6.842   6.104   2.563
 2810SOL    HW1 9329   6.941   6.102   2.577
 2810SOL    HW2 9330   6.796   6.071   2.645
 2811SOL     OW 9331   0.390   0.007   0.272
 2811SOL    HW1 9332   0.450   6.962   0.308
 2811SOL    HW2 9333   0.301   6.994   0.249
 2812SOL     OW 9334   1.924   0.347   0.504
 2812SOL    HW1 9335   1.930   0.420   0.437
 2812SOL    HW2 9336   2.003   0.286   0.494
 2813SOL     OW 9337   5.384   2.365   2.231
 2813SOL    HW1 9338   5.458   2.397   2.171
 2813SOL    HW2 9339   5.421   2.300   2.298
 2814SOL     OW 9340   2.294   4.458   6.893
 2814SOL    HW1 9341   2.209   4.407   6.910
 2814SOL    HW2 9342   2.367   4.422   6.950
 2815SOL     OW 9343   6.327   6.031   4.951
 2815SOL    HW1 9344   6.341   6.096   4.876
 2815SOL    HW2 9345   6.366   5.942   4.926
 2816SOL     OW 9346   0.968   5.286   5.378
 2816SOL    HW1 9347   0.879   5.259   5.343
 2816SOL    HW2 9348   1.040   5.231   5.336
 2817SOL     OW 9349   2.875   0.653   0.951
 2817SOL    HW1 9350   2.824   0.572   0.983
 2817SOL    HW2 9351   2.973   0.633   0.952
 2818SOL     OW 9352   1.756   0.220   0.306
 2818SOL    HW1 9353   1.840   0.208   0.252
 2818SOL    HW2 9354   1.777   0.205   0.403
 2819SOL     OW 9355   6.517   0.698   0.004
 2819SOL    HW1 9356   6.455   0.723   6.957
 2819SOL    HW2 9357   6.553   0.781   0.047
 2820SOL     OW 9358   1.663   1.801   0.022
 2820SOL    HW1 9359   1.754   1.843   0.016
 2820SOL    HW2 9360   1.594   1.866   7.016
 2821SOL     OW 9361   4.298   2.691   5.972
 2821SOL    HW1 9362   4.352   2.729   6.047
 2821SOL    HW2 9363   4.282   2.593   5.989
 2822SOL     OW 9364   4.151   3.965   1.354
 2822SOL    HW1 9365   4.067   3.924   1.389
 2822SOL    HW2 9366   4.228   3.936   1.411
 2823SOL     OW 9367   5.221   4.260   4.004
 2823SOL    HW1 9368   5.277   4.263   4.087
 2823SOL    HW2 9369   5.280   4.246   3.924
 2824SOL     OW 9370   0.777   4.856   5.650
 2824SOL    HW1 9371   0.744   4.944   5.616
 2824SOL    HW2 9372   0.847   4.871   5.719
 2825SOL     OW 9373   4.733   2.193   5.547
 2825SOL    HW1 9374   4.761   2.178   5.641
 2825SOL    HW2 9375   4.734   2.291   5.527
 2826SOL     OW 9376   2.848   2.512   6.104
 2826SOL    HW1 9377   2.935   2.559   6.119
 2826SOL    HW2 9378   2.837   2.439   6.172
 2827SOL     OW 9379   0.004   2.061   0.624
 2827SOL    HW1 9380   0.035   2.155   0.643
 2827SOL    HW2 9381   0.026   2.037   0.530
 2828SOL     OW 9382   2.006   3.693   6.942
 2828SOL    HW1 9383   2.008   3.784   6.983
 2828SOL    HW2 9384   2.098   3.668   6.911
 2829SOL     OW 9385   3.368   4.515   0.882
 2829SOL    HW1 9386   3.455   4.477   0.914
 2829SOL    HW2 9387   3.360   4.502   0.783
 2830SOL     OW 9388   2.597   5.166   4.591
 2830SOL    HW1 9389   2.533   5.108   4.641
 2830SOL    HW2 9390   2.595   5.259   4.629
 2831SOL     OW 9391   5.606   2.177   2.116
 2831SOL    HW1 9392   5.544   2.206   2.043
 2831SOL    HW2 9393   5.669   2.252   2.136
 2832SOL     OW 9394   1.676   2.939   1.248
 2832SOL    HW1 9395   1.684   2.990   1.162
 2832SOL    HW2 9396   1.664   3.003   1.324
 2833SOL     OW 9397   6.570   2.277   2.848
 2833SOL    HW1 9398   6.612   2.368   2.846
 2833SOL    HW2 9399   6.481   2.282   2.893
 2834SOL     OW 9400   2.872   0.014   4.025
 2834SOL    HW1 9401   2.803   0.081   4.053
 2834SOL    HW2 9402   2.845   6.950   4.058
 2835SOL     OW 9403   6.332   1.362   0.404
 2835SOL    HW1 9404   6.426   1.394   0.413
 2835SOL    HW2 9405   6.325   1.271   0.445
 2836SOL     OW 9406   2.554   6.393   2.113
 2836SOL    HW1 9407   2.551   6.465   2.182
 2836SOL    HW2 9408   2.507   6.312   2.147
 2837SOL     OW 9409   4.859   4.825   3.495
 2837SOL    HW1 9410   4.921   4.897   3.525
 2837SOL    HW2 9411   4.883   4.739   3.540
 2838SOL     OW 9412   0.148   5.771   6.166
 2838SOL    HW1 9413   0.074   5.728   6.114
 2838SOL    HW2 9414   0.175   5.856   6.121
 2839SOL     OW 9415   5.797   2.409   6.605
 2839SOL    HW1 9416   5.833   2.465   6.680
 2839SOL    HW2 9417   5.839   2.318   6.609
 2840SOL     OW 9418   6.396   5.748   4.914
 2840SOL    HW1 9419   6.352   5.701   4.838
 2840SOL    HW2 9420   6.334   5.748   4.993
 2841SOL     OW 9421   5.650   3.452   2.926
 2841SOL    HW1 9422   5.566   3.506   2.941
 2841SOL    HW2 9423   5.645   3.367   2.978
 2842SOL     OW 9424   1.474   6.125   3.900
 2842SOL    HW1 9425   1.430   6.169   3.821
 2842SOL    HW2 9426   1.464   6.025   3.892
 2843SOL     OW 9427   1.074   2.738   3.879
 2843SOL    HW1 9428   1.121   2.745   3.791
 2843SOL    HW2 9429   0.980   2.705   3.864
 2844SOL     OW 9430   5.473   3.954   0.963
 2844SOL    HW1 9431   5.563   3.998   0.969
 2844SOL    HW2 9432   5.439   3.960   0.869
 2845SOL     OW 9433   3.167   1.641   1.362
 2845SOL    HW1 9434   3.111   1.683   1.290
 2845SOL    HW2 9435   3.114   1.632   1.445
 2846SOL     OW 9436   5.874   0.771   6.087
 2846SOL    HW1 9437   5.835   0.773   6.179
 2846SOL    HW2 9438   5.811   0.816   6.023
 2847SOL     OW 9439   6.401   4.895   2.529
 2847SOL    HW1 9440   6.427   4.818   2.587
 2847SOL    HW2 9441   6.383   4.976   2.586
 2848SOL     OW 9442   6.682   3.890   6.977
 2848SOL    HW1 9443   6.654   3.962   0.014
 2848SOL    HW2 9444   6.772   3.855   7.005
 2849SOL     OW 9445   5.184   1.078   0.468
 2849SOL    HW1 9446   5.244   1.038   0.537
 2849SOL    HW2 9447   5.151   1.167   0.501
 2850SOL     OW 9448   6.784   0.858   0.973
 2850SOL    HW1 9449   6.756   0.921   0.901
 2850SOL    HW2 9450   6.733   0.879   1.057
 2851SOL     OW 9451   3.419   2.887   2.362
 2851SOL    HW1 9452   3.356   2.859   2.290
 2851SOL    HW2 9453   3.369   2.938   2.432
 2852SOL     OW 9454   1.565   4.856   4.843
 2852SOL    HW1 9455   1.607   4.773   4.808
 2852SOL    HW2 9456   1.629   4.903   4.903
 2853SOL     OW 9457   6.647   5.082   5.508
 2853SOL    HW1 9458   6.607   5.152   5.567
 2853SOL    HW2 9459   6.745   5.075   5.527
 2854SOL     OW 9460   3.107   0.772   0.259
 2854SOL    HW1 9461   3.098   0.835   0.182
 2854SOL    HW2 9462   3.199   0.734   0.261
 2855SOL     OW 9463   2.953   1.959   4.305
 2855SOL    HW1 9464   2.925   2.055   4.297
 2855SOL    HW2 9465   3.047   1.955   4.338
 2856SOL     OW 9466   1.170   5.333   4.613
 2856SOL    HW1 9467   1.150   5.272   4.689
 2856SOL    HW2 9468   1.224   5.285   4.544
 2857SOL     OW 9469   0.906   4.300   0.169
 2857SOL    HW1 9470   0.892   4.367   0.242
 2857SOL    HW2 9471   0.960   4.342   0.096
 2858SOL     OW 9472   5.134   4.733   4.319
 2858SOL    HW1 9473   5.090   4.644   4.312
 2858SOL    HW2 9474   5.065   4.804   4.331
 2859SOL     OW 9475   0.393   4.679   1.979
 2859SOL    HW1 9476   0.417   4.741   1.904
 2859SOL    HW2 9477   0.333   4.726   2.044
 2860SOL     OW 9478   1.142   6.378   2.039
 2860SOL    HW1 9479   1.221   6.385   2.100
 2860SOL    HW2 9480   1.100   6.468   2.029
 2861SOL     OW 9481   6.112   2.710   5.200
 2861SOL    HW1 9482   6.114   2.764   5.115
 2861SOL    HW2 9483   6.098   2.771   5.278
 2862SOL     OW 9484   4.133   1.228   1.136
 2862SOL    HW1 9485   4.134   1.224   1.036
 2862SOL    HW2 9486   4.066   1.297   1.166
 2863SOL     OW 9487   5.349   1.641   6.125
 2863SOL    HW1 9488   5.398   1.596   6.051
 2863SOL    HW2 9489   5.361   1.740   6.119
 2864SOL     OW 9490   4.761   4.178   0.249
 2864SOL    HW1 9491   4.708   4.094   0.232
 2864SOL    HW2 9492   4.708   4.257   0.218
 2865SOL     OW 9493   5.250   4.401   6.714
 2865SOL    HW1 9494   5.282   4.484   6.666
 2865SOL    HW2 9495   5.170   4.364   6.666
 2866SOL     OW 9496   5.198   6.061   0.464
 2866SOL    HW1 9497   5.161   6.150   0.438
 2866SOL    HW2 9498   5.296   6.060   0.447
 2867SOL     OW 9499   0.829   6.266   3.341
 2867SOL    HW1 9500   0.857   6.170   3.341
 2867SOL    HW2 9501   0.730   6.272   3.357
 2868SOL     OW 9502   6.089   6.519   5.195
 2868SOL    HW1 9503   6.152   6.526   5.272
 2868SOL    HW2 9504   6.007   6.469   5.223
 2869SOL     OW 9505   5.993   4.353   5.509
 2869SOL    HW1 9506   5.986   4.432   5.449
 2869SOL    HW2 9507   6.020   4.383   5.601
 2870SOL     OW 9508   0.275   1.376   1.624
 2870SOL    HW1 9509   0.285   1.387   1.525
 2870SOL    HW2 9510   0.298   1.282   1.651
 2871SOL     OW 9511   5.016   1.660   3.332
 2871SOL    HW1 9512   4.983   1.647   3.238
 2871SOL    HW2 9513   4.939   1.683   3.391
 2872SOL     OW 9514   3.332   1.111   2.354
 2872SOL    HW1 9515   3.258   1.165   2.393
 2872SOL    HW2 9516   3.374   1.162   2.279
 2873SOL     OW 9517   0.379   0.458   2.452
 2873SOL    HW1 9518   0.444   0.418   2.386
 2873SOL    HW2 9519   0.421   0.459   2.543
 2874SOL     OW 9520   0.738   0.128   2.018
 2874SOL    HW1 9521   0.711   0.213   2.063
 2874SOL    HW2 9522   0.825   0.141   1.970
 2875SOL     OW 9523   3.424   0.844   2.336
 2875SOL    HW1 9524   3.393   0.939   2.334
 2875SOL    HW2 9525   3.378   0.795   2.409
 2876SOL     OW 9526   0.947   0.323   0.308
 2876SOL    HW1 9527   0.980   0.413   0.280
 2876SOL    HW2 9528   0.976   0.304   0.402
 2877SOL     OW 9529   1.496   2.764   6.234
 2877SOL    HW1 9530   1.411   2.725   6.198
 2877SOL    HW2 9531   1.517   2.724   6.322
 2878SOL     OW 9532   3.948   4.005   4.423
 2878SOL    HW1 9533   3.881   4.058   4.476
 2878SOL    HW2 9534   3.961   3.916   4.466
 2879SOL     OW 9535   0.048   0.080   0.566
 2879SOL    HW1 9536   0.068   0.145   0.492
 2879SOL    HW2 9537   7.022   0.126   0.637
 2880SOL     OW 9538   1.633   1.049   2.099
 2880SOL    HW1 9539   1.684   1.112   2.041
 2880SOL    HW2 9540   1.688   1.025   2.179
 2881SOL     OW 9541   5.299   5.538   0.196
 2881SOL    HW1 9542   5.242   5.584   0.263
 2881SOL    HW2 9543   5.266   5.558   0.104
 2882SOL     OW 9544   4.590   6.265   0.485
 2882SOL    HW1 9545   4.569   6.183   0.432
 2882SOL    HW2 9546   4.512   6.327   0.482
 2883SOL     OW 9547   5.464   5.818   2.946
 2883SOL    HW1 9548   5.428   5.753   3.012
 2883SOL    HW2 9549   5.411   5.813   2.861
 2884SOL     OW 9550   5.704   4.926   3.207
 2884SOL    HW1 9551   5.786   4.872   3.191
 2884SOL    HW2 9552   5.712   4.977   3.293
 2885SOL     OW 9553   0.205   4.936   3.745
 2885SOL    HW1 9554   0.135   4.970   3.807
 2885SOL    HW2 9555   0.219   5.002   3.671
 2886SOL     OW 9556   1.801   4.631   5.247
 2886SOL    HW1 9557   1.860   4.573   5.304
 2886SOL    HW2 9558   1.828   4.621   5.151
 2887SOL     OW 9559   0.481   4.580   2.483
 2887SOL    HW1 9560   0.402   4.541   2.434
 2887SOL    HW2 9561   0.532   4.507   2.528
 2888SOL     OW 9562   4.372   6.022   6.785
 2888SOL    HW1 9563   4.324   6.091   6.732
 2888SOL    HW2 9564   4.438   5.975   6.727
 2889SOL     OW 9565   4.374   4.986   3.475
 2889SOL    HW1 9566   4.452   4.946   3.522
 2889SOL    HW2 9567   4.404   5.066   3.423
 2890SOL     OW 9568   1.706   1.776   0.858
 2890SOL    HW1 9569   1.648   1.694   0.851
 2890SOL    HW2 9570   1.725   1.811   0.766
 2891SOL     OW 9571   1.851   1.612   5.241
 2891SOL    HW1 9572   1.784   1.606   5.167
 2891SOL    HW2 9573   1.920   1.680   5.218
 2892SOL     OW 9574   5.730   4.473   2.143
 2892SOL    HW1 9575   5.745   4.572   2.148
 2892SOL    HW2 9576   5.769   4.430   2.225
 2893SOL     OW 9577   6.621   6.006   4.928
 2893SOL    HW1 9578   6.562   6.027   4.850
 2893SOL    HW2 9579   6.616   6.080   4.994
 2894SOL     OW 9580   1.738   5.521   1.204
 2894SOL    HW1 9581   1.638   5.515   1.215
 2894SOL    HW2 9582   1.760   5.591   1.136
 2895SOL     OW 9583   4.859   6.231   5.998
 2895SOL    HW1 9584   4.794   6.307   6.005
 2895SOL    HW2 9585   4.847   6.185   5.911
 2896SOL     OW 9586   6.617   0.648   6.649
 2896SOL    HW1 9587   6.555   0.674   6.723
 2896SOL    HW2 9588   6.712   0.658   6.679
 2897SOL     OW 9589   3.156   5.895   3.614
 2897SOL    HW1 9590   3.145   5.878   3.516
 2897SOL    HW2 9591   3.117   5.818   3.665
 2898SOL     OW 9592   5.362   3.038   2.770
 2898SOL    HW1 9593   5.411   3.093   2.702
 2898SOL    HW2 9594   5.428   2.989   2.827
 2899SOL     OW 9595   5.919   3.115   1.335
 2899SOL    HW1 9596   5.875   3.026   1.342
 2899SOL    HW2 9597   6.012   3.110   1.371
 2900SOL     OW 9598   3.268   3.114   4.662
 2900SOL    HW1 9599   3.293   3.204   4.627
 2900SOL    HW2 9600   3.343   3.050   4.647
 2901SOL     OW 9601   1.566   2.206   1.702
 2901SOL    HW1 9602   1.662   2.226   1.722
 2901SOL    HW2 9603   1.520   2.176   1.786
 2902SOL     OW 9604   5.051   6.388   3.433
 2902SOL    HW1 9605   5.075   6.485   3.425
 2902SOL    HW2 9606   5.033   6.350   3.342
 2903SOL     OW 9607   0.744   4.854   2.254
 2903SOL    HW1 9608   0.700   4.832   2.341
 2903SOL    HW2 9609   0.702   4.937   2.216
 2904SOL     OW 9610   3.775   4.962   4.359
 2904SOL    HW1 9611   3.851   4.947   4.296
 2904SOL    HW2 9612   3.805   4.941   4.452
 2905SOL     OW 9613   2.100   3.771   1.321
 2905SOL    HW1 9614   2.185   3.823   1.336
 2905SOL    HW2 9615   2.093   3.700   1.391
 2906SOL     OW 9616   6.284   6.526   6.157
 2906SOL    HW1 9617   6.238   6.448   6.199
 2906SOL    HW2 9618   6.376   6.498   6.127
 2907SOL     OW 9619   0.501   1.684   6.577
 2907SOL    HW1 9620   0.595   1.650   6.581
 2907SOL    HW2 9621   0.448   1.644   6.651
 2908SOL     OW 9622   3.290   5.822   3.920
 2908SOL    HW1 9623   3.244   5.898   3.875
 2908SOL    HW2 9624   3.360   5.784   3.859
 2909SOL     OW 9625   6.915   6.303   0.707
 2909SOL    HW1 9626   6.986   6.368   0.679
 2909SOL    HW2 9627   6.957   6.229   0.761
 2910SOL     OW 9628   1.631   0.114   3.655
 2910SOL    HW1 9629   1.672   0.029   3.620
 2910SOL    HW2 9630   1.555   0.092   3.716
 2911SOL     OW 9631   6.254   3.395   3.630
 2911SOL    HW1 9632   6.266   3.321   3.697
 2911SOL    HW2 9633   6.208   3.358   3.549
 2912SOL     OW 9634   0.026   1.273   3.013
 2912SOL    HW1 9635   6.990   1.293   3.088
 2912SOL    HW2 9636   7.007   1.215   2.946
 2913SOL     OW 9637   0.760   6.674   4.335
 2913SOL    HW1 9638   0.699   6.753   4.329
 2913SOL    HW2 9639   0.842   6.698   4.387
 2914SOL     OW 9640   3.698   4.681   0.651
 2914SOL    HW1 9641   3.767   4.628   0.702
 2914SOL    HW2 9642   3.738   4.711   0.565
 2915SOL     OW 9643   1.915   6.544   3.300
 2915SOL    HW1 9644   1.939   6.582   3.389
 2915SOL    HW2 9645   1.892   6.619   3.237
 2916SOL     OW 9646   0.005   6.415   6.952
 2916SOL    HW1 9647   0.001   6.470   0.009
 2916SOL    HW2 9648   0.088   6.437   6.901
 2917SOL     OW 9649   2.527   1.950   4.208
 2917SOL    HW1 9650   2.601   1.883   4.199
 2917SOL    HW2 9651   2.552   2.033   4.157
 2918SOL     OW 9652   5.152   0.830   1.183
 2918SOL    HW1 9653   5.169   0.740   1.145
 2918SOL    HW2 9654   5.214   0.896   1.140
 2919SOL     OW 9655   1.113   4.996   5.622
 2919SOL    HW1 9656   1.105   5.085   5.667
 2919SOL    HW2 9657   1.172   4.937   5.676
 2920SOL     OW 9658   2.721   2.641   1.571
 2920SOL    HW1 9659   2.783   2.719   1.577
 2920SOL    HW2 9660   2.771   2.557   1.590
 2921SOL     OW 9661   0.084   4.545   3.097
 2921SOL    HW1 9662   0.163   4.578   3.149
 2921SOL    HW2 9663   0.007   4.608   3.110
 2922SOL     OW 9664   3.819   5.483   3.898
 2922SOL    HW1 9665   3.821   5.546   3.821
 2922SOL    HW2 9666   3.863   5.525   3.978
 2923SOL     OW 9667   1.668   4.728   3.903
 2923SOL    HW1 9668   1.628   4.768   3.820
 2923SOL    HW2 9669   1.691   4.632   3.886
 2924SOL     OW 9670   4.338   2.315   0.118
 2924SOL    HW1 9671   4.424   2.292   0.071
 2924SOL    HW2 9672   4.305   2.235   0.168
 2925SOL     OW 9673   5.578   6.374   4.552
 2925SOL    HW1 9674   5.603   6.449   4.491
 2925SOL    HW2 9675   5.484   6.346   4.533
 2926SOL     OW 9676   6.907   2.640   5.269
 2926SOL    HW1 9677   6.879   2.720   5.322
 2926SOL    HW2 9678   6.920   2.666   5.173
 2927SOL     OW 9679   1.707   2.213   3.013
 2927SOL    HW1 9680   1.736   2.216   2.918
 2927SOL    HW2 9681   1.784   2.239   3.072
 2928SOL     OW 9682   5.187   4.760   6.926
 2928SOL    HW1 9683   5.097   4.720   6.942
 2928SOL    HW2 9684   5.177   4.850   6.885
 2929SOL     OW 9685   1.764   0.951   2.330
 2929SOL    HW1 9686   1.750   1.026   2.395
 2929SOL    HW2 9687   1.845   0.969   2.275
 2930SOL     OW 9688   0.983   3.071   3.721
 2930SOL    HW1 9689   0.971   3.043   3.816
 2930SOL    HW2 9690   0.950   2.998   3.661
 2931SOL     OW 9691   5.451   4.547   5.958
 2931SOL    HW1 9692   5.440   4.560   5.860
 2931SOL    HW2 9693   5.435   4.451   5.981
 2932SOL     OW 9694   6.136   6.918   0.411
 2932SOL    HW1 9695   6.203   6.906   0.485
 2932SOL    HW2 9696   6.109   6.828   0.376
 2933SOL     OW 9697   0.363   1.080   6.542
 2933SOL    HW1 9698   0.459   1.108   6.544
 2933SOL    HW2 9699   0.352   0.995   6.593
 2934SOL     OW 9700   4.993   5.501   2.636
 2934SOL    HW1 9701   5.023   5.578   2.579
 2934SOL    HW2 9702   5.072   5.459   2.679
 2935SOL     OW 9703   0.294   4.680   6.116
 2935SOL    HW1 9704   0.322   4.675   6.212
 2935SOL    HW2 9705   0.207   4.727   6.109
 2936SOL     OW 9706   4.849   6.364   2.523
 2936SOL    HW1 9707   4.782   6.432   2.553
 2936SOL    HW2 9708   4.932   6.411   2.494
 2937SOL     OW 9709   6.345   3.254   4.127
 2937SOL    HW1 9710   6.423   3.308   4.096
 2937SOL    HW2 9711   6.378   3.175   4.178
 2938SOL     OW 9712   6.848   5.814   1.107
 2938SOL    HW1 9713   6.875   5.822   1.012
 2938SOL    HW2 9714   6.852   5.717   1.135
 2939SOL     OW 9715   6.781   5.646   2.049
 2939SOL    HW1 9716   6.834   5.570   2.011
 2939SOL    HW2 9717   6.842   5.713   2.090
 2940SOL     OW 9718   4.912   6.048   3.401
 2940SOL    HW1 9719   4.896   6.041   3.302
 2940SOL    HW2 9720   4.866   6.130   3.436
 2941SOL     OW 9721   3.105   4.956   1.643
 2941SOL    HW1 9722   3.062   4.886   1.701
 2941SOL    HW2 9723   3.197   4.926   1.619
 2942SOL     OW 9724   2.695   1.672   0.264
 2942SOL    HW1 9725   2.729   1.580   0.282
 2942SOL    HW2 9726   2.635   1.701   0.339
 2943SOL     OW 9727   0.284   5.083   3.535
 2943SOL    HW1 9728   0.380   5.058   3.549
 2943SOL    HW2 9729   0.274   5.126   3.445
 2944SOL     OW 9730   0.549   5.230   3.819
 2944SOL    HW1 9731   0.472   5.288   3.846
 2944SOL    HW2 9732   0.519   5.135   3.815
 2945SOL     OW 9733   5.716   3.356   0.300
 2945SOL    HW1 9734   5.640   3.400   0.349
 2945SOL    HW2 9735   5.680   3.307   0.221
 2946SOL     OW 9736   3.207   3.671   4.463
 2946SOL    HW1 9737   3.266   3.717   4.397
 2946SOL    HW2 9738   3.113   3.705   4.454
 2947SOL     OW 9739   0.013   6.522   0.582
 2947SOL    HW1 9740   6.969   6.506   0.513
 2947SOL    HW2 9741   0.098   6.550   0.537
 2948SOL     OW 9742   6.182   5.194   0.849
 2948SOL    HW1 9743   6.259   5.188   0.913
 2948SOL    HW2 9744   6.161   5.290   0.831
 2949SOL     OW 9745   1.209   5.744   0.640
 2949SOL    HW1 9746   1.199   5.750   0.739
 2949SOL    HW2 9747   1.137   5.797   0.595
 2950SOL     OW 9748   5.202   4.921   2.723
 2950SOL    HW1 9749   5.229   5.007   2.680
 2950SOL    HW2 9750   5.210   4.930   2.823
 2951SOL     OW 9751   1.159   3.744   0.723
 2951SOL    HW1 9752   1.139   3.814   0.655
 2951SOL    HW2 9753   1.238   3.691   0.693
 2952SOL     OW 9754   1.436   1.472   4.098
 2952SOL    HW1 9755   1.413   1.376   4.082
 2952SOL    HW2 9756   1.352   1.525   4.113
 2953SOL     OW 9757   1.089   5.335   2.916
 2953SOL    HW1 9758   1.141   5.419   2.933
 2953SOL    HW2 9759   1.125   5.262   2.974
 2954SOL     OW 9760   0.134   4.680   5.464
 2954SOL    HW1 9761   0.092   4.593   5.440
 2954SOL    HW2 9762   0.107   4.706   5.557
 2955SOL     OW 9763   0.890   4.842   5.904
 2955SOL    HW1 9764   0.797   4.823   5.936
 2955SOL    HW2 9765   0.951   4.847   5.983
 2956SOL     OW 9766   6.213   3.694   5.119
 2956SOL    HW1 9767   6.123   3.672   5.156
 2956SOL    HW2 9768   6.235   3.631   5.045
 2957SOL     OW 9769   1.255   4.675   1.822
 2957SOL    HW1 9770   1.350   4.659   1.849
 2957SOL    HW2 9771   1.228   4.768   1.849
 2958SOL     OW 9772   1.914   3.208   1.399
 2958SOL    HW1 9773   1.972   3.232   1.477
 2958SOL    HW2 9774   1.925   3.111   1.378
 2959SOL     OW 9775   1.123   3.989   4.133
 2959SOL    HW1 9776   1.150   4.016   4.041
 2959SOL    HW2 9777   1.145   4.063   4.197
 2960SOL     OW 9778   5.356   5.315   0.463
 2960SOL    HW1 9779   5.288   5.387   0.449
 2960SOL    HW2 9780   5.312   5.226   0.461
 2961SOL     OW 9781   5.779   1.967   0.920
 2961SOL    HW1 9782   5.695   1.915   0.939
 2961SOL    HW2 9783   5.858   1.909   0.938
 2962SOL     OW 9784   6.574   0.822   4.113
 2962SOL    HW1 9785   6.637   0.892   4.146
 2962SOL    HW2 9786   6.480   0.853   4.126
 2963SOL     OW 9787   1.821   0.924   6.317
 2963SOL    HW1 9788   1.870   0.904   6.401
 2963SOL    HW2 9789   1.869   0.995   6.266
 2964SOL     OW 9790   0.962   1.137   5.782
 2964SOL    HW1 9791   0.993   1.074   5.712
 2964SOL    HW2 9792   1.000   1.110   5.871
 2965SOL     OW 9793   6.425   1.339   6.500
 2965SOL    HW1 9794   6.502   1.396   6.474
 2965SOL    HW2 9795   6.455   1.245   6.513
 2966SOL     OW 9796   3.862   0.531   2.507
 2966SOL    HW1 9797   3.865   0.453   2.569
 2966SOL    HW2 9798   3.828   0.611   2.556
 2967SOL     OW 9799   5.179   6.329   5.363
 2967SOL    HW1 9800   5.249   6.314   5.293
 2967SOL    HW2 9801   5.124   6.246   5.375
 2968SOL     OW 9802   2.006   3.991   1.684
 2968SOL    HW1 9803   2.104   3.976   1.670
 2968SOL    HW2 9804   1.957   3.975   1.598
 2969SOL     OW 9805   3.966   1.816   4.896
 2969SOL    HW1 9806   4.057   1.803   4.935
 2969SOL    HW2 9807   3.942   1.913   4.898
 2970SOL     OW 9808   2.313   2.793   6.503
 2970SOL    HW1 9809   2.297   2.778   6.405
 2970SOL    HW2 9810   2.314   2.705   6.550
 2971SOL     OW 9811   4.207   4.109   5.545
 2971SOL    HW1 9812   4.166   4.196   5.516
 2971SOL    HW2 9813   4.221   4.110   5.644
 2972SOL     OW 9814   0.383   5.928   0.837
 2972SOL    HW1 9815   0.334   5.851   0.797
 2972SOL    HW2 9816   0.450   5.963   0.771
 2973SOL     OW 9817   5.092   0.446   5.039
 2973SOL    HW1 9818   5.102   0.416   4.945
 2973SOL    HW2 9819   5.002   0.420   5.073
 2974SOL     OW 9820   5.332   5.108   2.540
 2974SOL    HW1 9821   5.278   5.136   2.461
 2974SOL    HW2 9822   5.349   5.188   2.598
 2975SOL     OW 9823   0.600   3.972   5.055
 2975SOL    HW1 9824   0.585   4.064   5.018
 2975SOL    HW2 9825   0.585   3.905   4.983
 2976SOL     OW 9826   4.008   6.947   1.614
 2976SOL    HW1 9827   3.958   6.868   1.578
 2976SOL    HW2 9828   4.036   7.006   1.538
 2977SOL     OW 9829   1.098   1.620   2.363
 2977SOL    HW1 9830   1.198   1.607   2.360
 2977SOL    HW2 9831   1.077   1.707   2.408
 2978SOL     OW 9832   3.528   5.697   0.432
 2978SOL    HW1 9833   3.506   5.616   0.487
 2978SOL    HW2 9834   3.621   5.727   0.452
 2979SOL     OW 9835   2.205   1.294   5.854
 2979SOL    HW1 9836   2.244   1.329   5.769
 2979SOL    HW2 9837   2.268   1.229   5.896
 2980SOL     OW 9838   3.524   3.369   2.855
 2980SOL    HW1 9839   3.591   3.400   2.923
 2980SOL    HW2 9840   3.551   3.402   2.765
 2981SOL     OW 9841   2.088   1.285   1.247
 2981SOL    HW1 9842   2.184   1.263   1.266
 2981SOL    HW2 9843   2.060   1.361   1.304
 2982SOL     OW 9844   0.154   0.646   2.401
 2982SOL    HW1 9845   0.216   0.568   2.404
 2982SOL    HW2 9846   0.194   0.722   2.453
 2983SOL     OW 9847   6.700   2.412   6.147
 2983SOL    HW1 9848   6.742   2.413   6.238
 2983SOL    HW2 9849   6.614   2.464   6.149
 2984SOL     OW 9850   0.995   6.024   0.874
 2984SOL    HW1 9851   1.024   6.066   0.787
 2984SOL    HW2 9852   1.068   5.966   0.909
 2985SOL     OW 9853   0.418   6.997   5.702
 2985SOL    HW1 9854   0.395   6.926   5.635
 2985SOL    HW2 9855   0.482   6.961   5.769
 2986SOL     OW 9856   3.806   3.985   2.249
 2986SOL    HW1 9857   3.782   4.076   2.281
 2986SOL    HW2 9858   3.877   3.992   2.178
 2987SOL     OW 9859   2.564   6.882   5.954
 2987SOL    HW1 9860   2.480   6.886   5.900
 2987SOL    HW2 9861   2.632   6.826   5.906
 2988SOL     OW 9862   1.002   1.459   6.501
 2988SOL    HW1 9863   1.041   1.536   6.552
 2988SOL    HW2 9864   1.013   1.375   6.553
 2989SOL     OW 9865   5.503   3.513   5.861
 2989SOL    HW1 9866   5.460   3.548   5.778
 2989SOL    HW2 9867   5.445   3.442   5.902
 2990SOL     OW 9868   5.249   1.799   4.669
 2990SOL    HW1 9869   5.273   1.724   4.608
 2990SOL    HW2 9870   5.315   1.874   4.657
 2991SOL     OW 9871   6.247   3.223   0.698
 2991SOL    HW1 9872   6.332   3.202   0.649
 2991SOL    HW2 9873   6.197   3.138   0.714
 2992SOL     OW 9874   1.911   3.960   4.640
 2992SOL    HW1 9875   1.864   3.873   4.620
 2992SOL    HW2 9876   1.852   4.017   4.697
 2993SOL     OW 9877   3.790   5.535   6.831
 2993SOL    HW1 9878   3.855   5.606   6.855
 2993SOL    HW2 9879   3.738   5.507   6.912
 2994SOL     OW 9880   3.012   5.330   5.064
 2994SOL    HW1 9881   3.105   5.364   5.047
 2994SOL    HW2 9882   3.009   5.233   5.041
 2995SOL     OW 9883   5.757   0.199   2.566
 2995SOL    HW1 9884   5.785   0.121   2.622
 2995SOL    HW2 9885   5.665   0.228   2.594
 2996SOL     OW 9886   6.649   0.079   4.814
 2996SOL    HW1 9887   6.729   0.134   4.841
 2996SOL    HW2 9888   6.681   7.018   4.777
 2997SOL     OW 9889   5.091   6.612   4.077
 2997SOL    HW1 9890   5.022   6.577   4.141
 2997SOL    HW2 9891   5.182   6.583   4.108
 2998SOL     OW 9892   2.711   0.426   0.989
 2998SOL    HW1 9893   2.779   0.379   1.044
 2998SOL    HW2 9894   2.630   0.368   0.979
 2999SOL     OW 9895   2.273   5.509   6.853
 2999SOL    HW1 9896   2.291   5.411   6.869
 2999SOL    HW2 9897   2.196   5.538   6.908
 3000SOL     OW 9898   2.327   4.359   6.568
 3000SOL    HW1 9899   2.366   4.355   6.476
 3000SOL    HW2 9900   2.342   4.451   6.606
 3001SOL     OW 9901   2.603   0.202   5.903
 3001SOL    HW1 9902   2.515   0.179   5.860
 3001SOL    HW2 9903   2.622   0.138   5.977
 3002SOL     OW 9904   1.949   1.754   1.658
 3002SOL    HW1 9905   1.883   1.679   1.667
 3002SOL    HW2 9906   1.933   1.801   1.572
 3003SOL     OW 9907   1.115   5.897   0.009
 3003SOL    HW1 9908   1.147   5.872   0.101
 3003SOL    HW2 9909   1.070   5.818   6.994
 3004SOL     OW 9910   2.837   1.448   4.621
 3004SOL    HW1 9911   2.766   1.491   4.676
 3004SOL    HW2 9912   2.796   1.405   4.540
 3005SOL     OW 9913   2.715   1.584   6.463
 3005SOL    HW1 9914   2.651   1.534   6.406
 3005SOL    HW2 9915   2.717   1.680   6.436
 3006SOL     OW 9916   5.435   1.248   6.151
 3006SOL    HW1 9917   5.483   1.259   6.064
 3006SOL    HW2 9918   5.430   1.151   6.174
 3007SOL     OW 9919   6.507   5.655   6.238
 3007SOL    HW1 9920   6.527   5.627   6.332
 3007SOL    HW2 9921   6.545   5.588   6.175
 3008SOL     OW 9922   5.569   3.617   5.346
 3008SOL    HW1 9923   5.499   3.558   5.387
 3008SOL    HW2 9924   5.598   3.578   5.259
 3009SOL     OW 9925   5.874   4.168   1.409
 3009SOL    HW1 9926   5.791   4.223   1.420
 3009SOL    HW2 9927   5.952   4.218   1.447
 3010SOL     OW 9928   4.660   4.062   1.720
 3010SOL    HW1 9929   4.567   4.093   1.740
 3010SOL    HW2 9930   4.660   4.008   1.636
 3011SOL     OW 9931   5.167   0.541   1.282
 3011SOL    HW1 9932   5.232   0.591   1.340
 3011SOL    HW2 9933   5.121   0.471   1.336
 3012SOL     OW 9934   2.015   2.633   4.634
 3012SOL    HW1 9935   1.939   2.696   4.642
 3012SOL    HW2 9936   2.064   2.626   4.721
 3013SOL     OW 9937   0.499   6.083   6.059
 3013SOL    HW1 9938   0.478   5.992   6.096
 3013SOL    HW2 9939   0.598   6.097   6.058
 3014SOL     OW 9940   3.959   6.857   1.122
 3014SOL    HW1 9941   4.045   6.908   1.127
 3014SOL    HW2 9942   3.965   6.788   1.050
 3015SOL     OW 9943   2.258   6.638   5.975
 3015SOL    HW1 9944   2.302   6.548   5.975
 3015SOL    HW2 9945   2.290   6.690   5.895
 3016SOL     OW 9946   3.476   1.243   4.842
 3016SOL    HW1 9947   3.462   1.341   4.856
 3016SOL    HW2 9948   3.568   1.218   4.872
 3017SOL     OW 9949   1.414   6.350   6.410
 3017SOL    HW1 9950   1.335   6.357   6.349
 3017SOL    HW2 9951   1.400   6.411   6.489
 3018SOL     OW 9952   2.072   2.748   1.843
 3018SOL    HW1 9953   2.035   2.773   1.932
 3018SOL    HW2 9954   2.172   2.758   1.845
 3019SOL     OW 9955   0.710   1.155   5.469
 3019SOL    HW1 9956   0.755   1.187   5.385
 3019SOL    HW2 9957   0.631   1.213   5.487
 3020SOL     OW 9958   5.200   4.134   6.832
 3020SOL    HW1 9959   5.256   4.200   6.782
 3020SOL    HW2 9960   5.254   4.094   6.906
 3021SOL     OW 9961   3.873   6.131   4.349
 3021SOL    HW1 9962   3.889   6.211   4.291
 3021SOL    HW2 9963   3.885   6.157   4.445
 3022SOL     OW 9964   3.847   6.413   1.734
 3022SOL    HW1 9965   3.771   6.353   1.709
 3022SOL    HW2 9966   3.813   6.487   1.792
 3023SOL     OW 9967   6.522   4.508   5.632
 3023SOL    HW1 9968   6.507   4.605   5.651
 3023SOL    HW2 9969   6.616   4.495   5.599
 3024SOL     OW 9970   5.916   2.047   5.958
 3024SOL    HW1 9971   6.006   2.091   5.963
 3024SOL    HW2 9972   5.906   1.983   6.034
 3025SOL     OW 9973   3.656   5.136   1.018
 3025SOL    HW1 9974   3.658   5.103   0.924
 3025SOL    HW2 9975   3.746   5.122   1.060
 3026SOL     OW 9976   7.022   5.172   2.665
 3026SOL    HW1 9977   7.020   5.271   2.672
 3026SOL    HW2 9978   7.022   5.145   2.568
 3027SOL     OW 9979   4.447   0.520   1.207
 3027SOL    HW1 9980   4.517   0.576   1.161
 3027SOL    HW2 9981   4.366   0.576   1.223
 3028SOL     OW 9982   3.376   3.530   3.835
 3028SOL    HW1 9983   3.407   3.528   3.740
 3028SOL    HW2 9984   3.286   3.488   3.842
 3029SOL     OW 9985   0.104   2.509   5.301
 3029SOL    HW1 9986   0.135   2.485   5.209
 3029SOL    HW2 9987   0.012   2.549   5.296
 3030SOL     OW 9988   0.900   3.936   6.164
 3030SOL    HW1 9989   0.841   3.988   6.227
 3030SOL    HW2 9990   0.927   3.850   6.208
 3031SOL     OW 9991   0.492   4.181   0.161
 3031SOL    HW1 9992   0.578   4.133   0.140
 3031SOL    HW2 9993   0.450   4.211   0.076
 3032SOL     OW 9994   3.230   0.334   3.578
 3032SOL    HW1 9995   3.313   0.297   3.538
 3032SOL    HW2 9996   3.209   0.422   3.536
 3033SOL     OW 9997   1.789   0.521   5.957
 3033SOL    HW1 9998   1.838   0.597   5.914
 3033SOL    HW2 9999   1.805   0.437   5.905
 3034SOL     OW10000   4.882   3.727   3.225
 3034SOL    HW110001   4.893   3.632   3.197
 3034SOL    HW210002   4.861   3.784   3.146
 3035SOL     OW10003   5.562   4.561   0.043
 3035SOL    HW110004   5.484   4.567   7.007
 3035SOL    HW210005   5.567   4.646   0.096
 3036SOL     OW10006   2.341   2.519   6.615
 3036SOL    HW110007   2.363   2.558   6.705
 3036SOL    HW210008   2.424   2.481   6.574
 3037SOL     OW10009   0.743   5.604   6.522
 3037SOL    HW110010   0.666   5.637   6.466
 3037SOL    HW210011   0.718   5.517   6.564
 3038SOL     OW10012   6.257   5.580   6.166
 3038SOL    HW110013   6.286   5.581   6.070
 3038SOL    HW210014   6.335   5.605   6.224
 3039SOL     OW10015   6.251   3.446   6.259
 3039SOL    HW110016   6.200   3.473   6.177
 3039SOL    HW210017   6.347   3.433   6.235
 3040SOL     OW10018   3.476   6.595   6.436
 3040SOL    HW110019   3.392   6.609   6.488
 3040SOL    HW210020   3.540   6.669   6.455
 3041SOL     OW10021   1.766   5.825   5.674
 3041SOL    HW110022   1.776   5.751   5.608
 3041SOL    HW210023   1.825   5.807   5.753
 3042SOL     OW10024   6.657   5.713   4.842
 3042SOL    HW110025   6.559   5.708   4.861
 3042SOL    HW210026   6.701   5.775   4.907
 3043SOL     OW10027   2.380   3.611   1.678
 3043SOL    HW110028   2.366   3.536   1.742
 3043SOL    HW210029   2.406   3.575   1.588
 3044SOL     OW10030   3.792   3.732   3.895
 3044SOL    HW110031   3.858   3.720   3.820
 3044SOL    HW210032   3.804   3.658   3.962
 3045SOL     OW10033   5.843   6.619   3.753
 3045SOL    HW110034   5.817   6.592   3.661
 3045SOL    HW210035   5.884   6.710   3.751
 3046SOL     OW10036   6.420   6.270   1.852
 3046SOL    HW110037   6.483   6.289   1.777
 3046SOL    HW210038   6.369   6.186   1.833
 3047SOL     OW10039   4.376   1.264   3.737
 3047SOL    HW110040   4.462   1.305   3.768
 3047SOL    HW210041   4.395   1.196   3.667
 3048SOL     OW10042   4.432   4.671   0.545
 3048SOL    HW110043   4.483   4.590   0.517
 3048SOL    HW210044   4.420   4.670   0.645
 3049SOL     OW10045   6.841   0.411   1.153
 3049SOL    HW110046   6.858   0.509   1.142
 3049SOL    HW210047   6.897   0.375   1.228
 3050SOL     OW10048   4.218   3.198   5.782
 3050SOL    HW110049   4.231   3.100   5.792
 3050SOL    HW210050   4.193   3.219   5.687
 3051SOL     OW10051   2.741   4.492   5.852
 3051SOL    HW110052   2.728   4.408   5.904
 3051SOL    HW210053   2.836   4.522   5.863
 3052SOL     OW10054   6.329   6.971   4.362
 3052SOL    HW110055   6.408   6.985   4.302
 3052SOL    HW210056   6.356   6.988   4.457
 3053SOL     OW10057   0.540   5.639   5.827
 3053SOL    HW110058   0.580   5.681   5.746
 3053SOL    HW210059   0.481   5.563   5.800
 3054SOL     OW10060   6.501   6.072   3.436
 3054SOL    HW110061   6.416   6.024   3.459
 3054SOL    HW210062   6.514   6.149   3.498
 3055SOL     OW10063   5.606   5.695   1.040
 3055SOL    HW110064   5.668   5.707   1.117
 3055SOL    HW210065   5.639   5.748   0.962
 3056SOL     OW10066   4.792   2.723   1.476
 3056SOL    HW110067   4.766   2.642   1.528
 3056SOL    HW210068   4.871   2.767   1.519
 3057SOL     OW10069   0.352   1.850   2.629
 3057SOL    HW110070   0.335   1.903   2.547
 3057SOL    HW210071   0.433   1.793   2.617
 3058SOL     OW10072   5.113   4.269   6.528
 3058SOL    HW110073   5.198   4.258   6.476
 3058SOL    HW210074   5.035   4.275   6.465
 3059SOL     OW10075   1.405   2.709   3.273
 3059SOL    HW110076   1.314   2.680   3.304
 3059SOL    HW210077   1.415   2.807   3.287
 3060SOL     OW10078   6.632   2.684   3.817
 3060SOL    HW110079   6.592   2.593   3.820
 3060SOL    HW210080   6.560   2.751   3.795
 3061SOL     OW10081   5.271   6.007   2.133
 3061SOL    HW110082   5.319   6.060   2.204
 3061SOL    HW210083   5.336   5.947   2.087
 3062SOL     OW10084   3.895   5.142   6.589
 3062SOL    HW110085   3.832   5.128   6.512
 3062SOL    HW210086   3.855   5.102   6.671
 3063SOL     OW10087   6.147   6.212   1.119
 3063SOL    HW110088   6.207   6.175   1.190
 3063SOL    HW210089   6.203   6.257   1.049
 3064SOL     OW10090   4.662   0.804   5.847
 3064SOL    HW110091   4.715   0.773   5.768
 3064SOL    HW210092   4.637   0.900   5.834
 3065SOL     OW10093   4.673   1.890   6.371
 3065SOL    HW110094   4.624   1.815   6.327
 3065SOL    HW210095   4.653   1.888   6.469
 3066SOL     OW10096   4.935   0.331   6.932
 3066SOL    HW110097   5.008   0.261   6.930
 3066SOL    HW210098   4.944   0.389   6.851
 3067SOL     OW10099   1.665   1.976   4.738
 3067SOL    HW110100   1.594   1.967   4.668
 3067SOL    HW210101   1.694   2.072   4.744
 3068SOL     OW10102   6.726   0.308   0.523
 3068SOL    HW110103   6.762   0.292   0.431
 3068SOL    HW210104   6.762   0.238   0.585
 3069SOL     OW10105   4.781   5.853   4.320
 3069SOL    HW110106   4.813   5.927   4.378
 3069SOL    HW210107   4.848   5.836   4.248
 3070SOL     OW10108   2.345   1.450   0.402
 3070SOL    HW110109   2.377   1.378   0.341
 3070SOL    HW210110   2.383   1.437   0.493
 3071SOL     OW10111   5.989   4.190   4.812
 3071SOL    HW110112   6.013   4.287   4.804
 3071SOL    HW210113   6.071   4.134   4.795
 3072SOL     OW10114   2.154   6.281   4.057
 3072SOL    HW110115   2.149   6.357   4.122
 3072SOL    HW210116   2.249   6.248   4.052
 3073SOL     OW10117   0.810   4.881   3.257
 3073SOL    HW110118   0.890   4.854   3.310
 3073SOL    HW210119   0.835   4.891   3.161
 3074SOL     OW10120   2.973   3.589   1.538
 3074SOL    HW110121   3.044   3.542   1.590
 3074SOL    HW210122   2.913   3.639   1.600
 3075SOL     OW10123   3.904   4.823   0.857
 3075SOL    HW110124   3.951   4.818   0.945
 3075SOL    HW210125   3.807   4.840   0.872
 3076SOL     OW10126   2.734   1.237   4.429
 3076SOL    HW110127   2.696   1.216   4.339
 3076SOL    HW210128   2.662   1.230   4.498
 3077SOL     OW10129   0.255   3.331   2.552
 3077SOL    HW110130   0.344   3.317   2.510
 3077SOL    HW210131   0.263   3.326   2.652
 3078SOL     OW10132   6.290   4.761   1.501
 3078SOL    HW110133   6.382   4.783   1.467
 3078SOL    HW210134   6.231   4.841   1.489
 3079SOL     OW10135   0.207   3.855   2.466
 3079SOL    HW110136   0.200   3.939   2.412
 3079SOL    HW210137   0.120   3.806   2.462
 3080SOL     OW10138   3.403   5.110   1.505
 3080SOL    HW110139   3.495   5.119   1.543
 3080SOL    HW210140   3.378   5.013   1.501
 3081SOL     OW10141   2.549   2.135   5.775
 3081SOL    HW110142   2.620   2.070   5.745
 3081SOL    HW210143   2.539   2.208   5.708
 3082SOL     OW10144   5.984   2.757   4.236
 3082SOL    HW110145   6.029   2.721   4.318
 3082SOL    HW210146   6.038   2.732   4.156
 3083SOL     OW10147   4.491   5.525   2.124
 3083SOL    HW110148   4.577   5.509   2.172
 3083SOL    HW210149   4.419   5.546   2.190
 3084SOL     OW10150   0.157   5.451   4.463
 3084SOL    HW110151   0.063   5.414   4.467
 3084SOL    HW210152   0.220   5.377   4.438
 3085SOL     OW10153   6.493   5.651   5.768
 3085SOL    HW110154   6.418   5.665   5.703
 3085SOL    HW210155   6.570   5.608   5.722
 3086SOL     OW10156   5.937   5.998   5.900
 3086SOL    HW110157   5.962   6.012   5.804
 3086SOL    HW210158   6.018   5.970   5.952
 3087SOL     OW10159   2.359   6.988   1.259
 3087SOL    HW110160   2.319   6.968   1.170
 3087SOL    HW210161   2.452   7.023   1.247
 3088SOL     OW10162   2.101   3.188   5.331
 3088SOL    HW110163   2.163   3.127   5.379
 3088SOL    HW210164   2.121   3.186   5.233
 3089SOL     OW10165   4.053   0.142   0.707
 3089SOL    HW110166   4.039   0.043   0.716
 3089SOL    HW210167   4.044   0.185   0.797
 3090SOL     OW10168   0.513   1.868   3.207
 3090SOL    HW110169   0.483   1.895   3.299
 3090SOL    HW210170   0.446   1.805   3.167
 3091SOL     OW10171   1.807   1.926   5.680
 3091SOL    HW110172   1.893   1.921   5.732
 3091SOL    HW210173   1.827   1.944   5.584
 3092SOL     OW10174   4.900   1.733   4.041
 3092SOL    HW110175   4.919   1.787   3.959
 3092SOL    HW210176   4.801   1.720   4.051
 3093SOL     OW10177   6.478   6.507   0.656
 3093SOL    HW110178   6.465   6.547   0.565
 3093SOL    HW210179   6.407   6.439   0.673
 3094SOL     OW10180   1.257   0.711   6.295
 3094SOL    HW110181   1.318   0.776   6.250
 3094SOL    HW210182   1.295   0.618   6.287
 3095SOL     OW10183   2.354   3.960   6.219
 3095SOL    HW110184   2.287   4.028   6.188
 3095SOL    HW210185   2.400   3.995   6.301
 3096SOL     OW10186   1.830   3.645   4.023
 3096SOL    HW110187   1.736   3.614   4.008
 3096SOL    HW210188   1.883   3.570   4.064
 3097SOL     OW10189   5.155   2.242   6.260
 3097SOL    HW110190   5.224   2.208   6.195
 3097SOL    HW210191   5.184   2.331   6.295
 3098SOL     OW10192   2.177   4.443   2.869
 3098SOL    HW110193   2.122   4.371   2.912
 3098SOL    HW210194   2.274   4.418   2.873
 3099SOL     OW10195   0.711   1.529   5.606
 3099SOL    HW110196   0.728   1.440   5.648
 3099SOL    HW210197   0.645   1.518   5.531
 3100SOL     OW10198   5.931   4.373   2.942
 3100SOL    HW110199   6.027   4.381   2.913
 3100SOL    HW210200   5.898   4.281   2.918
 3101SOL     OW10201   4.668   0.047   5.261
 3101SOL    HW110202   4.644   0.042   5.164
 3101SOL    HW210203   4.586   0.031   5.317
 3102SOL     OW10204   5.550   2.924   2.946
 3102SOL    HW110205   5.483   2.850   2.951
 3102SOL    HW210206   5.626   2.905   3.008
 3103SOL     OW10207   1.024   0.868   2.580
 3103SOL    HW110208   1.069   0.781   2.559
 3103SOL    HW210209   0.930   0.866   2.549
 3104SOL     OW10210   6.014   2.220   6.347
 3104SOL    HW110211   6.054   2.153   6.284
 3104SOL    HW210212   6.069   2.304   6.344
 3105SOL     OW10213   5.431   4.701   0.929
 3105SOL    HW110214   5.437   4.752   0.843
 3105SOL    HW210215   5.364   4.744   0.989
 3106SOL     OW10216   5.413   1.511   4.849
 3106SOL    HW110217   5.477   1.554   4.785
 3106SOL    HW210218   5.421   1.554   4.938
 3107SOL     OW10219   4.944   1.554   4.862
 3107SOL    HW110220   4.883   1.632   4.856
 3107SOL    HW210221   4.896   1.477   4.905
 3108SOL     OW10222   2.978   5.237   4.706
 3108SOL    HW110223   3.066   5.284   4.708
 3108SOL    HW210224   2.929   5.264   4.622
 3109SOL     OW10225   6.892   4.920   3.765
 3109SOL    HW110226   6.963   4.858   3.731
 3109SOL    HW210227   6.901   5.008   3.719
 3110SOL     OW10228   2.450   4.879   3.914
 3110SOL    HW110229   2.508   4.865   3.834
 3110SOL    HW210230   2.418   4.790   3.948
 3111SOL     OW10231   0.515   3.561   4.544
 3111SOL    HW110232   0.497   3.489   4.477
 3111SOL    HW210233   0.449   3.554   4.619
 3112SOL     OW10234   4.727   0.701   0.812
 3112SOL    HW110235   4.710   0.705   0.713
 3112SOL    HW210236   4.662   0.761   0.859
 3113SOL     OW10237   1.249   6.637   3.650
 3113SOL    HW110238   1.292   6.711   3.597
 3113SOL    HW210239   1.150   6.644   3.642
 3114SOL     OW10240   5.299   4.998   4.971
 3114SOL    HW110241   5.232   4.976   4.900
 3114SOL    HW210242   5.378   5.042   4.929
 3115SOL     OW10243   5.794   4.929   4.401
 3115SOL    HW110244   5.743   5.001   4.447
 3115SOL    HW210245   5.733   4.878   4.340
 3116SOL     OW10246   0.971   2.718   6.032
 3116SOL    HW110247   0.930   2.785   5.970
 3116SOL    HW210248   0.899   2.661   6.072
 3117SOL     OW10249   4.131   0.463   2.338
 3117SOL    HW110250   4.093   0.527   2.405
 3117SOL    HW210251   4.132   0.506   2.248
 3118SOL     OW10252   1.082   1.878   3.512
 3118SOL    HW110253   1.168   1.923   3.486
 3118SOL    HW210254   1.070   1.883   3.611
 3119SOL     OW10255   4.314   6.862   2.989
 3119SOL    HW110256   4.369   6.869   2.905
 3119SOL    HW210257   4.355   6.794   3.050
 3120SOL     OW10258   3.830   6.505   6.183
 3120SOL    HW110259   3.785   6.587   6.148
 3120SOL    HW210260   3.778   6.469   6.260
 3121SOL     OW10261   3.911   1.372   3.185
 3121SOL    HW110262   3.928   1.284   3.141
 3121SOL    HW210263   3.912   1.444   3.116
 3122SOL     OW10264   5.047   3.289   6.483
 3122SOL    HW110265   5.017   3.363   6.423
 3122SOL    HW210266   4.995   3.206   6.463
 3123SOL     OW10267   2.133   3.122   2.604
 3123SOL    HW110268   2.171   3.097   2.693
 3123SOL    HW210269   2.139   3.221   2.592
 3124SOL     OW10270   5.117   5.657   5.640
 3124SOL    HW110271   5.169   5.725   5.589
 3124SOL    HW210272   5.057   5.704   5.705
 3125SOL     OW10273   2.352   1.467   4.611
 3125SOL    HW110274   2.287   1.523   4.663
 3125SOL    HW210275   2.445   1.484   4.643
 3126SOL     OW10276   5.179   3.927   5.025
 3126SOL    HW110277   5.252   3.864   4.997
 3126SOL    HW210278   5.092   3.896   4.986
 3127SOL     OW10279   0.286   2.242   6.446
 3127SOL    HW110280   0.219   2.262   6.375
 3127SOL    HW210281   0.240   2.239   6.535
 3128SOL     OW10282   3.804   1.829   1.543
 3128SOL    HW110283   3.875   1.827   1.614
 3128SOL    HW210284   3.820   1.908   1.483
 3129SOL     OW10285   3.969   5.012   0.299
 3129SOL    HW110286   3.955   4.955   0.218
 3129SOL    HW210287   4.058   5.058   0.293
 3130SOL     OW10288   6.446   5.802   2.996
 3130SOL    HW110289   6.351   5.812   2.965
 3130SOL    HW210290   6.503   5.868   2.948
 3131SOL     OW10291   0.747   1.543   3.554
 3131SOL    HW110292   0.687   1.533   3.475
 3131SOL    HW210293   0.719   1.623   3.607
 3132SOL     OW10294   4.040   4.188   6.059
 3132SOL    HW110295   4.110   4.169   6.127
 3132SOL    HW210296   4.006   4.102   6.021
 3133SOL     OW10297   5.009   6.429   4.541
 3133SOL    HW110298   5.023   6.362   4.614
 3133SOL    HW210299   4.916   6.465   4.546
 3134SOL     OW10300   4.031   5.139   3.160
 3134SOL    HW110301   3.965   5.094   3.222
 3134SOL    HW210302   4.087   5.069   3.115
 3135SOL     OW10303   3.930   0.768   6.155
 3135SOL    HW110304   3.912   0.820   6.239
 3135SOL    HW210305   3.994   0.694   6.174
 3136SOL     OW10306   6.022   6.057   1.896
 3136SOL    HW110307   5.980   6.116   1.827
 3136SOL    HW210308   5.974   6.068   1.983
 3137SOL     OW10309   4.944   3.877   6.910
 3137SOL    HW110310   5.028   3.825   6.896
 3137SOL    HW210311   4.907   3.907   6.822
 3138SOL     OW10312   6.708   6.385   5.452
 3138SOL    HW110313   6.767   6.335   5.515
 3138SOL    HW210314   6.613   6.381   5.484
 3139SOL     OW10315   1.542   4.982   1.993
 3139SOL    HW110316   1.566   5.042   1.917
 3139SOL    HW210317   1.531   5.037   2.076
 3140SOL     OW10318   4.119   5.550   6.831
 3140SOL    HW110319   4.084   5.486   6.762
 3140SOL    HW210320   4.150   5.633   6.785
 3141SOL     OW10321   6.301   2.453   0.720
 3141SOL    HW110322   6.314   2.358   0.748
 3141SOL    HW210323   6.204   2.469   0.701
 3142SOL     OW10324   4.259   0.466   3.782
 3142SOL    HW110325   4.206   0.513   3.852
 3142SOL    HW210326   4.208   0.387   3.748
 3143SOL     OW10327   5.649   1.364   6.936
 3143SOL    HW110328   5.711   1.413   6.874
 3143SOL    HW210329   5.645   1.412   7.024
 3144SOL     OW10330   3.452   5.066   6.622
 3144SOL    HW110331   3.544   5.040   6.591
 3144SOL    HW210332   3.429   5.014   6.704
 3145SOL     OW10333   1.392   6.186   5.320
 3145SOL    HW110334   1.373   6.230   5.407
 3145SOL    HW210335   1.391   6.086   5.331
 3146SOL     OW10336   6.524   1.422   5.182
 3146SOL    HW110337   6.455   1.385   5.119
 3146SOL    HW210338   6.604   1.452   5.129
 3147SOL     OW10339   4.957   0.579   0.900
 3147SOL    HW110340   4.938   0.584   0.998
 3147SOL    HW210341   4.880   0.619   0.849
 3148SOL     OW10342   5.437   4.821   0.688
 3148SOL    HW110343   5.447   4.732   0.643
 3148SOL    HW210344   5.480   4.892   0.632
 3149SOL     OW10345   4.293   3.203   6.668
 3149SOL    HW110346   4.253   3.256   6.743
 3149SOL    HW210347   4.233   3.208   6.588
 3150SOL     OW10348   0.005   0.891   5.470
 3150SOL    HW110349   6.957   0.903   5.406
 3150SOL    HW210350   0.068   0.969   5.464
 3151SOL     OW10351   1.000   1.289   0.076
 3151SOL    HW110352   1.078   1.298   0.137
 3151SOL    HW210353   0.979   1.192   0.062
 3152SOL     OW10354   3.198   1.417   5.460
 3152SOL    HW110355   3.203   1.382   5.366
 3152SOL    HW210356   3.118   1.379   5.506
 3153SOL     OW10357   5.331   5.647   1.319
 3153SOL    HW110358   5.427   5.644   1.347
 3153SOL    HW210359   5.326   5.647   1.219
 3154SOL     OW10360   3.859   2.426   0.825
 3154SOL    HW110361   3.786   2.358   0.829
 3154SOL    HW210362   3.838   2.502   0.887
 3155SOL     OW10363   6.816   6.473   6.244
 3155SOL    HW110364   6.802   6.402   6.313
 3155SOL    HW210365   6.729   6.515   6.220
 3156SOL     OW10366   2.506   4.566   0.839
 3156SOL    HW110367   2.428   4.629   0.833
 3156SOL    HW210368   2.537   4.543   0.747
 3157SOL     OW10369   1.476   1.893   3.078
 3157SOL    HW110370   1.505   1.972   3.133
 3157SOL    HW210371   1.538   1.817   3.093
 3158SOL     OW10372   1.516   0.576   5.999
 3158SOL    HW110373   1.591   0.513   5.981
 3158SOL    HW210374   1.455   0.537   6.068
 3159SOL     OW10375   5.093   5.002   0.546
 3159SOL    HW110376   5.085   5.011   0.645
 3159SOL    HW210377   5.023   4.938   0.512
 3160SOL     OW10378   2.242   0.966   5.821
 3160SOL    HW110379   2.338   0.946   5.805
 3160SOL    HW210380   2.208   0.908   5.895
 3161SOL     OW10381   2.058   2.101   1.864
 3161SOL    HW110382   2.046   2.181   1.804
 3161SOL    HW210383   1.986   2.101   1.933
 3162SOL     OW10384   1.392   5.532   2.275
 3162SOL    HW110385   1.313   5.474   2.254
 3162SOL    HW210386   1.383   5.619   2.226
 3163SOL     OW10387   5.088   4.779   0.901
 3163SOL    HW110388   5.172   4.775   0.954
 3163SOL    HW210389   5.104   4.740   0.810
 3164SOL     OW10390   2.251   0.132   2.612
 3164SOL    HW110391   2.236   0.034   2.598
 3164SOL    HW210392   2.297   0.147   2.699
 3165SOL     OW10393   6.249   5.548   0.460
 3165SOL    HW110394   6.216   5.463   0.420
 3165SOL    HW210395   6.170   5.604   0.487
 3166SOL     OW10396   3.736   2.008   4.739
 3166SOL    HW110397   3.682   2.005   4.823
 3166SOL    HW210398   3.754   1.915   4.708
 3167SOL     OW10399   6.752   2.686   2.667
 3167SOL    HW110400   6.744   2.714   2.763
 3167SOL    HW210401   6.790   2.594   2.663
 3168SOL     OW10402   6.229   1.586   0.927
 3168SOL    HW110403   6.268   1.594   0.836
 3168SOL    HW210404   6.292   1.536   0.986
 3169SOL     OW10405   1.311   1.848   2.599
 3169SOL    HW110406   1.218   1.837   2.564
 3169SOL    HW210407   1.307   1.881   2.693
 3170SOL     OW10408   2.804   4.809   3.963
 3170SOL    HW110409   2.739   4.752   4.012
 3170SOL    HW210410   2.880   4.832   4.023
 3171SOL     OW10411   6.800   2.278   4.528
 3171SOL    HW110412   6.811   2.279   4.428
 3171SOL    HW210413   6.709   2.313   4.552
 3172SOL     OW10414   6.415   4.337   0.652
 3172SOL    HW110415   6.454   4.426   0.625
 3172SOL    HW210416   6.322   4.350   0.685
 3173SOL     OW10417   5.009   4.355   0.670
 3173SOL    HW110418   5.019   4.288   0.596
 3173SOL    HW210419   5.046   4.317   0.754
 3174SOL     OW10420   2.844   3.603   6.164
 3174SOL    HW110421   2.770   3.583   6.100
 3174SOL    HW210422   2.844   3.700   6.185
 3175SOL     OW10423   6.039   5.725   4.709
 3175SOL    HW110424   6.028   5.747   4.612
 3175SOL    HW210425   6.131   5.688   4.724
 3176SOL     OW10426   6.428   5.020   3.914
 3176SOL    HW110427   6.526   5.040   3.925
 3176SOL    HW210428   6.417   4.950   3.844
 3177SOL     OW10429   5.530   2.260   1.821
 3177SOL    HW110430   5.619   2.244   1.778
 3177SOL    HW210431   5.457   2.239   1.756
 3178SOL     OW10432   1.402   0.828   2.166
 3178SOL    HW110433   1.453   0.908   2.136
 3178SOL    HW210434   1.464   0.750   2.176
 3179SOL     OW10435   0.409   4.344   2.896
 3179SOL    HW110436   0.408   4.297   2.807
 3179SOL    HW210437   0.374   4.282   2.966
 3180SOL     OW10438   6.413   0.099   6.158
 3180SOL    HW110439   6.401   0.041   6.077
 3180SOL    HW210440   6.340   0.079   6.223
 3181SOL     OW10441   6.553   6.595   4.738
 3181SOL    HW110442   6.482   6.590   4.809
 3181SOL    HW210443   6.594   6.504   4.727
 3182SOL     OW10444   0.996   6.885   1.481
 3182SOL    HW110445   1.015   6.869   1.578
 3182SOL    HW210446   1.024   6.978   1.457
 3183SOL     OW10447   4.043   4.358   0.125
 3183SOL    HW110448   4.055   4.364   0.224
 3183SOL    HW210449   4.064   4.265   0.094
 3184SOL     OW10450   6.460   0.597   4.492
 3184SOL    HW110451   6.452   0.518   4.431
 3184SOL    HW210452   6.392   0.591   4.564
 3185SOL     OW10453   0.856   0.222   6.282
 3185SOL    HW110454   0.907   0.307   6.297
 3185SOL    HW210455   0.850   0.204   6.184
 3186SOL     OW10456   1.097   2.485   6.121
 3186SOL    HW110457   1.033   2.460   6.194
 3186SOL    HW210458   1.084   2.581   6.097
 3187SOL     OW10459   5.209   0.026   3.087
 3187SOL    HW110460   5.228   0.087   3.011
 3187SOL    HW210461   5.237   6.960   3.063
 3188SOL     OW10462   0.689   0.079   1.546
 3188SOL    HW110463   0.682   0.021   1.465
 3188SOL    HW210464   0.768   0.140   1.536
 3189SOL     OW10465   3.043   1.595   5.799
 3189SOL    HW110466   2.970   1.535   5.767
 3189SOL    HW210467   3.106   1.614   5.724
 3190SOL     OW10468   6.412   5.914   4.509
 3190SOL    HW110469   6.449   6.007   4.510
 3190SOL    HW210470   6.430   5.872   4.420
 3191SOL     OW10471   4.219   5.074   0.266
 3191SOL    HW110472   4.262   5.105   0.181
 3191SOL    HW210473   4.202   5.153   0.325
 3192SOL     OW10474   4.870   0.488   3.054
 3192SOL    HW110475   4.829   0.408   3.099
 3192SOL    HW210476   4.969   0.485   3.065
 3193SOL     OW10477   4.285   5.363   5.167
 3193SOL    HW110478   4.232   5.357   5.082
 3193SOL    HW210479   4.241   5.309   5.238
 3194SOL     OW10480   2.353   6.823   5.798
 3194SOL    HW110481   2.261   6.861   5.810
 3194SOL    HW210482   2.364   6.788   5.705
 3195SOL     OW10483   6.921   6.243   1.987
 3195SOL    HW110484   6.938   6.175   1.916
 3195SOL    HW210485   6.825   6.239   2.015
 3196SOL     OW10486   5.887   0.841   3.221
 3196SOL    HW110487   5.865   0.938   3.226
 3196SOL    HW210488   5.913   0.808   3.312
 3197SOL     OW10489   3.125   0.923   0.475
 3197SOL    HW110490   3.139   1.014   0.438
 3197SOL    HW210491   3.113   0.858   0.400
 3198SOL     OW10492   5.903   4.576   4.270
 3198SOL    HW110493   5.922   4.672   4.287
 3198SOL    HW210494   5.914   4.524   4.355
 3199SOL     OW10495   5.506   3.221   4.472
 3199SOL    HW110496   5.597   3.257   4.493
 3199SOL    HW210497   5.468   3.271   4.394
 3200SOL     OW10498   6.263   3.212   5.080
 3200SOL    HW110499   6.336   3.161   5.036
 3200SOL    HW210500   6.279   3.310   5.070
 3201SOL     OW10501   6.244   2.946   2.673
 3201SOL    HW110502   6.339   2.977   2.674
 3201SOL    HW210503   6.185   3.019   2.639
 3202SOL     OW10504   3.889   2.903   5.991
 3202SOL    HW110505   3.812   2.843   5.967
 3202SOL    HW210506   3.950   2.856   6.054
 3203SOL     OW10507   3.357   6.695   1.685
 3203SOL    HW110508   3.359   6.696   1.785
 3203SOL    HW210509   3.375   6.602   1.652
 3204SOL     OW10510   5.848   0.140   3.168
 3204SOL    HW110511   5.919   0.072   3.149
 3204SOL    HW210512   5.851   0.212   3.098
 3205SOL     OW10513   5.585   2.870   0.852
 3205SOL    HW110514   5.498   2.903   0.887
 3205SOL    HW210515   5.571   2.786   0.801
 3206SOL     OW10516   3.821   5.675   0.171
 3206SOL    HW110517   3.916   5.674   0.141
 3206SOL    HW210518   3.816   5.695   0.268
 3207SOL     OW10519   1.861   5.783   2.438
 3207SOL    HW110520   1.946   5.731   2.444
 3207SOL    HW210521   1.814   5.781   2.526
 3208SOL     OW10522   0.385   4.019   6.738
 3208SOL    HW110523   0.334   4.027   6.652
 3208SOL    HW210524   0.452   3.946   6.730
 3209SOL     OW10525   4.859   0.133   5.054
 3209SOL    HW110526   4.775   0.090   5.021
 3209SOL    HW210527   4.909   0.069   5.113
 3210SOL     OW10528   5.141   5.147   2.320
 3210SOL    HW110529   5.046   5.122   2.340
 3210SOL    HW210530   5.161   5.126   2.225
 3211SOL     OW10531   2.339   0.484   6.528
 3211SOL    HW110532   2.403   0.468   6.603
 3211SOL    HW210533   2.254   0.523   6.564
 3212SOL     OW10534   3.815   0.173   3.674
 3212SOL    HW110535   3.763   0.162   3.589
 3212SOL    HW210536   3.900   0.120   3.668
 3213SOL     OW10537   1.413   0.211   5.695
 3213SOL    HW110538   1.453   0.146   5.631
 3213SOL    HW210539   1.364   0.161   5.766
 3214SOL     OW10540   1.912   0.222   2.843
 3214SOL    HW110541   1.813   0.236   2.848
 3214SOL    HW210542   1.957   0.310   2.823
 3215SOL     OW10543   1.975   3.208   1.684
 3215SOL    HW110544   2.073   3.224   1.701
 3215SOL    HW210545   1.954   3.111   1.700
 3216SOL     OW10546   0.132   4.180   1.493
 3216SOL    HW110547   0.158   4.268   1.532
 3216SOL    HW210548   0.043   4.188   1.448
 3217SOL     OW10549   5.708   5.763   4.187
 3217SOL    HW110550   5.777   5.692   4.202
 3217SOL    HW210551   5.752   5.853   4.182
 3218SOL     OW10552   5.911   1.650   3.322
 3218SOL    HW110553   5.815   1.634   3.297
 3218SOL    HW210554   5.942   1.737   3.282
 3219SOL     OW10555   4.160   1.505   4.365
 3219SOL    HW110556   4.134   1.602   4.369
 3219SOL    HW210557   4.110   1.454   4.436
 3220SOL     OW10558   0.649   4.150   5.936
 3220SOL    HW110559   0.734   4.103   5.962
 3220SOL    HW210560   0.588   4.155   6.015
 3221SOL     OW10561   4.240   1.865   2.363
 3221SOL    HW110562   4.150   1.897   2.332
 3221SOL    HW210563   4.278   1.803   2.295
 3222SOL     OW10564   2.813   0.652   2.937
 3222SOL    HW110565   2.760   0.578   2.895
 3222SOL    HW210566   2.774   0.740   2.913
 3223SOL     OW10567   2.424   5.062   0.636
 3223SOL    HW110568   2.494   5.054   0.707
 3223SOL    HW210569   2.428   5.153   0.595
 3224SOL     OW10570   4.583   2.641   4.090
 3224SOL    HW110571   4.532   2.721   4.059
 3224SOL    HW210572   4.644   2.667   4.165
 3225SOL     OW10573   2.740   1.095   4.823
 3225SOL    HW110574   2.813   1.050   4.771
 3225SOL    HW210575   2.779   1.170   4.877
 3226SOL     OW10576   5.118   1.106   0.067
 3226SOL    HW110577   5.130   1.157   7.008
 3226SOL    HW210578   5.024   1.118   0.099
 3227SOL     OW10579   6.061   4.207   5.781
 3227SOL    HW110580   6.146   4.181   5.827
 3227SOL    HW210581   6.003   4.256   5.845
 3228SOL     OW10582   1.251   4.523   1.169
 3228SOL    HW110583   1.239   4.620   1.194
 3228SOL    HW210584   1.166   4.488   1.130
 3229SOL     OW10585   0.885   1.051   0.033
 3229SOL    HW110586   0.806   1.105   0.060
 3229SOL    HW210587   0.855   0.971   7.007
 3230SOL     OW10588   3.964   0.008   5.065
 3230SOL    HW110589   3.907   7.010   4.987
 3230SOL    HW210590   3.916   0.076   5.121
 3231SOL     OW10591   2.790   1.940   3.186
 3231SOL    HW110592   2.805   2.030   3.145
 3231SOL    HW210593   2.771   1.951   3.283
 3232SOL     OW10594   3.394   5.266   3.234
 3232SOL    HW110595   3.327   5.192   3.238
 3232SOL    HW210596   3.437   5.278   3.323
 3233SOL     OW10597   2.203   6.799   4.880
 3233SOL    HW110598   2.129   6.835   4.823
 3233SOL    HW210599   2.208   6.850   4.965
 3234SOL     OW10600   3.518   3.824   0.682
 3234SOL    HW110601   3.534   3.918   0.710
 3234SOL    HW210602   3.450   3.782   0.742
 3235SOL     OW10603   0.134   1.541   3.047
 3235SOL    HW110604   0.050   1.593   3.055
 3235SOL    HW210605   0.114   1.443   3.056
 3236SOL     OW10606   5.985   6.393   0.476
 3236SOL    HW110607   5.960   6.311   0.526
 3236SOL    HW210608   6.082   6.390   0.453
 3237SOL     OW10609   6.080   2.759   5.752
 3237SOL    HW110610   5.982   2.742   5.742
 3237SOL    HW210611   6.096   2.856   5.766
 3238SOL     OW10612   0.759   4.407   0.890
 3238SOL    HW110613   0.669   4.440   0.862
 3238SOL    HW210614   0.749   4.321   0.939
 3239SOL     OW10615   6.546   1.413   4.586
 3239SOL    HW110616   6.630   1.461   4.560
 3239SOL    HW210617   6.475   1.480   4.608
 3240SOL     OW10618   1.099   1.444   1.603
 3240SOL    HW110619   1.188   1.415   1.639
 3240SOL    HW210620   1.068   1.378   1.534
 3241SOL     OW10621   0.082   2.425   5.981
 3241SOL    HW110622   7.012   2.446   5.973
 3241SOL    HW210623   0.094   2.326   5.985
 3242SOL     OW10624   6.893   5.012   5.609
 3242SOL    HW110625   6.951   4.989   5.531
 3242SOL    HW210626   6.933   5.088   5.660
 3243SOL     OW10627   6.183   4.850   5.046
 3243SOL    HW110628   6.197   4.882   4.953
 3243SOL    HW210629   6.133   4.919   5.098
 3244SOL     OW10630   5.080   6.998   0.160
 3244SOL    HW110631   5.109   0.032   0.233
 3244SOL    HW210632   5.096   0.014   0.071
 3245SOL     OW10633   1.736   6.292   4.649
 3245SOL    HW110634   1.775   6.264   4.561
 3245SOL    HW210635   1.810   6.308   4.714
 3246SOL     OW10636   6.364   4.644   2.054
 3246SOL    HW110637   6.287   4.594   2.094
 3246SOL    HW210638   6.431   4.579   2.019
 3247SOL     OW10639   2.069   3.975   5.050
 3247SOL    HW110640   2.048   3.899   5.112
 3247SOL    HW210641   2.164   4.003   5.063
 3248SOL     OW10642   6.092   2.144   4.393
 3248SOL    HW110643   6.039   2.066   4.426
 3248SOL    HW210644   6.091   2.145   4.293
 3249SOL     OW10645   3.833   3.959   4.020
 3249SOL    HW110646   3.914   3.950   4.078
 3249SOL    HW210647   3.828   3.882   3.956
 3250SOL     OW10648   4.434   5.305   3.455
 3250SOL    HW110649   4.494   5.227   3.441
 3250SOL    HW210650   4.488   5.386   3.474
 3251SOL     OW10651   2.502   2.443   2.037
 3251SOL    HW110652   2.545   2.496   1.964
 3251SOL    HW210653   2.443   2.502   2.091
 3252SOL     OW10654   1.615   1.763   2.807
 3252SOL    HW110655   1.548   1.758   2.733
 3252SOL    HW210656   1.579   1.822   2.880
 3253SOL     OW10657   6.672   3.308   1.265
 3253SOL    HW110658   6.615   3.236   1.305
 3253SOL    HW210659   6.710   3.365   1.337
 3254SOL     OW10660   5.545   0.192   0.536
 3254SOL    HW110661   5.642   0.208   0.553
 3254SOL    HW210662   5.514   0.111   0.586
 3255SOL     OW10663   3.605   4.929   2.168
 3255SOL    HW110664   3.576   4.866   2.095
 3255SOL    HW210665   3.527   4.951   2.226
 3256SOL     OW10666   5.197   2.558   2.487
 3256SOL    HW110667   5.158   2.634   2.435
 3256SOL    HW210668   5.159   2.471   2.454
 3257SOL     OW10669   3.152   1.300   2.448
 3257SOL    HW110670   3.105   1.304   2.360
 3257SOL    HW210671   3.087   1.277   2.520
 3258SOL     OW10672   0.144   5.703   4.486
 3258SOL    HW110673   0.162   5.605   4.476
 3258SOL    HW210674   0.050   5.717   4.516
 3259SOL     OW10675   6.322   5.487   2.168
 3259SOL    HW110676   6.235   5.534   2.151
 3259SOL    HW210677   6.396   5.554   2.171
 3260SOL     OW10678   2.889   5.018   3.490
 3260SOL    HW110679   2.817   5.085   3.506
 3260SOL    HW210680   2.886   4.948   3.561
 3261SOL     OW10681   6.241   0.705   4.296
 3261SOL    HW110682   6.147   0.674   4.308
 3261SOL    HW210683   6.261   0.777   4.364
 3262SOL     OW10684   3.135   2.145   2.454
 3262SOL    HW110685   3.226   2.170   2.421
 3262SOL    HW210686   3.124   2.045   2.452
 3263SOL     OW10687   5.725   0.531   0.897
 3263SOL    HW110688   5.731   0.615   0.844
 3263SOL    HW210689   5.641   0.482   0.872
 3264SOL     OW10690   1.464   5.593   6.899
 3264SOL    HW110691   1.380   5.594   6.845
 3264SOL    HW210692   1.451   5.536   6.980
 3265SOL     OW10693   6.836   5.697   5.408
 3265SOL    HW110694   6.755   5.712   5.464
 3265SOL    HW210695   6.817   5.727   5.314
 3266SOL     OW10696   3.052   4.540   6.823
 3266SOL    HW110697   3.087   4.625   6.784
 3266SOL    HW210698   3.108   4.463   6.791
 3267SOL     OW10699   2.790   0.396   0.058
 3267SOL    HW110700   2.725   0.455   0.012
 3267SOL    HW210701   2.857   0.451   0.108
 3268SOL     OW10702   5.345   3.780   2.753
 3268SOL    HW110703   5.288   3.848   2.707
 3268SOL    HW210704   5.391   3.724   2.685
 3269SOL     OW10705   2.461   5.475   0.258
 3269SOL    HW110706   2.490   5.394   0.310
 3269SOL    HW210707   2.373   5.506   0.292
 3270SOL     OW10708   1.688   3.680   6.082
 3270SOL    HW110709   1.725   3.631   6.161
 3270SOL    HW210710   1.750   3.754   6.057
 3271SOL     OW10711   1.381   3.958   1.897
 3271SOL    HW110712   1.445   3.966   1.973
 3271SOL    HW210713   1.287   3.954   1.931
 3272SOL     OW10714   3.680   0.246   0.565
 3272SOL    HW110715   3.725   0.288   0.486
 3272SOL    HW210716   3.724   0.278   0.649
 3273SOL     OW10717   4.374   3.887   6.577
 3273SOL    HW110718   4.445   3.918   6.514
 3273SOL    HW210719   4.299   3.954   6.577
 3274SOL     OW10720   4.770   0.383   1.813
 3274SOL    HW110721   4.782   0.326   1.731
 3274SOL    HW210722   4.848   0.445   1.821
 3275SOL     OW10723   4.895   0.464   1.344
 3275SOL    HW110724   4.872   0.549   1.391
 3275SOL    HW210725   4.951   0.407   1.404
 3276SOL     OW10726   6.719   6.075   1.198
 3276SOL    HW110727   6.780   6.151   1.176
 3276SOL    HW210728   6.763   5.989   1.171
 3277SOL     OW10729   5.372   0.874   2.264
 3277SOL    HW110730   5.325   0.786   2.250
 3277SOL    HW210731   5.329   0.944   2.207
 3278SOL     OW10732   4.980   1.105   6.730
 3278SOL    HW110733   5.041   1.160   6.786
 3278SOL    HW210734   4.983   1.010   6.760
 3279SOL     OW10735   3.734   0.288   2.382
 3279SOL    HW110736   3.760   0.237   2.465
 3279SOL    HW210737   3.725   0.385   2.405
 3280SOL     OW10738   0.441   2.134   4.338
 3280SOL    HW110739   0.486   2.223   4.331
 3280SOL    HW210740   0.428   2.096   4.246
 3281SOL     OW10741   5.601   2.693   2.082
 3281SOL    HW110742   5.596   2.650   2.172
 3281SOL    HW210743   5.558   2.634   2.014
 3282SOL     OW10744   6.727   5.152   5.957
 3282SOL    HW110745   6.789   5.086   5.999
 3282SOL    HW210746   6.642   5.157   6.011
 3283SOL     OW10747   3.420   1.442   0.223
 3283SOL    HW110748   3.362   1.382   0.278
 3283SOL    HW210749   3.469   1.505   0.282
 3284SOL     OW10750   2.180   0.790   5.407
 3284SOL    HW110751   2.165   0.879   5.450
 3284SOL    HW210752   2.228   0.802   5.320
 3285SOL     OW10753   4.397   1.692   4.575
 3285SOL    HW110754   4.446   1.606   4.566
 3285SOL    HW210755   4.435   1.745   4.651
 3286SOL     OW10756   1.800   3.978   3.379
 3286SOL    HW110757   1.706   4.007   3.395
 3286SOL    HW210758   1.853   3.988   3.463
 3287SOL     OW10759   3.271   1.740   0.657
 3287SOL    HW110760   3.191   1.731   0.717
 3287SOL    HW210761   3.354   1.721   0.710
 3288SOL     OW10762   3.186   5.379   1.116
 3288SOL    HW110763   3.097   5.422   1.132
 3288SOL    HW210764   3.218   5.336   1.200
 3289SOL     OW10765   5.580   6.809   0.130
 3289SOL    HW110766   5.623   6.766   0.209
 3289SOL    HW210767   5.570   6.907   0.146
 3290SOL     OW10768   0.726   4.092   0.078
 3290SOL    HW110769   0.764   4.003   0.055
 3290SOL    HW210770   0.798   4.151   0.114
 3291SOL     OW10771   5.329   6.711   5.871
 3291SOL    HW110772   5.311   6.775   5.796
 3291SOL    HW210773   5.249   6.707   5.931
 3292SOL     OW10774   0.414   2.870   0.520
 3292SOL    HW110775   0.383   2.906   0.432
 3292SOL    HW210776   0.505   2.907   0.540
 3293SOL     OW10777   0.202   4.722   1.715
 3293SOL    HW110778   0.168   4.769   1.634
 3293SOL    HW210779   0.231   4.629   1.690
 3294SOL     OW10780   3.921   2.697   5.496
 3294SOL    HW110781   3.871   2.762   5.440
 3294SOL    HW210782   3.927   2.609   5.447
 3295SOL     OW10783   1.619   3.498   3.208
 3295SOL    HW110784   1.547   3.567   3.198
 3295SOL    HW210785   1.661   3.480   3.118
 3296SOL     OW10786   2.346   0.656   6.942
 3296SOL    HW110787   2.435   0.686   6.979
 3296SOL    HW210788   2.289   0.736   6.926
 3297SOL     OW10789   2.795   1.008   6.133
 3297SOL    HW110790   2.719   0.997   6.196
 3297SOL    HW210791   2.808   1.105   6.113
 3298SOL     OW10792   3.831   3.869   6.211
 3298SOL    HW110793   3.756   3.861   6.277
 3298SOL    HW210794   3.798   3.845   6.120
 3299SOL     OW10795   2.589   6.455   3.959
 3299SOL    HW110796   2.632   6.543   3.938
 3299SOL    HW210797   2.493   6.458   3.931
 3300SOL     OW10798   2.252   1.375   2.739
 3300SOL    HW110799   2.225   1.326   2.822
 3300SOL    HW210800   2.191   1.454   2.727
 3301SOL     OW10801   0.971   0.265   1.932
 3301SOL    HW110802   0.909   0.343   1.935
 3301SOL    HW210803   1.063   0.297   1.910
 3302SOL     OW10804   1.910   5.522   4.787
 3302SOL    HW110805   1.843   5.509   4.860
 3302SOL    HW210806   1.870   5.575   4.713
 3303SOL     OW10807   4.497   4.117   0.090
 3303SOL    HW110808   4.572   4.181   0.076
 3303SOL    HW210809   4.410   4.162   0.068
 3304SOL     OW10810   2.456   3.672   0.696
 3304SOL    HW110811   2.549   3.708   0.692
 3304SOL    HW210812   2.429   3.639   0.606
 3305SOL     OW10813   3.240   2.758   6.989
 3305SOL    HW110814   3.264   2.663   6.969
 3305SOL    HW210815   3.187   2.796   6.913
 3306SOL     OW10816   2.746   0.475   0.632
 3306SOL    HW110817   2.808   0.529   0.688
 3306SOL    HW210818   2.756   0.378   0.654
 3307SOL     OW10819   2.020   5.922   5.333
 3307SOL    HW110820   1.934   5.955   5.372
 3307SOL    HW210821   2.091   5.990   5.348
 3308SOL     OW10822   5.357   5.254   1.626
 3308SOL    HW110823   5.274   5.254   1.682
 3308SOL    HW210824   5.363   5.168   1.576
 3309SOL     OW10825   5.529   2.906   4.225
 3309SOL    HW110826   5.475   2.896   4.142
 3309SOL    HW210827   5.592   2.983   4.216
 3310SOL     OW10828   6.097   4.033   0.210
 3310SOL    HW110829   6.060   4.105   0.150
 3310SOL    HW210830   6.024   3.968   0.231
 3311SOL     OW10831   0.868   3.262   1.300
 3311SOL    HW110832   0.913   3.183   1.259
 3311SOL    HW210833   0.810   3.307   1.232
 3312SOL     OW10834   5.308   3.873   0.240
 3312SOL    HW110835   5.250   3.941   0.196
 3312SOL    HW210836   5.348   3.813   0.171
 3313SOL     OW10837   0.700   6.139   4.237
 3313SOL    HW110838   0.602   6.155   4.233
 3313SOL    HW210839   0.733   6.158   4.329
 3314SOL     OW10840   3.697   6.012   3.571
 3314SOL    HW110841   3.651   5.935   3.614
 3314SOL    HW210842   3.772   6.044   3.630
 3315SOL     OW10843   0.912   6.622   3.902
 3315SOL    HW110844   0.989   6.570   3.938
 3315SOL    HW210845   0.829   6.599   3.952
 3316SOL     OW10846   3.903   2.045   0.729
 3316SOL    HW110847   3.885   2.051   0.827
 3316SOL    HW210848   3.994   2.005   0.714
 3317SOL     OW10849   5.595   2.489   1.514
 3317SOL    HW110850   5.693   2.470   1.509
 3317SOL    HW210851   5.544   2.412   1.475
 3318SOL     OW10852   3.940   2.710   0.397
 3318SOL    HW110853   4.022   2.673   0.441
 3318SOL    HW210854   3.889   2.765   0.464
 3319SOL     OW10855   6.692   6.555   3.839
 3319SOL    HW110856   6.754   6.609   3.896
 3319SOL    HW210857   6.597   6.573   3.867
 3320SOL     OW10858   5.932   0.388   3.034
 3320SOL    HW110859   5.863   0.455   3.063
 3320SOL    HW210860   5.973   0.419   2.947
 3321SOL     OW10861   4.636   1.610   6.602
 3321SOL    HW110862   4.573   1.615   6.525
 3321SOL    HW210863   4.729   1.596   6.568
 3322SOL     OW10864   5.948   3.372   2.166
 3322SOL    HW110865   5.920   3.393   2.072
 3322SOL    HW210866   6.006   3.446   2.201
 3323SOL     OW10867   6.762   0.693   2.418
 3323SOL    HW110868   6.716   0.668   2.503
 3323SOL    HW210869   6.843   0.749   2.440
 3324SOL     OW10870   6.201   5.704   6.511
 3324SOL    HW110871   6.246   5.630   6.460
 3324SOL    HW210872   6.250   5.790   6.496
 3325SOL     OW10873   2.469   5.409   6.562
 3325SOL    HW110874   2.480   5.496   6.610
 3325SOL    HW210875   2.555   5.359   6.564
 3326SOL     OW10876   3.895   1.474   1.753
 3326SOL    HW110877   3.983   1.521   1.748
 3326SOL    HW210878   3.883   1.416   1.672
 3327SOL     OW10879   1.600   6.238   5.918
 3327SOL    HW110880   1.558   6.313   5.867
 3327SOL    HW210881   1.548   6.219   6.001
 3328SOL     OW10882   3.964   2.276   5.514
 3328SOL    HW110883   3.942   2.345   5.446
 3328SOL    HW210884   4.032   2.312   5.578
 3329SOL     OW10885   0.300   6.363   5.099
 3329SOL    HW110886   0.353   6.421   5.037
 3329SOL    HW210887   0.263   6.285   5.049
 3330SOL     OW10888   6.718   3.179   3.395
 3330SOL    HW110889   6.739   3.244   3.468
 3330SOL    HW210890   6.746   3.087   3.423
 3331SOL     OW10891   1.477   3.681   0.572
 3331SOL    HW110892   1.475   3.705   0.669
 3331SOL    HW210893   1.404   3.615   0.553
 3332SOL     OW10894   6.544   3.888   1.699
 3332SOL    HW110895   6.537   3.980   1.737
 3332SOL    HW210896   6.453   3.856   1.673
 3333SOL     OW10897   3.078   6.573   5.152
 3333SOL    HW110898   3.051   6.480   5.175
 3333SOL    HW210899   3.001   6.635   5.167
 3334SOL     OW10900   1.761   2.676   1.040
 3334SOL    HW110901   1.670   2.642   1.019
 3334SOL    HW210902   1.764   2.708   1.135
 3335SOL     OW10903   5.635   4.143   5.310
 3335SOL    HW110904   5.671   4.196   5.387
 3335SOL    HW210905   5.665   4.048   5.318
 3336SOL     OW10906   3.580   6.042   5.557
 3336SOL    HW110907   3.494   6.014   5.600
 3336SOL    HW210908   3.610   6.128   5.597
 3337SOL     OW10909   3.778   1.027   0.953
 3337SOL    HW110910   3.742   1.118   0.974
 3337SOL    HW210911   3.730   0.991   0.873
 3338SOL     OW10912   6.277   5.902   0.426
 3338SOL    HW110913   6.344   5.841   0.382
 3338SOL    HW210914   6.189   5.893   0.380
 3339SOL     OW10915   0.329   4.950   0.336
 3339SOL    HW110916   0.381   4.957   0.250
 3339SOL    HW210917   0.390   4.969   0.413
 3340SOL     OW10918   4.407   0.788   1.656
 3340SOL    HW110919   4.422   0.714   1.591
 3340SOL    HW210920   4.489   0.800   1.713
 3341SOL     OW10921   1.169   0.250   6.658
 3341SOL    HW110922   1.178   0.345   6.627
 3341SOL    HW210923   1.085   0.241   6.711
 3342SOL     OW10924   1.517   6.962   5.169
 3342SOL    HW110925   1.606   6.950   5.213
 3342SOL    HW210926   1.478   6.872   5.146
 3343SOL     OW10927   0.037   1.957   1.213
 3343SOL    HW110928   0.108   2.018   1.178
 3343SOL    HW210929   6.979   1.969   1.161
 3344SOL     OW10930   1.294   2.111   6.825
 3344SOL    HW110931   1.232   2.171   6.876
 3344SOL    HW210932   1.240   2.040   6.780
 3345SOL     OW10933   2.870   3.191   7.018
 3345SOL    HW110934   2.856   3.140   6.933
 3345SOL    HW210935   2.966   3.186   0.017
 3346SOL     OW10936   3.242   5.438   2.719
 3346SOL    HW110937   3.262   5.536   2.722
 3346SOL    HW210938   3.328   5.386   2.720
 3347SOL     OW10939   5.777   4.026   4.068
 3347SOL    HW110940   5.743   4.120   4.071
 3347SOL    HW210941   5.710   3.964   4.108
 3348SOL     OW10942   3.948   3.830   3.430
 3348SOL    HW110943   3.918   3.924   3.413
 3348SOL    HW210944   3.941   3.776   3.346
 3349SOL     OW10945   5.317   2.430   0.702
 3349SOL    HW110946   5.311   2.378   0.787
 3349SOL    HW210947   5.323   2.368   0.624
 3350SOL     OW10948   2.221   2.437   1.508
 3350SOL    HW110949   2.212   2.536   1.522
 3350SOL    HW210950   2.248   2.420   1.413
 3351SOL     OW10951   6.215   3.013   1.248
 3351SOL    HW110952   6.174   2.944   1.308
 3351SOL    HW210953   6.148   3.042   1.181
 3352SOL     OW10954   0.361   3.951   0.620
 3352SOL    HW110955   0.266   3.952   0.651
 3352SOL    HW210956   0.366   3.909   0.529
 3353SOL     OW10957   0.990   6.308   6.389
 3353SOL    HW110958   0.978   6.238   6.460
 3353SOL    HW210959   0.905   6.319   6.338
 3354SOL     OW10960   0.136   6.083   2.628
 3354SOL    HW110961   0.191   6.133   2.694
 3354SOL    HW210962   0.182   5.997   2.605
 3355SOL     OW10963   5.732   1.085   3.032
 3355SOL    HW110964   5.810   1.145   3.015
 3355SOL    HW210965   5.724   1.018   2.958
 3356SOL     OW10966   1.838   3.563   6.312
 3356SOL    HW110967   1.878   3.522   6.394
 3356SOL    HW210968   1.827   3.662   6.326
 3357SOL     OW10969   2.731   5.947   2.644
 3357SOL    HW110970   2.715   5.856   2.684
 3357SOL    HW210971   2.657   5.968   2.580
 3358SOL     OW10972   0.338   3.501   3.221
 3358SOL    HW110973   0.290   3.416   3.199
 3358SOL    HW210974   0.434   3.493   3.193
 3359SOL     OW10975   2.837   1.852   1.676
 3359SOL    HW110976   2.855   1.947   1.702
 3359SOL    HW210977   2.771   1.850   1.601
 3360SOL     OW10978   2.144   0.870   6.094
 3360SOL    HW110979   2.165   0.835   6.186
 3360SOL    HW210980   2.096   0.957   6.102
 3361SOL     OW10981   2.245   1.039   2.648
 3361SOL    HW110982   2.245   1.060   2.746
 3361SOL    HW210983   2.267   1.121   2.596
 3362SOL     OW10984   3.322   2.158   4.243
 3362SOL    HW110985   3.285   2.190   4.156
 3362SOL    HW210986   3.272   2.202   4.318
 3363SOL     OW10987   6.786   0.560   0.294
 3363SOL    HW110988   6.692   0.544   0.265
 3363SOL    HW210989   6.792   0.551   0.394
 3364SOL     OW10990   1.839   5.494   5.190
 3364SOL    HW110991   1.912   5.456   5.247
 3364SOL    HW210992   1.823   5.590   5.214
 3365SOL     OW10993   6.499   2.279   5.553
 3365SOL    HW110994   6.503   2.291   5.652
 3365SOL    HW210995   6.408   2.301   5.519
 3366SOL     OW10996   4.628   1.401   0.641
 3366SOL    HW110997   4.560   1.383   0.570
 3366SOL    HW210998   4.694   1.325   0.645
 3367SOL     OW10999   1.634   6.885   2.175
 3367SOL    HW111000   1.541   6.907   2.204
 3367SOL    HW211001   1.632   6.856   2.079
 3368SOL     OW11002   6.126   1.149   4.744
 3368SOL    HW111003   6.114   1.052   4.724
 3368SOL    HW211004   6.059   1.178   4.813
 3369SOL     OW11005   3.701   5.362   6.349
 3369SOL    HW111006   3.740   5.270   6.356
 3369SOL    HW211007   3.767   5.429   6.383
 3370SOL     OW11008   5.758   0.937   5.904
 3370SOL    HW111009   5.756   0.971   5.998
 3370SOL    HW211010   5.665   0.934   5.868
 3371SOL     OW11011   6.571   5.031   1.481
 3371SOL    HW111012   6.584   5.037   1.580
 3371SOL    HW211013   6.515   5.108   1.450
 3372SOL     OW11014   1.791   3.104   2.407
 3372SOL    HW111015   1.773   3.108   2.505
 3372SOL    HW211016   1.884   3.072   2.391
 3373SOL     OW11017   1.734   2.760   6.103
 3373SOL    HW111018   1.773   2.846   6.067
 3373SOL    HW211019   1.637   2.772   6.120
 3374SOL     OW11020   3.223   6.015   5.133
 3374SOL    HW111021   3.322   6.007   5.118
 3374SOL    HW211022   3.206   6.063   5.218
 3375SOL     OW11023   3.091   4.214   5.180
 3375SOL    HW111024   3.008   4.269   5.176
 3375SOL    HW211025   3.113   4.178   5.089
 3376SOL     OW11026   3.497   3.251   1.470
 3376SOL    HW111027   3.450   3.191   1.406
 3376SOL    HW211028   3.475   3.347   1.449
 3377SOL     OW11029   2.865   5.066   5.729
 3377SOL    HW111030   2.837   4.991   5.789
 3377SOL    HW211031   2.859   5.152   5.779
 3378SOL     OW11032   6.620   1.181   0.417
 3378SOL    HW111033   6.584   1.096   0.455
 3378SOL    HW211034   6.719   1.186   0.435
 3379SOL     OW11035   6.183   5.395   5.889
 3379SOL    HW111036   6.118   5.342   5.943
 3379SOL    HW211037   6.161   5.385   5.792
 3380SOL     OW11038   0.311   3.749   5.166
 3380SOL    HW111039   0.377   3.761   5.241
 3380SOL    HW211040   0.298   3.835   5.118
 3381SOL     OW11041   3.400   2.266   0.927
 3381SOL    HW111042   3.414   2.254   1.026
 3381SOL    HW211043   3.410   2.362   0.903
 3382SOL     OW11044   0.159   6.027   6.956
 3382SOL    HW111045   0.089   5.974   7.005
 3382SOL    HW211046   0.169   6.116   7.000
 3383SOL     OW11047   0.527   4.100   1.733
 3383SOL    HW111048   0.430   4.088   1.714
 3383SOL    HW211049   0.551   4.051   1.817
 3384SOL     OW11050   2.940   3.604   3.459
 3384SOL    HW111051   2.964   3.662   3.381
 3384SOL    HW211052   2.938   3.659   3.542
 3385SOL     OW11053   6.887   4.239   3.448
 3385SOL    HW111054   6.890   4.329   3.492
 3385SOL    HW211055   6.792   4.214   3.430
 3386SOL     OW11056   5.643   4.255   3.910
 3386SOL    HW111057   5.723   4.283   3.856
 3386SOL    HW211058   5.566   4.237   3.849
 3387SOL     OW11059   3.786   1.730   2.171
 3387SOL    HW111060   3.846   1.665   2.125
 3387SOL    HW211061   3.714   1.759   2.107
 3388SOL     OW11062   6.138   1.510   1.236
 3388SOL    HW111063   6.155   1.595   1.185
 3388SOL    HW211064   6.060   1.462   1.196
 3389SOL     OW11065   3.908   5.546   2.092
 3389SOL    HW111066   3.945   5.637   2.075
 3389SOL    HW211067   3.941   5.482   2.022
 3390SOL     OW11068   4.122   2.028   5.999
 3390SOL    HW111069   4.178   2.043   6.081
 3390SOL    HW211070   4.173   1.973   5.933
 3391SOL     OW11071   3.267   1.242   4.164
 3391SOL    HW111072   3.316   1.165   4.205
 3391SOL    HW211073   3.243   1.308   4.235
 3392SOL     OW11074   5.701   6.268   4.260
 3392SOL    HW111075   5.674   6.264   4.164
 3392SOL    HW211076   5.625   6.236   4.318
 3393SOL     OW11077   0.506   0.465   6.148
 3393SOL    HW111078   0.415   0.430   6.167
 3393SOL    HW211079   0.563   0.455   6.230
 3394SOL     OW11080   5.090   1.281   2.119
 3394SOL    HW111081   5.045   1.369   2.101
 3394SOL    HW211082   5.029   1.224   2.173
 3395SOL     OW11083   2.045   3.809   5.353
 3395SOL    HW111084   2.003   3.797   5.443
 3395SOL    HW211085   2.141   3.778   5.357
 3396SOL     OW11086   6.030   3.695   4.159
 3396SOL    HW111087   6.024   3.788   4.196
 3396SOL    HW211088   5.964   3.636   4.205
 3397SOL     OW11089   3.048   5.547   6.141
 3397SOL    HW111090   3.070   5.600   6.059
 3397SOL    HW211091   3.126   5.488   6.164
 3398SOL     OW11092   0.336   2.009   4.109
 3398SOL    HW111093   0.263   1.974   4.168
 3398SOL    HW211094   0.317   1.984   4.014
 3399SOL     OW11095   4.109   5.595   4.539
 3399SOL    HW111096   4.010   5.585   4.533
 3399SOL    HW211097   4.132   5.690   4.559
 3400SOL     OW11098   5.822   1.899   0.619
 3400SOL    HW111099   5.811   1.919   0.716
 3400SOL    HW211100   5.740   1.928   0.569
 3401SOL     OW11101   6.934   4.822   6.869
 3401SOL    HW111102   6.943   4.921   6.860
 3401SOL    HW211103   6.958   4.778   6.782
 3402SOL     OW11104   4.207   4.778   1.730
 3402SOL    HW111105   4.225   4.709   1.660
 3402SOL    HW211106   4.127   4.752   1.783
 3403SOL     OW11107   4.009   1.785   6.214
 3403SOL    HW111108   3.914   1.762   6.195
 3403SOL    HW211109   4.069   1.734   6.152
 3404SOL     OW11110   3.800   6.008   2.550
 3404SOL    HW111111   3.763   6.100   2.566
 3404SOL    HW211112   3.725   5.941   2.551
 3405SOL     OW11113   6.215   4.052   0.579
 3405SOL    HW111114   6.158   4.128   0.609
 3405SOL    HW211115   6.158   3.972   0.560
 3406SOL     OW11116   0.548   2.704   1.746
 3406SOL    HW111117   0.610   2.638   1.788
 3406SOL    HW211118   0.468   2.656   1.709
 3407SOL     OW11119   1.151   5.440   2.205
 3407SOL    HW111120   1.089   5.364   2.190
 3407SOL    HW211121   1.102   5.515   2.251
 3408SOL     OW11122   5.276   3.666   2.197
 3408SOL    HW111123   5.370   3.643   2.173
 3408SOL    HW211124   5.229   3.586   2.232
 3409SOL     OW11125   3.116   1.712   6.889
 3409SOL    HW111126   3.103   1.722   6.988
 3409SOL    HW211127   3.131   1.615   6.868
 3410SOL     OW11128   0.397   1.572   0.583
 3410SOL    HW111129   0.458   1.590   0.507
 3410SOL    HW211130   0.322   1.638   0.582
 3411SOL     OW11131   5.073   1.979   2.673
 3411SOL    HW111132   5.014   1.913   2.720
 3411SOL    HW211133   5.069   1.963   2.574
 3412SOL     OW11134   4.602   5.175   6.717
 3412SOL    HW111135   4.578   5.271   6.704
 3412SOL    HW211136   4.539   5.134   6.784
 3413SOL     OW11137   5.068   1.034   2.616
 3413SOL    HW111138   4.977   1.074   2.629
 3413SOL    HW211139   5.138   1.106   2.625
 3414SOL     OW11140   4.218   0.802   5.967
 3414SOL    HW111141   4.182   0.802   5.874
 3414SOL    HW211142   4.289   0.732   5.976
 3415SOL     OW11143   1.471   6.446   5.780
 3415SOL    HW111144   1.551   6.493   5.741
 3415SOL    HW211145   1.445   6.492   5.865
 3416SOL     OW11146   1.221   4.927   5.193
 3416SOL    HW111147   1.318   4.946   5.178
 3416SOL    HW211148   1.182   4.887   5.110
 3417SOL     OW11149   5.973   1.258   1.124
 3417SOL    HW111150   5.909   1.329   1.151
 3417SOL    HW211151   5.924   1.171   1.113
 3418SOL     OW11152   2.337   2.311   5.067
 3418SOL    HW111153   2.400   2.342   5.138
 3418SOL    HW211154   2.389   2.292   4.983
 3419SOL     OW11155   4.380   3.483   6.164
 3419SOL    HW111156   4.291   3.449   6.134
 3419SOL    HW211157   4.377   3.502   6.262
 3420SOL     OW11158   3.144   0.655   5.017
 3420SOL    HW111159   3.127   0.699   4.929
 3420SOL    HW211160   3.226   0.694   5.058
 3421SOL     OW11161   1.215   6.339   2.988
 3421SOL    HW111162   1.305   6.295   2.994
 3421SOL    HW211163   1.179   6.354   3.080
 3422SOL     OW11164   3.409   2.136   2.830
 3422SOL    HW111165   3.429   2.064   2.763
 3422SOL    HW211166   3.493   2.160   2.879
 3423SOL     OW11167   3.797   0.667   1.664
 3423SOL    HW111168   3.700   0.661   1.691
 3423SOL    HW211169   3.849   0.711   1.737
 3424SOL     OW11170   4.838   2.153   0.564
 3424SOL    HW111171   4.923   2.111   0.534
 3424SOL    HW211172   4.760   2.097   0.535
 3425SOL     OW11173   4.049   3.678   1.411
 3425SOL    HW111174   3.994   3.597   1.427
 3425SOL    HW211175   4.130   3.654   1.357
 3426SOL     OW11176   5.063   3.888   0.757
 3426SOL    HW111177   5.065   3.916   0.853
 3426SOL    HW211178   4.988   3.935   0.711
 3427SOL     OW11179   0.929   2.188   0.547
 3427SOL    HW111180   0.916   2.218   0.452
 3427SOL    HW211181   0.842   2.154   0.583
 3428SOL     OW11182   4.618   4.877   2.969
 3428SOL    HW111183   4.580   4.899   3.059
 3428SOL    HW211184   4.585   4.788   2.940
 3429SOL     OW11185   0.478   3.109   0.155
 3429SOL    HW111186   0.419   3.061   0.219
 3429SOL    HW211187   0.500   3.049   0.078
 3430SOL     OW11188   0.723   5.356   0.411
 3430SOL    HW111189   0.644   5.403   0.451
 3430SOL    HW211190   0.734   5.267   0.455
 3431SOL     OW11191   0.867   6.037   6.491
 3431SOL    HW111192   0.799   6.012   6.422
 3431SOL    HW211193   0.948   5.980   6.480
 3432SOL     OW11194   3.739   2.066   6.122
 3432SOL    HW111195   3.745   2.110   6.033
 3432SOL    HW211196   3.749   1.967   6.111
 3433SOL     OW11197   4.093   1.536   5.048
 3433SOL    HW111198   4.012   1.483   5.023
 3433SOL    HW211199   4.153   1.481   5.105
 3434SOL     OW11200   4.473   1.145   3.290
 3434SOL    HW111201   4.463   1.054   3.250
 3434SOL    HW211202   4.472   1.138   3.389
 3435SOL     OW11203   0.121   1.141   6.405
 3435SOL    HW111204   0.196   1.110   6.464
 3435SOL    HW211205   0.108   1.240   6.417
 3436SOL     OW11206   4.172   6.625   1.583
 3436SOL    HW111207   4.100   6.694   1.568
 3436SOL    HW211208   4.130   6.536   1.597
 3437SOL     OW11209   4.312   0.337   0.441
 3437SOL    HW111210   4.291   0.404   0.512
 3437SOL    HW211211   4.232   0.281   0.422
 3438SOL     OW11212   0.564   5.602   6.334
 3438SOL    HW111213   0.475   5.569   6.362
 3438SOL    HW211214   0.592   5.556   6.249
 3439SOL     OW11215   2.831   0.813   3.866
 3439SOL    HW111216   2.820   0.734   3.927
 3439SOL    HW211217   2.896   0.877   3.907
 3440SOL     OW11218   3.853   2.354   0.529
 3440SOL    HW111219   3.893   2.393   0.446
 3440SOL    HW211220   3.878   2.410   0.608
 3441SOL     OW11221   4.482   0.275   4.607
 3441SOL    HW111222   4.460   0.260   4.510
 3441SOL    HW211223   4.577   0.249   4.624
 3442SOL     OW11224   0.288   5.513   3.134
 3442SOL    HW111225   0.376   5.484   3.097
 3442SOL    HW211226   0.282   5.613   3.129
 3443SOL     OW11227   6.450   6.644   3.943
 3443SOL    HW111228   6.487   6.634   4.035
 3443SOL    HW211229   6.363   6.595   3.936
 3444SOL     OW11230   3.200   5.799   6.756
 3444SOL    HW111231   3.200   5.785   6.657
 3444SOL    HW211232   3.222   5.895   6.775
 3445SOL     OW11233   6.100   4.914   6.089
 3445SOL    HW111234   6.085   4.894   5.993
 3445SOL    HW211235   6.016   4.949   6.130
 3446SOL     OW11236   2.286   5.698   1.703
 3446SOL    HW111237   2.346   5.741   1.636
 3446SOL    HW211238   2.330   5.616   1.740
 3447SOL     OW11239   5.736   4.244   5.538
 3447SOL    HW111240   5.703   4.225   5.630
 3447SOL    HW211241   5.820   4.298   5.543
 3448SOL     OW11242   3.861   3.196   0.064
 3448SOL    HW111243   3.767   3.177   0.092
 3448SOL    HW211244   3.911   3.236   0.140
 3449SOL     OW11245   6.215   5.896   2.804
 3449SOL    HW111246   6.241   5.993   2.797
 3449SOL    HW211247   6.231   5.851   2.716
 3450SOL     OW11248   0.628   1.587   0.949
 3450SOL    HW111249   0.676   1.513   0.902
 3450SOL    HW211250   0.674   1.674   0.932
 3451SOL     OW11251   2.068   5.455   3.945
 3451SOL    HW111252   2.088   5.517   4.021
 3451SOL    HW211253   2.077   5.361   3.975
 3452SOL     OW11254   6.340   2.059   0.337
 3452SOL    HW111255   6.280   2.112   0.397
 3452SOL    HW211256   6.429   2.105   0.330
 3453SOL     OW11257   6.113   4.998   4.817
 3453SOL    HW111258   6.069   5.079   4.855
 3453SOL    HW211259   6.153   5.021   4.728
 3454SOL     OW11260   6.927   1.356   0.083
 3454SOL    HW111261   7.021   1.374   0.054
 3454SOL    HW211262   6.916   1.259   0.105
 3455SOL     OW11263   1.224   2.507   3.376
 3455SOL    HW111264   1.135   2.464   3.364
 3455SOL    HW211265   1.289   2.472   3.308
 3456SOL     OW11266   6.341   6.963   0.215
 3456SOL    HW111267   6.258   6.949   0.269
 3456SOL    HW211268   6.401   0.000   0.264
 3457SOL     OW11269   2.322   6.498   3.846
 3457SOL    HW111270   2.305   6.588   3.807
 3457SOL    HW211271   2.340   6.432   3.773
 3458SOL     OW11272   4.411   4.773   0.067
 3458SOL    HW111273   4.497   4.721   0.069
 3458SOL    HW211274   4.341   4.724   0.118
 3459SOL     OW11275   6.244   0.008   3.371
 3459SOL    HW111276   6.305   0.083   3.399
 3459SOL    HW211277   6.231   6.972   3.448
 3460SOL     OW11278   5.072   2.582   0.621
 3460SOL    HW111279   5.014   2.608   0.698
 3460SOL    HW211280   5.129   2.504   0.646
 3461SOL     OW11281   2.479   5.585   2.649
 3461SOL    HW111282   2.421   5.637   2.586
 3461SOL    HW211283   2.482   5.489   2.620
 3462SOL     OW11284   5.153   2.095   3.138
 3462SOL    HW111285   5.177   2.060   3.047
 3462SOL    HW211286   5.179   2.027   3.207
 3463SOL     OW11287   0.942   2.996   1.249
 3463SOL    HW111288   0.961   2.968   1.155
 3463SOL    HW211289   0.886   2.927   1.293
 3464SOL     OW11290   5.123   1.390   6.515
 3464SOL    HW111291   5.181   1.380   6.434
 3464SOL    HW211292   5.181   1.399   6.597
 3465SOL     OW11293   2.110   4.644   1.599
 3465SOL    HW111294   2.014   4.669   1.585
 3465SOL    HW211295   2.126   4.625   1.696
 3466SOL     OW11296   6.709   3.608   4.566
 3466SOL    HW111297   6.632   3.671   4.559
 3466SOL    HW211298   6.678   3.521   4.605
 3467SOL     OW11299   3.423   4.043   0.284
 3467SOL    HW111300   3.432   4.099   0.366
 3467SOL    HW211301   3.368   4.092   0.216
 3468SOL     OW11302   4.472   1.460   1.467
 3468SOL    HW111303   4.467   1.360   1.474
 3468SOL    HW211304   4.566   1.489   1.480
 3469SOL     OW11305   3.489   6.234   4.880
 3469SOL    HW111306   3.488   6.333   4.866
 3469SOL    HW211307   3.438   6.211   4.963
 3470SOL     OW11308   1.188   2.661   0.728
 3470SOL    HW111309   1.168   2.598   0.802
 3470SOL    HW211310   1.123   2.737   0.730
 3471SOL     OW11311   5.260   3.053   5.107
 3471SOL    HW111312   5.352   3.086   5.085
 3471SOL    HW211313   5.222   3.006   5.027
 3472SOL     OW11314   4.643   2.032   1.926
 3472SOL    HW111315   4.691   2.083   1.997
 3472SOL    HW211316   4.704   1.963   1.888
 3473SOL     OW11317   6.207   4.083   1.892
 3473SOL    HW111318   6.249   4.163   1.934
 3473SOL    HW211319   6.107   4.090   1.899
 3474SOL     OW11320   4.726   4.214   3.446
 3474SOL    HW111321   4.754   4.305   3.413
 3474SOL    HW211322   4.745   4.146   3.376
 3475SOL     OW11323   6.626   3.841   3.962
 3475SOL    HW111324   6.559   3.772   3.988
 3475SOL    HW211325   6.616   3.921   4.020
 3476SOL     OW11326   1.557   2.993   3.326
 3476SOL    HW111327   1.647   2.970   3.363
 3476SOL    HW211328   1.554   3.091   3.302
 3477SOL     OW11329   1.568   4.020   2.486
 3477SOL    HW111330   1.665   3.996   2.490
 3477SOL    HW211331   1.522   3.987   2.568
 3478SOL     OW11332   2.615   0.841   0.866
 3478SOL    HW111333   2.711   0.821   0.888
 3478SOL    HW211334   2.612   0.894   0.781
 3479SOL     OW11335   0.996   3.898   5.443
 3479SOL    HW111336   1.015   3.970   5.376
 3479SOL    HW211337   1.067   3.898   5.513
 3480SOL     OW11338   0.959   5.663   6.910
 3480SOL    HW111339   0.899   5.588   6.938
 3480SOL    HW211340   0.913   5.720   6.842
 3481SOL     OW11341   5.743   1.027   4.541
 3481SOL    HW111342   5.720   1.113   4.497
 3481SOL    HW211343   5.687   0.954   4.503
 3482SOL     OW11344   6.511   2.828   6.600
 3482SOL    HW111345   6.530   2.925   6.616
 3482SOL    HW211346   6.518   2.777   6.686
 3483SOL     OW11347   5.244   2.147   4.442
 3483SOL    HW111348   5.319   2.096   4.485
 3483SOL    HW211349   5.191   2.194   4.513
 3484SOL     OW11350   1.341   2.956   4.551
 3484SOL    HW111351   1.338   3.009   4.636
 3484SOL    HW211352   1.435   2.926   4.534
 3485SOL     OW11353   6.792   4.318   6.155
 3485SOL    HW111354   6.737   4.247   6.110
 3485SOL    HW211355   6.889   4.303   6.133
 3486SOL     OW11356   1.404   6.455   4.717
 3486SOL    HW111357   1.436   6.391   4.647
 3486SOL    HW211358   1.379   6.404   4.799
 3487SOL     OW11359   4.148   1.434   6.846
 3487SOL    HW111360   4.214   1.462   6.916
 3487SOL    HW211361   4.055   1.437   6.884
 3488SOL     OW11362   5.026   5.903   5.814
 3488SOL    HW111363   4.932   5.873   5.798
 3488SOL    HW211364   5.048   5.978   5.752
 3489SOL     OW11365   3.322   6.252   1.006
 3489SOL    HW111366   3.321   6.351   0.995
 3489SOL    HW211367   3.259   6.226   1.080
 3490SOL     OW11368   4.537   0.369   0.706
 3490SOL    HW111369   4.511   0.309   0.631
 3490SOL    HW211370   4.458   0.386   0.764
 3491SOL     OW11371   4.930   4.541   5.435
 3491SOL    HW111372   4.893   4.492   5.513
 3491SOL    HW211373   4.986   4.618   5.467
 3492SOL     OW11374   5.255   3.683   3.155
 3492SOL    HW111375   5.210   3.772   3.168
 3492SOL    HW211376   5.200   3.612   3.199
 3493SOL     OW11377   0.397   4.033   6.280
 3493SOL    HW111378   0.365   4.046   6.186
 3493SOL    HW211379   0.446   3.946   6.288
 3494SOL     OW11380   4.625   1.046   2.619
 3494SOL    HW111381   4.526   1.044   2.638
 3494SOL    HW211382   4.668   1.116   2.675
 3495SOL     OW11383   2.220   4.049   3.562
 3495SOL    HW111384   2.228   3.958   3.522
 3495SOL    HW211385   2.124   4.076   3.566
 3496SOL     OW11386   6.194   5.409   1.290
 3496SOL    HW111387   6.106   5.407   1.241
 3496SOL    HW211388   6.245   5.490   1.262
 3497SOL     OW11389   3.083   0.338   1.339
 3497SOL    HW111390   3.159   0.353   1.402
 3497SOL    HW211391   3.020   0.415   1.343
 3498SOL     OW11392   2.824   2.164   1.424
 3498SOL    HW111393   2.821   2.214   1.338
 3498SOL    HW211394   2.757   2.202   1.488
 3499SOL     OW11395   6.067   6.945   4.727
 3499SOL    HW111396   6.148   6.905   4.770
 3499SOL    HW211397   5.999   6.873   4.712
 3500SOL     OW11398   2.984   1.997   3.700
 3500SOL    HW111399   2.944   2.006   3.791
 3500SOL    HW211400   3.071   2.047   3.698
 3501SOL     OW11401   1.545   6.650   6.278
 3501SOL    HW111402   1.447   6.653   6.254
 3501SOL    HW211403   1.568   6.730   6.334
 3502SOL     OW11404   5.140   2.293   2.319
 3502SOL    HW111405   5.079   2.221   2.286
 3502SOL    HW211406   5.232   2.278   2.281
 3503SOL     OW11407   0.547   6.117   6.732
 3503SOL    HW111408   0.544   6.213   6.703
 3503SOL    HW211409   0.638   6.096   6.767
 3504SOL     OW11410   1.933   1.240   6.505
 3504SOL    HW111411   1.968   1.312   6.446
 3504SOL    HW211412   1.862   1.277   6.565
 3505SOL     OW11413   5.315   2.607   4.807
 3505SOL    HW111414   5.218   2.629   4.798
 3505SOL    HW211415   5.344   2.624   4.901
 3506SOL     OW11416   4.056   4.843   4.930
 3506SOL    HW111417   4.147   4.877   4.954
 3506SOL    HW211418   4.061   4.797   4.841
 3507SOL     OW11419   2.874   1.853   1.349
 3507SOL    HW111420   2.790   1.867   1.401
 3507SOL    HW211421   2.942   1.920   1.378
 3508SOL     OW11422   3.544   1.235   6.853
 3508SOL    HW111423   3.554   1.303   6.926
 3508SOL    HW211424   3.569   1.277   6.765
 3509SOL     OW11425   4.549   6.099   0.014
 3509SOL    HW111426   4.555   6.199   0.014
 3509SOL    HW211427   4.488   6.069   6.967
 3510SOL     OW11428   2.083   0.684   1.547
 3510SOL    HW111429   2.079   0.670   1.448
 3510SOL    HW211430   2.162   0.635   1.584
 3511SOL     OW11431   3.139   5.183   1.826
 3511SOL    HW111432   3.059   5.241   1.839
 3511SOL    HW211433   3.115   5.105   1.769
 3512SOL     OW11434   0.244   6.118   6.654
 3512SOL    HW111435   0.237   6.059   6.574
 3512SOL    HW211436   0.338   6.118   6.687
 3513SOL     OW11437   5.020   1.929   0.388
 3513SOL    HW111438   4.965   1.868   0.332
 3513SOL    HW211439   5.059   1.879   0.465
 3514SOL     OW11440   3.509   2.063   2.056
 3514SOL    HW111441   3.585   2.120   2.024
 3514SOL    HW211442   3.535   1.966   2.049
 3515SOL     OW11443   0.699   4.406   3.961
 3515SOL    HW111444   0.781   4.449   3.922
 3515SOL    HW211445   0.649   4.474   4.016
 3516SOL     OW11446   4.265   0.720   1.271
 3516SOL    HW111447   4.307   0.806   1.243
 3516SOL    HW211448   4.202   0.736   1.347
 3517SOL     OW11449   5.273   1.724   2.563
 3517SOL    HW111450   5.298   1.728   2.659
 3517SOL    HW211451   5.202   1.655   2.550
 3518SOL     OW11452   6.242   1.277   5.638
 3518SOL    HW111453   6.225   1.187   5.599
 3518SOL    HW211454   6.336   1.306   5.617
 3519SOL     OW11455   3.393   1.106   1.352
 3519SOL    HW111456   3.422   1.102   1.448
 3519SOL    HW211457   3.473   1.101   1.293
 3520SOL     OW11458   2.949   5.781   3.758
 3520SOL    HW111459   2.867   5.727   3.739
 3520SOL    HW211460   2.943   5.820   3.850
 3521SOL     OW11461   2.298   2.624   5.495
 3521SOL    HW111462   2.309   2.594   5.590
 3521SOL    HW211463   2.214   2.677   5.486
 3522SOL     OW11464   1.074   6.223   6.817
 3522SOL    HW111465   1.051   6.225   6.914
 3522SOL    HW211466   1.173   6.221   6.806
 3523SOL     OW11467   3.515   5.516   6.701
 3523SOL    HW111468   3.608   5.481   6.695
 3523SOL    HW211469   3.496   5.576   6.622
 3524SOL     OW11470   4.577   1.494   4.516
 3524SOL    HW111471   4.621   1.522   4.430
 3524SOL    HW211472   4.508   1.425   4.498
 3525SOL     OW11473   0.558   2.745   3.802
 3525SOL    HW111474   0.656   2.734   3.784
 3525SOL    HW211475   0.506   2.701   3.729
 3526SOL     OW11476   6.455   6.962   1.808
 3526SOL    HW111477   6.554   6.958   1.822
 3526SOL    HW211478   6.413   7.014   1.883
 3527SOL     OW11479   6.555   2.956   0.193
 3527SOL    HW111480   6.530   2.894   0.119
 3527SOL    HW211481   6.655   2.955   0.206
 3528SOL     OW11482   2.224   5.650   5.061
 3528SOL    HW111483   2.313   5.664   5.016
 3528SOL    HW211484   2.172   5.735   5.058
 3529SOL     OW11485   4.664   4.075   6.753
 3529SOL    HW111486   4.628   3.996   6.804
 3529SOL    HW211487   4.762   4.083   6.768
 3530SOL     OW11488   6.323   0.340   0.310
 3530SOL    HW111489   6.384   0.261   0.306
 3530SOL    HW211490   6.373   0.423   0.286
 3531SOL     OW11491   4.571   2.234   0.678
 3531SOL    HW111492   4.661   2.191   0.686
 3531SOL    HW211493   4.582   2.334   0.680
 3532SOL     OW11494   2.238   0.433   1.658
 3532SOL    HW111495   2.248   0.469   1.566
 3532SOL    HW211496   2.141   0.422   1.680
 3533SOL     OW11497   2.173   2.952   2.837
 3533SOL    HW111498   2.084   2.907   2.830
 3533SOL    HW211499   2.246   2.886   2.820
 3534SOL     OW11500   0.553   1.266   0.717
 3534SOL    HW111501   0.591   1.196   0.777
 3534SOL    HW211502   0.599   1.353   0.733
 3535SOL     OW11503   4.024   0.018   3.617
 3535SOL    HW111504   4.013   6.952   3.654
 3535SOL    HW211505   4.022   0.014   3.517
 3536SOL     OW11506   4.104   1.790   4.211
 3536SOL    HW111507   4.124   1.820   4.118
 3536SOL    HW211508   4.172   1.828   4.273
 3537SOL     OW11509   1.568   5.939   2.392
 3537SOL    HW111510   1.659   5.980   2.378
 3537SOL    HW211511   1.511   5.957   2.312
 3538SOL     OW11512   3.455   5.699   1.246
 3538SOL    HW111513   3.449   5.674   1.343
 3538SOL    HW211514   3.437   5.797   1.236
 3539SOL     OW11515   3.498   4.002   4.496
 3539SOL    HW111516   3.452   4.033   4.579
 3539SOL    HW211517   3.437   4.013   4.417
 3540SOL     OW11518   1.955   2.877   3.206
 3540SOL    HW111519   1.890   2.802   3.191
 3540SOL    HW211520   1.942   2.914   3.298
 3541SOL     OW11521   3.641   4.109   4.905
 3541SOL    HW111522   3.612   4.094   4.999
 3541SOL    HW211523   3.660   4.020   4.862
 3542SOL     OW11524   6.794   5.537   1.204
 3542SOL    HW111525   6.716   5.567   1.259
 3542SOL    HW211526   6.873   5.521   1.263
 3543SOL     OW11527   4.935   1.901   4.674
 3543SOL    HW111528   4.903   1.916   4.580
 3543SOL    HW211529   5.034   1.891   4.674
 3544SOL     OW11530   3.284   0.079   6.611
 3544SOL    HW111531   3.380   0.072   6.581
 3544SOL    HW211532   3.271   0.164   6.661
 3545SOL     OW11533   2.712   5.144   0.685
 3545SOL    HW111534   2.709   5.047   0.661
 3545SOL    HW211535   2.725   5.198   0.601
 3546SOL     OW11536   1.003   4.449   2.846
 3546SOL    HW111537   0.974   4.502   2.766
 3546SOL    HW211538   1.020   4.355   2.819
 3547SOL     OW11539   4.819   4.716   4.522
 3547SOL    HW111540   4.809   4.670   4.435
 3547SOL    HW211541   4.847   4.811   4.507
 3548SOL     OW11542   6.154   3.388   5.692
 3548SOL    HW111543   6.216   3.346   5.758
 3548SOL    HW211544   6.180   3.484   5.679
 3549SOL     OW11545   5.163   3.608   1.966
 3549SOL    HW111546   5.222   3.672   2.016
 3549SOL    HW211547   5.115   3.658   1.894
 3550SOL     OW11548   4.950   1.848   3.790
 3550SOL    HW111549   4.912   1.759   3.766
 3550SOL    HW211550   5.027   1.869   3.730
 3551SOL     OW11551   1.519   0.376   2.477
 3551SOL    HW111552   1.560   0.432   2.549
 3551SOL    HW211553   1.592   0.338   2.419
 3552SOL     OW11554   6.628   4.292   3.050
 3552SOL    HW111555   6.575   4.309   2.967
 3552SOL    HW211556   6.688   4.213   3.035
 3553SOL     OW11557   6.030   1.714   3.587
 3553SOL    HW111558   6.002   1.678   3.498
 3553SOL    HW211559   6.055   1.810   3.577
 3554SOL     OW11560   3.755   5.670   6.597
 3554SOL    HW111561   3.780   5.767   6.602
 3554SOL    HW211562   3.763   5.629   6.688
 3555SOL     OW11563   0.832   2.636   3.762
 3555SOL    HW111564   0.836   2.710   3.695
 3555SOL    HW211565   0.852   2.549   3.716
 3556SOL     OW11566   3.838   1.502   6.389
 3556SOL    HW111567   3.854   1.447   6.307
 3556SOL    HW211568   3.913   1.491   6.453
 3557SOL     OW11569   1.625   1.321   3.810
 3557SOL    HW111570   1.548   1.300   3.871
 3557SOL    HW211571   1.601   1.297   3.716
 3558SOL     OW11572   0.343   0.216   1.252
 3558SOL    HW111573   0.330   0.241   1.156
 3558SOL    HW211574   0.263   0.165   1.285
 3559SOL     OW11575   0.894   0.882   5.908
 3559SOL    HW111576   0.981   0.898   5.953
 3559SOL    HW211577   0.908   0.825   5.827
 3560SOL     OW11578   6.689   0.680   1.391
 3560SOL    HW111579   6.774   0.705   1.345
 3560SOL    HW211580   6.652   0.597   1.350
 3561SOL     OW11581   5.639   5.078   3.464
 3561SOL    HW111582   5.604   5.172   3.464
 3561SOL    HW211583   5.590   5.025   3.533
 3562SOL     OW11584   4.166   2.244   2.694
 3562SOL    HW111585   4.101   2.205   2.629
 3562SOL    HW211586   4.122   2.253   2.784
 3563SOL     OW11587   3.684   6.225   1.590
 3563SOL    HW111588   3.765   6.169   1.608
 3563SOL    HW211589   3.690   6.263   1.497
 3564SOL     OW11590   6.562   4.492   1.921
 3564SOL    HW111591   6.633   4.434   1.960
 3564SOL    HW211592   6.563   4.484   1.822
 3565SOL     OW11593   0.650   0.891   5.415
 3565SOL    HW111594   0.708   0.964   5.451
 3565SOL    HW211595   0.612   0.837   5.491
 3566SOL     OW11596   0.460   4.704   5.898
 3566SOL    HW111597   0.389   4.662   5.956
 3566SOL    HW211598   0.500   4.781   5.946
 3567SOL     OW11599   5.960   2.169   1.290
 3567SOL    HW111600   6.059   2.182   1.280
 3567SOL    HW211601   5.942   2.101   1.360
 3568SOL     OW11602   4.853   4.377   3.719
 3568SOL    HW111603   4.887   4.367   3.812
 3568SOL    HW211604   4.869   4.291   3.669
 3569SOL     OW11605   4.074   3.427   3.191
 3569SOL    HW111606   4.025   3.344   3.220
 3569SOL    HW211607   4.138   3.455   3.263
 3570SOL     OW11608   0.570   2.717   5.989
 3570SOL    HW111609   0.609   2.778   5.920
 3570SOL    HW211610   0.474   2.698   5.967
 3571SOL     OW11611   3.370   0.031   4.284
 3571SOL    HW111612   3.354   0.125   4.253
 3571SOL    HW211613   3.455   7.024   4.243
 3572SOL     OW11614   4.531   4.610   2.890
 3572SOL    HW111615   4.438   4.606   2.925
 3572SOL    HW211616   4.596   4.591   2.963
 3573SOL     OW11617   0.532   4.918   3.522
 3573SOL    HW111618   0.570   4.846   3.465
 3573SOL    HW211619   0.605   4.979   3.553
 3574SOL     OW11620   2.345   1.643   6.599
 3574SOL    HW111621   2.392   1.626   6.512
 3574SOL    HW211622   2.404   1.698   6.659
 3575SOL     OW11623   4.792   0.084   6.553
 3575SOL    HW111624   4.724   0.047   6.489
 3575SOL    HW211625   4.746   0.142   6.620
 3576SOL     OW11626   1.166   2.671   0.442
 3576SOL    HW111627   1.128   2.628   0.524
 3576SOL    HW211628   1.202   2.601   0.381
 3577SOL     OW11629   1.865   3.841   4.222
 3577SOL    HW111630   1.842   3.935   4.195
 3577SOL    HW211631   1.841   3.778   4.148
 3578SOL     OW11632   5.001   2.224   0.846
 3578SOL    HW111633   4.966   2.130   0.843
 3578SOL    HW211634   4.925   2.287   0.832
 3579SOL     OW11635   0.498   3.323   2.436
 3579SOL    HW111636   0.479   3.406   2.384
 3579SOL    HW211637   0.593   3.324   2.468
 3580SOL     OW11638   6.865   4.013   2.005
 3580SOL    HW111639   6.774   3.982   2.032
 3580SOL    HW211640   6.868   4.020   1.905
 3581SOL     OW11641   1.483   0.903   2.869
 3581SOL    HW111642   1.437   0.986   2.838
 3581SOL    HW211643   1.510   0.848   2.790
 3582SOL     OW11644   4.517   6.340   0.121
 3582SOL    HW111645   4.513   6.339   0.221
 3582SOL    HW211646   4.612   6.352   0.092
 3583SOL     OW11647   2.048   6.473   0.388
 3583SOL    HW111648   1.961   6.500   0.346
 3583SOL    HW211649   2.080   6.388   0.346
 3584SOL     OW11650   5.707   5.348   4.986
 3584SOL    HW111651   5.772   5.275   5.005
 3584SOL    HW211652   5.739   5.403   4.909
 3585SOL     OW11653   4.372   1.772   3.503
 3585SOL    HW111654   4.458   1.822   3.518
 3585SOL    HW211655   4.370   1.737   3.410
 3586SOL     OW11656   0.289   2.842   5.271
 3586SOL    HW111657   0.280   2.785   5.353
 3586SOL    HW211658   0.279   2.784   5.190
 3587SOL     OW11659   2.100   0.522   5.335
 3587SOL    HW111660   2.013   0.514   5.286
 3587SOL    HW211661   2.115   0.618   5.359
 3588SOL     OW11662   6.006   3.946   4.234
 3588SOL    HW111663   5.962   3.938   4.323
 3588SOL    HW211664   5.941   3.983   4.168
 3589SOL     OW11665   0.488   1.507   5.981
 3589SOL    HW111666   0.586   1.502   6.001
 3589SOL    HW211667   0.473   1.570   5.904
 3590SOL     OW11668   6.462   5.266   6.231
 3590SOL    HW111669   6.449   5.344   6.293
 3590SOL    HW211670   6.550   5.222   6.251
 3591SOL     OW11671   5.014   1.229   0.975
 3591SOL    HW111672   5.034   1.313   1.025
 3591SOL    HW211673   5.100   1.186   0.947
 3592SOL     OW11674   0.615   6.054   1.336
 3592SOL    HW111675   0.580   6.031   1.246
 3592SOL    HW211676   0.620   6.153   1.346
 3593SOL     OW11677   4.156   3.289   6.056
 3593SOL    HW111678   4.150   3.228   6.135
 3593SOL    HW211679   4.213   3.247   5.985
 3594SOL     OW11680   4.390   4.370   5.381
 3594SOL    HW111681   4.331   4.318   5.443
 3594SOL    HW211682   4.338   4.396   5.300
 3595SOL     OW11683   5.060   6.538   5.258
 3595SOL    HW111684   5.128   6.477   5.298
 3595SOL    HW211685   5.013   6.588   5.331
 3596SOL     OW11686   3.440   1.511   1.826
 3596SOL    HW111687   3.508   1.494   1.897
 3596SOL    HW211688   3.349   1.516   1.867
 3597SOL     OW11689   4.192   4.693   5.209
 3597SOL    HW111690   4.164   4.731   5.121
 3597SOL    HW211691   4.215   4.597   5.199
 3598SOL     OW11692   6.212   5.219   4.181
 3598SOL    HW111693   6.123   5.265   4.181
 3598SOL    HW211694   6.200   5.122   4.160
 3599SOL     OW11695   2.285   1.430   5.593
 3599SOL    HW111696   2.187   1.445   5.580
 3599SOL    HW211697   2.328   1.407   5.505
 3600SOL     OW11698   2.087   4.106   0.953
 3600SOL    HW111699   2.022   4.176   0.925
 3600SOL    HW211700   2.052   4.016   0.926
 3601SOL     OW11701   2.913   0.479   5.401
 3601SOL    HW111702   2.970   0.548   5.356
 3601SOL    HW211703   2.906   0.398   5.343
 3602SOL     OW11704   1.541   2.173   1.023
 3602SOL    HW111705   1.601   2.113   1.075
 3602SOL    HW211706   1.596   2.242   0.976
 3603SOL     OW11707   1.598   6.809   5.872
 3603SOL    HW111708   1.519   6.759   5.908
 3603SOL    HW211709   1.604   6.796   5.773
 3604SOL     OW11710   7.008   1.387   4.446
 3604SOL    HW111711   0.013   1.296   4.474
 3604SOL    HW211712   0.056   1.437   4.402
 3605SOL     OW11713   0.873   0.129   4.988
 3605SOL    HW111714   0.839   0.068   4.917
 3605SOL    HW211715   0.931   0.077   5.051
 3606SOL     OW11716   1.764   0.898   2.969
 3606SOL    HW111717   1.823   0.943   2.901
 3606SOL    HW211718   1.669   0.920   2.949
 3607SOL     OW11719   5.728   1.491   4.531
 3607SOL    HW111720   5.713   1.402   4.573
 3607SOL    HW211721   5.818   1.493   4.487
 3608SOL     OW11722   4.461   1.769   5.689
 3608SOL    HW111723   4.514   1.793   5.608
 3608SOL    HW211724   4.416   1.681   5.675
 3609SOL     OW11725   3.184   6.904   4.365
 3609SOL    HW111726   3.256   6.970   4.343
 3609SOL    HW211727   3.214   6.846   4.440
 3610SOL     OW11728   0.885   0.374   5.905
 3610SOL    HW111729   0.946   0.383   5.826
 3610SOL    HW211730   0.797   0.417   5.884
 3611SOL     OW11731   5.676   2.558   2.686
 3611SOL    HW111732   5.626   2.555   2.600
 3611SOL    HW211733   5.623   2.510   2.757
 3612SOL     OW11734   5.801   1.482   1.198
 3612SOL    HW111735   5.826   1.571   1.237
 3612SOL    HW211736   5.743   1.433   1.263
 3613SOL     OW11737   4.435   1.368   2.630
 3613SOL    HW111738   4.347   1.387   2.587
 3613SOL    HW211739   4.421   1.318   2.715
 3614SOL     OW11740   3.243   5.917   0.367
 3614SOL    HW111741   3.292   5.864   0.298
 3614SOL    HW211742   3.232   5.861   0.450
 3615SOL     OW11743   5.355   2.684   5.391
 3615SOL    HW111744   5.275   2.637   5.353
 3615SOL    HW211745   5.432   2.621   5.394
 3616SOL     OW11746   2.063   0.834   0.632
 3616SOL    HW111747   1.976   0.788   0.615
 3616SOL    HW211748   2.059   0.927   0.597
 3617SOL     OW11749   3.978   5.547   5.384
 3617SOL    HW111750   3.920   5.618   5.343
 3617SOL    HW211751   3.945   5.457   5.356
 3618SOL     OW11752   1.042   5.590   4.134
 3618SOL    HW111753   1.106   5.580   4.210
 3618SOL    HW211754   0.962   5.533   4.151
 3619SOL     OW11755   0.060   1.787   2.178
 3619SOL    HW111756   7.004   1.835   2.148
 3619SOL    HW211757   0.141   1.836   2.145
 3620SOL     OW11758   4.953   6.331   5.524
 3620SOL    HW111759   4.874   6.392   5.513
 3620SOL    HW211760   5.036   6.380   5.496
 3621SOL     OW11761   3.253   3.377   2.814
 3621SOL    HW111762   3.212   3.288   2.838
 3621SOL    HW211763   3.351   3.375   2.835
 3622SOL     OW11764   1.721   6.123   6.310
 3622SOL    HW111765   1.788   6.112   6.385
 3622SOL    HW211766   1.690   6.218   6.306
 3623SOL     OW11767   2.211   6.290   5.602
 3623SOL    HW111768   2.113   6.295   5.583
 3623SOL    HW211769   2.226   6.270   5.699
 3624SOL     OW11770   3.065   1.373   2.152
 3624SOL    HW111771   2.981   1.358   2.101
 3624SOL    HW211772   3.061   1.462   2.197
 3625SOL     OW11773   6.351   2.311   2.216
 3625SOL    HW111774   6.350   2.300   2.315
 3625SOL    HW211775   6.371   2.223   2.173
 3626SOL     OW11776   0.559   3.278   5.724
 3626SOL    HW111777   0.648   3.248   5.691
 3626SOL    HW211778   0.535   3.365   5.681
 3627SOL     OW11779   3.246   1.579   2.472
 3627SOL    HW111780   3.197   1.606   2.389
 3627SOL    HW211781   3.199   1.502   2.515
 3628SOL     OW11782   6.674   1.142   1.261
 3628SOL    HW111783   6.646   1.055   1.303
 3628SOL    HW211784   6.751   1.180   1.312
 3629SOL     OW11785   1.570   0.781   4.323
 3629SOL    HW111786   1.552   0.704   4.263
 3629SOL    HW211787   1.519   0.861   4.291
 3630SOL     OW11788   6.884   1.490   2.877
 3630SOL    HW111789   6.866   1.561   2.809
 3630SOL    HW211790   6.899   1.402   2.831
 3631SOL     OW11791   2.266   5.161   2.534
 3631SOL    HW111792   2.239   5.173   2.438
 3631SOL    HW211793   2.351   5.210   2.551
 3632SOL     OW11794   4.938   3.051   2.798
 3632SOL    HW111795   4.883   3.010   2.725
 3632SOL    HW211796   5.007   2.985   2.828
 3633SOL     OW11797   4.883   4.803   5.749
 3633SOL    HW111798   4.977   4.782   5.723
 3633SOL    HW211799   4.868   4.774   5.844
 3634SOL     OW11800   2.760   4.903   6.707
 3634SOL    HW111801   2.826   4.865   6.643
 3634SOL    HW211802   2.730   4.831   6.771
 3635SOL     OW11803   1.475   6.242   3.036
 3635SOL    HW111804   1.532   6.286   3.106
 3635SOL    HW211805   1.467   6.144   3.057
 3636SOL     OW11806   6.896   6.063   3.720
 3636SOL    HW111807   6.931   6.149   3.757
 3636SOL    HW211808   6.865   6.077   3.626
 3637SOL     OW11809   4.871   1.859   0.097
 3637SOL    HW111810   4.801   1.869   0.027
 3637SOL    HW211811   4.958   1.894   0.062
 3638SOL     OW11812   0.605   2.934   4.230
 3638SOL    HW111813   0.636   2.999   4.161
 3638SOL    HW211814   0.505   2.928   4.227
 3639SOL     OW11815   3.831   3.017   3.517
 3639SOL    HW111816   3.762   3.087   3.534
 3639SOL    HW211817   3.889   3.005   3.597
 3640SOL     OW11818   4.740   1.713   2.563
 3640SOL    HW111819   4.674   1.786   2.581
 3640SOL    HW211820   4.691   1.631   2.531
 3641SOL     OW11821   0.082   3.250   1.067
 3641SOL    HW111822   0.102   3.275   1.161
 3641SOL    HW211823   7.011   3.233   1.056
 3642SOL     OW11824   3.775   4.419   0.038
 3642SOL    HW111825   3.870   4.424   0.068
 3642SOL    HW211826   3.729   4.345   0.087
 3643SOL     OW11827   4.506   4.972   5.106
 3643SOL    HW111828   4.599   4.937   5.096
 3643SOL    HW211829   4.510   5.066   5.139
 3644SOL     OW11830   3.250   1.331   1.700
 3644SOL    HW111831   3.200   1.248   1.726
 3644SOL    HW211832   3.337   1.334   1.749
 3645SOL     OW11833   1.170   4.073   3.868
 3645SOL    HW111834   1.109   4.149   3.845
 3645SOL    HW211835   1.170   4.007   3.793
 3646SOL     OW11836   2.620   6.009   4.870
 3646SOL    HW111837   2.698   5.955   4.900
 3646SOL    HW211838   2.577   5.965   4.791
 3647SOL     OW11839   3.526   0.737   1.055
 3647SOL    HW111840   3.598   0.690   1.106
 3647SOL    HW211841   3.467   0.786   1.119
 3648SOL     OW11842   5.600   5.776   3.930
 3648SOL    HW111843   5.615   5.741   4.023
 3648SOL    HW211844   5.502   5.791   3.915
 3649SOL     OW11845   5.057   3.185   0.022
 3649SOL    HW111846   4.991   3.116   0.055
 3649SOL    HW211847   5.067   3.176   6.950
 3650SOL     OW11848   5.338   6.202   0.151
 3650SOL    HW111849   5.396   6.278   0.178
 3650SOL    HW211850   5.378   6.116   0.183
 3651SOL     OW11851   0.901   1.737   6.024
 3651SOL    HW111852   0.925   1.679   6.102
 3651SOL    HW211853   0.825   1.796   6.049
 3652SOL     OW11854   5.855   2.074   2.925
 3652SOL    HW111855   5.841   2.069   2.826
 3652SOL    HW211856   5.952   2.067   2.945
 3653SOL     OW11857   2.469   1.261   1.087
 3653SOL    HW111858   2.450   1.261   1.185
 3653SOL    HW211859   2.413   1.330   1.042
 3654SOL     OW11860   4.770   5.664   1.191
 3654SOL    HW111861   4.827   5.692   1.114
 3654SOL    HW211862   4.674   5.679   1.169
 3655SOL     OW11863   1.786   6.958   3.911
 3655SOL    HW111864   1.816   6.874   3.866
 3655SOL    HW211865   1.866   7.012   3.937
 3656SOL     OW11866   1.016   0.743   1.056
 3656SOL    HW111867   0.997   0.745   1.154
 3656SOL    HW211868   1.047   0.833   1.026
 3657SOL     OW11869   0.229   4.611   6.747
 3657SOL    HW111870   0.137   4.628   6.713
 3657SOL    HW211871   0.287   4.581   6.671
 3658SOL     OW11872   2.409   4.403   5.945
 3658SOL    HW111873   2.491   4.361   5.984
 3658SOL    HW211874   2.392   4.366   5.854
 3659SOL     OW11875   0.789   2.609   0.447
 3659SOL    HW111876   0.815   2.639   0.539
 3659SOL    HW211877   0.690   2.616   0.437
 3660SOL     OW11878   4.534   4.992   4.098
 3660SOL    HW111879   4.567   4.973   4.006
 3660SOL    HW211880   4.592   4.947   4.165
 3661SOL     OW11881   0.524   0.989   5.014
 3661SOL    HW111882   0.560   0.920   5.078
 3661SOL    HW211883   0.517   0.948   4.923
 3662SOL     OW11884   3.528   3.243   5.139
 3662SOL    HW111885   3.584   3.164   5.114
 3662SOL    HW211886   3.494   3.287   5.056
 3663SOL     OW11887   1.755   2.537   6.251
 3663SOL    HW111888   1.748   2.457   6.192
 3663SOL    HW211889   1.778   2.617   6.195
 3664SOL     OW11890   2.275   2.718   1.043
 3664SOL    HW111891   2.196   2.660   1.060
 3664SOL    HW211892   2.245   2.806   1.006
 3665SOL     OW11893   6.799   6.088   5.227
 3665SOL    HW111894   6.826   6.142   5.308
 3665SOL    HW211895   6.872   6.092   5.159
 3666SOL     OW11896   1.857   3.740   4.497
 3666SOL    HW111897   1.882   3.770   4.405
 3666SOL    HW211898   1.939   3.730   4.553
 3667SOL     OW11899   1.637   6.041   1.582
 3667SOL    HW111900   1.650   6.118   1.520
 3667SOL    HW211901   1.674   5.958   1.540
 3668SOL     OW11902   5.196   1.082   0.829
 3668SOL    HW111903   5.265   1.112   0.764
 3668SOL    HW211904   5.129   1.025   0.782
 3669SOL     OW11905   6.556   1.364   3.017
 3669SOL    HW111906   6.575   1.315   3.102
 3669SOL    HW211907   6.634   1.421   2.993
 3670SOL     OW11908   1.983   5.955   1.671
 3670SOL    HW111909   2.028   5.878   1.626
 3670SOL    HW211910   1.951   5.927   1.762
 3671SOL     OW11911   0.632   0.801   5.147
 3671SOL    HW111912   0.661   0.705   5.138
 3671SOL    HW211913   0.632   0.827   5.243
 3672SOL     OW11914   2.571   6.603   3.088
 3672SOL    HW111915   2.472   6.609   3.102
 3672SOL    HW211916   2.618   6.662   3.154
 3673SOL     OW11917   3.928   1.491   2.018
 3673SOL    HW111918   3.908   1.474   1.921
 3673SOL    HW211919   3.871   1.432   2.074
 3674SOL     OW11920   6.989   6.143   6.238
 3674SOL    HW111921   0.033   6.080   6.272
 3674SOL    HW211922   0.006   6.229   6.211
 3675SOL     OW11923   6.052   0.305   6.076
 3675SOL    HW111924   5.952   0.307   6.069
 3675SOL    HW211925   6.083   0.377   6.139
 3676SOL     OW11926   2.399   0.588   6.275
 3676SOL    HW111927   2.383   0.535   6.192
 3676SOL    HW211928   2.416   0.526   6.352
 3677SOL     OW11929   0.700   6.967   5.302
 3677SOL    HW111930   0.678   6.958   5.205
 3677SOL    HW211931   0.796   6.942   5.317
 3678SOL     OW11932   2.493   0.664   3.611
 3678SOL    HW111933   2.414   0.694   3.663
 3678SOL    HW211934   2.567   0.731   3.618
 3679SOL     OW11935   3.293   0.921   1.148
 3679SOL    HW111936   3.242   0.847   1.192
 3679SOL    HW211937   3.303   0.997   1.212
 3680SOL     OW11938   4.836   0.887   3.991
 3680SOL    HW111939   4.745   0.920   4.014
 3680SOL    HW211940   4.833   0.788   3.975
 3681SOL     OW11941   0.985   5.357   3.484
 3681SOL    HW111942   0.941   5.389   3.568
 3681SOL    HW211943   0.922   5.301   3.431
 3682SOL     OW11944   5.534   1.168   1.821
 3682SOL    HW111945   5.599   1.100   1.853
 3682SOL    HW211946   5.518   1.235   1.894
 3683SOL     OW11947   5.842   2.392   1.801
 3683SOL    HW111948   5.786   2.470   1.772
 3683SOL    HW211949   5.812   2.310   1.752
 3684SOL     OW11950   2.255   6.617   5.588
 3684SOL    HW111951   2.295   6.546   5.645
 3684SOL    HW211952   2.158   6.596   5.571
 3685SOL     OW11953   1.483   6.311   2.781
 3685SOL    HW111954   1.391   6.322   2.743
 3685SOL    HW211955   1.476   6.277   2.875
 3686SOL     OW11956   1.405   5.595   1.021
 3686SOL    HW111957   1.385   5.516   0.963
 3686SOL    HW211958   1.415   5.566   1.116
 3687SOL     OW11959   6.894   4.793   4.045
 3687SOL    HW111960   6.805   4.793   4.091
 3687SOL    HW211961   6.883   4.828   3.952
 3688SOL     OW11962   0.421   2.028   1.308
 3688SOL    HW111963   0.518   2.026   1.335
 3688SOL    HW211964   0.396   1.939   1.270
 3689SOL     OW11965   3.306   2.496   5.620
 3689SOL    HW111966   3.326   2.566   5.689
 3689SOL    HW211967   3.269   2.540   5.538
 3690SOL     OW11968   6.939   5.405   2.344
 3690SOL    HW111969   7.020   5.437   2.295
 3690SOL    HW211970   6.949   5.424   2.441
 3691SOL     OW11971   3.073   1.922   6.726
 3691SOL    HW111972   3.119   1.885   6.645
 3691SOL    HW211973   3.069   1.853   6.797
 3692SOL     OW11974   1.092   2.671   5.751
 3692SOL    HW111975   1.183   2.629   5.762
 3692SOL    HW211976   1.053   2.688   5.842
 3693SOL     OW11977   1.196   1.125   3.050
 3693SOL    HW111978   1.200   1.054   3.121
 3693SOL    HW211979   1.197   1.082   2.960
 3694SOL     OW11980   6.924   5.445   1.904
 3694SOL    HW111981   6.861   5.395   1.844
 3694SOL    HW211982   6.983   5.380   1.952
 3695SOL     OW11983   5.863   3.704   4.427
 3695SOL    HW111984   5.772   3.682   4.393
 3695SOL    HW211985   5.867   3.801   4.449
 3696SOL     OW11986   4.105   6.741   4.361
 3696SOL    HW111987   4.120   6.661   4.419
 3696SOL    HW211988   4.192   6.765   4.316
 3697SOL     OW11989   0.106   4.847   2.496
 3697SOL    HW111990   0.094   4.796   2.411
 3697SOL    HW211991   0.189   4.815   2.543
 3698SOL     OW11992   1.202   0.258   3.341
 3698SOL    HW111993   1.221   0.302   3.429
 3698SOL    HW211994   1.131   0.308   3.292
 3699SOL     OW11995   2.980   1.267   2.667
 3699SOL    HW111996   3.017   1.188   2.716
 3699SOL    HW211997   3.000   1.351   2.718
 3700SOL     OW11998   1.362   5.083   4.843
 3700SOL    HW111999   1.434   5.150   4.828
 3700SOL    HW212000   1.349   5.029   4.760
 3701SOL     OW12001   6.756   0.426   2.333
 3701SOL    HW112002   6.776   0.514   2.376
 3701SOL    HW212003   6.834   0.365   2.344
 3702SOL     OW12004   6.695   4.703   3.453
 3702SOL    HW112005   6.675   4.773   3.384
 3702SOL    HW212006   6.707   4.615   3.407
 3703SOL     OW12007   1.832   1.852   3.458
 3703SOL    HW112008   1.732   1.858   3.461
 3703SOL    HW212009   1.861   1.759   3.480
 3704SOL     OW12010   6.405   6.779   0.684
 3704SOL    HW112011   6.425   6.737   0.596
 3704SOL    HW212012   6.338   6.724   0.733
 3705SOL     OW12013   0.068   4.204   3.602
 3705SOL    HW112014   0.015   4.227   3.520
 3705SOL    HW212015   0.046   4.111   3.631
 3706SOL     OW12016   0.176   6.839   6.154
 3706SOL    HW112017   0.123   6.755   6.141
 3706SOL    HW212018   0.171   6.895   6.072
 3707SOL     OW12019   5.873   4.390   3.740
 3707SOL    HW112020   5.912   4.450   3.810
 3707SOL    HW212021   5.867   4.440   3.653
 3708SOL     OW12022   1.001   5.544   0.676
 3708SOL    HW112023   1.073   5.612   0.658
 3708SOL    HW212024   0.915   5.591   0.695
 3709SOL     OW12025   0.539   1.384   1.308
 3709SOL    HW112026   0.450   1.346   1.282
 3709SOL    HW212027   0.527   1.475   1.345
 3710SOL     OW12028   1.890   3.623   5.230
 3710SOL    HW112029   1.944   3.694   5.275
 3710SOL    HW212030   1.896   3.538   5.282
 3711SOL     OW12031   0.906   4.657   5.477
 3711SOL    HW112032   0.976   4.708   5.425
 3711SOL    HW212033   0.862   4.719   5.543
 3712SOL     OW12034   4.133   4.846   3.507
 3712SOL    HW112035   4.212   4.898   3.474
 3712SOL    HW212036   4.164   4.772   3.566
 3713SOL     OW12037   5.758   1.228   6.343
 3713SOL    HW112038   5.845   1.219   6.293
 3713SOL    HW212039   5.777   1.234   6.441
 3714SOL     OW12040   0.376   4.865   0.685
 3714SOL    HW112041   0.285   4.851   0.649
 3714SOL    HW212042   0.393   4.963   0.697
 3715SOL     OW12043   5.365   4.602   1.874
 3715SOL    HW112044   5.284   4.567   1.919
 3715SOL    HW212045   5.378   4.699   1.898
 3716SOL     OW12046   5.443   5.466   5.173
 3716SOL    HW112047   5.519   5.468   5.238
 3716SOL    HW212048   5.444   5.380   5.122
 3717SOL     OW12049   4.209   6.980   1.110
 3717SOL    HW112050   4.243   0.039   1.070
 3717SOL    HW212051   4.269   6.952   1.185
 3718SOL     OW12052   4.883   6.101   6.262
 3718SOL    HW112053   4.914   6.008   6.283
 3718SOL    HW212054   4.869   6.109   6.163
 3719SOL     OW12055   2.746   3.738   0.239
 3719SOL    HW112056   2.816   3.767   0.304
 3719SOL    HW212057   2.746   3.799   0.160
 3720SOL     OW12058   0.628   2.149   0.345
 3720SOL    HW112059   0.715   2.183   0.309
 3720SOL    HW212060   0.627   2.049   0.342
 3721SOL     OW12061   6.731   0.067   5.617
 3721SOL    HW112062   6.676   0.043   5.536
 3721SOL    HW212063   6.705   0.008   5.693
 3722SOL     OW12064   4.661   6.514   1.768
 3722SOL    HW112065   4.607   6.489   1.688
 3722SOL    HW212066   4.604   6.567   1.832
 3723SOL     OW12067   3.778   4.144   6.463
 3723SOL    HW112068   3.735   4.138   6.373
 3723SOL    HW212069   3.842   4.068   6.474
 3724SOL     OW12070   5.773   3.995   4.702
 3724SOL    HW112071   5.693   4.025   4.754
 3724SOL    HW212072   5.853   4.047   4.731
 3725SOL     OW12073   0.249   6.054   1.793
 3725SOL    HW112074   0.304   6.012   1.721
 3725SOL    HW212075   0.283   6.147   1.811
 3726SOL     OW12076   6.332   3.449   5.325
 3726SOL    HW112077   6.319   3.356   5.358
 3726SOL    HW212078   6.244   3.490   5.302
 3727SOL     OW12079   6.159   1.761   4.150
 3727SOL    HW112080   6.108   1.694   4.096
 3727SOL    HW212081   6.257   1.743   4.141
 3728SOL     OW12082   1.740   3.937   0.353
 3728SOL    HW112083   1.750   3.848   0.309
 3728SOL    HW212084   1.793   4.005   0.303
 3729SOL     OW12085   0.056   0.035   5.619
 3729SOL    HW112086   7.014   0.071   5.682
 3729SOL    HW212087   0.075   0.103   5.548
 3730SOL     OW12088   5.832   4.173   5.041
 3730SOL    HW112089   5.895   4.167   4.964
 3730SOL    HW212090   5.833   4.087   5.092
 3731SOL     OW12091   5.785   1.555   2.586
 3731SOL    HW112092   5.810   1.586   2.495
 3731SOL    HW212093   5.837   1.473   2.609
 3732SOL     OW12094   4.588   2.319   6.984
 3732SOL    HW112095   4.566   2.297   6.889
 3732SOL    HW212096   4.660   2.257   7.017
 3733SOL     OW12097   2.128   1.468   3.287
 3733SOL    HW112098   2.209   1.504   3.333
 3733SOL    HW212099   2.139   1.479   3.188
 3734SOL     OW12100   4.966   1.545   2.041
 3734SOL    HW112101   4.905   1.624   2.036
 3734SOL    HW212102   5.054   1.573   2.079
 3735SOL     OW12103   3.650   1.311   2.834
 3735SOL    HW112104   3.579   1.368   2.793
 3735SOL    HW212105   3.740   1.348   2.813
 3736SOL     OW12106   0.957   1.228   6.345
 3736SOL    HW112107   1.000   1.303   6.295
 3736SOL    HW212108   0.990   1.227   6.439
 3737SOL     OW12109   5.246   1.728   4.274
 3737SOL    HW112110   5.168   1.784   4.302
 3737SOL    HW212111   5.222   1.632   4.281
 3738SOL     OW12112   0.323   0.916   0.735
 3738SOL    HW112113   0.240   0.888   0.688
 3738SOL    HW212114   0.394   0.937   0.668
 3739SOL     OW12115   3.257   6.269   0.172
 3739SOL    HW112116   3.235   6.270   0.270
 3739SOL    HW212117   3.175   6.287   0.119
 3740SOL     OW12118   6.862   0.126   6.569
 3740SOL    HW112119   6.941   0.179   6.539
 3740SOL    HW212120   6.846   0.050   6.506
 3741SOL     OW12121   5.461   4.473   0.777
 3741SOL    HW112122   5.496   4.388   0.816
 3741SOL    HW212123   5.434   4.536   0.850
 3742SOL     OW12124   4.635   5.294   1.313
 3742SOL    HW112125   4.698   5.359   1.355
 3742SOL    HW212126   4.596   5.334   1.230
 3743SOL     OW12127   2.566   3.986   1.644
 3743SOL    HW112128   2.566   4.043   1.726
 3743SOL    HW212129   2.548   4.043   1.564
 3744SOL     OW12130   6.507   5.515   2.474
 3744SOL    HW112131   6.425   5.458   2.468
 3744SOL    HW212132   6.559   5.508   2.389
 3745SOL     OW12133   6.203   0.867   3.367
 3745SOL    HW112134   6.258   0.906   3.441
 3745SOL    HW212135   6.163   0.940   3.312
 3746SOL     OW12136   5.281   6.815   5.604
 3746SOL    HW112137   5.283   6.724   5.564
 3746SOL    HW212138   5.358   6.869   5.570
 3747SOL     OW12139   1.985   4.514   5.776
 3747SOL    HW112140   2.064   4.543   5.830
 3747SOL    HW212141   2.017   4.470   5.692
 3748SOL     OW12142   5.157   1.113   3.134
 3748SOL    HW112143   5.225   1.103   3.060
 3748SOL    HW212144   5.176   1.196   3.185
 3749SOL     OW12145   5.976   5.472   1.115
 3749SOL    HW112146   5.924   5.553   1.144
 3749SOL    HW212147   5.914   5.393   1.110
 3750SOL     OW12148   0.009   4.612   1.428
 3750SOL    HW112149   7.013   4.592   1.333
 3750SOL    HW212150   6.986   4.693   1.459
 3751SOL     OW12151   1.727   4.542   0.933
 3751SOL    HW112152   1.798   4.611   0.945
 3751SOL    HW212153   1.674   4.534   1.017
 3752SOL     OW12154   1.200   6.862   6.420
 3752SOL    HW112155   1.226   6.958   6.415
 3752SOL    HW212156   1.104   6.853   6.392
 3753SOL     OW12157   0.637   1.729   5.175
 3753SOL    HW112158   0.591   1.642   5.159
 3753SOL    HW212159   0.680   1.728   5.265
 3754SOL     OW12160   6.995   6.904   1.227
 3754SOL    HW112161   7.001   6.825   1.167
 3754SOL    HW212162   6.907   6.902   1.276
 3755SOL     OW12163   4.729   2.277   2.899
 3755SOL    HW112164   4.629   2.276   2.907
 3755SOL    HW212165   4.763   2.183   2.898
 3756SOL     OW12166   3.342   0.010   0.568
 3756SOL    HW112167   3.380   0.036   0.657
 3756SOL    HW212168   3.350   6.938   0.556
 3757SOL     OW12169   3.096   3.647   6.231
 3757SOL    HW112170   3.158   3.578   6.271
 3757SOL    HW212171   3.011   3.604   6.204
 3758SOL     OW12172   0.784   1.318   1.210
 3758SOL    HW112173   0.793   1.347   1.115
 3758SOL    HW212174   0.692   1.339   1.243
 3759SOL     OW12175   5.739   4.360   1.083
 3759SOL    HW112176   5.745   4.439   1.022
 3759SOL    HW212177   5.659   4.369   1.142
 3760SOL     OW12178   2.023   1.412   6.281
 3760SOL    HW112179   1.996   1.492   6.334
 3760SOL    HW212180   1.955   1.394   6.209
 3761SOL     OW12181   6.756   6.801   4.191
 3761SOL    HW112182   6.754   6.860   4.271
 3761SOL    HW212183   6.680   6.735   4.196
 3762SOL     OW12184   0.190   4.043   1.243
 3762SOL    HW112185   0.126   3.972   1.273
 3762SOL    HW212186   0.174   4.127   1.295
 3763SOL     OW12187   0.755   2.179   5.112
 3763SOL    HW112188   0.800   2.246   5.054
 3763SOL    HW212189   0.657   2.199   5.117
 3764SOL     OW12190   1.910   1.012   2.754
 3764SOL    HW112191   1.942   1.071   2.680
 3764SOL    HW212192   1.960   0.926   2.752
 3765SOL     OW12193   6.361   1.528   3.532
 3765SOL    HW112194   6.329   1.500   3.441
 3765SOL    HW212195   6.400   1.620   3.527
 3766SOL     OW12196   2.191   0.847   4.510
 3766SOL    HW112197   2.127   0.855   4.586
 3766SOL    HW212198   2.215   0.751   4.496
 3767SOL     OW12199   6.308   4.477   1.554
 3767SOL    HW112200   6.308   4.576   1.545
 3767SOL    HW212201   6.397   4.441   1.524
 3768SOL     OW12202   4.222   6.345   1.213
 3768SOL    HW112203   4.220   6.367   1.116
 3768SOL    HW212204   4.136   6.302   1.240
 3769SOL     OW12205   3.902   6.432   4.617
 3769SOL    HW112206   3.812   6.473   4.598
 3769SOL    HW212207   3.974   6.498   4.595
 3770SOL     OW12208   1.117   3.267   0.913
 3770SOL    HW112209   1.051   3.333   0.877
 3770SOL    HW212210   1.194   3.259   0.849
 3771SOL     OW12211   5.125   1.675   5.022
 3771SOL    HW112212   5.079   1.758   5.053
 3771SOL    HW212213   5.069   1.630   4.953
 3772SOL     OW12214   4.966   1.552   2.463
 3772SOL    HW112215   4.917   1.466   2.444
 3772SOL    HW212216   4.905   1.614   2.513
 3773SOL     OW12217   6.075   2.972   1.502
 3773SOL    HW112218   6.037   2.883   1.529
 3773SOL    HW212219   6.147   2.999   1.565
 3774SOL     OW12220   2.005   0.852   1.752
 3774SOL    HW112221   1.946   0.920   1.708
 3774SOL    HW212222   2.025   0.779   1.687
 3775SOL     OW12223   5.195   3.005   3.776
 3775SOL    HW112224   5.147   3.093   3.772
 3775SOL    HW212225   5.294   3.022   3.779
 3776SOL     OW12226   3.024   2.466   0.439
 3776SOL    HW112227   3.040   2.398   0.368
 3776SOL    HW212228   3.037   2.425   0.529
 3777SOL     OW12229   1.553   4.090   3.552
 3777SOL    HW112230   1.493   4.011   3.566
 3777SOL    HW212231   1.578   4.130   3.640
 3778SOL     OW12232   2.032   0.256   1.044
 3778SOL    HW112233   2.092   0.263   0.964
 3778SOL    HW212234   2.068   0.313   1.118
 3779SOL     OW12235   1.879   3.559   0.293
 3779SOL    HW112236   1.822   3.612   0.231
 3779SOL    HW212237   1.939   3.498   0.241
 3780SOL     OW12238   2.425   0.018   4.317
 3780SOL    HW112239   2.364   0.027   4.395
 3780SOL    HW212240   2.491   6.971   4.334
 3781SOL     OW12241   3.654   5.055   4.977
 3781SOL    HW112242   3.594   5.064   5.056
 3781SOL    HW212243   3.744   5.023   5.007
 3782SOL     OW12244   2.889   0.492   2.281
 3782SOL    HW112245   2.837   0.514   2.364
 3782SOL    HW212246   2.885   0.569   2.217
 3783SOL     OW12247   5.124   4.666   5.926
 3783SOL    HW112248   5.037   4.652   5.973
 3783SOL    HW212249   5.175   4.740   5.970
 3784SOL     OW12250   5.439   2.806   4.653
 3784SOL    HW112251   5.380   2.742   4.703
 3784SOL    HW212252   5.469   2.764   4.568
 3785SOL     OW12253   7.027   0.339   1.337
 3785SOL    HW112254   0.047   0.253   1.319
 3785SOL    HW212255   0.067   0.413   1.341
 3786SOL     OW12256   2.659   6.005   1.496
 3786SOL    HW112257   2.599   6.076   1.459
 3786SOL    HW212258   2.708   6.041   1.575
 3787SOL     OW12259   3.804   1.488   3.772
 3787SOL    HW112260   3.777   1.564   3.831
 3787SOL    HW212261   3.848   1.417   3.827
 3788SOL     OW12262   6.965   3.033   2.720
 3788SOL    HW112263   6.966   3.133   2.720
 3788SOL    HW212264   0.029   2.999   2.742
 3789SOL     OW12265   1.703   4.799   2.212
 3789SOL    HW112266   1.779   4.774   2.273
 3789SOL    HW212267   1.723   4.766   2.120
 3790SOL     OW12268   2.160   3.688   2.712
 3790SOL    HW112269   2.166   3.724   2.805
 3790SOL    HW212270   2.154   3.764   2.647
 3791SOL     OW12271   6.382   0.721   2.070
 3791SOL    HW112272   6.480   0.741   2.079
 3791SOL    HW212273   6.328   0.797   2.106
 3792SOL     OW12274   1.081   5.645   6.187
 3792SOL    HW112275   0.994   5.632   6.139
 3792SOL    HW212276   1.064   5.689   6.275
 3793SOL     OW12277   6.443   6.059   2.549
 3793SOL    HW112278   6.483   6.125   2.485
 3793SOL    HW212279   6.398   5.986   2.499
 3794SOL     OW12280   4.409   0.361   5.018
 3794SOL    HW112281   4.442   0.448   4.980
 3794SOL    HW212282   4.310   0.354   5.005
 3795SOL     OW12283   5.543   0.802   0.514
 3795SOL    HW112284   5.587   0.792   0.425
 3795SOL    HW212285   5.447   0.774   0.508
 3796SOL     OW12286   0.193   2.110   1.458
 3796SOL    HW112287   0.160   2.030   1.408
 3796SOL    HW212288   0.292   2.118   1.447
 3797SOL     OW12289   6.534   6.223   2.352
 3797SOL    HW112290   6.460   6.222   2.285
 3797SOL    HW212291   6.619   6.191   2.309
 3798SOL     OW12292   1.504   4.595   6.836
 3798SOL    HW112293   1.571   4.534   6.879
 3798SOL    HW212294   1.549   4.650   6.766
 3799SOL     OW12295   0.914   0.774   5.681
 3799SOL    HW112296   0.905   0.853   5.622
 3799SOL    HW212297   0.938   0.694   5.626
 3800SOL     OW12298   4.510   2.720   5.128
 3800SOL    HW112299   4.434   2.697   5.189
 3800SOL    HW212300   4.552   2.806   5.158
 3801SOL     OW12301   6.975   0.672   5.622
 3801SOL    HW112302   6.882   0.677   5.658
 3801SOL    HW212303   7.008   0.764   5.601
 3802SOL     OW12304   1.896   2.373   4.801
 3802SOL    HW112305   1.960   2.336   4.733
 3802SOL    HW212306   1.947   2.407   4.880
 3803SOL     OW12307   5.032   1.379   1.206
 3803SOL    HW112308   4.938   1.400   1.182
 3803SOL    HW212309   5.035   1.293   1.257
 3804SOL     OW12310   4.724   4.279   5.203
 3804SOL    HW112311   4.776   4.253   5.122
 3804SOL    HW212312   4.774   4.251   5.285
 3805SOL     OW12313   2.225   2.915   1.565
 3805SOL    HW112314   2.226   2.885   1.470
 3805SOL    HW212315   2.141   2.967   1.583
 3806SOL     OW12316   4.654   0.221   1.167
 3806SOL    HW112317   4.677   0.135   1.213
 3806SOL    HW212318   4.561   0.216   1.131
 3807SOL     OW12319   1.317   0.202   3.090
 3807SOL    HW112320   1.251   0.224   3.162
 3807SOL    HW212321   1.410   0.211   3.126
 3808SOL     OW12322   3.743   0.869   0.678
 3808SOL    HW112323   3.793   0.928   0.615
 3808SOL    HW212324   3.743   0.775   0.642
 3809SOL     OW12325   3.869   0.811   0.331
 3809SOL    HW112326   3.864   0.879   0.404
 3809SOL    HW212327   3.870   0.857   0.243
 3810SOL     OW12328   0.898   3.499   6.619
 3810SOL    HW112329   0.853   3.572   6.567
 3810SOL    HW212330   0.997   3.512   6.616
 3811SOL     OW12331   6.825   0.909   5.259
 3811SOL    HW112332   6.870   0.879   5.175
 3811SOL    HW212333   6.806   1.007   5.254
 3812SOL     OW12334   4.068   6.797   5.859
 3812SOL    HW112335   4.132   6.810   5.784
 3812SOL    HW212336   4.011   6.879   5.870
 3813SOL     OW12337   3.613   5.072   1.706
 3813SOL    HW112338   3.555   5.056   1.786
 3813SOL    HW212339   3.705   5.035   1.724
 3814SOL     OW12340   1.283   0.235   1.131
 3814SOL    HW112341   1.288   0.230   1.231
 3814SOL    HW212342   1.375   0.227   1.093
 3815SOL     OW12343   4.975   2.126   2.162
 3815SOL    HW112344   4.920   2.114   2.245
 3815SOL    HW212345   4.921   2.175   2.094
 3816SOL     OW12346   0.073   6.147   0.850
 3816SOL    HW112347   0.152   6.143   0.789
 3816SOL    HW212348   0.103   6.155   0.944
 3817SOL     OW12349   5.501   1.787   5.019
 3817SOL    HW112350   5.583   1.752   4.975
 3817SOL    HW212351   5.446   1.837   4.952
 3818SOL     OW12352   3.650   0.636   2.744
 3818SOL    HW112353   3.658   0.720   2.798
 3818SOL    HW212354   3.716   0.569   2.778
 3819SOL     OW12355   5.671   3.453   6.118
 3819SOL    HW112356   5.616   3.413   6.045
 3819SOL    HW212357   5.629   3.432   6.207
 3820SOL     OW12358   4.230   6.606   3.636
 3820SOL    HW112359   4.294   6.539   3.674
 3820SOL    HW212360   4.282   6.678   3.589
 3821SOL     OW12361   1.633   4.252   1.604
 3821SOL    HW112362   1.540   4.228   1.632
 3821SOL    HW212363   1.685   4.168   1.587
 3822SOL     OW12364   0.461   3.130   1.578
 3822SOL    HW112365   0.493   3.038   1.556
 3822SOL    HW212366   0.414   3.128   1.667
 3823SOL     OW12367   1.852   3.607   4.950
 3823SOL    HW112368   1.880   3.605   5.046
 3823SOL    HW212369   1.932   3.622   4.892
 3824SOL     OW12370   0.352   3.255   6.188
 3824SOL    HW112371   0.256   3.247   6.160
 3824SOL    HW212372   0.392   3.164   6.195
 3825SOL     OW12373   0.831   6.056   6.772
 3825SOL    HW112374   0.848   6.077   6.676
 3825SOL    HW212375   0.917   6.061   6.823
 3826SOL     OW12376   0.261   1.108   1.408
 3826SOL    HW112377   0.180   1.140   1.456
 3826SOL    HW212378   0.241   1.099   1.310
 3827SOL     OW12379   4.572   1.453   1.807
 3827SOL    HW112380   4.654   1.500   1.776
 3827SOL    HW212381   4.497   1.471   1.745
 3828SOL     OW12382   3.682   1.558   0.613
 3828SOL    HW112383   3.687   1.614   0.695
 3828SOL    HW212384   3.766   1.570   0.559
 3829SOL     OW12385   0.695   5.147   3.576
 3829SOL    HW112386   0.695   5.207   3.657
 3829SOL    HW212387   0.723   5.200   3.496
 3830SOL     OW12388   1.643   0.065   5.988
 3830SOL    HW112389   1.715   0.079   5.919
 3830SOL    HW212390   1.595   7.007   5.969
 3831SOL     OW12391   4.590   2.255   2.606
 3831SOL    HW112392   4.667   2.197   2.631
 3831SOL    HW212393   4.602   2.346   2.646
 3832SOL     OW12394   6.270   6.982   2.671
 3832SOL    HW112395   6.238   6.926   2.746
 3832SOL    HW212396   6.209   6.971   2.592
 3833SOL     OW12397   0.995   6.298   1.805
 3833SOL    HW112398   0.986   6.359   1.726
 3833SOL    HW212399   1.028   6.350   1.883
 3834SOL     OW12400   2.590   2.207   6.964
 3834SOL    HW112401   2.655   2.255   7.023
 3834SOL    HW212402   2.625   2.115   6.944
 3835SOL     OW12403   4.264   4.704   2.965
 3835SOL    HW112404   4.220   4.708   2.875
 3835SOL    HW212405   4.197   4.675   3.034
 3836SOL     OW12406   1.997   2.754   6.510
 3836SOL    HW112407   1.957   2.670   6.474
 3836SOL    HW212408   2.097   2.748   6.504
 3837SOL     OW12409   3.592   4.578   6.927
 3837SOL    HW112410   3.596   4.509   6.854
 3837SOL    HW212411   3.644   4.545   7.006
 3838SOL     OW12412   0.263   3.982   5.571
 3838SOL    HW112413   0.357   4.013   5.588
 3838SOL    HW212414   0.247   3.897   5.620
 3839SOL     OW12415   0.361   6.715   6.623
 3839SOL    HW112416   0.276   6.761   6.649
 3839SOL    HW212417   0.348   6.669   6.535
 3840SOL     OW12418   3.638   1.704   3.315
 3840SOL    HW112419   3.542   1.716   3.288
 3840SOL    HW212420   3.656   1.608   3.335
 3841SOL     OW12421   1.463   3.055   3.863
 3841SOL    HW112422   1.383   3.112   3.881
 3841SOL    HW212423   1.433   2.962   3.841
 3842SOL     OW12424   1.437   5.370   0.027
 3842SOL    HW112425   1.497   5.418   0.091
 3842SOL    HW212426   1.460   5.273   0.024
 3843SOL     OW12427   6.788   5.142   0.404
 3843SOL    HW112428   6.833   5.222   0.363
 3843SOL    HW212429   6.777   5.071   0.334
 3844SOL     OW12430   2.644   4.048   5.900
 3844SOL    HW112431   2.722   4.003   5.855
 3844SOL    HW212432   2.564   3.989   5.895
 3845SOL     OW12433   3.433   3.943   5.048
 3845SOL    HW112434   3.438   4.014   5.118
 3845SOL    HW212435   3.488   3.865   5.077
 3846SOL     OW12436   0.040   4.436   3.748
 3846SOL    HW112437   0.019   4.347   3.708
 3846SOL    HW212438   0.114   4.426   3.814
 3847SOL     OW12439   1.026   6.703   1.266
 3847SOL    HW112440   0.991   6.744   1.182
 3847SOL    HW212441   0.996   6.757   1.344
 3848SOL     OW12442   2.299   5.922   2.041
 3848SOL    HW112443   2.341   5.842   2.084
 3848SOL    HW212444   2.368   5.993   2.029
 3849SOL     OW12445   2.451   0.968   4.540
 3849SOL    HW112446   2.468   1.064   4.559
 3849SOL    HW212447   2.355   0.955   4.515
 3850SOL     OW12448   1.840   2.562   1.837
 3850SOL    HW112449   1.782   2.547   1.917
 3850SOL    HW212450   1.919   2.617   1.862
 3851SOL     OW12451   2.048   2.858   0.099
 3851SOL    HW112452   2.118   2.929   0.088
 3851SOL    HW212453   2.063   2.786   0.031
 3852SOL     OW12454   4.460   1.041   5.794
 3852SOL    HW112455   4.431   1.104   5.722
 3852SOL    HW212456   4.421   0.950   5.778
 3853SOL     OW12457   0.239   3.198   1.809
 3853SOL    HW112458   0.221   3.271   1.743
 3853SOL    HW212459   0.155   3.147   1.826
 3854SOL     OW12460   1.359   4.317   3.981
 3854SOL    HW112461   1.389   4.224   4.000
 3854SOL    HW212462   1.405   4.380   4.043
 3855SOL     OW12463   6.752   2.271   5.460
 3855SOL    HW112464   6.658   2.259   5.491
 3855SOL    HW212465   6.812   2.283   5.539
 3856SOL     OW12466   1.085   6.596   5.463
 3856SOL    HW112467   1.002   6.564   5.508
 3856SOL    HW212468   1.073   6.591   5.364
 3857SOL     OW12469   6.885   0.419   6.416
 3857SOL    HW112470   6.827   0.409   6.335
 3857SOL    HW212471   6.959   0.353   6.413
 3858SOL     OW12472   3.246   5.528   6.778
 3858SOL    HW112473   3.225   5.625   6.785
 3858SOL    HW212474   3.331   5.515   6.727
 3859SOL     OW12475   0.910   2.232   2.874
 3859SOL    HW112476   0.945   2.268   2.961
 3859SOL    HW212477   0.921   2.301   2.803
 3860SOL     OW12478   2.671   5.917   4.010
 3860SOL    HW112479   2.586   5.925   4.061
 3860SOL    HW212480   2.658   5.951   3.917
 3861SOL     OW12481   3.817   3.905   0.157
 3861SOL    HW112482   3.780   3.986   0.111
 3861SOL    HW212483   3.822   3.921   0.255
 3862SOL     OW12484   0.327   6.643   5.249
 3862SOL    HW112485   0.261   6.592   5.193
 3862SOL    HW212486   0.406   6.667   5.193
 3863SOL     OW12487   2.091   3.400   0.643
 3863SOL    HW112488   2.077   3.348   0.559
 3863SOL    HW212489   2.002   3.428   0.680
 3864SOL     OW12490   3.649   1.735   1.775
 3864SOL    HW112491   3.645   1.635   1.768
 3864SOL    HW212492   3.679   1.772   1.687
 3865SOL     OW12493   4.924   1.051   1.886
 3865SOL    HW112494   4.845   1.111   1.872
 3865SOL    HW212495   5.007   1.106   1.890
 3866SOL     OW12496   4.453   6.725   6.109
 3866SOL    HW112497   4.506   6.784   6.047
 3866SOL    HW212498   4.371   6.692   6.061
 3867SOL     OW12499   2.506   5.315   2.644
 3867SOL    HW112500   2.548   5.228   2.620
 3867SOL    HW212501   2.500   5.324   2.743
 3868SOL     OW12502   2.753   5.108   2.350
 3868SOL    HW112503   2.776   5.027   2.404
 3868SOL    HW212504   2.834   5.138   2.300
 3869SOL     OW12505   1.984   2.032   3.015
 3869SOL    HW112506   1.906   1.983   2.975
 3869SOL    HW212507   2.059   1.968   3.031
 3870SOL     OW12508   3.883   3.566   0.452
 3870SOL    HW112509   3.964   3.611   0.489
 3870SOL    HW212510   3.898   3.467   0.450
 3871SOL     OW12511   2.335   0.416   4.871
 3871SOL    HW112512   2.435   0.416   4.879
 3871SOL    HW212513   2.296   0.473   4.943
 3872SOL     OW12514   4.254   4.310   6.528
 3872SOL    HW112515   4.228   4.404   6.508
 3872SOL    HW212516   4.242   4.254   6.446
 3873SOL     OW12517   6.394   5.270   1.827
 3873SOL    HW112518   6.443   5.197   1.781
 3873SOL    HW212519   6.441   5.293   1.912
 3874SOL     OW12520   5.618   6.144   5.384
 3874SOL    HW112521   5.668   6.160   5.469
 3874SOL    HW212522   5.585   6.050   5.381
 3875SOL     OW12523   3.097   3.216   0.515
 3875SOL    HW112524   3.149   3.135   0.488
 3875SOL    HW212525   3.159   3.293   0.527
 3876SOL     OW12526   5.006   4.746   3.012
 3876SOL    HW112527   4.932   4.755   3.078
 3876SOL    HW212528   4.974   4.693   2.933
 3877SOL     OW12529   4.877   2.641   2.501
 3877SOL    HW112530   4.895   2.552   2.458
 3877SOL    HW212531   4.941   2.709   2.463
 3878SOL     OW12532   6.399   4.835   4.807
 3878SOL    HW112533   6.376   4.833   4.905
 3878SOL    HW212534   6.360   4.755   4.762
 3879SOL     OW12535   2.281   6.798   0.664
 3879SOL    HW112536   2.223   6.817   0.744
 3879SOL    HW212537   2.255   6.710   0.624
 3880SOL     OW12538   5.760   1.700   4.179
 3880SOL    HW112539   5.683   1.707   4.243
 3880SOL    HW212540   5.818   1.781   4.188
 3881SOL     OW12541   0.317   6.774   5.484
 3881SOL    HW112542   0.319   6.725   5.397
 3881SOL    HW212543   0.223   6.803   5.503
 3882SOL     OW12544   6.976   5.250   0.652
 3882SOL    HW112545   6.966   5.177   0.720
 3882SOL    HW212546   6.907   5.320   0.668
 3883SOL     OW12547   3.978   2.223   0.954
 3883SOL    HW112548   3.902   2.230   1.018
 3883SOL    HW212549   3.965   2.288   0.879
 3884SOL     OW12550   3.143   6.356   6.063
 3884SOL    HW112551   3.203   6.295   6.115
 3884SOL    HW212552   3.193   6.440   6.042
 3885SOL     OW12553   1.100   1.584   4.103
 3885SOL    HW112554   1.039   1.504   4.103
 3885SOL    HW212555   1.157   1.582   4.184
 3886SOL     OW12556   6.509   5.803   4.247
 3886SOL    HW112557   6.437   5.774   4.184
 3886SOL    HW212558   6.539   5.725   4.302
 3887SOL     OW12559   0.473   2.585   4.882
 3887SOL    HW112560   0.398   2.620   4.939
 3887SOL    HW212561   0.468   2.626   4.792
 3888SOL     OW12562   4.627   1.978   3.158
 3888SOL    HW112563   4.679   1.921   3.095
 3888SOL    HW212564   4.533   1.986   3.125
 3889SOL     OW12565   6.130   5.315   0.368
 3889SOL    HW112566   6.080   5.310   0.282
 3889SOL    HW212567   6.171   5.227   0.388
 3890SOL     OW12568   5.540   2.924   3.798
 3890SOL    HW112569   5.618   2.865   3.819
 3890SOL    HW212570   5.475   2.921   3.874
 3891SOL     OW12571   3.223   4.687   6.336
 3891SOL    HW112572   3.282   4.703   6.415
 3891SOL    HW212573   3.251   4.746   6.260
 3892SOL     OW12574   5.139   5.797   4.301
 3892SOL    HW112575   5.068   5.816   4.233
 3892SOL    HW212576   5.227   5.787   4.255
 3893SOL     OW12577   3.197   6.556   4.898
 3893SOL    HW112578   3.168   6.560   4.994
 3893SOL    HW212579   3.149   6.481   4.853
 3894SOL     OW12580   5.550   4.985   6.377
 3894SOL    HW112581   5.454   4.968   6.397
 3894SOL    HW212582   5.594   4.900   6.347
 3895SOL     OW12583   1.712   1.736   4.950
 3895SOL    HW112584   1.631   1.706   5.002
 3895SOL    HW212585   1.685   1.807   4.885
 3896SOL     OW12586   6.270   3.325   1.713
 3896SOL    HW112587   6.245   3.229   1.708
 3896SOL    HW212588   6.351   3.335   1.772
 3897SOL     OW12589   2.538   0.414   2.690
 3897SOL    HW112590   2.604   0.416   2.765
 3897SOL    HW212591   2.461   0.474   2.711
 3898SOL     OW12592   3.603   4.131   2.480
 3898SOL    HW112593   3.518   4.122   2.531
 3898SOL    HW212594   3.678   4.089   2.531
 3899SOL     OW12595   3.894   0.989   6.547
 3899SOL    HW112596   3.856   0.898   6.528
 3899SOL    HW212597   3.922   1.032   6.461
 3900SOL     OW12598   1.454   1.773   3.764
 3900SOL    HW112599   1.440   1.871   3.751
 3900SOL    HW212600   1.367   1.729   3.782
 3901SOL     OW12601   3.889   6.591   4.256
 3901SOL    HW112602   3.803   6.638   4.272
 3901SOL    HW212603   3.964   6.643   4.299
 3902SOL     OW12604   3.467   4.894   3.326
 3902SOL    HW112605   3.475   4.885   3.425
 3902SOL    HW212606   3.539   4.956   3.292
 3903SOL     OW12607   2.935   3.955   5.893
 3903SOL    HW112608   2.887   3.915   5.815
 3903SOL    HW212609   3.018   3.902   5.911
 3904SOL     OW12610   1.971   5.744   0.406
 3904SOL    HW112611   1.915   5.785   0.334
 3904SOL    HW212612   2.068   5.763   0.388
 3905SOL     OW12613   4.685   6.385   5.205
 3905SOL    HW112614   4.780   6.401   5.179
 3905SOL    HW212615   4.624   6.434   5.143
 3906SOL     OW12616   6.591   5.600   4.397
 3906SOL    HW112617   6.611   5.533   4.325
 3906SOL    HW212618   6.628   5.567   4.484
 3907SOL     OW12619   1.654   0.502   4.629
 3907SOL    HW112620   1.751   0.476   4.627
 3907SOL    HW212621   1.612   0.480   4.541
 3908SOL     OW12622   2.519   1.877   4.554
 3908SOL    HW112623   2.499   1.788   4.513
 3908SOL    HW212624   2.444   1.940   4.535
 3909SOL     OW12625   6.766   3.109   2.892
 3909SOL    HW112626   6.817   3.067   2.816
 3909SOL    HW212627   6.695   3.169   2.855
 3910SOL     OW12628   1.778   2.134   6.912
 3910SOL    HW112629   1.803   2.064   6.980
 3910SOL    HW212630   1.861   2.171   6.871
 3911SOL     OW12631   6.244   1.002   1.853
 3911SOL    HW112632   6.168   0.960   1.903
 3911SOL    HW212633   6.228   1.100   1.844
 3912SOL     OW12634   4.901   4.531   0.467
 3912SOL    HW112635   4.954   4.535   0.383
 3912SOL    HW212636   4.946   4.470   0.532
 3913SOL     OW12637   3.804   4.338   0.456
 3913SOL    HW112638   3.734   4.318   0.524
 3913SOL    HW212639   3.761   4.348   0.366
 3914SOL     OW12640   0.474   0.946   0.501
 3914SOL    HW112641   0.466   1.038   0.463
 3914SOL    HW212642   0.562   0.906   0.473
 3915SOL     OW12643   5.133   0.044   4.115
 3915SOL    HW112644   5.048   7.025   4.091
 3915SOL    HW212645   5.211   7.017   4.082
 3916SOL     OW12646   1.673   2.744   2.050
 3916SOL    HW112647   1.675   2.784   2.142
 3916SOL    HW212648   1.632   2.653   2.055
 3917SOL     OW12649   2.695   5.593   1.722
 3917SOL    HW112650   2.718   5.639   1.808
 3917SOL    HW212651   2.609   5.544   1.733
 3918SOL     OW12652   3.681   6.780   6.478
 3918SOL    HW112653   3.757   6.800   6.416
 3918SOL    HW212654   3.712   6.785   6.573
 3919SOL     OW12655   4.590   4.842   3.561
 3919SOL    HW112656   4.534   4.760   3.550
 3919SOL    HW212657   4.680   4.826   3.521
 3920SOL     OW12658   4.820   6.954   5.804
 3920SOL    HW112659   4.845   6.858   5.812
 3920SOL    HW212660   4.758   6.979   5.879
 3921SOL     OW12661   1.284   4.378   5.631
 3921SOL    HW112662   1.283   4.281   5.605
 3921SOL    HW212663   1.277   4.385   5.731
 3922SOL     OW12664   5.470   1.191   3.452
 3922SOL    HW112665   5.467   1.165   3.356
 3922SOL    HW212666   5.528   1.127   3.502
 3923SOL     OW12667   5.657   1.554   1.483
 3923SOL    HW112668   5.747   1.594   1.463
 3923SOL    HW212669   5.597   1.565   1.403
 3924SOL     OW12670   5.846   5.011   3.963
 3924SOL    HW112671   5.838   5.078   3.890
 3924SOL    HW212672   5.929   4.956   3.949
 3925SOL     OW12673   3.591   4.767   1.618
 3925SOL    HW112674   3.558   4.727   1.704
 3925SOL    HW212675   3.513   4.788   1.559
 3926SOL     OW12676   1.163   6.153   4.992
 3926SOL    HW112677   1.172   6.055   5.013
 3926SOL    HW212678   1.067   6.179   4.994
 3927SOL     OW12679   6.593   5.775   5.541
 3927SOL    HW112680   6.499   5.765   5.510
 3927SOL    HW212681   6.617   5.872   5.544
 3928SOL     OW12682   4.216   5.504   1.853
 3928SOL    HW112683   4.269   5.478   1.934
 3928SOL    HW212684   4.124   5.464   1.860
 3929SOL     OW12685   1.866   0.602   5.204
 3929SOL    HW112686   1.866   0.664   5.282
 3929SOL    HW212687   1.773   0.588   5.171
 3930SOL     OW12688   1.813   5.244   5.059
 3930SOL    HW112689   1.859   5.316   5.112
 3930SOL    HW212690   1.730   5.281   5.018
 3931SOL     OW12691   0.104   2.330   0.670
 3931SOL    HW112692   0.186   2.375   0.635
 3931SOL    HW212693   0.059   2.387   0.738
 3932SOL     OW12694   1.958   4.629   2.961
 3932SOL    HW112695   1.973   4.718   2.919
 3932SOL    HW212696   2.037   4.570   2.944
 3933SOL     OW12697   0.682   0.147   1.097
 3933SOL    HW112698   0.617   0.195   1.039
 3933SOL    HW212699   0.633   0.104   1.173
 3934SOL     OW12700   0.635   6.938   1.771
 3934SOL    HW112701   0.674   6.992   1.696
 3934SOL    HW212702   0.550   6.980   1.802
 3935SOL     OW12703   6.961   1.436   5.161
 3935SOL    HW112704   6.936   1.464   5.254
 3935SOL    HW212705   6.916   1.496   5.095
 3936SOL     OW12706   6.206   4.417   4.585
 3936SOL    HW112707   6.172   4.438   4.677
 3936SOL    HW212708   6.161   4.335   4.551
 3937SOL     OW12709   1.566   5.954   6.854
 3937SOL    HW112710   1.616   5.914   6.931
 3937SOL    HW212711   1.513   6.033   6.885
 3938SOL     OW12712   1.057   4.283   6.697
 3938SOL    HW112713   1.062   4.325   6.607
 3938SOL    HW212714   1.122   4.207   6.702
 3939SOL     OW12715   1.509   5.287   4.097
 3939SOL    HW112716   1.503   5.387   4.097
 3939SOL    HW212717   1.592   5.258   4.051
 3940SOL     OW12718   2.593   6.451   6.829
 3940SOL    HW112719   2.523   6.455   6.757
 3940SOL    HW212720   2.617   6.544   6.857
 3941SOL     OW12721   5.944   4.835   2.887
 3941SOL    HW112722   5.912   4.925   2.856
 3941SOL    HW212723   5.934   4.830   2.987
 3942SOL     OW12724   0.415   0.289   0.247
 3942SOL    HW112725   0.409   0.345   0.165
 3942SOL    HW212726   0.413   0.192   0.222
 3943SOL     OW12727   1.053   4.729   1.112
 3943SOL    HW112728   1.039   4.641   1.066
 3943SOL    HW212729   1.055   4.801   1.043
 3944SOL     OW12730   6.061   2.986   0.767
 3944SOL    HW112731   6.096   3.050   0.836
 3944SOL    HW212732   5.962   2.992   0.763
 3945SOL     OW12733   0.788   0.476   2.980
 3945SOL    HW112734   0.793   0.540   2.904
 3945SOL    HW212735   0.715   0.409   2.963
 3946SOL     OW12736   4.603   1.681   1.015
 3946SOL    HW112737   4.654   1.653   0.933
 3946SOL    HW212738   4.505   1.680   0.995
 3947SOL     OW12739   5.495   0.715   1.031
 3947SOL    HW112740   5.409   0.666   1.044
 3947SOL    HW212741   5.540   0.682   0.948
 3948SOL     OW12742   2.052   1.205   3.352
 3948SOL    HW112743   1.964   1.212   3.305
 3948SOL    HW212744   2.102   1.291   3.342
 3949SOL     OW12745   5.754   6.712   2.047
 3949SOL    HW112746   5.692   6.764   1.987
 3949SOL    HW212747   5.840   6.696   2.000
 3950SOL     OW12748   2.662   4.792   1.614
 3950SOL    HW112749   2.714   4.837   1.687
 3950SOL    HW212750   2.711   4.710   1.584
 3951SOL     OW12751   0.033   3.614   2.890
 3951SOL    HW112752   6.972   3.587   2.928
 3951SOL    HW212753   0.088   3.656   2.963
 3952SOL     OW12754   6.054   5.498   0.026
 3952SOL    HW112755   5.958   5.480   0.049
 3952SOL    HW212756   6.104   5.411   0.022
 3953SOL     OW12757   3.426   3.379   4.890
 3953SOL    HW112758   3.394   3.445   4.821
 3953SOL    HW212759   3.350   3.352   4.948
 3954SOL     OW12760   0.808   5.771   6.717
 3954SOL    HW112761   0.746   5.848   6.729
 3954SOL    HW212762   0.774   5.712   6.644
 3955SOL     OW12763   6.196   3.384   0.454
 3955SOL    HW112764   6.177   3.467   0.507
 3955SOL    HW212765   6.201   3.305   0.516
 3956SOL     OW12766   0.106   3.833   4.549
 3956SOL    HW112767   0.136   3.908   4.606
 3956SOL    HW212768   0.042   3.775   4.600
 3957SOL     OW12769   1.532   2.535   1.342
 3957SOL    HW112770   1.517   2.611   1.405
 3957SOL    HW212771   1.630   2.516   1.335
 3958SOL     OW12772   4.811   4.565   0.842
 3958SOL    HW112773   4.797   4.621   0.761
 3958SOL    HW212774   4.893   4.597   0.891
 3959SOL     OW12775   2.072   5.052   6.471
 3959SOL    HW112776   2.061   5.150   6.490
 3959SOL    HW212777   2.157   5.020   6.512
 3960SOL     OW12778   5.588   3.346   1.839
 3960SOL    HW112779   5.625   3.272   1.783
 3960SOL    HW212780   5.625   3.340   1.931
 3961SOL     OW12781   0.573   1.755   2.086
 3961SOL    HW112782   0.527   1.822   2.027
 3961SOL    HW212783   0.672   1.765   2.075
 3962SOL     OW12784   0.038   7.016   0.121
 3962SOL    HW112785   0.086   0.077   0.123
 3962SOL    HW212786   6.988   7.021   0.058
 3963SOL     OW12787   6.007   3.005   4.426
 3963SOL    HW112788   5.998   3.078   4.357
 3963SOL    HW212789   5.920   2.992   4.472
 3964SOL     OW12790   6.215   4.616   6.493
 3964SOL    HW112791   6.260   4.565   6.420
 3964SOL    HW212792   6.122   4.640   6.464
 3965SOL     OW12793   2.741   4.905   1.858
 3965SOL    HW112794   2.782   4.984   1.903
 3965SOL    HW212795   2.779   4.821   1.897
 3966SOL     OW12796   0.050   4.657   5.721
 3966SOL    HW112797   6.985   4.649   5.760
 3966SOL    HW212798   0.087   4.565   5.705
 3967SOL     OW12799   3.151   0.563   0.963
 3967SOL    HW112800   3.183   0.623   0.891
 3967SOL    HW212801   3.179   0.600   1.052
 3968SOL     OW12802   5.309   2.269   0.473
 3968SOL    HW112803   5.244   2.220   0.415
 3968SOL    HW212804   5.346   2.347   0.424
 3969SOL     OW12805   6.438   6.943   1.537
 3969SOL    HW112806   6.345   6.955   1.502
 3969SOL    HW212807   6.436   6.942   1.637
 3970SOL     OW12808   5.824   3.854   3.564
 3970SOL    HW112809   5.798   3.895   3.651
 3970SOL    HW212810   5.792   3.912   3.489
 3971SOL     OW12811   6.859   5.403   3.777
 3971SOL    HW112812   6.852   5.459   3.860
 3971SOL    HW212813   6.795   5.327   3.783
 3972SOL     OW12814   0.751   1.593   6.552
 3972SOL    HW112815   0.805   1.523   6.504
 3972SOL    HW212816   0.799   1.681   6.547
 3973SOL     OW12817   3.873   2.951   1.178
 3973SOL    HW112818   3.860   3.043   1.214
 3973SOL    HW212819   3.785   2.915   1.146
 3974SOL     OW12820   5.884   0.414   6.370
 3974SOL    HW112821   5.912   0.388   6.462
 3974SOL    HW212822   5.858   0.511   6.369
 3975SOL     OW12823   0.515   6.243   3.292
 3975SOL    HW112824   0.480   6.153   3.265
 3975SOL    HW212825   0.533   6.298   3.211
 3976SOL     OW12826   0.798   2.751   5.152
 3976SOL    HW112827   0.852   2.794   5.225
 3976SOL    HW212828   0.713   2.803   5.138
 3977SOL     OW12829   2.484   4.810   5.623
 3977SOL    HW112830   2.527   4.864   5.695
 3977SOL    HW212831   2.493   4.713   5.644
 3978SOL     OW12832   4.491   3.245   6.490
 3978SOL    HW112833   4.420   3.256   6.559
 3978SOL    HW212834   4.546   3.328   6.484
 3979SOL     OW12835   0.253   5.774   3.079
 3979SOL    HW112836   0.210   5.807   2.995
 3979SOL    HW212837   0.219   5.826   3.157
 3980SOL     OW12838   5.621   4.240   4.181
 3980SOL    HW112839   5.626   4.265   4.085
 3980SOL    HW212840   5.530   4.204   4.202
 3981SOL     OW12841   6.190   1.315   6.658
 3981SOL    HW112842   6.091   1.329   6.659
 3981SOL    HW212843   6.220   1.301   6.564
 3982SOL     OW12844   1.809   2.759   3.990
 3982SOL    HW112845   1.906   2.773   3.969
 3982SOL    HW212846   1.797   2.752   4.089
 3983SOL     OW12847   2.346   1.332   3.601
 3983SOL    HW112848   2.344   1.424   3.562
 3983SOL    HW212849   2.255   1.291   3.594
 3984SOL     OW12850   1.122   6.005   2.590
 3984SOL    HW112851   1.217   5.981   2.570
 3984SOL    HW212852   1.103   6.097   2.556
 3985SOL     OW12853   1.208   2.141   1.503
 3985SOL    HW112854   1.262   2.223   1.481
 3985SOL    HW212855   1.136   2.129   1.433
 3986SOL     OW12856   0.755   0.147   2.987
 3986SOL    HW112857   0.797   0.058   3.005
 3986SOL    HW212858   0.667   0.134   2.943
 3987SOL     OW12859   1.571   4.463   5.393
 3987SOL    HW112860   1.614   4.498   5.310
 3987SOL    HW212861   1.493   4.521   5.417
 3988SOL     OW12862   4.832   5.106   2.273
 3988SOL    HW112863   4.820   5.061   2.361
 3988SOL    HW212864   4.758   5.080   2.211
 3989SOL     OW12865   4.341   1.172   6.752
 3989SOL    HW112866   4.276   1.148   6.824
 3989SOL    HW212867   4.311   1.256   6.706
 3990SOL     OW12868   5.891   5.523   3.480
 3990SOL    HW112869   5.852   5.580   3.407
 3990SOL    HW212870   5.945   5.450   3.439
 3991SOL     OW12871   0.539   1.953   4.988
 3991SOL    HW112872   0.516   2.034   5.043
 3991SOL    HW212873   0.638   1.946   4.979
 3992SOL     OW12874   5.946   3.639   5.657
 3992SOL    HW112875   6.023   3.703   5.650
 3992SOL    HW212876   5.974   3.550   5.621
 3993SOL     OW12877   1.369   1.217   4.057
 3993SOL    HW112878   1.315   1.188   3.978
 3993SOL    HW212879   1.391   1.138   4.113
 3994SOL     OW12880   2.966   1.913   2.957
 3994SOL    HW112881   2.930   1.972   2.885
 3994SOL    HW212882   2.897   1.903   3.030
 3995SOL     OW12883   2.117   4.353   1.733
 3995SOL    HW112884   2.206   4.310   1.742
 3995SOL    HW212885   2.095   4.365   1.636
 3996SOL     OW12886   0.441   5.719   5.440
 3996SOL    HW112887   0.453   5.670   5.354
 3996SOL    HW212888   0.361   5.684   5.488
 3997SOL     OW12889   6.028   3.173   5.406
 3997SOL    HW112890   5.987   3.096   5.358
 3997SOL    HW212891   6.127   3.174   5.389
 3998SOL     OW12892   4.350   2.056   2.885
 3998SOL    HW112893   4.376   2.141   2.840
 3998SOL    HW212894   4.253   2.059   2.909
 3999SOL     OW12895   4.620   3.664   1.272
 3999SOL    HW112896   4.706   3.684   1.319
 3999SOL    HW212897   4.631   3.681   1.174
 4000SOL     OW12898   3.029   4.821   2.780
 4000SOL    HW112899   3.079   4.845   2.696
 4000SOL    HW212900   3.036   4.896   2.845
 4001SOL     OW12901   0.446   5.472   4.390
 4001SOL    HW112902   0.383   5.504   4.319
 4001SOL    HW212903   0.538   5.467   4.352
 4002SOL     OW12904   3.354   3.825   4.809
 4002SOL    HW112905   3.376   3.869   4.896
 4002SOL    HW212906   3.278   3.873   4.766
 4003SOL     OW12907   3.442   1.534   4.495
 4003SOL    HW112908   3.492   1.608   4.449
 4003SOL    HW212909   3.364   1.507   4.439
 4004SOL     OW12910   1.678   3.805   4.838
 4004SOL    HW112911   1.734   3.731   4.874
 4004SOL    HW212912   1.663   3.791   4.740
 4005SOL     OW12913   6.108   1.972   2.071
 4005SOL    HW112914   6.018   1.959   2.110
 4005SOL    HW212915   6.176   1.980   2.144
 4006SOL     OW12916   6.785   5.671   1.575
 4006SOL    HW112917   6.705   5.656   1.635
 4006SOL    HW212918   6.763   5.639   1.483
 4007SOL     OW12919   0.712   1.303   1.512
 4007SOL    HW112920   0.643   1.338   1.449
 4007SOL    HW212921   0.785   1.258   1.461
 4008SOL     OW12922   4.023   0.287   1.933
 4008SOL    HW112923   4.095   0.356   1.924
 4008SOL    HW212924   3.969   0.307   2.015
 4009SOL     OW12925   3.514   2.242   1.442
 4009SOL    HW112926   3.500   2.335   1.475
 4009SOL    HW212927   3.494   2.177   1.515
 4010SOL     OW12928   1.280   5.756   1.378
 4010SOL    HW112929   1.183   5.773   1.391
 4010SOL    HW212930   1.317   5.711   1.460
 4011SOL     OW12931   6.278   6.640   5.903
 4011SOL    HW112932   6.231   6.585   5.973
 4011SOL    HW212933   6.356   6.589   5.867
 4012SOL     OW12934   6.230   4.279   2.235
 4012SOL    HW112935   6.299   4.309   2.302
 4012SOL    HW212936   6.139   4.284   2.276
 4013SOL     OW12937   0.408   1.977   0.015
 4013SOL    HW112938   0.434   2.069   7.012
 4013SOL    HW212939   0.489   1.917   0.013
 4014SOL     OW12940   4.558   0.191   2.704
 4014SOL    HW112941   4.553   0.225   2.610
 4014SOL    HW212942   4.552   0.268   2.768
 4015SOL     OW12943   3.388   6.337   5.118
 4015SOL    HW112944   3.420   6.313   5.210
 4015SOL    HW212945   3.429   6.423   5.090
 4016SOL     OW12946   4.333   5.175   4.031
 4016SOL    HW112947   4.295   5.151   3.942
 4016SOL    HW212948   4.407   5.111   4.055
 4017SOL     OW12949   1.483   6.073   6.149
 4017SOL    HW112950   1.448   5.981   6.130
 4017SOL    HW212951   1.578   6.067   6.177
 4018SOL     OW12952   5.632   5.290   0.487
 4018SOL    HW112953   5.542   5.318   0.453
 4018SOL    HW212954   5.624   5.263   0.583
 4019SOL     OW12955   0.775   2.250   3.293
 4019SOL    HW112956   0.679   2.269   3.314
 4019SOL    HW212957   0.810   2.182   3.357
 4020SOL     OW12958   6.540   6.228   4.456
 4020SOL    HW112959   6.449   6.265   4.473
 4020SOL    HW212960   6.539   6.171   4.374
 4021SOL     OW12961   4.833   5.502   5.797
 4021SOL    HW112962   4.904   5.524   5.865
 4021SOL    HW212963   4.833   5.571   5.725
 4022SOL     OW12964   4.047   0.755   1.443
 4022SOL    HW112965   3.997   0.670   1.424
 4022SOL    HW212966   3.991   0.833   1.415
 4023SOL     OW12967   2.076   1.485   3.878
 4023SOL    HW112968   2.043   1.391   3.883
 4023SOL    HW212969   2.160   1.495   3.931
 4024SOL     OW12970   1.284   0.082   6.467
 4024SOL    HW112971   1.374   0.068   6.508
 4024SOL    HW212972   1.228   0.138   6.528
 4025SOL     OW12973   0.897   4.629   4.691
 4025SOL    HW112974   0.923   4.599   4.599
 4025SOL    HW212975   0.942   4.569   4.758
 4026SOL     OW12976   0.428   6.263   4.228
 4026SOL    HW112977   0.500   6.329   4.248
 4026SOL    HW212978   0.364   6.302   4.162
 4027SOL     OW12979   3.067   5.564   4.686
 4027SOL    HW112980   3.136   5.492   4.687
 4027SOL    HW212981   3.052   5.594   4.592
 4028SOL     OW12982   4.785   1.755   4.842
 4028SOL    HW112983   4.758   1.812   4.920
 4028SOL    HW212984   4.838   1.810   4.778
 4029SOL     OW12985   2.060   6.825   0.873
 4029SOL    HW112986   1.983   6.879   0.839
 4029SOL    HW212987   2.038   6.790   0.964
 4030SOL     OW12988   6.858   1.254   1.878
 4030SOL    HW112989   6.857   1.225   1.782
 4030SOL    HW212990   6.769   1.293   1.902
 4031SOL     OW12991   6.307   6.306   0.895
 4031SOL    HW112992   6.397   6.294   0.936
 4031SOL    HW212993   6.314   6.296   0.796
 4032SOL     OW12994   4.824   2.251   1.980
 4032SOL    HW112995   4.804   2.347   1.959
 4032SOL    HW212996   4.862   2.207   1.899
 4033SOL     OW12997   1.516   4.207   3.305
 4033SOL    HW112998   1.530   4.174   3.398
 4033SOL    HW212999   1.444   4.276   3.304
 4034SOL     OW13000   3.049   1.661   4.209
 4034SOL    HW113001   3.055   1.759   4.223
 4034SOL    HW213002   2.994   1.620   4.281
 4035SOL     OW13003   3.191   2.049   1.015
 4035SOL    HW113004   3.124   2.046   0.941
 4035SOL    HW213005   3.258   2.121   0.997
 4036SOL     OW13006   3.821   0.443   2.864
 4036SOL    HW113007   3.866   0.389   2.793
 4036SOL    HW213008   3.844   0.406   2.954
 4037SOL     OW13009   1.556   0.940   5.716
 4037SOL    HW113010   1.553   0.841   5.730
 4037SOL    HW213011   1.589   0.960   5.623
 4038SOL     OW13012   3.957   5.700   5.830
 4038SOL    HW113013   4.028   5.760   5.868
 4038SOL    HW213014   3.878   5.755   5.804
 4039SOL     OW13015   6.369   4.367   2.533
 4039SOL    HW113016   6.344   4.462   2.514
 4039SOL    HW213017   6.469   4.358   2.533
 4040SOL     OW13018   1.884   6.757   5.499
 4040SOL    HW113019   1.882   6.663   5.534
 4040SOL    HW213020   1.916   6.757   5.404
 4041SOL     OW13021   1.147   6.521   1.413
 4041SOL    HW113022   1.119   6.602   1.362
 4041SOL    HW213023   1.235   6.488   1.378
 4042SOL     OW13024   1.711   1.169   4.561
 4042SOL    HW113025   1.645   1.183   4.487
 4042SOL    HW213026   1.756   1.256   4.583
 4043SOL     OW13027   4.070   2.973   5.332
 4043SOL    HW113028   3.997   2.923   5.286
 4043SOL    HW213029   4.121   2.912   5.392
 4044SOL     OW13030   4.592   4.373   3.643
 4044SOL    HW113031   4.599   4.314   3.562
 4044SOL    HW213032   4.678   4.367   3.695
 4045SOL     OW13033   4.639   1.527   4.773
 4045SOL    HW113034   4.626   1.511   4.675
 4045SOL    HW213035   4.663   1.623   4.789
 4046SOL     OW13036   5.179   0.745   4.647
 4046SOL    HW113037   5.092   0.775   4.609
 4046SOL    HW213038   5.192   0.787   4.737
 4047SOL     OW13039   2.540   3.057   6.752
 4047SOL    HW113040   2.494   3.068   6.664
 4047SOL    HW213041   2.500   3.119   6.819
 4048SOL     OW13042   5.052   2.356   3.523
 4048SOL    HW113043   5.150   2.368   3.504
 4048SOL    HW213044   5.040   2.278   3.584
 4049SOL     OW13045   4.096   3.655   2.251
 4049SOL    HW113046   4.165   3.619   2.314
 4049SOL    HW213047   4.018   3.592   2.249
 4050SOL     OW13048   0.014   4.840   2.982
 4050SOL    HW113049   7.022   4.932   2.948
 4050SOL    HW213050   0.057   4.786   2.910
 4051SOL     OW13051   5.618   0.369   3.426
 4051SOL    HW113052   5.569   0.447   3.387
 4051SOL    HW213053   5.715   0.375   3.400
 4052SOL     OW13054   4.265   0.928   5.207
 4052SOL    HW113055   4.290   0.996   5.138
 4052SOL    HW213056   4.171   0.898   5.192
 4053SOL     OW13057   0.781   4.886   2.934
 4053SOL    HW113058   0.874   4.917   2.915
 4053SOL    HW213059   0.775   4.787   2.921
 4054SOL     OW13060   4.892   3.700   1.349
 4054SOL    HW113061   4.970   3.648   1.314
 4054SOL    HW213062   4.848   3.650   1.423
 4055SOL     OW13063   6.783   4.041   6.750
 4055SOL    HW113064   6.706   4.079   6.699
 4055SOL    HW213065   6.748   3.982   6.823
 4056SOL     OW13066   4.912   4.431   6.750
 4056SOL    HW113067   4.991   4.428   6.812
 4056SOL    HW213068   4.944   4.450   6.657
 4057SOL     OW13069   6.820   5.486   5.074
 4057SOL    HW113070   6.852   5.580   5.087
 4057SOL    HW213071   6.748   5.485   5.004
 4058SOL     OW13072   3.192   0.809   3.690
 4058SOL    HW113073   3.203   0.787   3.593
 4058SOL    HW213074   3.116   0.873   3.701
 4059SOL     OW13075   2.199   0.713   3.749
 4059SOL    HW113076   2.158   0.688   3.661
 4059SOL    HW213077   2.170   0.805   3.774
 4060SOL     OW13078   0.069   6.425   3.564
 4060SOL    HW113079   7.021   6.399   3.625
 4060SOL    HW213080   0.035   6.490   3.496
 4061SOL     OW13081   1.339   3.784   2.517
 4061SOL    HW113082   1.286   3.867   2.498
 4061SOL    HW213083   1.404   3.802   2.591
 4062SOL     OW13084   2.510   3.649   0.399
 4062SOL    HW113085   2.580   3.688   0.339
 4062SOL    HW213086   2.519   3.549   0.400
 4063SOL     OW13087   3.890   1.243   1.583
 4063SOL    HW113088   3.909   1.267   1.488
 4063SOL    HW213089   3.972   1.207   1.626
 4064SOL     OW13090   2.756   6.801   4.567
 4064SOL    HW113091   2.788   6.708   4.586
 4064SOL    HW213092   2.657   6.804   4.572
 4065SOL     OW13093   2.251   0.788   1.892
 4065SOL    HW113094   2.174   0.833   1.846
 4065SOL    HW213095   2.282   0.844   1.969
 4066SOL     OW13096   0.225   3.992   5.054
 4066SOL    HW113097   0.140   4.042   5.038
 4066SOL    HW213098   0.292   4.053   5.096
 4067SOL     OW13099   5.609   4.042   1.776
 4067SOL    HW113100   5.566   4.000   1.856
 4067SOL    HW213101   5.653   4.128   1.804
 4068SOL     OW13102   2.329   2.714   5.764
 4068SOL    HW113103   2.428   2.728   5.767
 4068SOL    HW213104   2.299   2.674   5.851
 4069SOL     OW13105   4.308   0.860   6.333
 4069SOL    HW113106   4.402   0.888   6.314
 4069SOL    HW213107   4.245   0.930   6.300
 4070SOL     OW13108   1.955   4.231   4.279
 4070SOL    HW113109   1.949   4.289   4.360
 4070SOL    HW213110   2.047   4.192   4.273
 4071SOL     OW13111   1.048   0.346   4.977
 4071SOL    HW113112   1.003   0.435   4.964
 4071SOL    HW213113   0.979   0.274   4.976
 4072SOL     OW13114   2.837   6.070   2.040
 4072SOL    HW113115   2.937   6.067   2.035
 4072SOL    HW213116   2.801   5.977   2.052
 4073SOL     OW13117   4.961   5.173   6.677
 4073SOL    HW113118   4.917   5.258   6.648
 4073SOL    HW213119   4.917   5.096   6.632
 4074SOL     OW13120   1.586   5.385   1.936
 4074SOL    HW113121   1.504   5.432   1.905
 4074SOL    HW213122   1.661   5.452   1.944
 4075SOL     OW13123   5.806   0.066   6.563
 4075SOL    HW113124   5.851   0.148   6.528
 4075SOL    HW213125   5.756   0.021   6.488
 4076SOL     OW13126   2.430   5.304   3.517
 4076SOL    HW113127   2.344   5.313   3.466
 4076SOL    HW213128   2.423   5.355   3.602
 4077SOL     OW13129   2.613   1.976   1.218
 4077SOL    HW113130   2.621   1.990   1.119
 4077SOL    HW213131   2.704   1.979   1.259
 4078SOL     OW13132   4.296   4.578   1.999
 4078SOL    HW113133   4.226   4.609   2.063
 4078SOL    HW213134   4.347   4.502   2.039
 4079SOL     OW13135   0.779   3.139   4.167
 4079SOL    HW113136   0.798   3.102   4.258
 4079SOL    HW213137   0.761   3.237   4.173
 4080SOL     OW13138   6.671   2.435   4.972
 4080SOL    HW113139   6.701   2.392   5.058
 4080SOL    HW213140   6.654   2.363   4.904
 4081SOL     OW13141   6.045   3.871   2.166
 4081SOL    HW113142   5.962   3.926   2.154
 4081SOL    HW213143   6.111   3.922   2.222
 4082SOL     OW13144   0.190   3.410   1.569
 4082SOL    HW113145   0.184   3.507   1.595
 4082SOL    HW213146   0.098   3.372   1.561
 4083SOL     OW13147   6.783   3.905   6.038
 4083SOL    HW113148   6.758   3.989   5.990
 4083SOL    HW213149   6.804   3.926   6.134
 4084SOL     OW13150   4.370   0.316   4.335
 4084SOL    HW113151   4.332   0.382   4.400
 4084SOL    HW213152   4.314   0.314   4.252
 4085SOL     OW13153   2.716   5.077   6.039
 4085SOL    HW113154   2.776   5.156   6.024
 4085SOL    HW213155   2.705   5.062   6.137
 4086SOL     OW13156   0.068   2.195   2.021
 4086SOL    HW113157   0.120   2.274   2.053
 4086SOL    HW213158   0.130   2.125   1.986
 4087SOL     OW13159   1.256   0.402   2.788
 4087SOL    HW113160   1.158   0.382   2.797
 4087SOL    HW213161   1.302   0.326   2.743
 4088SOL     OW13162   0.689   2.992   6.524
 4088SOL    HW113163   0.781   2.988   6.563
 4088SOL    HW213164   0.675   3.081   6.479
 4089SOL     OW13165   0.722   2.586   5.737
 4089SOL    HW113166   0.802   2.570   5.678
 4089SOL    HW213167   0.684   2.499   5.766
 4090SOL     OW13168   3.074   5.659   5.891
 4090SOL    HW113169   3.133   5.706   5.826
 4090SOL    HW213170   2.986   5.639   5.847
 4091SOL     OW13171   3.913   5.906   1.378
 4091SOL    HW113172   4.009   5.889   1.403
 4091SOL    HW213173   3.892   5.861   1.292
 4092SOL     OW13174   0.734   0.938   3.536
 4092SOL    HW113175   0.732   1.014   3.600
 4092SOL    HW213176   0.661   0.874   3.558
 4093SOL     OW13177   4.476   0.005   3.834
 4093SOL    HW113178   4.551   7.019   3.770
 4093SOL    HW213179   4.487   6.969   3.912
 4094SOL     OW13180   3.021   2.887   6.188
 4094SOL    HW113181   3.061   2.807   6.143
 4094SOL    HW213182   2.942   2.919   6.136
 4095SOL     OW13183   2.203   4.306   6.089
 4095SOL    HW113184   2.295   4.328   6.054
 4095SOL    HW213185   2.151   4.260   6.018
 4096SOL     OW13186   4.362   4.825   1.404
 4096SOL    HW113187   4.393   4.754   1.467
 4096SOL    HW213188   4.397   4.806   1.312
 4097SOL     OW13189   3.295   3.687   3.292
 4097SOL    HW113190   3.309   3.590   3.310
 4097SOL    HW213191   3.197   3.707   3.292
 4098SOL     OW13192   1.552   3.085   2.055
 4098SOL    HW113193   1.592   3.092   1.964
 4098SOL    HW213194   1.465   3.134   2.058
 4099SOL     OW13195   2.413   6.016   1.244
 4099SOL    HW113196   2.402   6.061   1.156
 4099SOL    HW213197   2.323   6.007   1.288
 4100SOL     OW13198   3.558   0.454   2.545
 4100SOL    HW113199   3.549   0.368   2.594
 4100SOL    HW213200   3.591   0.525   2.608
 4101SOL     OW13201   4.732   1.323   6.893
 4101SOL    HW113202   4.749   1.322   6.795
 4101SOL    HW213203   4.745   1.230   6.930
 4102SOL     OW13204   5.140   1.827   6.004
 4102SOL    HW113205   5.210   1.888   6.042
 4102SOL    HW213206   5.116   1.758   6.072
 4103SOL     OW13207   6.595   0.701   1.659
 4103SOL    HW113208   6.612   0.691   1.561
 4103SOL    HW213209   6.528   0.774   1.674
 4104SOL     OW13210   2.169   4.162   2.075
 4104SOL    HW113211   2.090   4.172   2.015
 4104SOL    HW213212   2.217   4.250   2.083
 4105SOL     OW13213   6.029   4.623   0.220
 4105SOL    HW113214   6.082   4.636   0.136
 4105SOL    HW213215   6.004   4.527   0.230
 4106SOL     OW13216   0.339   3.103   3.723
 4106SOL    HW113217   0.296   3.013   3.725
 4106SOL    HW213218   0.347   3.138   3.817
 4107SOL     OW13219   6.915   0.631   1.015
 4107SOL    HW113220   6.863   0.713   0.994
 4107SOL    HW213221   6.949   0.590   0.930
 4108SOL     OW13222   6.571   2.671   5.053
 4108SOL    HW113223   6.602   2.579   5.027
 4108SOL    HW213224   6.500   2.701   4.990
 4109SOL     OW13225   2.390   6.194   3.955
 4109SOL    HW113226   2.449   6.245   4.017
 4109SOL    HW213227   2.402   6.096   3.972
 4110SOL     OW13228   4.846   3.140   5.243
 4110SOL    HW113229   4.821   3.219   5.299
 4110SOL    HW213230   4.892   3.171   5.159
 4111SOL     OW13231   4.257   3.675   6.668
 4111SOL    HW113232   4.271   3.673   6.767
 4111SOL    HW213233   4.271   3.769   6.635
 4112SOL     OW13234   3.601   0.931   6.072
 4112SOL    HW113235   3.588   0.850   6.015
 4112SOL    HW213236   3.659   0.908   6.149
 4113SOL     OW13237   3.394   5.719   4.222
 4113SOL    HW113238   3.485   5.716   4.264
 4113SOL    HW213239   3.394   5.787   4.148
 4114SOL     OW13240   3.505   1.007   3.385
 4114SOL    HW113241   3.479   0.987   3.291
 4114SOL    HW213242   3.573   0.940   3.416
 4115SOL     OW13243   5.103   3.898   3.154
 4115SOL    HW113244   5.142   3.983   3.118
 4115SOL    HW213245   5.027   3.921   3.215
 4116SOL     OW13246   2.715   1.168   1.753
 4116SOL    HW113247   2.778   1.199   1.681
 4116SOL    HW213248   2.752   1.087   1.797
 4117SOL     OW13249   1.067   5.540   1.931
 4117SOL    HW113250   1.034   5.586   2.014
 4117SOL    HW213251   0.995   5.482   1.894
 4118SOL     OW13252   1.615   0.648   5.737
 4118SOL    HW113253   1.567   0.582   5.680
 4118SOL    HW213254   1.577   0.646   5.830
 4119SOL     OW13255   4.997   1.047   3.368
 4119SOL    HW113256   5.045   1.033   3.281
 4119SOL    HW213257   5.028   0.979   3.434
 4120SOL     OW13258   5.700   0.667   1.799
 4120SOL    HW113259   5.711   0.614   1.884
 4120SOL    HW213260   5.603   0.676   1.778
 4121SOL     OW13261   5.053   2.772   3.767
 4121SOL    HW113262   4.968   2.767   3.714
 4121SOL    HW213263   5.086   2.866   3.769
 4122SOL     OW13264   1.836   4.988   6.628
 4122SOL    HW113265   1.901   5.025   6.562
 4122SOL    HW213266   1.745   4.983   6.586
 4123SOL     OW13267   3.504   3.576   5.406
 4123SOL    HW113268   3.468   3.648   5.465
 4123SOL    HW213269   3.440   3.499   5.403
 4124SOL     OW13270   4.487   6.477   2.734
 4124SOL    HW113271   4.403   6.522   2.764
 4124SOL    HW213272   4.533   6.533   2.665
 4125SOL     OW13273   4.044   1.914   1.708
 4125SOL    HW113274   4.084   1.890   1.797
 4125SOL    HW213275   4.050   2.013   1.695
 4126SOL     OW13276   1.592   3.800   4.565
 4126SOL    HW113277   1.678   3.808   4.514
 4126SOL    HW213278   1.518   3.842   4.512
 4127SOL     OW13279   5.295   5.208   3.575
 4127SOL    HW113280   5.306   5.292   3.522
 4127SOL    HW213281   5.370   5.199   3.640
 4128SOL     OW13282   6.685   1.804   1.611
 4128SOL    HW113283   6.663   1.884   1.555
 4128SOL    HW213284   6.706   1.833   1.704
 4129SOL     OW13285   0.261   2.801   6.895
 4129SOL    HW113286   0.312   2.827   6.976
 4129SOL    HW213287   0.198   2.726   6.917
 4130SOL     OW13288   6.233   2.817   0.993
 4130SOL    HW113289   6.221   2.725   1.031
 4130SOL    HW213290   6.183   2.825   0.907
 4131SOL     OW13291   6.618   4.126   3.431
 4131SOL    HW113292   6.586   4.220   3.420
 4131SOL    HW213293   6.554   4.074   3.487
 4132SOL     OW13294   4.697   1.596   4.288
 4132SOL    HW113295   4.782   1.637   4.322
 4132SOL    HW213296   4.713   1.553   4.200
 4133SOL     OW13297   2.357   3.111   0.573
 4133SOL    HW113298   2.435   3.121   0.511
 4133SOL    HW213299   2.381   3.144   0.664
 4134SOL     OW13300   1.904   1.580   6.483
 4134SOL    HW113301   1.982   1.537   6.527
 4134SOL    HW213302   1.819   1.543   6.522
 4135SOL     OW13303   1.410   0.767   0.938
 4135SOL    HW113304   1.368   0.693   0.990
 4135SOL    HW213305   1.461   0.827   0.999
 4136SOL     OW13306   1.947   2.085   3.545
 4136SOL    HW113307   1.886   2.011   3.515
 4136SOL    HW213308   1.979   2.066   3.638
 4137SOL     OW13309   3.753   3.112   4.981
 4137SOL    HW113310   3.724   3.024   4.944
 4137SOL    HW213311   3.834   3.099   5.037
 4138SOL     OW13312   4.820   5.406   1.108
 4138SOL    HW113313   4.721   5.408   1.092
 4138SOL    HW213314   4.847   5.484   1.165
 4139SOL     OW13315   3.719   1.562   0.310
 4139SOL    HW113316   3.809   1.554   0.267
 4139SOL    HW213317   3.694   1.659   0.314
 4140SOL     OW13318   4.594   2.331   4.774
 4140SOL    HW113319   4.691   2.324   4.795
 4140SOL    HW213320   4.544   2.362   4.854
 4141SOL     OW13321   5.127   6.040   1.052
 4141SOL    HW113322   5.080   6.061   0.967
 4141SOL    HW213323   5.225   6.029   1.035
 4142SOL     OW13324   6.196   2.975   2.262
 4142SOL    HW113325   6.257   3.049   2.287
 4142SOL    HW213326   6.105   3.011   2.240
 4143SOL     OW13327   1.816   2.301   1.747
 4143SOL    HW113328   1.876   2.291   1.667
 4143SOL    HW213329   1.826   2.393   1.785
 4144SOL     OW13330   4.401   0.788   2.688
 4144SOL    HW113331   4.400   0.751   2.780
 4144SOL    HW213332   4.396   0.888   2.692
 4145SOL     OW13333   2.775   0.477   3.154
 4145SOL    HW113334   2.808   0.546   3.090
 4145SOL    HW213335   2.687   0.505   3.191
 4146SOL     OW13336   4.900   4.819   0.455
 4146SOL    HW113337   4.900   4.825   0.355
 4146SOL    HW213338   4.933   4.728   0.482
 4147SOL     OW13339   2.612   0.984   6.333
 4147SOL    HW113340   2.610   0.896   6.379
 4147SOL    HW213341   2.626   1.057   6.400
 4148SOL     OW13342   6.990   6.472   2.406
 4148SOL    HW113343   6.944   6.485   2.318
 4148SOL    HW213344   0.033   6.542   2.418
 4149SOL     OW13345   4.443   4.610   2.385
 4149SOL    HW113346   4.516   4.667   2.347
 4149SOL    HW213347   4.459   4.598   2.483
 4150SOL     OW13348   3.714   0.282   4.411
 4150SOL    HW113349   3.801   0.294   4.460
 4150SOL    HW213350   3.638   0.305   4.472
 4151SOL     OW13351   0.659   5.368   0.879
 4151SOL    HW113352   0.572   5.329   0.849
 4151SOL    HW213353   0.655   5.468   0.873
 4152SOL     OW13354   3.627   4.343   0.869
 4152SOL    HW113355   3.655   4.323   0.963
 4152SOL    HW213356   3.693   4.405   0.827
 4153SOL     OW13357   6.437   6.106   6.860
 4153SOL    HW113358   6.422   6.182   6.923
 4153SOL    HW213359   6.438   6.139   6.766
 4154SOL     OW13360   4.295   2.379   4.364
 4154SOL    HW113361   4.356   2.447   4.323
 4154SOL    HW213362   4.234   2.343   4.293
 4155SOL     OW13363   0.889   3.456   0.906
 4155SOL    HW113364   0.891   3.536   0.845
 4155SOL    HW213365   0.937   3.478   0.991
 4156SOL     OW13366   6.026   0.870   5.265
 4156SOL    HW113367   6.002   0.923   5.347
 4156SOL    HW213368   6.057   0.779   5.293
 4157SOL     OW13369   4.011   0.938   4.075
 4157SOL    HW113370   4.097   0.927   4.025
 4157SOL    HW213371   3.944   0.982   4.015
 4158SOL     OW13372   0.461   0.080   3.167
 4158SOL    HW113373   0.481   7.017   3.206
 4158SOL    HW213374   0.499   0.151   3.226
 4159SOL     OW13375   0.775   4.838   5.245
 4159SOL    HW113376   0.839   4.839   5.321
 4159SOL    HW213377   0.696   4.896   5.267
 4160SOL     OW13378   6.119   1.183   1.655
 4160SOL    HW113379   6.087   1.213   1.565
 4160SOL    HW213380   6.109   1.258   1.721
 4161SOL     OW13381   6.129   1.631   2.292
 4161SOL    HW113382   6.175   1.552   2.253
 4161SOL    HW213383   6.065   1.669   2.225
 4162SOL     OW13384   0.359   0.064   4.539
 4162SOL    HW113385   0.356   7.025   4.464
 4162SOL    HW213386   0.338   0.017   4.625
 4163SOL     OW13387   0.853   2.206   5.598
 4163SOL    HW113388   0.858   2.243   5.506
 4163SOL    HW213389   0.862   2.107   5.595
 4164SOL     OW13390   2.019   0.087   5.429
 4164SOL    HW113391   2.020   0.175   5.475
 4164SOL    HW213392   2.110   0.046   5.434
 4165SOL     OW13393   0.988   5.713   2.147
 4165SOL    HW113394   0.918   5.679   2.211
 4165SOL    HW213395   0.962   5.803   2.114
 4166SOL     OW13396   6.547   1.644   2.784
 4166SOL    HW113397   6.638   1.623   2.747
 4166SOL    HW213398   6.492   1.560   2.785
 4167SOL     OW13399   1.481   2.562   0.960
 4167SOL    HW113400   1.435   2.553   1.048
 4167SOL    HW213401   1.451   2.645   0.914
 4168SOL     OW13402   2.483   5.841   0.946
 4168SOL    HW113403   2.401   5.816   0.999
 4168SOL    HW213404   2.461   5.843   0.849
 4169SOL     OW13405   6.155   3.339   6.761
 4169SOL    HW113406   6.108   3.385   6.837
 4169SOL    HW213407   6.088   3.306   6.695
 4170SOL     OW13408   2.856   1.013   5.363
 4170SOL    HW113409   2.855   0.931   5.305
 4170SOL    HW213410   2.811   0.992   5.450
 4171SOL     OW13411   6.629   2.576   1.560
 4171SOL    HW113412   6.573   2.618   1.488
 4171SOL    HW213413   6.592   2.487   1.584
 4172SOL     OW13414   2.543   0.256   0.495
 4172SOL    HW113415   2.459   0.268   0.442
 4172SOL    HW213416   2.615   0.220   0.435
 4173SOL     OW13417   4.327   3.960   5.340
 4173SOL    HW113418   4.278   3.994   5.420
 4173SOL    HW213419   4.290   3.871   5.313
 4174SOL     OW13420   4.394   1.028   3.542
 4174SOL    HW113421   4.448   0.993   3.620
 4174SOL    HW213422   4.304   0.984   3.542
 4175SOL     OW13423   2.602   0.758   1.969
 4175SOL    HW113424   2.518   0.726   2.013
 4175SOL    HW213425   2.584   0.775   1.872
 4176SOL     OW13426   5.777   5.099   2.801
 4176SOL    HW113427   5.692   5.047   2.801
 4176SOL    HW213428   5.814   5.103   2.709
 4177SOL     OW13429   0.494   5.785   2.980
 4177SOL    HW113430   0.564   5.728   3.023
 4177SOL    HW213431   0.403   5.748   3.000
 4178SOL     OW13432   3.895   2.485   5.332
 4178SOL    HW113433   3.847   2.400   5.309
 4178SOL    HW213434   3.986   2.484   5.291
 4179SOL     OW13435   0.174   1.739   0.618
 4179SOL    HW113436   0.162   1.810   0.688
 4179SOL    HW213437   0.097   1.741   0.555
 4180SOL     OW13438   5.793   3.936   2.109
 4180SOL    HW113439   5.754   3.860   2.056
 4180SOL    HW213440   5.723   4.005   2.124
 4181SOL     OW13441   5.463   1.034   6.897
 4181SOL    HW113442   5.443   1.109   6.960
 4181SOL    HW213443   5.384   1.017   6.838
 4182SOL     OW13444   6.315   0.420   3.919
 4182SOL    HW113445   6.240   0.441   3.856
 4182SOL    HW213446   6.299   0.466   4.006
 4183SOL     OW13447   0.494   0.912   1.859
 4183SOL    HW113448   0.539   0.996   1.828
 4183SOL    HW213449   0.512   0.838   1.794
 4184SOL     OW13450   4.089   4.756   6.439
 4184SOL    HW113451   4.116   4.814   6.362
 4184SOL    HW213452   3.994   4.727   6.427
 4185SOL     OW13453   0.155   1.313   4.784
 4185SOL    HW113454   0.215   1.286   4.710
 4185SOL    HW213455   0.150   1.413   4.790
 4186SOL     OW13456   2.870   3.617   1.837
 4186SOL    HW113457   2.925   3.535   1.821
 4186SOL    HW213458   2.925   3.686   1.883
 4187SOL     OW13459   4.739   5.074   5.805
 4187SOL    HW113460   4.805   5.017   5.854
 4187SOL    HW213461   4.661   5.093   5.864
 4188SOL     OW13462   5.429   6.261   2.643
 4188SOL    HW113463   5.416   6.316   2.561
 4188SOL    HW213464   5.380   6.302   2.719
 4189SOL     OW13465   1.233   3.486   3.142
 4189SOL    HW113466   1.218   3.434   3.227
 4189SOL    HW213467   1.294   3.434   3.082
 4190SOL     OW13468   2.137   6.185   1.566
 4190SOL    HW113469   2.112   6.249   1.639
 4190SOL    HW213470   2.076   6.106   1.570
 4191SOL     OW13471   0.204   2.001   3.865
 4191SOL    HW113472   0.238   1.962   3.779
 4191SOL    HW213473   0.105   2.016   3.857
 4192SOL     OW13474   6.108   6.078   3.616
 4192SOL    HW113475   6.060   6.046   3.534
 4192SOL    HW213476   6.169   6.154   3.591
 4193SOL     OW13477   1.538   6.513   3.762
 4193SOL    HW113478   1.569   6.588   3.820
 4193SOL    HW213479   1.584   6.519   3.673
 4194SOL     OW13480   4.778   0.344   3.275
 4194SOL    HW113481   4.745   0.336   3.369
 4194SOL    HW213482   4.876   0.324   3.273
 4195SOL     OW13483   4.557   0.409   3.135
 4195SOL    HW113484   4.641   0.384   3.182
 4195SOL    HW213485   4.542   0.507   3.142
 4196SOL     OW13486   5.274   2.370   3.845
 4196SOL    HW113487   5.218   2.290   3.828
 4196SOL    HW213488   5.296   2.415   3.759
 4197SOL     OW13489   5.498   4.668   4.643
 4197SOL    HW113490   5.414   4.711   4.610
 4197SOL    HW213491   5.522   4.706   4.733
 4198SOL     OW13492   6.519   3.634   5.936
 4198SOL    HW113493   6.500   3.566   5.865
 4198SOL    HW213494   6.617   3.634   5.957
 4199SOL     OW13495   2.908   4.097   6.187
 4199SOL    HW113496   2.898   4.071   6.091
 4199SOL    HW213497   2.833   4.158   6.213
 4200SOL     OW13498   2.651   0.249   5.108
 4200SOL    HW113499   2.565   0.229   5.156
 4200SOL    HW213500   2.635   0.321   5.040
 4201SOL     OW13501   6.326   6.680   4.606
 4201SOL    HW113502   6.330   6.665   4.508
 4201SOL    HW213503   6.392   6.621   4.652
 4202SOL     OW13504   5.904   3.414   4.960
 4202SOL    HW113505   5.859   3.386   5.045
 4202SOL    HW213506   5.903   3.339   4.895
 4203SOL     OW13507   3.016   5.421   4.335
 4203SOL    HW113508   2.955   5.369   4.394
 4203SOL    HW213509   2.971   5.437   4.247
 4204SOL     OW13510   1.716   3.759   0.125
 4204SOL    HW113511   1.747   3.694   0.056
 4204SOL    HW213512   1.616   3.763   0.126
 4205SOL     OW13513   2.287   6.841   3.739
 4205SOL    HW113514   2.193   6.870   3.724
 4205SOL    HW213515   2.334   6.906   3.798
 4206SOL     OW13516   4.602   6.382   2.961
 4206SOL    HW113517   4.531   6.421   3.019
 4206SOL    HW213518   4.586   6.409   2.866
 4207SOL     OW13519   2.260   6.680   6.776
 4207SOL    HW113520   2.282   6.602   6.833
 4207SOL    HW213521   2.163   6.678   6.753
 4208SOL     OW13522   0.872   1.716   2.105
 4208SOL    HW113523   0.871   1.632   2.159
 4208SOL    HW213524   0.866   1.795   2.166
 4209SOL     OW13525   2.068   0.710   5.681
 4209SOL    HW113526   1.996   0.641   5.669
 4209SOL    HW213527   2.112   0.728   5.593
 4210SOL     OW13528   3.433   3.658   6.939
 4210SOL    HW113529   3.514   3.680   6.993
 4210SOL    HW213530   3.450   3.684   6.843
 4211SOL     OW13531   6.959   3.255   4.330
 4211SOL    HW113532   6.929   3.263   4.425
 4211SOL    HW213533   7.013   3.335   4.306
 4212SOL     OW13534   5.790   6.529   0.990
 4212SOL    HW113535   5.755   6.619   1.015
 4212SOL    HW213536   5.889   6.534   0.976
 4213SOL     OW13537   1.087   0.760   1.333
 4213SOL    HW113538   1.048   0.840   1.380
 4213SOL    HW213539   1.185   0.772   1.324
 4214SOL     OW13540   3.946   5.376   3.563
 4214SOL    HW113541   4.002   5.328   3.631
 4214SOL    HW213542   3.952   5.475   3.578
 4215SOL     OW13543   2.066   5.579   7.019
 4215SOL    HW113544   2.000   5.619   0.055
 4215SOL    HW213545   2.080   5.482   0.016
 4216SOL     OW13546   2.120   2.842   5.446
 4216SOL    HW113547   2.032   2.878   5.477
 4216SOL    HW213548   2.188   2.915   5.450
 4217SOL     OW13549   6.280   0.974   4.449
 4217SOL    HW113550   6.371   0.937   4.431
 4217SOL    HW213551   6.290   1.066   4.487
 4218SOL     OW13552   3.076   5.625   2.110
 4218SOL    HW113553   3.085   5.541   2.056
 4218SOL    HW213554   3.150   5.628   2.177
 4219SOL     OW13555   5.055   0.648   2.225
 4219SOL    HW113556   5.026   0.739   2.255
 4219SOL    HW213557   5.153   0.637   2.240
 4220SOL     OW13558   1.032   4.677   3.037
 4220SOL    HW113559   0.951   4.635   2.996
 4220SOL    HW213560   1.020   4.681   3.136
 4221SOL     OW13561   5.505   5.810   5.777
 4221SOL    HW113562   5.429   5.769   5.828
 4221SOL    HW213563   5.586   5.814   5.836
 4222SOL     OW13564   2.130   2.971   0.548
 4222SOL    HW113565   2.138   2.914   0.629
 4222SOL    HW213566   2.196   3.046   0.553
 4223SOL     OW13567   3.905   3.902   2.833
 4223SOL    HW113568   3.931   3.945   2.920
 4223SOL    HW213569   3.974   3.834   2.808
 4224SOL     OW13570   3.317   2.206   5.374
 4224SOL    HW113571   3.297   2.273   5.302
 4224SOL    HW213572   3.256   2.220   5.451
 4225SOL     OW13573   4.939   6.182   4.188
 4225SOL    HW113574   5.038   6.172   4.173
 4225SOL    HW213575   4.914   6.133   4.271
 4226SOL     OW13576   2.524   2.129   1.936
 4226SOL    HW113577   2.549   2.215   1.981
 4226SOL    HW213578   2.453   2.083   1.989
 4227SOL     OW13579   5.556   3.621   0.150
 4227SOL    HW113580   5.641   3.672   0.165
 4227SOL    HW213581   5.547   3.552   0.221
 4228SOL     OW13582   4.589   5.900   3.070
 4228SOL    HW113583   4.665   5.848   3.032
 4228SOL    HW213584   4.623   5.982   3.114
 4229SOL     OW13585   4.323   4.729   4.587
 4229SOL    HW113586   4.379   4.808   4.612
 4229SOL    HW213587   4.364   4.682   4.509
 4230SOL     OW13588   1.900   0.983   4.453
 4230SOL    HW113589   1.816   1.036   4.465
 4230SOL    HW213590   1.945   0.972   4.541
 4231SOL     OW13591   3.769   6.831   6.734
 4231SOL    HW113592   3.713   6.751   6.751
 4231SOL    HW213593   3.752   6.900   6.805
 4232SOL     OW13594   2.276   3.823   1.830
 4232SOL    HW113595   2.208   3.788   1.895
 4232SOL    HW213596   2.324   3.747   1.787
 4233SOL     OW13597   4.438   4.571   0.802
 4233SOL    HW113598   4.393   4.482   0.794
 4233SOL    HW213599   4.509   4.565   0.873
 4234SOL     OW13600   3.690   4.124   6.192
 4234SOL    HW113601   3.662   4.169   6.107
 4234SOL    HW213602   3.781   4.084   6.180
 4235SOL     OW13603   0.552   3.393   4.815
 4235SOL    HW113604   0.611   3.467   4.847
 4235SOL    HW213605   0.459   3.429   4.800
 4236SOL     OW13606   0.911   3.016   3.970
 4236SOL    HW113607   0.962   2.936   4.001
 4236SOL    HW213608   0.863   3.056   4.048
 4237SOL     OW13609   5.229   3.476   5.295
 4237SOL    HW113610   5.144   3.504   5.251
 4237SOL    HW213611   5.268   3.554   5.345
 4238SOL     OW13612   4.852   4.613   4.893
 4238SOL    HW113613   4.793   4.625   4.973
 4238SOL    HW213614   4.912   4.534   4.907
 4239SOL     OW13615   5.681   4.560   5.558
 4239SOL    HW113616   5.717   4.563   5.651
 4239SOL    HW213617   5.754   4.583   5.493
 4240SOL     OW13618   2.761   4.342   5.570
 4240SOL    HW113619   2.809   4.294   5.497
 4240SOL    HW213620   2.818   4.344   5.652
 4241SOL     OW13621   3.184   2.475   0.070
 4241SOL    HW113622   3.276   2.437   0.085
 4241SOL    HW213623   3.168   2.550   0.134
 4242SOL     OW13624   2.698   0.208   1.403
 4242SOL    HW113625   2.772   0.158   1.448
 4242SOL    HW213626   2.629   0.233   1.471
 4243SOL     OW13627   2.059   1.633   1.953
 4243SOL    HW113628   2.030   1.593   1.866
 4243SOL    HW213629   2.076   1.560   2.019
 4244SOL     OW13630   2.676   6.971   0.269
 4244SOL    HW113631   2.724   7.019   0.195
 4244SOL    HW213632   2.690   7.020   0.355
 4245SOL     OW13633   6.632   1.524   1.547
 4245SOL    HW113634   6.722   1.496   1.513
 4245SOL    HW213635   6.641   1.609   1.598
 4246SOL     OW13636   3.374   1.882   3.040
 4246SOL    HW113637   3.433   1.958   3.067
 4246SOL    HW213638   3.371   1.875   2.940
 4247SOL     OW13639   2.391   4.816   5.979
 4247SOL    HW113640   2.326   4.810   6.055
 4247SOL    HW213641   2.471   4.760   6.000
 4248SOL     OW13642   2.881   6.271   1.230
 4248SOL    HW113643   2.890   6.310   1.322
 4248SOL    HW213644   2.802   6.310   1.185
 4249SOL     OW13645   6.346   1.090   5.430
 4249SOL    HW113646   6.274   1.085   5.361
 4249SOL    HW213647   6.349   1.005   5.482
 4250SOL     OW13648   1.147   5.592   4.719
 4250SOL    HW113649   1.047   5.600   4.723
 4250SOL    HW213650   1.172   5.501   4.686
 4251SOL     OW13651   4.849   1.564   5.864
 4251SOL    HW113652   4.824   1.617   5.783
 4251SOL    HW213653   4.783   1.489   5.876
 4252SOL     OW13654   0.837   6.622   6.658
 4252SOL    HW113655   0.913   6.687   6.648
 4252SOL    HW213656   0.751   6.667   6.633
 4253SOL     OW13657   2.859   6.662   2.452
 4253SOL    HW113658   2.857   6.589   2.520
 4253SOL    HW213659   2.954   6.687   2.433
 4254SOL     OW13660   0.771   0.865   3.861
 4254SOL    HW113661   0.739   0.870   3.956
 4254SOL    HW213662   0.730   0.940   3.809
 4255SOL     OW13663   1.951   3.058   4.751
 4255SOL    HW113664   2.032   3.092   4.703
 4255SOL    HW213665   1.900   3.135   4.790
 4256SOL     OW13666   6.045   6.405   0.858
 4256SOL    HW113667   6.013   6.474   0.794
 4256SOL    HW213668   6.144   6.397   0.852
 4257SOL     OW13669   0.226   1.240   2.586
 4257SOL    HW113670   0.296   1.310   2.602
 4257SOL    HW213671   0.212   1.187   2.669
 4258SOL     OW13672   2.547   6.527   0.555
 4258SOL    HW113673   2.485   6.605   0.542
 4258SOL    HW213674   2.494   6.443   0.561
 4259SOL     OW13675   1.642   0.740   0.779
 4259SOL    HW113676   1.546   0.751   0.807
 4259SOL    HW213677   1.691   0.825   0.797
 4260SOL     OW13678   0.182   0.591   5.769
 4260SOL    HW113679   0.183   0.540   5.855
 4260SOL    HW213680   0.088   0.596   5.734
 4261SOL     OW13681   1.664   0.059   3.210
 4261SOL    HW113682   1.607   0.094   3.285
 4261SOL    HW213683   1.617   0.074   3.123
 4262SOL     OW13684   1.238   3.546   5.115
 4262SOL    HW113685   1.235   3.640   5.081
 4262SOL    HW213686   1.145   3.513   5.131
 4263SOL     OW13687   3.036   0.381   2.490
 4263SOL    HW113688   3.016   0.452   2.423
 4263SOL    HW213689   3.018   0.291   2.450
 4264SOL     OW13690   4.326   1.970   6.732
 4264SOL    HW113691   4.296   1.953   6.639
 4264SOL    HW213692   4.283   2.054   6.766
 4265SOL     OW13693   3.441   5.668   6.091
 4265SOL    HW113694   3.505   5.744   6.098
 4265SOL    HW213695   3.456   5.605   6.168
 4266SOL     OW13696   1.607   3.653   2.366
 4266SOL    HW113697   1.561   3.718   2.425
 4266SOL    HW213698   1.588   3.675   2.270
 4267SOL     OW13699   1.409   3.698   3.207
 4267SOL    HW113700   1.378   3.791   3.192
 4267SOL    HW213701   1.337   3.634   3.181
 4268SOL     OW13702   0.776   4.358   4.544
 4268SOL    HW113703   0.805   4.375   4.638
 4268SOL    HW213704   0.689   4.404   4.527
 4269SOL     OW13705   2.831   1.781   4.451
 4269SOL    HW113706   2.735   1.764   4.428
 4269SOL    HW213707   2.873   1.838   4.381
 4270SOL     OW13708   3.939   4.348   1.028
 4270SOL    HW113709   3.907   4.270   1.082
 4270SOL    HW213710   4.039   4.347   1.024
 4271SOL     OW13711   5.858   6.198   6.983
 4271SOL    HW113712   5.943   6.156   6.951
 4271SOL    HW213713   5.875   6.248   0.042
 4272SOL     OW13714   6.339   1.854   5.799
 4272SOL    HW113715   6.355   1.791   5.875
 4272SOL    HW213716   6.405   1.836   5.726
 4273SOL     OW13717   3.642   6.344   3.382
 4273SOL    HW113718   3.602   6.289   3.455
 4273SOL    HW213719   3.728   6.302   3.353
 4274SOL     OW13720   5.995   0.900   1.942
 4274SOL    HW113721   5.918   0.949   1.902
 4274SOL    HW213722   5.961   0.831   2.006
 4275SOL     OW13723   5.965   1.554   4.352
 4275SOL    HW113724   5.889   1.586   4.295
 4275SOL    HW213725   5.992   1.462   4.323
 4276SOL     OW13726   2.209   0.379   2.961
 4276SOL    HW113727   2.131   0.402   2.903
 4276SOL    HW213728   2.249   0.293   2.930
 4277SOL     OW13729   6.280   5.055   2.885
 4277SOL    HW113730   6.239   4.973   2.845
 4277SOL    HW213731   6.207   5.118   2.913
 4278SOL     OW13732   0.085   6.990   1.932
 4278SOL    HW113733   0.058   6.923   2.000
 4278SOL    HW213734   0.004   0.008   1.894
 4279SOL     OW13735   0.817   3.446   2.966
 4279SOL    HW113736   0.859   3.488   3.046
 4279SOL    HW213737   0.877   3.374   2.931
 4280SOL     OW13738   2.334   0.367   5.673
 4280SOL    HW113739   2.420   0.411   5.646
 4280SOL    HW213740   2.353   0.276   5.710
 4281SOL     OW13741   6.566   6.714   2.922
 4281SOL    HW113742   6.660   6.724   2.888
 4281SOL    HW213743   6.563   6.641   2.990
 4282SOL     OW13744   5.628   4.978   2.210
 4282SOL    HW113745   5.598   5.035   2.134
 4282SOL    HW213746   5.548   4.941   2.257
 4283SOL     OW13747   0.458   2.124   5.538
 4283SOL    HW113748   0.485   2.077   5.454
 4283SOL    HW213749   0.435   2.056   5.608
 4284SOL     OW13750   4.776   6.395   0.027
 4284SOL    HW113751   4.841   6.322   0.048
 4284SOL    HW213752   4.796   6.433   6.963
 4285SOL     OW13753   3.373   1.613   5.906
 4285SOL    HW113754   3.331   1.603   5.816
 4285SOL    HW213755   3.409   1.706   5.916
 4286SOL     OW13756   5.106   6.866   6.410
 4286SOL    HW113757   5.058   6.785   6.444
 4286SOL    HW213758   5.044   6.920   6.354
 4287SOL     OW13759   5.223   0.341   0.872
 4287SOL    HW113760   5.298   0.336   0.807
 4287SOL    HW213761   5.139   0.366   0.824
 4288SOL     OW13762   5.991   6.467   2.480
 4288SOL    HW113763   6.055   6.438   2.551
 4288SOL    HW213764   6.032   6.453   2.390
 4289SOL     OW13765   0.336   5.451   5.892
 4289SOL    HW113766   0.258   5.422   5.946
 4289SOL    HW213767   0.397   5.373   5.876
 4290SOL     OW13768   0.147   0.612   3.090
 4290SOL    HW113769   0.135   0.551   3.012
 4290SOL    HW213770   0.129   0.706   3.063
 4291SOL     OW13771   4.901   5.016   5.508
 4291SOL    HW113772   4.970   5.016   5.580
 4291SOL    HW213773   4.895   5.108   5.468
 4292SOL     OW13774   6.253   0.484   6.969
 4292SOL    HW113775   6.256   0.519   0.036
 4292SOL    HW213776   6.341   0.443   6.946
 4293SOL     OW13777   4.259   2.028   6.228
 4293SOL    HW113778   4.194   2.039   6.304
 4293SOL    HW213779   4.299   1.937   6.231
 4294SOL     OW13780   2.600   1.923   6.959
 4294SOL    HW113781   2.573   1.834   6.996
 4294SOL    HW213782   2.698   1.922   6.937
 4295SOL     OW13783   3.897   0.086   2.823
 4295SOL    HW113784   3.851   0.087   2.912
 4295SOL    HW213785   3.959   0.008   2.818
 4296SOL     OW13786   1.963   5.258   1.941
 4296SOL    HW113787   1.964   5.187   1.870
 4296SOL    HW213788   1.890   5.324   1.921
 4297SOL     OW13789   4.942   4.135   6.733
 4297SOL    HW113790   4.951   4.191   6.651
 4297SOL    HW213791   5.027   4.139   6.785
 4298SOL     OW13792   1.742   6.174   0.216
 4298SOL    HW113793   1.832   6.146   0.183
 4298SOL    HW213794   1.690   6.093   0.244
 4299SOL     OW13795   0.101   4.373   6.975
 4299SOL    HW113796   0.192   4.401   6.947
 4299SOL    HW213797   0.045   4.356   6.894
 4300SOL     OW13798   3.639   0.798   2.186
 4300SOL    HW113799   3.555   0.822   2.234
 4300SOL    HW213800   3.620   0.731   2.115
 4301SOL     OW13801   2.427   5.426   3.772
 4301SOL    HW113802   2.526   5.414   3.776
 4301SOL    HW213803   2.382   5.358   3.830
 4302SOL     OW13804   3.270   4.812   6.762
 4302SOL    HW113805   3.325   4.865   6.826
 4302SOL    HW213806   3.173   4.830   6.777
 4303SOL     OW13807   4.666   5.543   3.377
 4303SOL    HW113808   4.706   5.625   3.335
 4303SOL    HW213809   4.716   5.522   3.461
 4304SOL     OW13810   2.469   4.399   1.063
 4304SOL    HW113811   2.495   4.450   0.981
 4304SOL    HW213812   2.530   4.422   1.138
 4305SOL     OW13813   0.969   6.817   6.256
 4305SOL    HW113814   1.035   6.860   6.194
 4305SOL    HW213815   0.931   6.735   6.213
 4306SOL     OW13816   6.691   4.732   4.840
 4306SOL    HW113817   6.629   4.771   4.772
 4306SOL    HW213818   6.674   4.775   4.929
 4307SOL     OW13819   7.022   1.912   4.778
 4307SOL    HW113820   0.074   1.886   4.722
 4307SOL    HW213821   7.026   1.864   4.866
 4308SOL     OW13822   4.659   6.048   6.571
 4308SOL    HW113823   4.744   6.053   6.623
 4308SOL    HW213824   4.650   6.130   6.514
 4309SOL     OW13825   2.235   1.682   0.701
 4309SOL    HW113826   2.284   1.639   0.777
 4309SOL    HW213827   2.206   1.612   0.635
 4310SOL     OW13828   5.745   0.964   4.907
 4310SOL    HW113829   5.765   0.895   4.976
 4310SOL    HW213830   5.650   0.955   4.877
 4311SOL     OW13831   0.445   0.094   0.526
 4311SOL    HW113832   0.496   0.179   0.538
 4311SOL    HW213833   0.432   0.078   0.428
 4312SOL     OW13834   0.475   3.245   3.297
 4312SOL    HW113835   0.502   3.155   3.264
 4312SOL    HW213836   0.497   3.254   3.394
 4313SOL     OW13837   1.054   2.909   0.717
 4313SOL    HW113838   1.072   2.966   0.637
 4313SOL    HW213839   0.982   2.842   0.695
 4314SOL     OW13840   2.290   1.500   6.321
 4314SOL    HW113841   2.203   1.452   6.332
 4314SOL    HW213842   2.313   1.504   6.223
 4315SOL     OW13843   3.146   2.285   5.599
 4315SOL    HW113844   3.210   2.359   5.620
 4315SOL    HW213845   3.055   2.309   5.632
 4316SOL     OW13846   4.901   4.326   1.101
 4316SOL    HW113847   4.917   4.423   1.114
 4316SOL    HW213848   4.870   4.285   1.187
 4317SOL     OW13849   4.892   0.359   2.725
 4317SOL    HW113850   4.817   0.423   2.744
 4317SOL    HW213851   4.859   0.265   2.738
 4318SOL     OW13852   2.347   5.871   3.412
 4318SOL    HW113853   2.421   5.813   3.379
 4318SOL    HW213854   2.264   5.852   3.359
 4319SOL     OW13855   2.385   4.945   0.273
 4319SOL    HW113856   2.295   4.908   0.296
 4319SOL    HW213857   2.456   4.878   0.291
 4320SOL     OW13858   4.897   1.477   1.768
 4320SOL    HW113859   4.979   1.445   1.721
 4320SOL    HW213860   4.918   1.493   1.865
 4321SOL     OW13861   0.234   6.176   3.591
 4321SOL    HW113862   0.319   6.160   3.640
 4321SOL    HW213863   0.197   6.266   3.617
 4322SOL     OW13864   2.918   2.201   3.137
 4322SOL    HW113865   2.882   2.212   3.044
 4322SOL    HW213866   3.016   2.185   3.134
 4323SOL     OW13867   5.614   4.159   2.145
 4323SOL    HW113868   5.602   4.227   2.073
 4323SOL    HW213869   5.525   4.120   2.170
 4324SOL     OW13870   6.377   3.912   5.123
 4324SOL    HW113871   6.325   3.977   5.179
 4324SOL    HW213872   6.321   3.831   5.106
 4325SOL     OW13873   1.280   0.232   0.312
 4325SOL    HW113874   1.360   0.201   0.363
 4325SOL    HW213875   1.200   0.235   0.372
 4326SOL     OW13876   5.466   2.639   2.521
 4326SOL    HW113877   5.370   2.614   2.508
 4326SOL    HW213878   5.473   2.735   2.546
 4327SOL     OW13879   3.441   6.839   3.936
 4327SOL    HW113880   3.443   6.775   4.013
 4327SOL    HW213881   3.531   6.881   3.926
 4328SOL     OW13882   5.417   0.353   1.420
 4328SOL    HW113883   5.392   0.345   1.324
 4328SOL    HW213884   5.391   0.270   1.469
 4329SOL     OW13885   6.688   3.679   0.727
 4329SOL    HW113886   6.760   3.748   0.713
 4329SOL    HW213887   6.620   3.714   0.791
 4330SOL     OW13888   2.773   6.530   5.211
 4330SOL    HW113889   2.839   6.474   5.161
 4330SOL    HW213890   2.766   6.620   5.167
 4331SOL     OW13891   5.771   1.420   2.930
 4331SOL    HW113892   5.822   1.505   2.916
 4331SOL    HW213893   5.826   1.356   2.983
 4332SOL     OW13894   6.835   6.514   1.593
 4332SOL    HW113895   6.799   6.494   1.502
 4332SOL    HW213896   6.927   6.553   1.584
 4333SOL     OW13897   3.186   2.906   5.738
 4333SOL    HW113898   3.218   2.973   5.805
 4333SOL    HW213899   3.099   2.867   5.767
 4334SOL     OW13900   0.961   2.209   3.829
 4334SOL    HW113901   0.937   2.275   3.900
 4334SOL    HW213902   1.035   2.150   3.861
 4335SOL     OW13903   2.392   2.408   1.696
 4335SOL    HW113904   2.372   2.320   1.738
 4335SOL    HW213905   2.326   2.425   1.622
 4336SOL     OW13906   2.432   5.855   4.713
 4336SOL    HW113907   2.434   5.757   4.730
 4336SOL    HW213908   2.346   5.893   4.744
 4337SOL     OW13909   0.251   4.434   3.941
 4337SOL    HW113910   0.329   4.375   3.920
 4337SOL    HW213911   0.279   4.530   3.935
 4338SOL     OW13912   3.212   3.504   5.123
 4338SOL    HW113913   3.170   3.538   5.038
 4338SOL    HW213914   3.230   3.406   5.114
 4339SOL     OW13915   3.860   3.399   5.281
 4339SOL    HW113916   3.855   3.337   5.203
 4339SOL    HW213917   3.936   3.372   5.341
 4340SOL     OW13918   6.573   3.963   0.426
 4340SOL    HW113919   6.525   4.045   0.393
 4340SOL    HW213920   6.663   3.989   0.461
 4341SOL     OW13921   5.513   6.978   1.493
 4341SOL    HW113922   5.531   0.006   1.412
 4341SOL    HW213923   5.434   6.919   1.478
 4342SOL     OW13924   5.094   3.731   2.454
 4342SOL    HW113925   5.035   3.766   2.381
 4342SOL    HW213926   5.042   3.668   2.511
 4343SOL     OW13927   5.015   6.621   6.555
 4343SOL    HW113928   4.920   6.649   6.543
 4343SOL    HW213929   5.029   6.589   6.649
 4344SOL     OW13930   1.191   3.995   2.473
 4344SOL    HW113931   1.260   4.064   2.450
 4344SOL    HW213932   1.105   4.019   2.429
 4345SOL     OW13933   3.788   3.576   2.042
 4345SOL    HW113934   3.878   3.544   2.010
 4345SOL    HW213935   3.731   3.497   2.064
 4346SOL     OW13936   1.188   3.009   1.435
 4346SOL    HW113937   1.217   3.074   1.505
 4346SOL    HW213938   1.107   3.043   1.388
 4347SOL     OW13939   5.958   6.135   0.806
 4347SOL    HW113940   5.990   6.229   0.821
 4347SOL    HW213941   5.860   6.136   0.785
 4348SOL     OW13942   6.824   4.611   5.810
 4348SOL    HW113943   6.766   4.531   5.826
 4348SOL    HW213944   6.766   4.689   5.785
 4349SOL     OW13945   0.628   3.902   3.613
 4349SOL    HW113946   0.543   3.895   3.665
 4349SOL    HW213947   0.685   3.975   3.651
 4350SOL     OW13948   5.323   0.438   4.117
 4350SOL    HW113949   5.419   0.440   4.145
 4350SOL    HW213950   5.317   0.461   4.020
 4351SOL     OW13951   0.171   6.762   2.190
 4351SOL    HW113952   0.221   6.756   2.103
 4351SOL    HW213953   0.128   6.674   2.209
 4352SOL     OW13954   4.604   4.551   1.024
 4352SOL    HW113955   4.681   4.548   0.960
 4352SOL    HW213956   4.628   4.501   1.108
 4353SOL     OW13957   2.119   3.611   0.449
 4353SOL    HW113958   2.024   3.621   0.421
 4353SOL    HW213959   2.125   3.548   0.527
 4354SOL     OW13960   6.411   4.117   2.901
 4354SOL    HW113961   6.364   4.062   2.970
 4354SOL    HW213962   6.450   4.056   2.832
 4355SOL     OW13963   2.287   4.981   4.416
 4355SOL    HW113964   2.265   4.908   4.480
 4355SOL    HW213965   2.256   5.069   4.453
 4356SOL     OW13966   5.880   1.668   5.334
 4356SOL    HW113967   5.916   1.717   5.413
 4356SOL    HW213968   5.952   1.656   5.266
 4357SOL     OW13969   4.962   5.956   2.523
 4357SOL    HW113970   4.907   5.924   2.446
 4357SOL    HW213971   4.992   6.050   2.505
 4358SOL     OW13972   3.383   0.518   1.239
 4358SOL    HW113973   3.437   0.477   1.165
 4358SOL    HW213974   3.414   0.481   1.327
 4359SOL     OW13975   3.009   3.978   1.369
 4359SOL    HW113976   2.981   4.065   1.330
 4359SOL    HW213977   2.929   3.918   1.378
 4360SOL     OW13978   3.345   6.938   3.654
 4360SOL    HW113979   3.368   6.873   3.727
 4360SOL    HW213980   3.305   7.020   3.693
 4361SOL     OW13981   1.802   0.244   6.306
 4361SOL    HW113982   1.843   0.217   6.393
 4361SOL    HW213983   1.779   0.163   6.253
 4362SOL     OW13984   6.649   5.138   1.715
 4362SOL    HW113985   6.671   5.236   1.714
 4362SOL    HW213986   6.727   5.087   1.751
 4363SOL     OW13987   4.807   0.886   2.533
 4363SOL    HW113988   4.733   0.952   2.548
 4363SOL    HW213989   4.839   0.852   2.621
 4364SOL     OW13990   3.757   3.419   3.090
 4364SOL    HW113991   3.765   3.451   3.184
 4364SOL    HW213992   3.750   3.319   3.089
 4365SOL     OW13993   2.370   0.667   0.946
 4365SOL    HW113994   2.465   0.698   0.935
 4365SOL    HW213995   2.332   0.644   0.857
 4366SOL     OW13996   4.992   5.047   5.049
 4366SOL    HW113997   5.091   5.035   5.045
 4366SOL    HW213998   4.971   5.140   5.078
 4367SOL     OW13999   1.513   0.016   1.347
 4367SOL    HW114000   1.432   6.986   1.359
 4367SOL    HW214001   1.574   7.001   1.280
 4368SOL     OW14002   4.965   4.958   4.494
 4368SOL    HW114003   4.926   5.030   4.551
 4368SOL    HW214004   5.052   4.990   4.455
 4369SOL     OW14005   6.493   4.046   3.797
 4369SOL    HW114006   6.491   3.978   3.723
 4369SOL    HW214007   6.491   3.998   3.885
 4370SOL     OW14008   5.200   4.506   1.463
 4370SOL    HW114009   5.251   4.433   1.418
 4370SOL    HW214010   5.262   4.561   1.519
 4371SOL     OW14011   3.193   0.562   3.437
 4371SOL    HW114012   3.101   0.579   3.473
 4371SOL    HW214013   3.196   0.584   3.340
 4372SOL     OW14014   1.703   4.460   5.708
 4372SOL    HW114015   1.681   4.439   5.612
 4372SOL    HW214016   1.801   4.479   5.716
 4373SOL     OW14017   3.910   0.645   0.986
 4373SOL    HW114018   3.828   0.640   0.930
 4373SOL    HW214019   3.943   0.740   0.989
 4374SOL     OW14020   1.782   6.430   0.294
 4374SOL    HW114021   1.779   6.332   0.276
 4374SOL    HW214022   1.731   6.450   0.378
 4375SOL     OW14023   4.592   0.835   5.475
 4375SOL    HW114024   4.558   0.910   5.419
 4375SOL    HW214025   4.515   0.784   5.513
 4376SOL     OW14026   2.105   4.722   6.576
 4376SOL    HW114027   2.105   4.665   6.493
 4376SOL    HW214028   2.011   4.743   6.602
 4377SOL     OW14029   5.088   5.686   0.351
 4377SOL    HW114030   5.016   5.740   0.395
 4377SOL    HW214031   5.144   5.746   0.293
 4378SOL     OW14032   2.936   5.177   1.274
 4378SOL    HW114033   2.907   5.100   1.219
 4378SOL    HW214034   3.034   5.192   1.263
 4379SOL     OW14035   5.653   6.453   0.738
 4379SOL    HW114036   5.669   6.481   0.833
 4379SOL    HW214037   5.691   6.521   0.676
 4380SOL     OW14038   1.765   6.035   4.730
 4380SOL    HW114039   1.708   6.103   4.682
 4380SOL    HW214040   1.811   6.078   4.807
 4381SOL     OW14041   3.765   6.156   4.889
 4381SOL    HW114042   3.670   6.169   4.859
 4381SOL    HW214043   3.766   6.105   4.975
 4382SOL     OW14044   5.763   3.136   3.376
 4382SOL    HW114045   5.683   3.079   3.391
 4382SOL    HW214046   5.783   3.189   3.458
 4383SOL     OW14047   0.965   6.936   6.763
 4383SOL    HW114048   0.919   7.017   6.800
 4383SOL    HW214049   0.943   6.928   6.666
 4384SOL     OW14050   3.592   0.340   1.722
 4384SOL    HW114051   3.683   0.330   1.681
 4384SOL    HW214052   3.601   0.339   1.822
 4385SOL     OW14053   5.684   2.624   4.679
 4385SOL    HW114054   5.700   2.633   4.581
 4385SOL    HW214055   5.606   2.563   4.695
 4386SOL     OW14056   2.182   5.349   0.410
 4386SOL    HW114057   2.229   5.433   0.435
 4386SOL    HW214058   2.224   5.311   0.328
 4387SOL     OW14059   6.656   2.687   1.032
 4387SOL    HW114060   6.697   2.643   1.112
 4387SOL    HW214061   6.609   2.618   0.977
 4388SOL     OW14062   3.513   0.822   5.616
 4388SOL    HW114063   3.463   0.772   5.545
 4388SOL    HW214064   3.569   0.758   5.669
 4389SOL     OW14065   1.421   3.469   2.453
 4389SOL    HW114066   1.466   3.542   2.402
 4389SOL    HW214067   1.423   3.385   2.399
 4390SOL     OW14068   5.094   3.616   0.816
 4390SOL    HW114069   5.079   3.713   0.795
 4390SOL    HW214070   5.015   3.563   0.785
 4391SOL     OW14071   0.396   5.736   1.474
 4391SOL    HW114072   0.419   5.653   1.422
 4391SOL    HW214073   0.386   5.713   1.571
 4392SOL     OW14074   5.139   5.896   4.557
 4392SOL    HW114075   5.223   5.944   4.580
 4392SOL    HW214076   5.149   5.853   4.467
 4393SOL     OW14077   5.188   6.781   2.712
 4393SOL    HW114078   5.114   6.723   2.744
 4393SOL    HW214079   5.256   6.792   2.786
 4394SOL     OW14080   4.744   1.473   2.798
 4394SOL    HW114081   4.674   1.406   2.822
 4394SOL    HW214082   4.759   1.534   2.876
 4395SOL     OW14083   5.324   3.051   1.506
 4395SOL    HW114084   5.375   3.010   1.582
 4395SOL    HW214085   5.283   2.978   1.450
 4396SOL     OW14086   1.999   0.459   1.970
 4396SOL    HW114087   2.096   0.463   1.995
 4396SOL    HW214088   1.991   0.449   1.871
 4397SOL     OW14089   4.131   2.555   0.718
 4397SOL    HW114090   4.049   2.595   0.760
 4397SOL    HW214091   4.141   2.460   0.748
 4398SOL     OW14092   0.493   5.526   5.238
 4398SOL    HW114093   0.463   5.514   5.143
 4398SOL    HW214094   0.505   5.437   5.280
 4399SOL     OW14095   2.363   7.001   1.539
 4399SOL    HW114096   2.368   6.919   1.596
 4399SOL    HW214097   2.376   6.975   1.443
 4400SOL     OW14098   3.649   5.222   2.639
 4400SOL    HW114099   3.697   5.162   2.574
 4400SOL    HW214100   3.687   5.208   2.730
 4401SOL     OW14101   4.527   6.538   5.023
 4401SOL    HW114102   4.495   6.633   5.022
 4401SOL    HW214103   4.483   6.487   4.950
 4402SOL     OW14104   0.411   6.453   0.910
 4402SOL    HW114105   0.441   6.405   0.992
 4402SOL    HW214106   0.475   6.527   0.889
 4403SOL     OW14107   6.478   1.755   3.375
 4403SOL    HW114108   6.504   1.694   3.300
 4403SOL    HW214109   6.560   1.781   3.427
 4404SOL     OW14110   1.636   3.939   2.908
 4404SOL    HW114111   1.681   3.872   2.850
 4404SOL    HW214112   1.629   3.904   3.001
 4405SOL     OW14113   3.195   3.789   6.878
 4405SOL    HW114114   3.114   3.785   6.937
 4405SOL    HW214115   3.275   3.758   6.929
 4406SOL     OW14116   6.551   2.618   3.192
 4406SOL    HW114117   6.627   2.680   3.215
 4406SOL    HW214118   6.514   2.579   3.276
 4407SOL     OW14119   0.911   1.084   0.461
 4407SOL    HW114120   0.889   1.170   0.416
 4407SOL    HW214121   0.970   1.029   0.400
 4408SOL     OW14122   4.760   6.158   1.127
 4408SOL    HW114123   4.793   6.251   1.113
 4408SOL    HW214124   4.817   6.113   1.196
 4409SOL     OW14125   3.610   1.491   3.059
 4409SOL    HW114126   3.651   1.472   3.148
 4409SOL    HW214127   3.640   1.421   2.993
 4410SOL     OW14128   2.314   5.227   0.213
 4410SOL    HW114129   2.376   5.240   0.135
 4410SOL    HW214130   2.318   5.131   0.243
 4411SOL     OW14131   3.491   2.862   1.731
 4411SOL    HW114132   3.468   2.776   1.685
 4411SOL    HW214133   3.407   2.913   1.750
 4412SOL     OW14134   2.616   1.534   6.768
 4412SOL    HW114135   2.599   1.631   6.750
 4412SOL    HW214136   2.683   1.499   6.703
 4413SOL     OW14137   4.025   6.047   4.124
 4413SOL    HW114138   4.042   6.007   4.214
 4413SOL    HW214139   4.003   6.144   4.134
 4414SOL     OW14140   3.394   4.347   1.561
 4414SOL    HW114141   3.364   4.254   1.542
 4414SOL    HW214142   3.471   4.346   1.625
 4415SOL     OW14143   5.142   1.223   1.864
 4415SOL    HW114144   5.161   1.285   1.788
 4415SOL    HW214145   5.127   1.276   1.947
 4416SOL     OW14146   2.842   2.161   5.440
 4416SOL    HW114147   2.902   2.233   5.405
 4416SOL    HW214148   2.813   2.101   5.365
 4417SOL     OW14149   5.054   1.152   1.369
 4417SOL    HW114150   5.016   1.059   1.362
 4417SOL    HW214151   5.154   1.147   1.374
 4418SOL     OW14152   4.129   0.588   2.816
 4418SOL    HW114153   4.117   0.599   2.718
 4418SOL    HW214154   4.143   0.491   2.838
 4419SOL     OW14155   6.552   5.513   6.459
 4419SOL    HW114156   6.633   5.458   6.478
 4419SOL    HW214157   6.516   5.551   6.544
 4420SOL     OW14158   5.385   1.633   0.844
 4420SOL    HW114159   5.314   1.679   0.897
 4420SOL    HW214160   5.410   1.547   0.888
 4421SOL     OW14161   1.068   1.625   3.477
 4421SOL    HW114162   1.065   1.724   3.490
 4421SOL    HW214163   0.975   1.588   3.477
 4422SOL     OW14164   2.018   4.160   5.863
 4422SOL    HW114165   2.068   4.211   5.793
 4422SOL    HW214166   1.921   4.185   5.859
 4423SOL     OW14167   0.613   2.225   6.215
 4423SOL    HW114168   0.669   2.245   6.135
 4423SOL    HW214169   0.650   2.271   6.295
 4424SOL     OW14170   2.141   5.420   3.075
 4424SOL    HW114171   2.122   5.516   3.053
 4424SOL    HW214172   2.194   5.380   3.000
 4425SOL     OW14173   5.828   4.119   2.862
 4425SOL    HW114174   5.737   4.138   2.900
 4425SOL    HW214175   5.819   4.100   2.764
 4426SOL     OW14176   0.261   6.517   6.822
 4426SOL    HW114177   0.213   6.475   6.745
 4426SOL    HW214178   0.318   6.592   6.790
 4427SOL     OW14179   0.475   4.973   3.803
 4427SOL    HW114180   0.511   4.930   3.720
 4427SOL    HW214181   0.375   4.968   3.802
 4428SOL     OW14182   1.544   0.201   2.178
 4428SOL    HW114183   1.456   0.241   2.154
 4428SOL    HW214184   1.530   0.112   2.221
 4429SOL     OW14185   2.005   6.721   1.129
 4429SOL    HW114186   2.021   6.755   1.221
 4429SOL    HW214187   1.997   6.621   1.130
 4430SOL     OW14188   1.539   0.589   2.205
 4430SOL    HW114189   1.475   0.574   2.281
 4430SOL    HW214190   1.617   0.528   2.215
 4431SOL     OW14191   2.472   1.590   2.475
 4431SOL    HW114192   2.541   1.528   2.511
 4431SOL    HW214193   2.456   1.569   2.378
 4432SOL     OW14194   3.644   3.851   4.759
 4432SOL    HW114195   3.547   3.838   4.737
 4432SOL    HW214196   3.674   3.777   4.819
 4433SOL     OW14197   5.106   6.848   1.335
 4433SOL    HW114198   5.134   6.866   1.241
 4433SOL    HW214199   5.186   6.821   1.389
 4434SOL     OW14200   5.833   2.473   5.932
 4434SOL    HW114201   5.887   2.448   5.851
 4434SOL    HW214202   5.738   2.444   5.919
 4435SOL     OW14203   3.576   2.580   1.726
 4435SOL    HW114204   3.627   2.637   1.790
 4435SOL    HW214205   3.567   2.488   1.764
 4436SOL     OW14206   5.804   0.104   7.013
 4436SOL    HW114207   5.846   0.105   0.077
 4436SOL    HW214208   5.832   0.022   6.964
 4437SOL     OW14209   2.829   0.007   5.774
 4437SOL    HW114210   2.920   0.047   5.760
 4437SOL    HW214211   2.773   0.070   5.828
 4438SOL     OW14212   4.039   2.050   0.346
 4438SOL    HW114213   4.102   1.991   0.296
 4438SOL    HW214214   4.090   2.128   0.385
 4439SOL     OW14215   0.689   5.225   2.555
 4439SOL    HW114216   0.668   5.152   2.621
 4439SOL    HW214217   0.783   5.255   2.567
 4440SOL     OW14218   6.458   1.863   6.939
 4440SOL    HW114219   6.417   1.860   0.004
 4440SOL    HW214220   6.410   1.931   6.884
 4441SOL     OW14221   6.006   0.958   4.401
 4441SOL    HW114222   5.923   0.970   4.454
 4441SOL    HW214223   6.086   0.960   4.461
 4442SOL     OW14224   1.880   5.965   1.397
 4442SOL    HW114225   1.890   5.956   1.497
 4442SOL    HW214226   1.816   5.895   1.364
 4443SOL     OW14227   1.502   1.247   1.559
 4443SOL    HW114228   1.472   1.325   1.503
 4443SOL    HW214229   1.459   1.164   1.524
 4444SOL     OW14230   5.251   2.057   2.878
 4444SOL    HW114231   5.192   2.037   2.800
 4444SOL    HW214232   5.347   2.047   2.851
 4445SOL     OW14233   1.239   2.213   6.137
 4445SOL    HW114234   1.180   2.217   6.056
 4445SOL    HW214235   1.263   2.305   6.166
 4446SOL     OW14236   6.394   5.546   4.125
 4446SOL    HW114237   6.365   5.627   4.074
 4446SOL    HW214238   6.467   5.500   4.075
 4447SOL     OW14239   4.898   3.851   4.924
 4447SOL    HW114240   4.847   3.782   4.975
 4447SOL    HW214241   4.884   3.837   4.826
 4448SOL     OW14242   2.352   3.056   6.505
 4448SOL    HW114243   2.385   3.074   6.412
 4448SOL    HW214244   2.327   2.960   6.514
 4449SOL     OW14245   0.462   1.759   5.502
 4449SOL    HW114246   0.461   1.669   5.460
 4449SOL    HW214247   0.414   1.756   5.590
 4450SOL     OW14248   3.997   3.160   2.870
 4450SOL    HW114249   3.932   3.139   2.943
 4450SOL    HW214250   4.004   3.081   2.808
 4451SOL     OW14251   0.382   5.437   1.353
 4451SOL    HW114252   0.306   5.429   1.288
 4451SOL    HW214253   0.365   5.378   1.432
 4452SOL     OW14254   0.583   3.635   6.088
 4452SOL    HW114255   0.569   3.540   6.061
 4452SOL    HW214256   0.675   3.664   6.063
 4453SOL     OW14257   5.735   1.517   0.492
 4453SOL    HW114258   5.745   1.441   0.428
 4453SOL    HW214259   5.820   1.568   0.497
 4454SOL     OW14260   5.980   3.438   2.575
 4454SOL    HW114261   5.923   3.367   2.533
 4454SOL    HW214262   5.954   3.527   2.540
 4455SOL     OW14263   5.223   2.875   2.544
 4455SOL    HW114264   5.238   2.953   2.605
 4455SOL    HW214265   5.304   2.859   2.489
 4456SOL     OW14266   6.980   5.435   2.637
 4456SOL    HW114267   6.884   5.462   2.646
 4456SOL    HW214268   0.001   5.456   2.723
 4457SOL     OW14269   4.431   2.383   6.354
 4457SOL    HW114270   4.468   2.328   6.279
 4457SOL    HW214271   4.364   2.448   6.319
 4458SOL     OW14272   4.657   1.859   1.372
 4458SOL    HW114273   4.626   1.919   1.445
 4458SOL    HW214274   4.578   1.821   1.324
 4459SOL     OW14275   6.736   5.287   6.971
 4459SOL    HW114276   6.810   5.246   7.025
 4459SOL    HW214277   6.775   5.327   6.888
 4460SOL     OW14278   1.484   6.904   0.245
 4460SOL    HW114279   1.521   6.838   0.180
 4460SOL    HW214280   1.402   6.866   0.288
 4461SOL     OW14281   1.893   0.173   3.146
 4461SOL    HW114282   1.920   0.189   3.051
 4461SOL    HW214283   1.802   0.132   3.148
 4462SOL     OW14284   0.438   2.633   1.127
 4462SOL    HW114285   0.513   2.687   1.089
 4462SOL    HW214286   0.399   2.681   1.206
 4463SOL     OW14287   0.708   4.039   6.389
 4463SOL    HW114288   0.721   4.087   6.476
 4463SOL    HW214289   0.677   3.946   6.406
 4464SOL     OW14290   6.905   3.858   0.729
 4464SOL    HW114291   6.974   3.880   0.660
 4464SOL    HW214292   6.892   3.937   0.790
 4465SOL     OW14293   5.555   4.748   1.258
 4465SOL    HW114294   5.577   4.748   1.355
 4465SOL    HW214295   5.626   4.796   1.207
 4466SOL     OW14296   6.924   3.027   4.178
 4466SOL    HW114297   6.906   3.089   4.255
 4466SOL    HW214298   6.913   3.076   4.092
 4467SOL     OW14299   1.466   0.409   4.422
 4467SOL    HW114300   1.436   0.454   4.337
 4467SOL    HW214301   1.409   0.440   4.498
 4468SOL     OW14302   1.092   1.305   0.537
 4468SOL    HW114303   1.014   1.356   0.501
 4468SOL    HW214304   1.067   1.264   0.625
 4469SOL     OW14305   4.913   6.536   0.220
 4469SOL    HW114306   4.866   6.507   0.137
 4469SOL    HW214307   4.890   6.474   0.295
 4470SOL     OW14308   4.658   4.487   1.494
 4470SOL    HW114309   4.658   4.460   1.590
 4470SOL    HW214310   4.752   4.499   1.462
 4471SOL     OW14311   6.292   2.411   1.861
 4471SOL    HW114312   6.265   2.456   1.946
 4471SOL    HW214313   6.273   2.313   1.867
 4472SOL     OW14314   2.535   5.005   1.240
 4472SOL    HW114315   2.547   5.102   1.262
 4472SOL    HW214316   2.622   4.957   1.250
 4473SOL     OW14317   5.500   0.738   6.888
 4473SOL    HW114318   5.436   0.711   6.816
 4473SOL    HW214319   5.470   0.825   6.928
 4474SOL     OW14320   6.933   1.771   5.475
 4474SOL    HW114321   6.837   1.787   5.500
 4474SOL    HW214322   6.981   1.859   5.471
 4475SOL     OW14323   1.624   4.082   1.014
 4475SOL    HW114324   1.534   4.112   1.044
 4475SOL    HW214325   1.624   4.072   0.914
 4476SOL     OW14326   3.189   6.407   2.723
 4476SOL    HW114327   3.177   6.434   2.818
 4476SOL    HW214328   3.108   6.358   2.691
 4477SOL     OW14329   1.382   1.954   1.173
 4477SOL    HW114330   1.472   1.950   1.130
 4477SOL    HW214331   1.393   1.942   1.272
 4478SOL     OW14332   1.128   4.552   0.349
 4478SOL    HW114333   1.164   4.482   0.411
 4478SOL    HW214334   1.180   4.550   0.263
 4479SOL     OW14335   0.446   5.831   6.189
 4479SOL    HW114336   0.355   5.791   6.193
 4479SOL    HW214337   0.514   5.763   6.218
 4480SOL     OW14338   6.837   3.283   3.077
 4480SOL    HW114339   6.905   3.241   3.138
 4480SOL    HW214340   6.814   3.218   3.004
 4481SOL     OW14341   0.548   0.735   3.586
 4481SOL    HW114342   0.467   0.774   3.630
 4481SOL    HW214343   0.554   0.637   3.607
 4482SOL     OW14344   0.345   4.186   3.612
 4482SOL    HW114345   0.377   4.209   3.704
 4482SOL    HW214346   0.246   4.201   3.606
 4483SOL     OW14347   6.821   4.334   1.038
 4483SOL    HW114348   6.815   4.387   0.953
 4483SOL    HW214349   6.753   4.260   1.037
 4484SOL     OW14350   4.035   3.280   6.525
 4484SOL    HW114351   4.022   3.359   6.465
 4484SOL    HW214352   4.003   3.302   6.617
 4485SOL     OW14353   4.447   6.590   5.587
 4485SOL    HW114354   4.427   6.546   5.500
 4485SOL    HW214355   4.541   6.625   5.585
 4486SOL     OW14356   6.127   3.569   4.455
 4486SOL    HW114357   6.155   3.518   4.374
 4486SOL    HW214358   6.032   3.600   4.444
 4487SOL     OW14359   3.533   2.942   6.239
 4487SOL    HW114360   3.616   2.981   6.279
 4487SOL    HW214361   3.515   2.985   6.150
 4488SOL     OW14362   0.374   2.408   6.786
 4488SOL    HW114363   0.324   2.375   6.867
 4488SOL    HW214364   0.337   2.364   6.704
 4489SOL     OW14365   0.789   2.555   4.004
 4489SOL    HW114366   0.818   2.459   4.010
 4489SOL    HW214367   0.794   2.585   3.909
 4490SOL     OW14368   6.914   1.823   3.472
 4490SOL    HW114369   6.837   1.762   3.490
 4490SOL    HW214370   6.905   1.863   3.381
 4491SOL     OW14371   2.559   5.439   2.106
 4491SOL    HW114372   2.535   5.382   2.185
 4491SOL    HW214373   2.655   5.465   2.111
 4492SOL     OW14374   5.855   3.710   4.864
 4492SOL    HW114375   5.914   3.790   4.871
 4492SOL    HW214376   5.898   3.632   4.910
 4493SOL     OW14377   6.027   4.923   3.646
 4493SOL    HW114378   6.021   4.864   3.727
 4493SOL    HW214379   5.976   5.007   3.662
 4494SOL     OW14380   5.174   3.418   2.306
 4494SOL    HW114381   5.189   3.369   2.392
 4494SOL    HW214382   5.078   3.413   2.279
 4495SOL     OW14383   5.980   4.378   2.315
 4495SOL    HW114384   5.893   4.329   2.324
 4495SOL    HW214385   5.983   4.452   2.383
 4496SOL     OW14386   6.142   3.493   5.996
 4496SOL    HW114387   6.159   3.589   5.975
 4496SOL    HW214388   6.050   3.468   5.966
 4497SOL     OW14389   5.841   0.302   0.601
 4497SOL    HW114390   5.854   0.399   0.583
 4497SOL    HW214391   5.917   0.251   0.560
 4498SOL     OW14392   1.383   4.677   6.316
 4498SOL    HW114393   1.438   4.669   6.233
 4498SOL    HW214394   1.407   4.604   6.380
 4499SOL     OW14395   5.912   3.840   0.263
 4499SOL    HW114396   5.905   3.782   0.182
 4499SOL    HW214397   5.821   3.853   0.302
 4500SOL     OW14398   3.394   3.832   2.096
 4500SOL    HW114399   3.492   3.817   2.092
 4500SOL    HW214400   3.347   3.753   2.057
 4501SOL     OW14401   1.323   5.280   5.053
 4501SOL    HW114402   1.374   5.362   5.027
 4501SOL    HW214403   1.307   5.224   4.972
 4502SOL     OW14404   5.805   3.053   0.747
 4502SOL    HW114405   5.728   2.991   0.763
 4502SOL    HW214406   5.777   3.124   0.682
 4503SOL     OW14407   0.993   4.109   2.350
 4503SOL    HW114408   1.016   4.153   2.263
 4503SOL    HW214409   0.899   4.073   2.344
 4504SOL     OW14410   5.081   2.010   4.276
 4504SOL    HW114411   5.162   2.052   4.316
 4504SOL    HW214412   5.042   2.070   4.207
 4505SOL     OW14413   2.547   5.953   6.709
 4505SOL    HW114414   2.564   5.884   6.779
 4505SOL    HW214415   2.562   6.044   6.747
 4506SOL     OW14416   2.985   6.293   5.843
 4506SOL    HW114417   3.044   6.300   5.923
 4506SOL    HW214418   2.890   6.300   5.871
 4507SOL     OW14419   6.315   4.083   2.542
 4507SOL    HW114420   6.307   4.179   2.567
 4507SOL    HW214421   6.394   4.043   2.589
 4508SOL     OW14422   1.860   4.689   1.250
 4508SOL    HW114423   1.865   4.723   1.156
 4508SOL    HW214424   1.768   4.655   1.268
 4509SOL     OW14425   0.512   2.527   3.945
 4509SOL    HW114426   0.517   2.603   3.880
 4509SOL    HW214427   0.590   2.530   4.007
 4510SOL     OW14428   2.776   0.128   0.441
 4510SOL    HW114429   2.804   0.142   0.536
 4510SOL    HW214430   2.844   0.169   0.380
 4511SOL     OW14431   0.453   2.328   0.752
 4511SOL    HW114432   0.441   2.418   0.795
 4511SOL    HW214433   0.511   2.337   0.671
 4512SOL     OW14434   1.979   3.889   0.874
 4512SOL    HW114435   2.052   3.840   0.827
 4512SOL    HW214436   1.911   3.919   0.807
 4513SOL     OW14437   6.581   1.958   2.276
 4513SOL    HW114438   6.493   1.912   2.291
 4513SOL    HW214439   6.601   2.018   2.354
 4514SOL     OW14440   1.676   6.953   4.858
 4514SOL    HW114441   1.675   7.001   4.771
 4514SOL    HW214442   1.590   6.970   4.907
 4515SOL     OW14443   0.162   4.149   0.081
 4515SOL    HW114444   0.115   4.227   0.038
 4515SOL    HW214445   0.239   4.183   0.135
 4516SOL     OW14446   6.922   0.071   3.651
 4516SOL    HW114447   6.970   0.153   3.620
 4516SOL    HW214448   6.844   0.053   3.591
 4517SOL     OW14449   2.642   0.732   7.018
 4517SOL    HW114450   2.612   0.659   0.053
 4517SOL    HW214451   2.623   0.821   0.032
 4518SOL     OW14452   1.180   0.945   3.288
 4518SOL    HW114453   1.235   0.887   3.348
 4518SOL    HW214454   1.124   1.007   3.343
 4519SOL     OW14455   0.341   2.377   4.751
 4519SOL    HW114456   0.259   2.329   4.720
 4519SOL    HW214457   0.323   2.419   4.840
 4520SOL     OW14458   6.931   4.137   3.866
 4520SOL    HW114459   6.984   4.201   3.921
 4520SOL    HW214460   6.932   4.046   3.909
 4521SOL     OW14461   4.977   1.280   6.244
 4521SOL    HW114462   4.903   1.218   6.219
 4521SOL    HW214463   4.944   1.345   6.313
 4522SOL     OW14464   4.648   6.753   3.283
 4522SOL    HW114465   4.695   6.721   3.366
 4522SOL    HW214466   4.686   6.841   3.256
 4523SOL     OW14467   5.018   1.600   6.151
 4523SOL    HW114468   4.923   1.579   6.127
 4523SOL    HW214469   5.070   1.515   6.160
 4524SOL     OW14470   5.806   1.985   5.358
 4524SOL    HW114471   5.714   2.003   5.323
 4524SOL    HW214472   5.858   1.932   5.291
 4525SOL     OW14473   6.960   1.837   3.966
 4525SOL    HW114474   6.950   1.793   4.055
 4525SOL    HW214475   6.988   1.769   3.898
 4526SOL     OW14476   2.423   2.083   0.999
 4526SOL    HW114477   2.385   2.087   1.092
 4526SOL    HW214478   2.420   2.174   0.958
 4527SOL     OW14479   4.501   0.348   2.480
 4527SOL    HW114480   4.551   0.333   2.395
 4527SOL    HW214481   4.510   0.443   2.509
 4528SOL     OW14482   4.517   6.779   6.679
 4528SOL    HW114483   4.459   6.818   6.608
 4528SOL    HW214484   4.532   6.846   6.752
 4529SOL     OW14485   3.110   0.121   4.037
 4529SOL    HW114486   3.018   0.081   4.038
 4529SOL    HW214487   3.127   0.168   4.123
 4530SOL     OW14488   6.842   1.998   4.575
 4530SOL    HW114489   6.838   2.097   4.563
 4530SOL    HW214490   6.906   1.976   4.648
 4531SOL     OW14491   6.879   4.157   3.003
 4531SOL    HW114492   6.929   4.241   2.986
 4531SOL    HW214493   6.939   4.091   3.048
 4532SOL     OW14494   0.385   2.087   0.653
 4532SOL    HW114495   0.413   2.175   0.692
 4532SOL    HW214496   0.330   2.037   0.721
 4533SOL     OW14497   3.455   6.423   1.315
 4533SOL    HW114498   3.526   6.365   1.274
 4533SOL    HW214499   3.374   6.368   1.333
 4534SOL     OW14500   6.505   4.536   6.692
 4534SOL    HW114501   6.489   4.633   6.674
 4534SOL    HW214502   6.425   4.498   6.739
 4535SOL     OW14503   4.618   1.515   2.441
 4535SOL    HW114504   4.557   1.458   2.497
 4535SOL    HW214505   4.649   1.462   2.362
 4536SOL     OW14506   6.749   0.120   3.421
 4536SOL    HW114507   6.763   0.089   3.327
 4536SOL    HW214508   6.771   0.217   3.429
 4537SOL     OW14509   4.889   3.246   5.846
 4537SOL    HW114510   4.916   3.328   5.895
 4537SOL    HW214511   4.932   3.245   5.756
 4538SOL     OW14512   3.243   2.002   1.299
 4538SOL    HW114513   3.176   1.999   1.373
 4538SOL    HW214514   3.196   1.995   1.211
 4539SOL     OW14515   2.571   4.204   0.709
 4539SOL    HW114516   2.632   4.157   0.772
 4539SOL    HW214517   2.486   4.227   0.755
 4540SOL     OW14518   3.380   3.203   3.793
 4540SOL    HW114519   3.369   3.212   3.892
 4540SOL    HW214520   3.314   3.136   3.759
 4541SOL     OW14521   5.911   1.788   1.696
 4541SOL    HW114522   6.009   1.798   1.681
 4541SOL    HW214523   5.887   1.691   1.697
 4542SOL     OW14524   5.753   6.235   3.615
 4542SOL    HW114525   5.656   6.218   3.631
 4542SOL    HW214526   5.773   6.332   3.629
 4543SOL     OW14527   4.968   2.672   2.927
 4543SOL    HW114528   5.049   2.732   2.928
 4543SOL    HW214529   4.954   2.634   3.019
 4544SOL     OW14530   5.684   4.346   0.500
 4544SOL    HW114531   5.747   4.290   0.446
 4544SOL    HW214532   5.725   4.368   0.588
 4545SOL     OW14533   5.022   3.723   0.474
 4545SOL    HW114534   5.082   3.767   0.541
 4545SOL    HW214535   5.069   3.645   0.433
 4546SOL     OW14536   1.138   6.110   0.642
 4546SOL    HW114537   1.141   6.203   0.607
 4546SOL    HW214538   1.097   6.050   0.573
 4547SOL     OW14539   4.304   1.658   2.524
 4547SOL    HW114540   4.288   1.601   2.444
 4547SOL    HW214541   4.271   1.751   2.506
 4548SOL     OW14542   1.613   2.925   4.583
 4548SOL    HW114543   1.640   2.902   4.490
 4548SOL    HW214544   1.640   3.019   4.603
 4549SOL     OW14545   6.185   2.054   3.145
 4549SOL    HW114546   6.220   1.974   3.096
 4549SOL    HW214547   6.089   2.039   3.168
 4550SOL     OW14548   2.003   5.670   5.572
 4550SOL    HW114549   2.064   5.743   5.604
 4550SOL    HW214550   2.037   5.634   5.485
 4551SOL     OW14551   6.377   3.513   0.946
 4551SOL    HW114552   6.280   3.515   0.923
 4551SOL    HW214553   6.422   3.595   0.910
 4552SOL     OW14554   0.009   3.846   5.280
 4552SOL    HW114555   0.073   3.912   5.241
 4552SOL    HW214556   6.981   3.806   5.207
 4553SOL     OW14557   5.088   5.407   0.464
 4553SOL    HW114558   5.065   5.501   0.438
 4553SOL    HW214559   5.051   5.343   0.396
 4554SOL     OW14560   6.036   5.677   3.834
 4554SOL    HW114561   5.962   5.742   3.848
 4554SOL    HW214562   6.059   5.673   3.737
 4555SOL     OW14563   3.644   2.678   6.820
 4555SOL    HW114564   3.705   2.706   6.895
 4555SOL    HW214565   3.612   2.759   6.772
 4556SOL     OW14566   3.853   0.614   4.520
 4556SOL    HW114567   3.932   0.570   4.478
 4556SOL    HW214568   3.834   0.570   4.608
 4557SOL     OW14569   5.474   0.696   3.766
 4557SOL    HW114570   5.412   0.747   3.825
 4557SOL    HW214571   5.503   0.754   3.689
 4558SOL     OW14572   0.661   4.295   0.532
 4558SOL    HW114573   0.667   4.197   0.514
 4558SOL    HW214574   0.738   4.342   0.488
 4559SOL     OW14575   1.442   6.922   1.019
 4559SOL    HW114576   1.530   6.887   1.053
 4559SOL    HW214577   1.373   6.913   1.090
 4560SOL     OW14578   6.604   1.832   4.518
 4560SOL    HW114579   6.674   1.902   4.532
 4560SOL    HW214580   6.546   1.857   4.441
 4561SOL     OW14581   2.511   6.103   6.431
 4561SOL    HW114582   2.542   6.098   6.526
 4561SOL    HW214583   2.579   6.154   6.377
 4562SOL     OW14584   3.224   3.989   5.305
 4562SOL    HW114585   3.186   4.060   5.246
 4562SOL    HW214586   3.155   3.920   5.323
 4563SOL     OW14587   5.318   2.903   6.675
 4563SOL    HW114588   5.295   2.835   6.606
 4563SOL    HW214589   5.332   2.858   6.763
 4564SOL     OW14590   6.727   5.894   0.736
 4564SOL    HW114591   6.817   5.927   0.764
 4564SOL    HW214592   6.662   5.905   0.811
 4565SOL     OW14593   4.733   0.950   4.310
 4565SOL    HW114594   4.732   0.928   4.212
 4565SOL    HW214595   4.803   0.896   4.355
 4566SOL     OW14596   1.785   0.525   1.497
 4566SOL    HW114597   1.703   0.575   1.524
 4566SOL    HW214598   1.760   0.447   1.440
 4567SOL     OW14599   6.179   2.779   0.632
 4567SOL    HW114600   6.125   2.850   0.679
 4567SOL    HW214601   6.275   2.807   0.629
 4568SOL     OW14602   4.575   4.824   3.856
 4568SOL    HW114603   4.623   4.736   3.846
 4568SOL    HW214604   4.584   4.876   3.771
 4569SOL     OW14605   2.261   0.802   3.288
 4569SOL    HW114606   2.295   0.717   3.248
 4569SOL    HW214607   2.173   0.825   3.247
 4570SOL     OW14608   4.992   6.259   4.729
 4570SOL    HW114609   5.031   6.173   4.762
 4570SOL    HW214610   4.935   6.300   4.800
 4571SOL     OW14611   4.126   3.321   3.767
 4571SOL    HW114612   4.107   3.375   3.684
 4571SOL    HW214613   4.213   3.349   3.805
 4572SOL     OW14614   2.397   4.491   1.480
 4572SOL    HW114615   2.322   4.528   1.535
 4572SOL    HW214616   2.449   4.566   1.440
 4573SOL     OW14617   5.048   6.514   1.622
 4573SOL    HW114618   4.987   6.561   1.558
 4573SOL    HW214619   4.994   6.461   1.687
 4574SOL     OW14620   0.049   4.729   1.922
 4574SOL    HW114621   6.984   4.704   1.891
 4574SOL    HW214622   0.112   4.727   1.845
 4575SOL     OW14623   6.358   6.104   1.609
 4575SOL    HW114624   6.348   6.153   1.523
 4575SOL    HW214625   6.451   6.067   1.616
 4576SOL     OW14626   3.693   5.969   4.526
 4576SOL    HW114627   3.609   6.024   4.526
 4576SOL    HW214628   3.763   6.014   4.471
 4577SOL     OW14629   2.527   5.258   2.992
 4577SOL    HW114630   2.529   5.345   3.042
 4577SOL    HW214631   2.561   5.185   3.050
 4578SOL     OW14632   6.261   6.270   3.362
 4578SOL    HW114633   6.335   6.292   3.426
 4578SOL    HW214634   6.281   6.182   3.318
 4579SOL     OW14635   4.793   1.594   3.057
 4579SOL    HW114636   4.715   1.542   3.090
 4579SOL    HW214637   4.877   1.542   3.071
 4580SOL     OW14638   0.787   4.629   0.713
 4580SOL    HW114639   0.782   4.530   0.726
 4580SOL    HW214640   0.766   4.675   0.799
 4581SOL     OW14641   2.849   5.481   4.823
 4581SOL    HW114642   2.903   5.452   4.902
 4581SOL    HW214643   2.909   5.502   4.747
 4582SOL     OW14644   4.765   5.900   2.332
 4582SOL    HW114645   4.759   5.999   2.349
 4582SOL    HW214646   4.794   5.884   2.238
 4583SOL     OW14647   4.151   7.025   4.840
 4583SOL    HW114648   4.211   0.078   4.846
 4583SOL    HW214649   4.118   7.002   4.932
 4584SOL     OW14650   6.976   5.190   5.225
 4584SOL    HW114651   6.907   5.248   5.180
 4584SOL    HW214652   0.015   5.157   5.157
 4585SOL     OW14653   2.985   6.586   1.909
 4585SOL    HW114654   2.894   6.552   1.886
 4585SOL    HW214655   2.981   6.683   1.929
 4586SOL     OW14656   1.514   6.621   1.719
 4586SOL    HW114657   1.417   6.598   1.729
 4586SOL    HW214658   1.531   6.657   1.627
 4587SOL     OW14659   3.686   4.648   1.114
 4587SOL    HW114660   3.660   4.704   1.035
 4587SOL    HW214661   3.748   4.699   1.172
 4588SOL     OW14662   3.936   3.802   4.603
 4588SOL    HW114663   3.928   3.830   4.698
 4588SOL    HW214664   3.845   3.802   4.560
 4589SOL     OW14665   2.316   1.844   3.758
 4589SOL    HW114666   2.259   1.801   3.688
 4589SOL    HW214667   2.334   1.939   3.733
 4590SOL     OW14668   3.666   0.011   2.527
 4590SOL    HW114669   3.608   6.972   2.576
 4590SOL    HW214670   3.642   0.011   2.430
 4591SOL     OW14671   5.114   5.665   4.694
 4591SOL    HW114672   5.034   5.618   4.657
 4591SOL    HW214673   5.118   5.758   4.657
 4592SOL     OW14674   3.526   2.242   6.702
 4592SOL    HW114675   3.431   2.211   6.700
 4592SOL    HW214676   3.582   2.183   6.644
 4593SOL     OW14677   5.195   5.354   1.334
 4593SOL    HW114678   5.118   5.361   1.397
 4593SOL    HW214679   5.246   5.440   1.334
 4594SOL     OW14680   4.752   1.996   2.865
 4594SOL    HW114681   4.709   1.986   2.775
 4594SOL    HW214682   4.817   1.922   2.879
 4595SOL     OW14683   3.974   3.191   5.152
 4595SOL    HW114684   4.046   3.261   5.157
 4595SOL    HW214685   3.995   3.118   5.217
 4596SOL     OW14686   4.865   1.082   2.173
 4596SOL    HW114687   4.881   1.046   2.081
 4596SOL    HW214688   4.804   1.020   2.223
 4597SOL     OW14689   6.916   3.545   6.244
 4597SOL    HW114690   7.009   3.569   6.269
 4597SOL    HW214691   6.896   3.452   6.275
 4598SOL     OW14692   2.709   4.016   0.543
 4598SOL    HW114693   2.712   3.932   0.597
 4598SOL    HW214694   2.674   4.091   0.599
 4599SOL     OW14695   2.970   5.044   0.832
 4599SOL    HW114696   2.886   5.054   0.778
 4599SOL    HW214697   3.009   4.953   0.816
 4600SOL     OW14698   2.450   3.566   0.953
 4600SOL    HW114699   2.449   3.592   0.857
 4600SOL    HW214700   2.367   3.599   0.998
 4601SOL     OW14701   1.650   5.344   3.282
 4601SOL    HW114702   1.712   5.382   3.351
 4601SOL    HW214703   1.588   5.416   3.250
 4602SOL     OW14704   0.505   0.141   1.869
 4602SOL    HW114705   0.597   0.153   1.906
 4602SOL    HW214706   0.504   0.167   1.773
 4603SOL     OW14707   2.375   1.266   1.359
 4603SOL    HW114708   2.416   1.357   1.349
 4603SOL    HW214709   2.419   1.218   1.435
 4604SOL     OW14710   0.970   6.977   3.562
 4604SOL    HW114711   0.965   0.010   3.643
 4604SOL    HW214712   0.970   6.882   3.592
 4605SOL     OW14713   5.433   6.359   5.709
 4605SOL    HW114714   5.372   6.436   5.728
 4605SOL    HW214715   5.521   6.374   5.756
 4606SOL     OW14716   6.586   6.232   3.987
 4606SOL    HW114717   6.639   6.150   3.966
 4606SOL    HW214718   6.645   6.300   4.030
 4607SOL     OW14719   2.432   3.251   6.949
 4607SOL    HW114720   2.358   3.309   6.915
 4607SOL    HW214721   2.489   3.302   7.013
 4608SOL     OW14722   1.536   3.945   5.824
 4608SOL    HW114723   1.533   4.018   5.756
 4608SOL    HW214724   1.602   3.875   5.794
 4609SOL     OW14725   3.527   7.006   0.242
 4609SOL    HW114726   3.525   6.945   0.322
 4609SOL    HW214727   3.440   7.001   0.194
 4610SOL     OW14728   6.877   3.528   0.407
 4610SOL    HW114729   6.798   3.558   0.461
 4610SOL    HW214730   6.949   3.495   0.468
 4611SOL     OW14731   1.650   5.270   5.585
 4611SOL    HW114732   1.717   5.321   5.638
 4611SOL    HW214733   1.689   5.246   5.496
 4612SOL     OW14734   1.293   0.665   6.852
 4612SOL    HW114735   1.341   0.663   6.940
 4612SOL    HW214736   1.358   0.686   6.779
 4613SOL     OW14737   4.129   4.571   1.418
 4613SOL    HW114738   4.037   4.535   1.432
 4613SOL    HW214739   4.126   4.671   1.417
 4614SOL     OW14740   1.466   3.789   0.809
 4614SOL    HW114741   1.443   3.880   0.844
 4614SOL    HW214742   1.564   3.774   0.816
 4615SOL     OW14743   5.727   3.189   6.852
 4615SOL    HW114744   5.665   3.179   6.774
 4615SOL    HW214745   5.786   3.109   6.858
 4616SOL     OW14746   5.707   0.590   6.705
 4616SOL    HW114747   5.654   0.644   6.771
 4616SOL    HW214748   5.728   0.647   6.625
 4617SOL     OW14749   0.149   4.338   1.925
 4617SOL    HW114750   0.245   4.352   1.901
 4617SOL    HW214751   0.134   4.243   1.950
 4618SOL     OW14752   1.673   2.843   6.903
 4618SOL    HW114753   1.622   2.928   6.895
 4618SOL    HW214754   1.707   2.834   6.997
 4619SOL     OW14755   4.843   1.239   4.243
 4619SOL    HW114756   4.767   1.179   4.268
 4619SOL    HW214757   4.889   1.271   4.325
 4620SOL     OW14758   1.832   5.548   0.746
 4620SOL    HW114759   1.767   5.563   0.671
 4620SOL    HW214760   1.802   5.470   0.801
 4621SOL     OW14761   6.596   0.873   0.196
 4621SOL    HW114762   6.542   0.835   0.271
 4621SOL    HW214763   6.540   0.936   0.143
 4622SOL     OW14764   1.483   4.462   0.516
 4622SOL    HW114765   1.491   4.546   0.463
 4622SOL    HW214766   1.544   4.467   0.595
 4623SOL     OW14767   6.787   3.978   4.239
 4623SOL    HW114768   6.808   3.905   4.303
 4623SOL    HW214769   6.720   4.040   4.280
 4624SOL     OW14770   4.450   6.405   6.176
 4624SOL    HW114771   4.445   6.504   6.191
 4624SOL    HW214772   4.538   6.371   6.210
 4625SOL     OW14773   0.209   4.313   6.281
 4625SOL    HW114774   0.147   4.365   6.338
 4625SOL    HW214775   0.295   4.296   6.331
 4626SOL     OW14776   6.683   4.633   2.255
 4626SOL    HW114777   6.686   4.689   2.172
 4626SOL    HW214778   6.730   4.546   2.238
 4627SOL     OW14779   2.058   6.747   4.038
 4627SOL    HW114780   2.158   6.748   4.044
 4627SOL    HW214781   2.019   6.718   4.126
 4628SOL     OW14782   6.529   2.893   2.392
 4628SOL    HW114783   6.574   2.874   2.305
 4628SOL    HW214784   6.466   2.818   2.413
 4629SOL     OW14785   4.337   5.804   4.162
 4629SOL    HW114786   4.293   5.716   4.178
 4629SOL    HW214787   4.351   5.816   4.063
 4630SOL     OW14788   2.442   5.947   2.481
 4630SOL    HW114789   2.415   6.003   2.403
 4630SOL    HW214790   2.415   5.852   2.466
 4631SOL     OW14791   1.321   0.502   2.356
 4631SOL    HW114792   1.268   0.444   2.293
 4631SOL    HW214793   1.395   0.449   2.396
 4632SOL     OW14794   5.892   6.005   4.165
 4632SOL    HW114795   5.990   5.993   4.181
 4632SOL    HW214796   5.873   6.100   4.141
 4633SOL     OW14797   4.646   3.503   6.162
 4633SOL    HW114798   4.690   3.444   6.094
 4633SOL    HW214799   4.547   3.495   6.154
 4634SOL     OW14800   2.245   3.372   0.351
 4634SOL    HW114801   2.200   3.286   0.376
 4634SOL    HW214802   2.222   3.442   0.418
 4635SOL     OW14803   4.561   2.939   1.454
 4635SOL    HW114804   4.633   2.981   1.510
 4635SOL    HW214805   4.582   2.842   1.441
 4636SOL     OW14806   0.959   5.885   1.568
 4636SOL    HW114807   1.005   5.966   1.604
 4636SOL    HW214808   0.991   5.867   1.475
 4637SOL     OW14809   0.671   1.006   5.827
 4637SOL    HW114810   0.711   1.082   5.775
 4637SOL    HW214811   0.744   0.953   5.870
 4638SOL     OW14812   4.562   4.761   5.752
 4638SOL    HW114813   4.524   4.675   5.720
 4638SOL    HW214814   4.504   4.799   5.824
 4639SOL     OW14815   0.298   2.409   5.809
 4639SOL    HW114816   0.257   2.432   5.721
 4639SOL    HW214817   0.228   2.410   5.880
 4640SOL     OW14818   0.443   5.716   3.316
 4640SOL    HW114819   0.462   5.730   3.413
 4640SOL    HW214820   0.451   5.618   3.294
 4641SOL     OW14821   2.383   3.810   5.378
 4641SOL    HW114822   2.433   3.724   5.370
 4641SOL    HW214823   2.405   3.868   5.299
 4642SOL     OW14824   6.234   5.318   4.726
 4642SOL    HW114825   6.145   5.301   4.769
 4642SOL    HW214826   6.301   5.341   4.797
 4643SOL     OW14827   4.601   3.704   0.986
 4643SOL    HW114828   4.617   3.680   0.890
 4643SOL    HW214829   4.506   3.681   1.010
 4644SOL     OW14830   3.668   5.179   5.292
 4644SOL    HW114831   3.599   5.229   5.343
 4644SOL    HW214832   3.636   5.086   5.274
 4645SOL     OW14833   1.935   5.834   4.691
 4645SOL    HW114834   1.960   5.843   4.595
 4645SOL    HW214835   1.849   5.882   4.707
 4646SOL     OW14836   3.420   1.455   0.907
 4646SOL    HW114837   3.390   1.488   0.997
 4646SOL    HW214838   3.363   1.379   0.878
 4647SOL     OW14839   6.022   0.124   5.383
 4647SOL    HW114840   5.943   0.165   5.337
 4647SOL    HW214841   6.103   0.135   5.326
 4648SOL     OW14842   2.494   6.246   3.239
 4648SOL    HW114843   2.455   6.338   3.231
 4648SOL    HW214844   2.445   6.194   3.309
 4649SOL     OW14845   5.694   5.249   6.105
 4649SOL    HW114846   5.660   5.233   6.012
 4649SOL    HW214847   5.617   5.266   6.166
 4650SOL     OW14848   6.545   5.599   1.693
 4650SOL    HW114849   6.493   5.603   1.778
 4650SOL    HW214850   6.491   5.552   1.623
 4651SOL     OW14851   6.074   2.350   0.955
 4651SOL    HW114852   6.026   2.305   1.030
 4651SOL    HW214853   6.047   2.308   0.868
 4652SOL     OW14854   0.632   6.377   5.459
 4652SOL    HW114855   0.573   6.310   5.505
 4652SOL    HW214856   0.593   6.468   5.469
 4653SOL     OW14857   2.096   4.848   0.342
 4653SOL    HW114858   2.084   4.938   0.384
 4653SOL    HW214859   2.095   4.858   0.242
 4654SOL     OW14860   2.100   1.794   0.390
 4654SOL    HW114861   2.025   1.854   0.361
 4654SOL    HW214862   2.177   1.850   0.422
 4655SOL     OW14863   6.949   4.951   4.995
 4655SOL    HW114864   0.005   4.947   5.052
 4655SOL    HW214865   6.957   4.885   4.921
 4656SOL     OW14866   1.924   6.887   2.728
 4656SOL    HW114867   2.005   6.926   2.771
 4656SOL    HW214868   1.943   6.866   2.632
 4657SOL     OW14869   6.445   0.822   5.907
 4657SOL    HW114870   6.533   0.784   5.933
 4657SOL    HW214871   6.400   0.861   5.987
 4658SOL     OW14872   5.270   6.786   3.598
 4658SOL    HW114873   5.297   6.703   3.646
 4658SOL    HW214874   5.290   6.777   3.501
 4659SOL     OW14875   1.617   3.478   3.642
 4659SOL    HW114876   1.687   3.410   3.621
 4659SOL    HW214877   1.556   3.489   3.564
 4660SOL     OW14878   6.826   1.308   5.638
 4660SOL    HW114879   6.838   1.381   5.571
 4660SOL    HW214880   6.749   1.250   5.611
 4661SOL     OW14881   3.509   2.936   3.597
 4661SOL    HW114882   3.537   2.903   3.507
 4661SOL    HW214883   3.564   3.015   3.623
 4662SOL     OW14884   6.680   6.855   4.720
 4662SOL    HW114885   6.699   6.781   4.784
 4662SOL    HW214886   6.611   6.826   4.654
 4663SOL     OW14887   0.629   1.492   2.810
 4663SOL    HW114888   0.710   1.454   2.765
 4663SOL    HW214889   0.613   1.443   2.896
 4664SOL     OW14890   3.463   5.189   0.117
 4664SOL    HW114891   3.518   5.236   0.186
 4664SOL    HW214892   3.391   5.250   0.084
 4665SOL     OW14893   5.144   0.880   6.252
 4665SOL    HW114894   5.136   0.952   6.321
 4665SOL    HW214895   5.053   0.843   6.232
 4666SOL     OW14896   1.820   0.981   0.789
 4666SOL    HW114897   1.757   1.058   0.794
 4666SOL    HW214898   1.869   0.983   0.701
 4667SOL     OW14899   0.153   5.869   3.931
 4667SOL    HW114900   0.154   5.952   3.876
 4667SOL    HW214901   0.247   5.844   3.957
 4668SOL     OW14902   5.816   0.774   5.092
 4668SOL    HW114903   5.746   0.777   5.164
 4668SOL    HW214904   5.906   0.785   5.133
 4669SOL     OW14905   2.289   2.199   2.354
 4669SOL    HW114906   2.231   2.126   2.390
 4669SOL    HW214907   2.284   2.200   2.254
 4670SOL     OW14908   2.705   2.425   5.012
 4670SOL    HW114909   2.748   2.482   4.943
 4670SOL    HW214910   2.765   2.348   5.034
 4671SOL     OW14911   7.008   2.031   2.912
 4671SOL    HW114912   0.047   2.055   2.841
 4671SOL    HW214913   7.015   2.098   2.987
 4672SOL     OW14914   2.939   2.570   5.444
 4672SOL    HW114915   2.846   2.583   5.477
 4672SOL    HW214916   2.945   2.484   5.394
 4673SOL     OW14917   5.507   0.184   2.229
 4673SOL    HW114918   5.504   0.087   2.206
 4673SOL    HW214919   5.595   0.205   2.273
 4674SOL     OW14920   4.704   0.113   6.195
 4674SOL    HW114921   4.674   0.066   6.278
 4674SOL    HW214922   4.635   0.102   6.124
 4675SOL     OW14923   0.654   4.634   6.217
 4675SOL    HW114924   0.594   4.554   6.211
 4675SOL    HW214925   0.719   4.621   6.292
 4676SOL     OW14926   1.575   4.590   3.295
 4676SOL    HW114927   1.651   4.551   3.244
 4676SOL    HW214928   1.610   4.657   3.361
 4677SOL     OW14929   1.018   3.530   1.138
 4677SOL    HW114930   1.066   3.527   1.225
 4677SOL    HW214931   1.045   3.613   1.088
 4678SOL     OW14932   1.009   1.872   0.759
 4678SOL    HW114933   1.068   1.950   0.738
 4678SOL    HW214934   1.065   1.790   0.772
 4679SOL     OW14935   5.064   6.971   1.701
 4679SOL    HW114936   5.120   6.902   1.745
 4679SOL    HW214937   4.982   6.988   1.756
 4680SOL     OW14938   2.654   1.221   0.173
 4680SOL    HW114939   2.742   1.204   0.216
 4680SOL    HW214940   2.667   1.275   0.089
 4681SOL     OW14941   4.681   5.042   2.027
 4681SOL    HW114942   4.694   5.119   1.965
 4681SOL    HW214943   4.758   4.979   2.019
 4682SOL     OW14944   3.650   3.440   6.557
 4682SOL    HW114945   3.572   3.379   6.542
 4682SOL    HW214946   3.646   3.476   6.650
 4683SOL     OW14947   6.836   3.352   4.108
 4683SOL    HW114948   6.862   3.284   4.039
 4683SOL    HW214949   6.857   3.316   4.199
 4684SOL     OW14950   5.133   0.563   6.199
 4684SOL    HW114951   5.170   0.622   6.127
 4684SOL    HW214952   5.107   0.475   6.160
 4685SOL     OW14953   2.975   3.795   4.345
 4685SOL    HW114954   2.982   3.705   4.301
 4685SOL    HW214955   2.908   3.790   4.419
 4686SOL     OW14956   1.863   6.673   6.240
 4686SOL    HW114957   1.906   6.605   6.182
 4686SOL    HW214958   1.804   6.628   6.307
 4687SOL     OW14959   0.970   6.819   2.255
 4687SOL    HW114960   0.880   6.856   2.230
 4687SOL    HW214961   0.960   6.722   2.279
 4688SOL     OW14962   4.858   2.341   4.812
 4688SOL    HW114963   4.895   2.364   4.902
 4688SOL    HW214964   4.910   2.389   4.742
 4689SOL     OW14965   6.385   1.182   1.286
 4689SOL    HW114966   6.351   1.195   1.379
 4689SOL    HW214967   6.485   1.184   1.287
 4690SOL     OW14968   3.062   2.359   0.691
 4690SOL    HW114969   3.038   2.264   0.713
 4690SOL    HW214970   2.999   2.421   0.739
 4691SOL     OW14971   5.892   2.677   2.124
 4691SOL    HW114972   5.899   2.663   2.223
 4691SOL    HW214973   5.798   2.704   2.101
 4692SOL     OW14974   6.842   2.370   3.165
 4692SOL    HW114975   6.876   2.440   3.102
 4692SOL    HW214976   6.832   2.409   3.256
 4693SOL     OW14977   0.218   0.620   3.766
 4693SOL    HW114978   0.122   0.607   3.793
 4693SOL    HW214979   0.231   0.589   3.672
 4694SOL     OW14980   1.240   6.659   5.671
 4694SOL    HW114981   1.294   6.742   5.657
 4694SOL    HW214982   1.209   6.624   5.583
 4695SOL     OW14983   1.631   4.818   1.746
 4695SOL    HW114984   1.671   4.862   1.666
 4695SOL    HW214985   1.617   4.885   1.819
 4696SOL     OW14986   2.068   6.243   6.069
 4696SOL    HW114987   1.989   6.183   6.053
 4696SOL    HW214988   2.108   6.223   6.158
 4697SOL     OW14989   4.578   5.633   1.622
 4697SOL    HW114990   4.579   5.650   1.721
 4697SOL    HW214991   4.485   5.608   1.594
 4698SOL     OW14992   5.924   1.618   4.697
 4698SOL    HW114993   5.848   1.554   4.682
 4698SOL    HW214994   6.010   1.568   4.703
 4699SOL     OW14995   0.844   1.972   3.201
 4699SOL    HW114996   0.845   1.978   3.300
 4699SOL    HW214997   0.750   1.982   3.168
 4700SOL     OW14998   6.743   1.644   3.792
 4700SOL    HW114999   6.661   1.657   3.847
 4700SOL    HW215000   6.718   1.628   3.697
 4701SOL     OW15001   2.345   2.767   1.902
 4701SOL    HW115002   2.417   2.701   1.881
 4701SOL    HW215003   2.361   2.851   1.850
 4702SOL     OW15004   5.877   4.879   1.641
 4702SOL    HW115005   5.898   4.930   1.557
 4702SOL    HW215006   5.962   4.842   1.679
 4703SOL     OW15007   6.674   5.450   4.182
 4703SOL    HW115008   6.756   5.507   4.173
 4703SOL    HW215009   6.696   5.356   4.157
 4704SOL     OW15010   1.584   4.841   3.659
 4704SOL    HW115011   1.587   4.939   3.641
 4704SOL    HW215012   1.489   4.811   3.662
 4705SOL     OW15013   3.244   3.036   1.493
 4705SOL    HW115014   3.264   3.041   1.591
 4705SOL    HW215015   3.182   3.111   1.468
 4706SOL     OW15016   2.046   0.798   1.071
 4706SOL    HW115017   1.980   0.865   1.036
 4706SOL    HW215018   2.118   0.786   1.003
 4707SOL     OW15019   2.220   5.601   2.008
 4707SOL    HW115020   2.297   5.648   1.964
 4707SOL    HW215021   2.242   5.504   2.018
 4708SOL     OW15022   1.887   3.467   6.608
 4708SOL    HW115023   1.790   3.477   6.586
 4708SOL    HW215024   1.907   3.372   6.628
 4709SOL     OW15025   6.155   3.420   4.202
 4709SOL    HW115026   6.119   3.459   4.117
 4709SOL    HW215027   6.214   3.342   4.180
 4710SOL     OW15028   6.104   4.559   5.731
 4710SOL    HW115029   6.158   4.602   5.803
 4710SOL    HW215030   6.007   4.567   5.752
 4711SOL     OW15031   4.799   4.810   3.197
 4711SOL    HW115032   4.811   4.815   3.296
 4711SOL    HW215033   4.750   4.891   3.166
 4712SOL     OW15034   4.177   4.947   6.256
 4712SOL    HW115035   4.155   5.019   6.321
 4712SOL    HW215036   4.121   4.957   6.174
 4713SOL     OW15037   5.769   4.269   1.769
 4713SOL    HW115038   5.866   4.264   1.745
 4713SOL    HW215039   5.731   4.356   1.737
 4714SOL     OW15040   5.163   2.208   5.727
 4714SOL    HW115041   5.178   2.298   5.686
 4714SOL    HW215042   5.067   2.198   5.751
 4715SOL     OW15043   0.080   1.111   1.912
 4715SOL    HW115044   0.096   1.103   2.011
 4715SOL    HW215045   7.025   1.167   1.897
 4716SOL     OW15046   3.758   4.278   5.258
 4716SOL    HW115047   3.775   4.329   5.174
 4716SOL    HW215048   3.791   4.184   5.248
 4717SOL     OW15049   0.928   4.309   5.872
 4717SOL    HW115050   0.971   4.266   5.793
 4717SOL    HW215051   0.839   4.345   5.845
 4718SOL     OW15052   4.900   3.398   2.362
 4718SOL    HW115053   4.835   3.454   2.311
 4718SOL    HW215054   4.910   3.435   2.455
 4719SOL     OW15055   5.379   4.239   3.779
 4719SOL    HW115056   5.361   4.149   3.740
 4719SOL    HW215057   5.355   4.309   3.712
 4720SOL     OW15058   1.371   1.644   5.599
 4720SOL    HW115059   1.417   1.562   5.634
 4720SOL    HW215060   1.418   1.677   5.517
 4721SOL     OW15061   0.795   2.890   2.633
 4721SOL    HW115062   0.702   2.860   2.653
 4721SOL    HW215063   0.816   2.874   2.537
 4722SOL     OW15064   1.137   5.919   6.083
 4722SOL    HW115065   1.158   5.980   6.159
 4722SOL    HW215066   1.178   5.829   6.099
 4723SOL     OW15067   3.579   4.735   6.006
 4723SOL    HW115068   3.636   4.665   6.050
 4723SOL    HW215069   3.562   4.708   5.911
 4724SOL     OW15070   0.273   0.581   4.161
 4724SOL    HW115071   0.235   0.632   4.238
 4724SOL    HW215072   0.356   0.627   4.129
 4725SOL     OW15073   4.940   5.970   1.302
 4725SOL    HW115074   5.038   5.988   1.294
 4725SOL    HW215075   4.911   5.908   1.230
 4726SOL     OW15076   1.951   2.755   6.828
 4726SOL    HW115077   1.878   2.807   6.873
 4726SOL    HW215078   2.028   2.816   6.808
 4727SOL     OW15079   6.776   5.391   1.694
 4727SOL    HW115080   6.750   5.488   1.686
 4727SOL    HW215081   6.812   5.359   1.607
 4728SOL     OW15082   4.219   0.443   3.396
 4728SOL    HW115083   4.149   0.416   3.463
 4728SOL    HW215084   4.245   0.365   3.340
 4729SOL     OW15085   0.485   0.356   2.926
 4729SOL    HW115086   0.444   0.412   2.854
 4729SOL    HW215087   0.489   0.261   2.896
 4730SOL     OW15088   2.512   1.174   2.782
 4730SOL    HW115089   2.549   1.114   2.853
 4730SOL    HW215090   2.574   1.252   2.770
 4731SOL     OW15091   3.551   6.830   2.667
 4731SOL    HW115092   3.487   6.800   2.738
 4731SOL    HW215093   3.618   6.758   2.649
 4732SOL     OW15094   0.491   4.956   4.075
 4732SOL    HW115095   0.575   4.902   4.080
 4732SOL    HW215096   0.471   4.977   3.979
 4733SOL     OW15097   2.531   4.557   3.425
 4733SOL    HW115098   2.475   4.636   3.452
 4733SOL    HW215099   2.473   4.477   3.413
 4734SOL     OW15100   4.382   4.484   5.805
 4734SOL    HW115101   4.437   4.401   5.799
 4734SOL    HW215102   4.381   4.530   5.716
 4735SOL     OW15103   0.147   0.766   5.263
 4735SOL    HW115104   0.215   0.821   5.311
 4735SOL    HW215105   0.067   0.752   5.322
 4736SOL     OW15106   6.428   0.282   4.312
 4736SOL    HW115107   6.461   0.192   4.284
 4736SOL    HW215108   6.349   0.308   4.256
 4737SOL     OW15109   1.897   5.147   6.999
 4737SOL    HW115110   1.811   5.170   6.954
 4737SOL    HW215111   1.928   5.057   6.968
 4738SOL     OW15112   0.416   5.925   3.819
 4738SOL    HW115113   0.475   5.992   3.774
 4738SOL    HW215114   0.473   5.856   3.864
 4739SOL     OW15115   5.942   3.795   2.811
 4739SOL    HW115116   5.968   3.724   2.876
 4739SOL    HW215117   5.842   3.795   2.801
 4740SOL     OW15118   1.721   6.487   0.584
 4740SOL    HW115119   1.643   6.549   0.579
 4740SOL    HW215120   1.711   6.428   0.665
 4741SOL     OW15121   5.815   4.101   2.569
 4741SOL    HW115122   5.772   4.137   2.486
 4741SOL    HW215123   5.914   4.113   2.563
 4742SOL     OW15124   2.415   5.490   1.811
 4742SOL    HW115125   2.451   5.453   1.897
 4742SOL    HW215126   2.359   5.421   1.765
 4743SOL     OW15127   2.619   3.118   0.475
 4743SOL    HW115128   2.686   3.115   0.401
 4743SOL    HW215129   2.666   3.108   0.563
 4744SOL     OW15130   2.974   1.863   5.821
 4744SOL    HW115131   3.002   1.881   5.916
 4744SOL    HW215132   2.984   1.765   5.802
 4745SOL     OW15133   4.678   6.055   4.711
 4745SOL    HW115134   4.704   6.144   4.749
 4745SOL    HW215135   4.605   6.067   4.644
 4746SOL     OW15136   5.674   1.423   0.915
 4746SOL    HW115137   5.674   1.461   1.008
 4746SOL    HW215138   5.767   1.426   0.878
 4747SOL     OW15139   1.200   3.038   2.103
 4747SOL    HW115140   1.214   3.127   2.060
 4747SOL    HW215141   1.109   3.035   2.145
 4748SOL     OW15142   1.738   6.958   0.394
 4748SOL    HW115143   1.826   6.957   0.346
 4748SOL    HW215144   1.666   6.983   0.330
 4749SOL     OW15145   3.827   0.920   0.094
 4749SOL    HW115146   3.760   0.950   0.026
 4749SOL    HW215147   3.892   0.857   0.052
 4750SOL     OW15148   0.821   1.973   4.962
 4750SOL    HW115149   0.889   2.019   4.905
 4750SOL    HW215150   0.786   2.038   5.030
 4751SOL     OW15151   1.502   4.038   6.107
 4751SOL    HW115152   1.521   3.995   6.019
 4751SOL    HW215153   1.433   3.984   6.156
 4752SOL     OW15154   2.223   5.896   0.588
 4752SOL    HW115155   2.204   5.830   0.662
 4752SOL    HW215156   2.318   5.887   0.560
 4753SOL     OW15157   0.290   1.345   6.786
 4753SOL    HW115158   0.314   1.427   6.837
 4753SOL    HW215159   0.336   1.346   6.697
 4754SOL     OW15160   1.409   0.692   6.595
 4754SOL    HW115161   1.371   0.783   6.578
 4754SOL    HW215162   1.503   0.688   6.563
 4755SOL     OW15163   2.742   6.508   2.910
 4755SOL    HW115164   2.782   6.442   2.973
 4755SOL    HW215165   2.661   6.549   2.951
 4756SOL     OW15166   5.355   2.971   0.987
 4756SOL    HW115167   5.349   2.874   1.012
 4756SOL    HW215168   5.402   3.020   1.060
 4757SOL     OW15169   2.156   4.043   0.645
 4757SOL    HW115170   2.177   3.971   0.710
 4757SOL    HW215171   2.241   4.082   0.609
 4758SOL     OW15172   6.473   4.092   6.200
 4758SOL    HW115173   6.518   4.071   6.287
 4758SOL    HW215174   6.456   4.191   6.195
 4759SOL     OW15175   6.609   4.044   6.445
 4759SOL    HW115176   6.610   3.985   6.526
 4759SOL    HW215177   6.574   4.134   6.471
 4760SOL     OW15178   0.840   2.986   0.024
 4760SOL    HW115179   0.788   2.905   0.051
 4760SOL    HW215180   0.882   3.028   0.105
 4761SOL     OW15181   3.110   6.354   6.505
 4761SOL    HW115182   3.048   6.316   6.573
 4761SOL    HW215183   3.162   6.281   6.462
 4762SOL     OW15184   2.830   0.996   2.953
 4762SOL    HW115185   2.759   0.948   2.900
 4762SOL    HW215186   2.917   0.989   2.904
 4763SOL     OW15187   5.200   4.675   4.721
 4763SOL    HW115188   5.149   4.589   4.715
 4763SOL    HW215189   5.229   4.702   4.629
 4764SOL     OW15190   3.108   3.499   3.707
 4764SOL    HW115191   3.049   3.579   3.700
 4764SOL    HW215192   3.148   3.479   3.617
 4765SOL     OW15193   6.995   5.359   6.918
 4765SOL    HW115194   6.980   5.316   7.007
 4765SOL    HW215195   0.066   5.365   6.899
 4766SOL     OW15196   2.995   1.485   2.860
 4766SOL    HW115197   2.903   1.455   2.883
 4766SOL    HW215198   3.038   1.527   2.940
 4767SOL     OW15199   4.689   0.264   6.732
 4767SOL    HW115200   4.671   0.361   6.715
 4767SOL    HW215201   4.751   0.255   6.810
 4768SOL     OW15202   2.340   0.421   5.196
 4768SOL    HW115203   2.392   0.506   5.185
 4768SOL    HW215204   2.256   0.439   5.245
 4769SOL     OW15205   4.643   0.913   2.280
 4769SOL    HW115206   4.625   0.962   2.366
 4769SOL    HW215207   4.669   0.819   2.301
 4770SOL     OW15208   3.048   0.998   3.367
 4770SOL    HW115209   3.002   0.945   3.439
 4770SOL    HW215210   3.140   0.961   3.353
 4771SOL     OW15211   3.699   4.819   6.961
 4771SOL    HW115212   3.650   4.733   6.946
 4771SOL    HW215213   3.752   4.812   0.019
 4772SOL     OW15214   4.118   2.255   0.670
 4772SOL    HW115215   4.195   2.213   0.716
 4772SOL    HW215216   4.034   2.207   0.694
 4773SOL     OW15217   0.307   4.714   3.870
 4773SOL    HW115218   0.259   4.789   3.825
 4773SOL    HW215219   0.400   4.708   3.835
 4774SOL     OW15220   2.044   3.943   0.013
 4774SOL    HW115221   2.129   3.991   7.017
 4774SOL    HW215222   1.971   4.010   0.028
 4775SOL     OW15223   1.663   3.327   2.302
 4775SOL    HW115224   1.717   3.250   2.337
 4775SOL    HW215225   1.688   3.410   2.352
 4776SOL     OW15226   4.544   5.410   1.063
 4776SOL    HW115227   4.487   5.334   1.032
 4776SOL    HW215228   4.485   5.488   1.085
 4777SOL     OW15229   1.735   3.851   1.697
 4777SOL    HW115230   1.832   3.863   1.717
 4777SOL    HW215231   1.692   3.796   1.768
 4778SOL     OW15232   5.624   3.523   3.375
 4778SOL    HW115233   5.604   3.448   3.313
 4778SOL    HW215234   5.591   3.609   3.334
 4779SOL     OW15235   5.932   1.143   2.690
 4779SOL    HW115236   5.905   1.093   2.608
 4779SOL    HW215237   5.957   1.236   2.666
 4780SOL     OW15238   1.485   1.423   5.257
 4780SOL    HW115239   1.440   1.381   5.335
 4780SOL    HW215240   1.579   1.390   5.251
 4781SOL     OW15241   2.332   5.648   2.908
 4781SOL    HW115242   2.275   5.729   2.927
 4781SOL    HW215243   2.295   5.599   2.829
 4782SOL     OW15244   6.174   6.560   6.768
 4782SOL    HW115245   6.226   6.601   6.693
 4782SOL    HW215246   6.172   6.461   6.757
 4783SOL     OW15247   5.311   4.921   3.377
 4783SOL    HW115248   5.227   4.962   3.413
 4783SOL    HW215249   5.349   4.979   3.305
 4784SOL     OW15250   4.750   4.138   4.372
 4784SOL    HW115251   4.722   4.138   4.467
 4784SOL    HW215252   4.845   4.169   4.365
 4785SOL     OW15253   5.757   5.690   0.598
 4785SOL    HW115254   5.733   5.720   0.691
 4785SOL    HW215255   5.677   5.696   0.539
 4786SOL     OW15256   1.423   4.923   3.311
 4786SOL    HW115257   1.412   4.844   3.251
 4786SOL    HW215258   1.488   4.987   3.270
 4787SOL     OW15259   3.798   2.055   2.912
 4787SOL    HW115260   3.745   2.052   2.828
 4787SOL    HW215261   3.872   2.121   2.903
 4788SOL     OW15262   2.529   0.711   4.577
 4788SOL    HW115263   2.447   0.655   4.585
 4788SOL    HW215264   2.504   0.808   4.573
 4789SOL     OW15265   4.539   5.796   6.610
 4789SOL    HW115266   4.444   5.788   6.581
 4789SOL    HW215267   4.584   5.869   6.559
 4790SOL     OW15268   5.979   0.155   6.326
 4790SOL    HW115269   5.922   0.085   6.284
 4790SOL    HW215270   5.926   0.240   6.335
 4791SOL     OW15271   4.641   2.245   3.394
 4791SOL    HW115272   4.572   2.242   3.322
 4791SOL    HW215273   4.722   2.193   3.365
 4792SOL     OW15274   3.368   3.132   0.283
 4792SOL    HW115275   3.298   3.146   0.213
 4792SOL    HW215276   3.333   3.071   0.354
 4793SOL     OW15277   0.616   1.196   0.009
 4793SOL    HW115278   0.636   1.190   6.938
 4793SOL    HW215279   0.518   1.210   0.022
 4794SOL     OW15280   5.645   1.049   2.100
 4794SOL    HW115281   5.565   1.014   2.149
 4794SOL    HW215282   5.685   1.125   2.150
 4795SOL     OW15283   6.614   1.719   4.766
 4795SOL    HW115284   6.661   1.792   4.816
 4795SOL    HW215285   6.641   1.722   4.670
 4796SOL     OW15286   4.461   4.299   0.493
 4796SOL    HW115287   4.412   4.224   0.538
 4796SOL    HW215288   4.538   4.327   0.552
 4797SOL     OW15289   1.515   5.633   4.372
 4797SOL    HW115290   1.570   5.570   4.427
 4797SOL    HW215291   1.558   5.723   4.372
 4798SOL     OW15292   0.122   6.372   6.640
 4798SOL    HW115293   0.164   6.282   6.631
 4798SOL    HW215294   0.135   6.424   6.556
 4799SOL     OW15295   5.409   1.071   5.236
 4799SOL    HW115296   5.450   0.988   5.198
 4799SOL    HW215297   5.319   1.050   5.274
 4800SOL     OW15298   1.774   2.918   4.335
 4800SOL    HW115299   1.781   2.820   4.317
 4800SOL    HW215300   1.865   2.954   4.359
 4801SOL     OW15301   6.827   1.678   0.712
 4801SOL    HW115302   6.801   1.581   0.718
 4801SOL    HW215303   6.830   1.717   0.804
 4802SOL     OW15304   1.541   6.657   1.433
 4802SOL    HW115305   1.481   6.726   1.392
 4802SOL    HW215306   1.621   6.644   1.375
 4803SOL     OW15307   0.355   6.590   1.711
 4803SOL    HW115308   0.449   6.567   1.683
 4803SOL    HW215309   0.298   6.601   1.630
 4804SOL     OW15310   4.292   5.154   6.694
 4804SOL    HW115311   4.302   5.104   6.780
 4804SOL    HW215312   4.351   5.235   6.696
 4805SOL     OW15313   6.618   6.732   1.511
 4805SOL    HW115314   6.519   6.728   1.499
 4805SOL    HW215315   6.642   6.699   1.602
 4806SOL     OW15316   0.686   2.118   4.166
 4806SOL    HW115317   0.710   2.036   4.218
 4806SOL    HW215318   0.661   2.192   4.229
 4807SOL     OW15319   0.654   6.690   2.141
 4807SOL    HW115320   0.698   6.775   2.115
 4807SOL    HW215321   0.616   6.698   2.234
 4808SOL     OW15322   6.514   1.071   0.012
 4808SOL    HW115323   6.418   1.099   0.009
 4808SOL    HW215324   6.563   1.130   0.076
 4809SOL     OW15325   4.405   6.311   0.782
 4809SOL    HW115326   4.384   6.214   0.765
 4809SOL    HW215327   4.491   6.318   0.832
 4810SOL     OW15328   1.835   0.255   5.225
 4810SOL    HW115329   1.809   0.311   5.146
 4810SOL    HW215330   1.897   0.183   5.196
 4811SOL     OW15331   5.034   4.494   4.306
 4811SOL    HW115332   4.961   4.509   4.241
 4811SOL    HW215333   5.021   4.406   4.351
 4812SOL     OW15334   6.537   5.045   3.023
 4812SOL    HW115335   6.554   4.994   3.107
 4812SOL    HW215336   6.444   5.027   2.992
 4813SOL     OW15337   6.293   3.660   2.922
 4813SOL    HW115338   6.257   3.702   3.006
 4813SOL    HW215339   6.260   3.566   2.916
 4814SOL     OW15340   0.014   2.660   1.252
 4814SOL    HW115341   0.054   2.751   1.258
 4814SOL    HW215342   0.086   2.591   1.261
 4815SOL     OW15343   4.640   1.272   3.553
 4815SOL    HW115344   4.600   1.363   3.568
 4815SOL    HW215345   4.736   1.282   3.529
 4816SOL     OW15346   6.195   3.756   4.633
 4816SOL    HW115347   6.293   3.762   4.615
 4816SOL    HW215348   6.155   3.682   4.578
 4817SOL     OW15349   5.490   1.266   6.647
 4817SOL    HW115350   5.521   1.258   6.742
 4817SOL    HW215351   5.495   1.362   6.618
 4818SOL     OW15352   0.290   6.879   3.026
 4818SOL    HW115353   0.210   6.933   3.051
 4818SOL    HW215354   0.263   6.783   3.016
 4819SOL     OW15355   0.665   2.763   0.758
 4819SOL    HW115356   0.659   2.809   0.847
 4819SOL    HW215357   0.583   2.707   0.744
 4820SOL     OW15358   5.973   3.120   2.270
 4820SOL    HW115359   5.964   3.217   2.247
 4820SOL    HW215360   5.885   3.084   2.301
 4821SOL     OW15361   0.029   5.418   3.595
 4821SOL    HW115362   0.118   5.418   3.640
 4821SOL    HW215363   6.984   5.428   3.663
 4822SOL     OW15364   2.684   5.711   4.555
 4822SOL    HW115365   2.599   5.658   4.545
 4822SOL    HW215366   2.737   5.704   4.470
 4823SOL     OW15367   0.964   1.862   0.282
 4823SOL    HW115368   1.047   1.897   0.325
 4823SOL    HW215369   0.986   1.826   0.191
 4824SOL     OW15370   6.534   2.556   0.204
 4824SOL    HW115371   6.455   2.560   0.265
 4824SOL    HW215372   6.505   2.522   0.114
 4825SOL     OW15373   1.110   5.716   3.537
 4825SOL    HW115374   1.019   5.756   3.529
 4825SOL    HW215375   1.137   5.710   3.633
 4826SOL     OW15376   5.092   6.743   0.285
 4826SOL    HW115377   5.087   6.823   0.225
 4826SOL    HW215378   5.010   6.687   0.273
 4827SOL     OW15379   5.473   1.349   2.023
 4827SOL    HW115380   5.392   1.408   2.022
 4827SOL    HW215381   5.542   1.389   2.084
 4828SOL     OW15382   5.313   1.437   6.319
 4828SOL    HW115383   5.361   1.363   6.273
 4828SOL    HW215384   5.304   1.515   6.257
 4829SOL     OW15385   4.734   5.608   5.200
 4829SOL    HW115386   4.823   5.635   5.239
 4829SOL    HW215387   4.718   5.511   5.221
 4830SOL     OW15388   1.715   6.417   2.863
 4830SOL    HW115389   1.639   6.372   2.815
 4830SOL    HW215390   1.687   6.440   2.956
 4831SOL     OW15391   2.703   4.267   6.270
 4831SOL    HW115392   2.731   4.363   6.275
 4831SOL    HW215393   2.632   4.250   6.338
 4832SOL     OW15394   3.794   3.422   3.588
 4832SOL    HW115395   3.892   3.437   3.596
 4832SOL    HW215396   3.748   3.509   3.569
 4833SOL     OW15397   5.870   2.267   5.118
 4833SOL    HW115398   5.954   2.213   5.115
 4833SOL    HW215399   5.893   2.363   5.129
 4834SOL     OW15400   1.154   3.583   1.359
 4834SOL    HW115401   1.233   3.571   1.418
 4834SOL    HW215402   1.092   3.651   1.400
 4835SOL     OW15403   1.524   3.975   6.412
 4835SOL    HW115404   1.491   3.912   6.481
 4835SOL    HW215405   1.623   3.964   6.401
 4836SOL     OW15406   3.527   0.109   5.971
 4836SOL    HW115407   3.522   0.032   6.035
 4836SOL    HW215408   3.567   0.188   6.017
 4837SOL     OW15409   1.447   3.897   4.355
 4837SOL    HW115410   1.517   3.902   4.283
 4837SOL    HW215411   1.372   3.839   4.324
 4838SOL     OW15412   1.364   4.494   6.504
 4838SOL    HW115413   1.295   4.506   6.576
 4838SOL    HW215414   1.360   4.400   6.470
 4839SOL     OW15415   2.819   0.546   1.666
 4839SOL    HW115416   2.753   0.578   1.598
 4839SOL    HW215417   2.869   0.625   1.702
 4840SOL     OW15418   5.460   2.070   3.856
 4840SOL    HW115419   5.411   1.985   3.871
 4840SOL    HW215420   5.398   2.147   3.866
 4841SOL     OW15421   3.243   5.050   3.258
 4841SOL    HW115422   3.305   4.973   3.271
 4841SOL    HW215423   3.150   5.023   3.282
 4842SOL     OW15424   4.259   4.707   3.721
 4842SOL    HW115425   4.309   4.643   3.780
 4842SOL    HW215426   4.171   4.727   3.763
 4843SOL     OW15427   6.191   2.878   0.041
 4843SOL    HW115428   6.138   2.961   0.058
 4843SOL    HW215429   6.266   2.899   7.006
 4844SOL     OW15430   1.164   4.828   6.389
 4844SOL    HW115431   1.247   4.780   6.362
 4844SOL    HW215432   1.185   4.890   6.465
 4845SOL     OW15433   5.439   4.640   5.705
 4845SOL    HW115434   5.505   4.598   5.643
 4845SOL    HW215435   5.362   4.676   5.652
 4846SOL     OW15436   6.425   2.831   4.077
 4846SOL    HW115437   6.472   2.784   4.152
 4846SOL    HW215438   6.481   2.907   4.045
 4847SOL     OW15439   1.898   6.942   6.432
 4847SOL    HW115440   1.968   6.875   6.455
 4847SOL    HW215441   1.903   6.965   6.335
 4848SOL     OW15442   4.881   1.283   3.458
 4848SOL    HW115443   4.924   1.373   3.460
 4848SOL    HW215444   4.950   1.214   3.436
 4849SOL     OW15445   1.125   5.654   1.687
 4849SOL    HW115446   1.128   5.629   1.784
 4849SOL    HW215447   1.100   5.750   1.677
 4850SOL     OW15448   3.113   6.971   2.202
 4850SOL    HW115449   3.133   6.915   2.283
 4850SOL    HW215450   3.072   0.031   2.230
 4851SOL     OW15451   4.299   4.609   6.474
 4851SOL    HW115452   4.217   4.665   6.485
 4851SOL    HW215453   4.365   4.632   6.546
 4852SOL     OW15454   4.226   4.168   5.833
 4852SOL    HW115455   4.306   4.225   5.818
 4852SOL    HW215456   4.179   4.198   5.917
 4853SOL     OW15457   4.347   0.417   2.140
 4853SOL    HW115458   4.417   0.488   2.138
 4853SOL    HW215459   4.297   0.421   2.227
 4854SOL     OW15460   4.090   6.995   1.890
 4854SOL    HW115461   4.052   6.996   1.798
 4854SOL    HW215462   4.099   0.062   1.923
 4855SOL     OW15463   4.723   4.732   5.462
 4855SOL    HW115464   4.639   4.700   5.418
 4855SOL    HW215465   4.799   4.673   5.435
 4856SOL     OW15466   0.572   3.041   3.577
 4856SOL    HW115467   0.621   3.128   3.567
 4856SOL    HW215468   0.493   3.054   3.638
 4857SOL     OW15469   2.745   1.414   5.608
 4857SOL    HW115470   2.700   1.339   5.560
 4857SOL    HW215471   2.722   1.410   5.705
 4858SOL     OW15472   2.702   5.776   5.183
 4858SOL    HW115473   2.625   5.767   5.245
 4858SOL    HW215474   2.736   5.686   5.156
 4859SOL     OW15475   6.937   5.814   3.056
 4859SOL    HW115476   6.900   5.730   3.015
 4859SOL    HW215477   6.941   5.804   3.155
 4860SOL     OW15478   3.633   5.352   0.830
 4860SOL    HW115479   3.540   5.381   0.806
 4860SOL    HW215480   3.630   5.298   0.914
 4861SOL     OW15481   4.811   5.086   4.718
 4861SOL    HW115482   4.793   5.007   4.776
 4861SOL    HW215483   4.744   5.090   4.644
 4862SOL     OW15484   1.405   5.358   3.701
 4862SOL    HW115485   1.316   5.315   3.719
 4862SOL    HW215486   1.398   5.414   3.618
 4863SOL     OW15487   5.862   1.971   2.264
 4863SOL    HW115488   5.947   2.023   2.272
 4863SOL    HW215489   5.791   2.014   2.319
 4864SOL     OW15490   2.438   2.992   1.719
 4864SOL    HW115491   2.536   2.975   1.709
 4864SOL    HW215492   2.387   2.927   1.663
 4865SOL     OW15493   3.910   0.218   4.802
 4865SOL    HW115494   3.819   0.222   4.844
 4865SOL    HW215495   3.933   0.123   4.781
 4866SOL     OW15496   1.511   5.319   1.629
 4866SOL    HW115497   1.552   5.251   1.569
 4866SOL    HW215498   1.476   5.275   1.711
 4867SOL     OW15499   5.515   4.607   6.317
 4867SOL    HW115500   5.459   4.528   6.340
 4867SOL    HW215501   5.457   4.679   6.278
 4868SOL     OW15502   1.569   5.755   2.013
 4868SOL    HW115503   1.520   5.671   1.990
 4868SOL    HW215504   1.630   5.737   2.090
 4869SOL     OW15505   0.541   1.894   1.817
 4869SOL    HW115506   0.461   1.838   1.794
 4869SOL    HW215507   0.624   1.841   1.799
 4870SOL     OW15508   5.995   1.715   2.070
 4870SOL    HW115509   6.050   1.796   2.054
 4870SOL    HW215510   5.988   1.662   1.985
 4871SOL     OW15511   1.097   2.243   5.140
 4871SOL    HW115512   1.056   2.322   5.184
 4871SOL    HW215513   1.197   2.251   5.143
 4872SOL     OW15514   2.517   2.554   2.940
 4872SOL    HW115515   2.525   2.645   2.983
 4872SOL    HW215516   2.475   2.491   3.005
 4873SOL     OW15517   1.165   0.235   6.250
 4873SOL    HW115518   1.218   0.182   6.315
 4873SOL    HW215519   1.101   0.175   6.202
 4874SOL     OW15520   6.276   1.502   4.957
 4874SOL    HW115521   6.315   1.410   4.949
 4874SOL    HW215522   6.324   1.563   4.894
 4875SOL     OW15523   0.058   3.059   0.449
 4875SOL    HW115524   0.027   3.067   0.544
 4875SOL    HW215525   7.006   3.047   0.389
 4876SOL     OW15526   6.379   1.598   6.647
 4876SOL    HW115527   6.336   1.648   6.572
 4876SOL    HW215528   6.386   1.501   6.623
 4877SOL     OW15529   4.199   2.239   2.333
 4877SOL    HW115530   4.149   2.216   2.417
 4877SOL    HW215531   4.256   2.319   2.349
 4878SOL     OW15532   1.272   2.819   2.862
 4878SOL    HW115533   1.339   2.771   2.919
 4878SOL    HW215534   1.183   2.773   2.868
 4879SOL     OW15535   3.171   6.499   2.985
 4879SOL    HW115536   3.088   6.496   3.041
 4879SOL    HW215537   3.250   6.480   3.042
 4880SOL     OW15538   0.256   2.723   6.441
 4880SOL    HW115539   0.316   2.738   6.362
 4880SOL    HW215540   0.310   2.693   6.519
 4881SOL     OW15541   3.248   6.656   5.698
 4881SOL    HW115542   3.266   6.611   5.610
 4881SOL    HW215543   3.173   6.721   5.686
 4882SOL     OW15544   5.729   6.351   6.537
 4882SOL    HW115545   5.706   6.399   6.452
 4882SOL    HW215546   5.738   6.253   6.519
 4883SOL     OW15547   6.039   5.799   0.322
 4883SOL    HW115548   5.954   5.769   0.277
 4883SOL    HW215549   6.028   5.793   0.421
 4884SOL     OW15550   4.088   6.666   2.205
 4884SOL    HW115551   4.006   6.723   2.214
 4884SOL    HW215552   4.060   6.572   2.184
 4885SOL     OW15553   0.296   0.119   2.028
 4885SOL    HW115554   0.370   0.127   1.962
 4885SOL    HW215555   0.218   0.072   1.986
 4886SOL     OW15556   6.207   0.967   5.647
 4886SOL    HW115557   6.188   0.998   5.740
 4886SOL    HW215558   6.271   0.890   5.649
 4887SOL     OW15559   0.250   2.608   5.499
 4887SOL    HW115560   0.336   2.558   5.487
 4887SOL    HW215561   0.184   2.575   5.432
 4888SOL     OW15562   4.908   5.771   0.973
 4888SOL    HW115563   4.907   5.870   0.976
 4888SOL    HW215564   4.974   5.740   0.904
 4889SOL     OW15565   1.097   3.018   6.005
 4889SOL    HW115566   1.136   2.932   5.972
 4889SOL    HW215567   1.058   3.068   5.928
 4890SOL     OW15568   5.785   0.412   3.916
 4890SOL    HW115569   5.709   0.348   3.904
 4890SOL    HW215570   5.824   0.400   4.007
 4891SOL     OW15571   0.286   4.563   0.902
 4891SOL    HW115572   0.235   4.569   0.817
 4891SOL    HW215573   0.282   4.650   0.951
 4892SOL     OW15574   2.189   5.017   1.622
 4892SOL    HW115575   2.240   4.957   1.683
 4892SOL    HW215576   2.244   5.035   1.540
 4893SOL     OW15577   0.076   4.331   6.619
 4893SOL    HW115578   0.030   4.277   6.548
 4893SOL    HW215579   0.073   4.428   6.595
 4894SOL     OW15580   0.223   0.125   3.383
 4894SOL    HW115581   0.194   0.121   3.288
 4894SOL    HW215582   0.152   0.168   3.438
 4895SOL     OW15583   6.780   3.781   6.510
 4895SOL    HW115584   6.834   3.706   6.546
 4895SOL    HW215585   6.705   3.802   6.573
 4896SOL     OW15586   4.556   1.511   5.721
 4896SOL    HW115587   4.520   1.442   5.660
 4896SOL    HW215588   4.598   1.585   5.668
 4897SOL     OW15589   2.868   5.909   0.111
 4897SOL    HW115590   2.934   5.840   0.141
 4897SOL    HW215591   2.881   5.927   0.014
 4898SOL     OW15592   4.982   2.900   4.589
 4898SOL    HW115593   4.919   2.914   4.511
 4898SOL    HW215594   5.043   2.824   4.569
 4899SOL     OW15595   0.513   3.075   4.454
 4899SOL    HW115596   0.605   3.039   4.439
 4899SOL    HW215597   0.445   3.011   4.417
 4900SOL     OW15598   0.040   6.616   6.096
 4900SOL    HW115599   7.018   6.580   6.175
 4900SOL    HW215600   7.001   6.657   6.032
 4901SOL     OW15601   6.503   6.702   3.428
 4901SOL    HW115602   6.526   6.794   3.460
 4901SOL    HW215603   6.472   6.647   3.506
 4902SOL     OW15604   2.979   6.023   0.340
 4902SOL    HW115605   2.964   5.985   0.249
 4902SOL    HW215606   3.076   6.045   0.351
 4903SOL     OW15607   6.519   4.707   0.101
 4903SOL    HW115608   6.563   4.779   0.048
 4903SOL    HW215609   6.422   4.704   0.079
 4904SOL     OW15610   2.911   0.846   3.540
 4904SOL    HW115611   2.898   0.930   3.592
 4904SOL    HW215612   2.855   0.773   3.578
 4905SOL     OW15613   5.459   4.083   3.288
 4905SOL    HW115614   5.502   4.122   3.206
 4905SOL    HW215615   5.474   4.145   3.365
 4906SOL     OW15616   5.987   0.240   1.778
 4906SOL    HW115617   5.989   0.332   1.738
 4906SOL    HW215618   5.948   0.245   1.870
 4907SOL     OW15619   3.043   2.853   1.188
 4907SOL    HW115620   3.022   2.792   1.265
 4907SOL    HW215621   3.115   2.917   1.214
 4908SOL     OW15622   4.785   5.304   6.208
 4908SOL    HW115623   4.751   5.378   6.150
 4908SOL    HW215624   4.708   5.256   6.249
 4909SOL     OW15625   6.207   6.818   5.513
 4909SOL    HW115626   6.172   6.731   5.548
 4909SOL    HW215627   6.152   6.893   5.551
 4910SOL     OW15628   5.493   6.838   5.093
 4910SOL    HW115629   5.522   6.744   5.111
 4910SOL    HW215630   5.414   6.860   5.150
 4911SOL     OW15631   0.015   3.927   6.651
 4911SOL    HW115632   0.029   3.936   6.750
 4911SOL    HW215633   6.948   3.897   6.634
 4912SOL     OW15634   1.660   2.911   1.561
 4912SOL    HW115635   1.652   3.007   1.533
 4912SOL    HW215636   1.628   2.901   1.655
 4913SOL     OW15637   3.041   3.688   2.141
 4913SOL    HW115638   3.045   3.776   2.094
 4913SOL    HW215639   3.041   3.703   2.240
 4914SOL     OW15640   1.296   0.163   2.570
 4914SOL    HW115641   1.327   0.115   2.652
 4914SOL    HW215642   1.374   0.205   2.524
 4915SOL     OW15643   4.534   6.900   4.478
 4915SOL    HW115644   4.581   6.920   4.564
 4915SOL    HW215645   4.438   6.927   4.485
 4916SOL     OW15646   1.579   1.457   2.015
 4916SOL    HW115647   1.503   1.468   1.950
 4916SOL    HW215648   1.653   1.519   1.990
 4917SOL     OW15649   0.585   5.505   6.825
 4917SOL    HW115650   0.683   5.487   6.831
 4917SOL    HW215651   0.570   5.603   6.814
 4918SOL     OW15652   3.043   6.603   3.798
 4918SOL    HW115653   3.075   6.695   3.818
 4918SOL    HW215654   2.962   6.607   3.740
 4919SOL     OW15655   2.277   2.808   1.310
 4919SOL    HW115656   2.371   2.823   1.342
 4919SOL    HW215657   2.280   2.764   1.220
 4920SOL     OW15658   4.172   2.222   6.674
 4920SOL    HW115659   4.077   2.242   6.696
 4920SOL    HW215660   4.176   2.153   6.602
 4921SOL     OW15661   6.615   4.692   1.592
 4921SOL    HW115662   6.649   4.603   1.624
 4921SOL    HW215663   6.588   4.748   1.670
 4922SOL     OW15664   1.586   3.980   5.424
 4922SOL    HW115665   1.586   3.883   5.446
 4922SOL    HW215666   1.544   4.031   5.500
 4923SOL     OW15667   4.170   1.925   0.743
 4923SOL    HW115668   4.241   1.888   0.683
 4923SOL    HW215669   4.210   1.996   0.801
 4924SOL     OW15670   1.361   3.103   4.789
 4924SOL    HW115671   1.372   3.201   4.808
 4924SOL    HW215672   1.332   3.056   4.872
 4925SOL     OW15673   5.107   4.940   4.782
 4925SOL    HW115674   5.016   4.978   4.793
 4925SOL    HW215675   5.100   4.844   4.754
 4926SOL     OW15676   4.697   3.303   0.934
 4926SOL    HW115677   4.676   3.333   1.027
 4926SOL    HW215678   4.614   3.272   0.889
 4927SOL     OW15679   2.939   3.264   2.448
 4927SOL    HW115680   2.934   3.181   2.504
 4927SOL    HW215681   2.916   3.241   2.353
 4928SOL     OW15682   6.597   1.955   5.968
 4928SOL    HW115683   6.525   2.001   5.916
 4928SOL    HW215684   6.569   1.861   5.987
 4929SOL     OW15685   1.326   4.745   3.747
 4929SOL    HW115686   1.311   4.677   3.819
 4929SOL    HW215687   1.343   4.698   3.661
 4930SOL     OW15688   0.640   3.494   0.375
 4930SOL    HW115689   0.718   3.515   0.316
 4930SOL    HW215690   0.570   3.446   0.321
 4931SOL     OW15691   5.821   0.171   0.839
 4931SOL    HW115692   5.906   0.120   0.853
 4931SOL    HW215693   5.822   0.214   0.749
 4932SOL     OW15694   2.594   1.704   0.730
 4932SOL    HW115695   2.540   1.742   0.805
 4932SOL    HW215696   2.578   1.606   0.723
 4933SOL     OW15697   2.985   6.940   4.662
 4933SOL    HW115698   3.057   6.923   4.595
 4933SOL    HW215699   2.898   6.909   4.625
 4934SOL     OW15700   1.635   6.496   5.516
 4934SOL    HW115701   1.676   6.528   5.602
 4934SOL    HW215702   1.560   6.556   5.490
 4935SOL     OW15703   1.264   2.550   1.130
 4935SOL    HW115704   1.294   2.458   1.151
 4935SOL    HW215705   1.273   2.608   1.211
 4936SOL     OW15706   6.175   3.744   1.366
 4936SOL    HW115707   6.160   3.676   1.295
 4936SOL    HW215708   6.094   3.750   1.424
 4937SOL     OW15709   1.099   4.056   5.264
 4937SOL    HW115710   1.042   4.110   5.201
 4937SOL    HW215711   1.195   4.069   5.241
 4938SOL     OW15712   2.906   3.771   0.913
 4938SOL    HW115713   2.965   3.694   0.889
 4938SOL    HW215714   2.866   3.755   1.004
 4939SOL     OW15715   0.830   1.512   1.642
 4939SOL    HW115716   0.772   1.437   1.609
 4939SOL    HW215717   0.919   1.507   1.597
 4940SOL     OW15718   1.964   1.831   4.998
 4940SOL    HW115719   1.962   1.931   5.005
 4940SOL    HW215720   1.872   1.798   4.977
 4941SOL     OW15721   3.481   1.855   5.984
 4941SOL    HW115722   3.416   1.908   6.038
 4941SOL    HW215723   3.561   1.833   6.039
 4942SOL     OW15724   0.682   0.413   2.564
 4942SOL    HW115725   0.719   0.426   2.472
 4942SOL    HW215726   0.691   0.499   2.615
 4943SOL     OW15727   5.475   2.072   6.631
 4943SOL    HW115728   5.499   2.160   6.590
 4943SOL    HW215729   5.380   2.074   6.661
 4944SOL     OW15730   0.989   4.901   0.025
 4944SOL    HW115731   1.030   4.957   0.097
 4944SOL    HW215732   0.943   4.822   0.067
 4945SOL     OW15733   2.929   0.399   6.610
 4945SOL    HW115734   2.911   0.432   6.703
 4945SOL    HW215735   2.956   0.303   6.614
 4946SOL     OW15736   1.961   6.242   6.940
 4946SOL    HW115737   1.923   6.306   7.007
 4946SOL    HW215738   1.991   6.293   6.859
 4947SOL     OW15739   1.184   6.973   1.119
 4947SOL    HW115740   1.086   6.986   1.102
 4947SOL    HW215741   1.232   0.034   1.107
 4948SOL     OW15742   1.576   3.762   2.124
 4948SOL    HW115743   1.592   3.860   2.136
 4948SOL    HW215744   1.547   3.744   2.030
 4949SOL     OW15745   0.088   5.094   6.758
 4949SOL    HW115746   0.140   5.177   6.778
 4949SOL    HW215747   0.118   5.020   6.818
 4950SOL     OW15748   3.624   3.265   6.208
 4950SOL    HW115749   3.558   3.235   6.139
 4950SOL    HW215750   3.612   3.363   6.224
 4951SOL     OW15751   4.856   5.546   4.294
 4951SOL    HW115752   4.817   5.623   4.345
 4951SOL    HW215753   4.825   5.460   4.335
 4952SOL     OW15754   0.715   1.188   6.758
 4952SOL    HW115755   0.806   1.149   6.765
 4952SOL    HW215756   0.681   1.176   6.664
 4953SOL     OW15757   1.538   1.413   5.640
 4953SOL    HW115758   1.610   1.431   5.573
 4953SOL    HW215759   1.577   1.412   5.732
 4954SOL     OW15760   3.403   4.152   5.808
 4954SOL    HW115761   3.455   4.147   5.723
 4954SOL    HW215762   3.317   4.103   5.797
 4955SOL     OW15763   3.795   6.075   0.139
 4955SOL    HW115764   3.748   6.088   0.226
 4955SOL    HW215765   3.730   6.043   0.070
 4956SOL     OW15766   2.447   6.688   3.572
 4956SOL    HW115767   2.389   6.755   3.620
 4956SOL    HW215768   2.539   6.726   3.561
 4957SOL     OW15769   6.132   5.698   0.873
 4957SOL    HW115770   6.207   5.743   0.826
 4957SOL    HW215771   6.082   5.765   0.928
 4958SOL     OW15772   3.130   5.674   0.982
 4958SOL    HW115773   3.062   5.745   0.995
 4958SOL    HW215774   3.088   5.584   0.992
 4959SOL     OW15775   2.117   1.342   2.302
 4959SOL    HW115776   2.209   1.310   2.279
 4959SOL    HW215777   2.123   1.413   2.371
 4960SOL     OW15778   5.103   4.050   4.732
 4960SOL    HW115779   5.035   3.989   4.692
 4960SOL    HW215780   5.192   4.003   4.734
 4961SOL     OW15781   3.679   3.451   2.375
 4961SOL    HW115782   3.776   3.469   2.390
 4961SOL    HW215783   3.647   3.383   2.441
 4962SOL     OW15784   1.635   2.344   0.827
 4962SOL    HW115785   1.721   2.391   0.804
 4962SOL    HW215786   1.575   2.408   0.875
 4963SOL     OW15787   0.571   3.756   6.348
 4963SOL    HW115788   0.569   3.709   6.260
 4963SOL    HW215789   0.512   3.707   6.413
 4964SOL     OW15790   1.244   5.435   3.487
 4964SOL    HW115791   1.162   5.381   3.468
 4964SOL    HW215792   1.247   5.515   3.427
 4965SOL     OW15793   2.175   6.973   2.938
 4965SOL    HW115794   2.208   6.882   2.913
 4965SOL    HW215795   2.104   6.964   3.008
 4966SOL     OW15796   4.017   6.777   5.497
 4966SOL    HW115797   4.053   6.776   5.404
 4966SOL    HW215798   3.917   6.775   5.494
 4967SOL     OW15799   4.468   4.844   3.191
 4967SOL    HW115800   4.378   4.867   3.155
 4967SOL    HW215801   4.509   4.926   3.232
 4968SOL     OW15802   6.778   2.765   3.274
 4968SOL    HW115803   6.852   2.830   3.256
 4968SOL    HW215804   6.814   2.685   3.320
 4969SOL     OW15805   1.410   5.845   3.792
 4969SOL    HW115806   1.353   5.834   3.874
 4969SOL    HW215807   1.443   5.756   3.762
 4970SOL     OW15808   2.734   0.867   0.457
 4970SOL    HW115809   2.782   0.846   0.542
 4970SOL    HW215810   2.706   0.782   0.412
 4971SOL     OW15811   0.656   6.044   2.348
 4971SOL    HW115812   0.583   5.981   2.318
 4971SOL    HW215813   0.732   5.991   2.385
 4972SOL     OW15814   0.045   3.582   1.128
 4972SOL    HW115815   0.096   3.543   1.051
 4972SOL    HW215816   7.010   3.513   1.165
 4973SOL     OW15817   5.573   2.638   0.220
 4973SOL    HW115818   5.643   2.568   0.233
 4973SOL    HW215819   5.605   2.707   0.155
 4974SOL     OW15820   3.135   0.628   5.310
 4974SOL    HW115821   3.149   0.605   5.213
 4974SOL    HW215822   3.224   0.637   5.354
 4975SOL     OW15823   6.378   4.370   0.960
 4975SOL    HW115824   6.440   4.334   0.890
 4975SOL    HW215825   6.428   4.378   1.047
 4976SOL     OW15826   2.010   0.114   3.980
 4976SOL    HW115827   2.011   0.213   3.961
 4976SOL    HW215828   2.088   0.091   4.038
 4977SOL     OW15829   1.475   3.293   4.423
 4977SOL    HW115830   1.414   3.289   4.502
 4977SOL    HW215831   1.443   3.365   4.360
 4978SOL     OW15832   6.600   5.273   4.517
 4978SOL    HW115833   6.591   5.340   4.590
 4978SOL    HW215834   6.545   5.301   4.438
 4979SOL     OW15835   3.411   6.989   5.610
 4979SOL    HW115836   3.464   0.046   5.606
 4979SOL    HW215837   3.383   6.972   5.705
 4980SOL     OW15838   5.754   2.622   4.413
 4980SOL    HW115839   5.837   2.657   4.370
 4980SOL    HW215840   5.678   2.626   4.348
 4981SOL     OW15841   2.776   6.835   2.646
 4981SOL    HW115842   2.800   6.766   2.577
 4981SOL    HW215843   2.844   6.908   2.647
 4982SOL     OW15844   3.620   2.089   5.001
 4982SOL    HW115845   3.650   2.027   5.073
 4982SOL    HW215846   3.687   2.164   4.992
 4983SOL     OW15847   5.115   3.736   2.878
 4983SOL    HW115848   5.203   3.756   2.836
 4983SOL    HW215849   5.105   3.789   2.963
 4984SOL     OW15850   4.995   3.501   5.192
 4984SOL    HW115851   4.941   3.439   5.249
 4984SOL    HW215852   4.936   3.547   5.126
 4985SOL     OW15853   4.707   0.644   2.319
 4985SOL    HW115854   4.788   0.586   2.332
 4985SOL    HW215855   4.659   0.615   2.237
 4986SOL     OW15856   1.671   5.895   0.993
 4986SOL    HW115857   1.614   5.883   0.912
 4986SOL    HW215858   1.714   5.808   1.018
 4987SOL     OW15859   2.179   3.903   2.176
 4987SOL    HW115860   2.167   3.833   2.106
 4987SOL    HW215861   2.170   3.994   2.135
 4988SOL     OW15862   6.661   4.744   3.706
 4988SOL    HW115863   6.687   4.720   3.613
 4988SOL    HW215864   6.738   4.788   3.752
 4989SOL     OW15865   0.228   0.426   4.661
 4989SOL    HW115866   0.229   0.357   4.733
 4989SOL    HW215867   0.218   0.517   4.703
 4990SOL     OW15868   3.937   1.381   6.170
 4990SOL    HW115869   3.971   1.287   6.161
 4990SOL    HW215870   3.946   1.428   6.083
 4991SOL     OW15871   2.142   5.416   4.965
 4991SOL    HW115872   2.162   5.504   5.008
 4991SOL    HW215873   2.068   5.427   4.898
 4992SOL     OW15874   2.981   2.852   5.398
 4992SOL    HW115875   2.955   2.756   5.390
 4992SOL    HW215876   2.903   2.910   5.374
 4993SOL     OW15877   2.283   5.083   3.814
 4993SOL    HW115878   2.345   5.157   3.841
 4993SOL    HW215879   2.317   4.996   3.851
 4994SOL     OW15880   3.706   4.916   5.582
 4994SOL    HW115881   3.752   4.863   5.510
 4994SOL    HW215882   3.648   4.856   5.636
 4995SOL     OW15883   0.847   2.062   6.638
 4995SOL    HW115884   0.759   2.023   6.666
 4995SOL    HW215885   0.837   2.108   6.550
 4996SOL     OW15886   0.219   1.047   4.777
 4996SOL    HW115887   0.288   1.036   4.704
 4996SOL    HW215888   0.175   1.136   4.767
 4997SOL     OW15889   3.633   1.976   1.009
 4997SOL    HW115890   3.545   1.932   1.022
 4997SOL    HW215891   3.700   1.937   1.072
 4998SOL     OW15892   0.840   4.268   3.340
 4998SOL    HW115893   0.747   4.277   3.375
 4998SOL    HW215894   0.901   4.238   3.413
 4999SOL     OW15895   0.177   2.903   2.756
 4999SOL    HW115896   0.253   2.927   2.817
 4999SOL    HW215897   0.210   2.902   2.661
 5000SOL     OW15898   2.120   6.347   2.732
 5000SOL    HW115899   2.212   6.378   2.706
 5000SOL    HW215900   2.091   6.395   2.814
 5001SOL     OW15901   0.737   6.510   3.016
 5001SOL    HW115902   0.729   6.413   2.994
 5001SOL    HW215903   0.794   6.521   3.097
 5002SOL     OW15904   0.854   5.370   3.765
 5002SOL    HW115905   0.847   5.296   3.832
 5002SOL    HW215906   0.869   5.456   3.813
 5003SOL     OW15907   4.086   1.629   1.370
 5003SOL    HW115908   3.993   1.598   1.389
 5003SOL    HW215909   4.089   1.669   1.278
 5004SOL     OW15910   3.766   5.768   0.487
 5004SOL    HW115911   3.853   5.718   0.494
 5004SOL    HW215912   3.785   5.865   0.470
 5005SOL     OW15913   4.566   2.999   1.169
 5005SOL    HW115914   4.650   3.038   1.129
 5005SOL    HW215915   4.575   2.998   1.269
 5006SOL     OW15916   4.590   1.324   2.275
 5006SOL    HW115917   4.599   1.251   2.208
 5006SOL    HW215918   4.494   1.329   2.305
 5007SOL     OW15919   6.884   5.525   3.034
 5007SOL    HW115920   6.842   5.439   3.063
 5007SOL    HW215921   6.969   5.506   2.984
 5008SOL     OW15922   4.084   0.297   3.626
 5008SOL    HW115923   4.003   0.347   3.594
 5008SOL    HW215924   4.070   0.199   3.613
 5009SOL     OW15925   1.077   1.909   5.802
 5009SOL    HW115926   1.175   1.911   5.823
 5009SOL    HW215927   1.035   1.830   5.846
 5010SOL     OW15928   5.140   4.635   0.666
 5010SOL    HW115929   5.194   4.636   0.582
 5010SOL    HW215930   5.120   4.541   0.691
 5011SOL     OW15931   1.764   2.278   5.431
 5011SOL    HW115932   1.818   2.324   5.361
 5011SOL    HW215933   1.669   2.309   5.427
 5012SOL     OW15934   5.563   2.498   5.414
 5012SOL    HW115935   5.639   2.561   5.395
 5012SOL    HW215936   5.585   2.408   5.378
 5013SOL     OW15937   6.094   5.661   5.926
 5013SOL    HW115938   5.997   5.665   5.949
 5013SOL    HW215939   6.119   5.567   5.904
 5014SOL     OW15940   6.355   3.438   0.243
 5014SOL    HW115941   6.305   3.481   0.318
 5014SOL    HW215942   6.343   3.339   0.247
 5015SOL     OW15943   6.392   4.614   4.647
 5015SOL    HW115944   6.324   4.542   4.628
 5015SOL    HW215945   6.386   4.685   4.577
 5016SOL     OW15946   1.318   2.245   6.566
 5016SOL    HW115947   1.297   2.218   6.660
 5016SOL    HW215948   1.406   2.291   6.563
 5017SOL     OW15949   1.166   2.453   1.806
 5017SOL    HW115950   1.258   2.470   1.840
 5017SOL    HW215951   1.155   2.356   1.785
 5018SOL     OW15952   0.461   0.499   0.763
 5018SOL    HW115953   0.448   0.538   0.854
 5018SOL    HW215954   0.391   0.535   0.701
 5019SOL     OW15955   1.895   4.091   3.828
 5019SOL    HW115956   1.995   4.086   3.825
 5019SOL    HW215957   1.865   4.101   3.922
 5020SOL     OW15958   1.432   6.985   2.325
 5020SOL    HW115959   1.347   6.988   2.377
 5020SOL    HW215960   1.510   6.983   2.389
 5021SOL     OW15961   2.473   0.535   0.594
 5021SOL    HW115962   2.556   0.511   0.645
 5021SOL    HW215963   2.437   0.453   0.549
 5022SOL     OW15964   6.931   3.312   1.615
 5022SOL    HW115965   6.872   3.367   1.556
 5022SOL    HW215966   6.893   3.309   1.707
 5023SOL     OW15967   0.717   2.127   3.724
 5023SOL    HW115968   0.797   2.148   3.781
 5023SOL    HW215969   0.640   2.103   3.783
 5024SOL     OW15970   4.331   3.913   0.061
 5024SOL    HW115971   4.355   3.849   0.134
 5024SOL    HW215972   4.395   3.989   0.061
 5025SOL     OW15973   4.358   2.003   4.271
 5025SOL    HW115974   4.371   1.908   4.300
 5025SOL    HW215975   4.340   2.060   4.352
 5026SOL     OW15976   4.980   5.724   5.317
 5026SOL    HW115977   5.023   5.814   5.312
 5026SOL    HW215978   5.046   5.657   5.352
 5027SOL     OW15979   5.767   6.242   1.313
 5027SOL    HW115980   5.799   6.223   1.220
 5027SOL    HW215981   5.779   6.339   1.333
 5028SOL     OW15982   0.300   2.179   2.425
 5028SOL    HW115983   0.358   2.242   2.476
 5028SOL    HW215984   0.324   2.182   2.328
 5029SOL     OW15985   6.007   2.951   3.274
 5029SOL    HW115986   5.930   3.010   3.298
 5029SOL    HW215987   6.024   2.955   3.175
 5030SOL     OW15988   0.741   3.414   0.619
 5030SOL    HW115989   0.696   3.419   0.530
 5030SOL    HW215990   0.799   3.494   0.632
 5031SOL     OW15991   5.843   0.687   6.410
 5031SOL    HW115992   5.940   0.711   6.414
 5031SOL    HW215993   5.788   0.766   6.437
 5032SOL     OW15994   2.444   4.615   6.228
 5032SOL    HW115995   2.358   4.650   6.190
 5032SOL    HW215996   2.521   4.658   6.181
 5033SOL     OW15997   2.037   6.982   3.701
 5033SOL    HW115998   1.938   6.990   3.695
 5033SOL    HW215999   2.071   0.009   3.778
 5034SOL     OW16000   4.225   6.109   3.520
 5034SOL    HW116001   4.306   6.107   3.462
 5034SOL    HW216002   4.248   6.154   3.607
 5035SOL     OW16003   1.884   4.884   4.017
 5035SOL    HW116004   1.804   4.834   3.982
 5035SOL    HW216005   1.957   4.819   4.036
 5036SOL     OW16006   1.538   2.791   4.886
 5036SOL    HW116007   1.604   2.716   4.885
 5036SOL    HW216008   1.536   2.835   4.796
 5037SOL     OW16009   4.958   4.469   1.586
 5037SOL    HW116010   4.969   4.392   1.648
 5037SOL    HW216011   5.041   4.479   1.531
 5038SOL     OW16012   2.970   3.812   4.997
 5038SOL    HW116013   2.906   3.855   4.933
 5038SOL    HW216014   3.014   3.733   4.954
 5039SOL     OW16015   0.672   2.627   6.535
 5039SOL    HW116016   0.596   2.645   6.597
 5039SOL    HW216017   0.728   2.709   6.525
 5040SOL     OW16018   1.025   1.456   5.080
 5040SOL    HW116019   1.062   1.366   5.060
 5040SOL    HW216020   1.089   1.506   5.139
 5041SOL     OW16021   6.513   2.365   1.710
 5041SOL    HW116022   6.435   2.409   1.752
 5041SOL    HW216023   6.556   2.302   1.775
 5042SOL     OW16024   1.173   1.593   5.290
 5042SOL    HW116025   1.215   1.663   5.233
 5042SOL    HW216026   1.151   1.631   5.380
 5043SOL     OW16027   2.228   0.346   0.834
 5043SOL    HW116028   2.211   0.277   0.763
 5043SOL    HW216029   2.210   0.437   0.797
 5044SOL     OW16030   7.008   5.919   1.340
 5044SOL    HW116031   6.992   6.015   1.359
 5044SOL    HW216032   6.940   5.886   1.274
 5045SOL     OW16033   6.013   2.514   2.895
 5045SOL    HW116034   6.049   2.591   2.842
 5045SOL    HW216035   5.968   2.450   2.834
 5046SOL     OW16036   4.229   3.178   1.853
 5046SOL    HW116037   4.301   3.167   1.922
 5046SOL    HW216038   4.223   3.095   1.798
 5047SOL     OW16039   2.637   5.196   3.356
 5047SOL    HW116040   2.614   5.102   3.330
 5047SOL    HW216041   2.581   5.223   3.434
 5048SOL     OW16042   1.535   0.074   5.485
 5048SOL    HW116043   1.469   0.009   5.447
 5048SOL    HW216044   1.624   0.061   5.440
 5049SOL     OW16045   3.704   1.818   6.374
 5049SOL    HW116046   3.718   1.734   6.428
 5049SOL    HW216047   3.614   1.856   6.395
 5050SOL     OW16048   1.267   0.569   1.079
 5050SOL    HW116049   1.175   0.609   1.083
 5050SOL    HW216050   1.292   0.533   1.168
 5051SOL     OW16051   4.290   4.019   0.881
 5051SOL    HW116052   4.382   4.059   0.876
 5051SOL    HW216053   4.244   4.052   0.963
 5052SOL     OW16054   1.748   4.094   4.104
 5052SOL    HW116055   1.654   4.067   4.084
 5052SOL    HW216056   1.753   4.133   4.195
 5053SOL     OW16057   6.773   0.832   0.463
 5053SOL    HW116058   6.863   0.841   0.420
 5053SOL    HW216059   6.708   0.794   0.398
 5054SOL     OW16060   4.339   5.684   2.896
 5054SOL    HW116061   4.292   5.662   2.982
 5054SOL    HW216062   4.341   5.783   2.884
 5055SOL     OW16063   5.525   4.180   5.729
 5055SOL    HW116064   5.517   4.093   5.681
 5055SOL    HW216065   5.470   4.249   5.682
 5056SOL     OW16066   6.360   5.255   3.084
 5056SOL    HW116067   6.424   5.206   3.024
 5056SOL    HW216068   6.266   5.232   3.058
 5057SOL     OW16069   6.771   6.074   2.922
 5057SOL    HW116070   6.869   6.094   2.922
 5057SOL    HW216071   6.719   6.158   2.943
 5058SOL     OW16072   2.633   5.880   5.682
 5058SOL    HW116073   2.620   5.958   5.744
 5058SOL    HW216074   2.570   5.889   5.605
 5059SOL     OW16075   6.504   6.372   2.797
 5059SOL    HW116076   6.404   6.384   2.795
 5059SOL    HW216077   6.542   6.392   2.707
 5060SOL     OW16078   6.838   2.929   0.153
 5060SOL    HW116079   6.849   2.952   0.057
 5060SOL    HW216080   6.864   3.007   0.210
 5061SOL     OW16081   5.545   3.728   0.706
 5061SOL    HW116082   5.560   3.804   0.641
 5061SOL    HW216083   5.555   3.641   0.657
 5062SOL     OW16084   6.816   0.225   6.867
 5062SOL    HW116085   6.806   0.212   6.768
 5062SOL    HW216086   6.852   0.317   6.884
 5063SOL     OW16087   1.341   6.438   2.230
 5063SOL    HW116088   1.422   6.493   2.209
 5063SOL    HW216089   1.340   6.416   2.327
 5064SOL     OW16090   5.047   4.811   6.608
 5064SOL    HW116091   5.131   4.757   6.614
 5064SOL    HW216092   5.047   4.883   6.678
 5065SOL     OW16093   2.127   6.999   5.788
 5065SOL    HW116094   2.110   7.015   5.885
 5065SOL    HW216095   2.041   6.985   5.740
 5066SOL     OW16096   4.631   4.567   0.000
 5066SOL    HW116097   4.652   4.530   0.091
 5066SOL    HW216098   4.648   4.497   6.958
 5067SOL     OW16099   5.389   0.981   6.227
 5067SOL    HW116100   5.415   0.999   6.322
 5067SOL    HW216101   5.293   0.952   6.224
 5068SOL     OW16102   3.331   5.288   1.685
 5068SOL    HW116103   3.367   5.229   1.613
 5068SOL    HW216104   3.257   5.241   1.733
 5069SOL     OW16105   6.760   5.264   3.105
 5069SOL    HW116106   6.715   5.275   3.194
 5069SOL    HW216107   6.769   5.167   3.083
 5070SOL     OW16108   4.892   2.528   3.998
 5070SOL    HW116109   4.984   2.519   4.038
 5070SOL    HW216110   4.829   2.561   4.068
 5071SOL     OW16111   5.196   1.460   1.739
 5071SOL    HW116112   5.230   1.494   1.652
 5071SOL    HW216113   5.232   1.517   1.813
 5072SOL     OW16114   0.635   4.316   2.386
 5072SOL    HW116115   0.607   4.348   2.296
 5072SOL    HW216116   0.654   4.218   2.383
 5073SOL     OW16117   4.494   2.200   3.662
 5073SOL    HW116118   4.548   2.185   3.580
 5073SOL    HW216119   4.489   2.298   3.682
 5074SOL     OW16120   4.140   3.565   5.059
 5074SOL    HW116121   4.049   3.604   5.075
 5074SOL    HW216122   4.155   3.554   4.961
 5075SOL     OW16123   6.326   0.284   4.566
 5075SOL    HW116124   6.363   0.270   4.474
 5075SOL    HW216125   6.242   0.231   4.576
 5076SOL     OW16126   5.293   0.312   0.103
 5076SOL    HW116127   5.333   0.382   0.045
 5076SOL    HW216128   5.287   0.345   0.197
 5077SOL     OW16129   0.090   0.880   3.037
 5077SOL    HW116130   0.052   0.946   3.102
 5077SOL    HW216131   0.175   0.917   2.999
 5078SOL     OW16132   0.384   1.904   4.484
 5078SOL    HW116133   0.417   1.986   4.437
 5078SOL    HW216134   0.440   1.826   4.456
 5079SOL     OW16135   5.108   5.437   4.431
 5079SOL    HW116136   5.041   5.401   4.494
 5079SOL    HW216137   5.066   5.507   4.373
 5080SOL     OW16138   5.085   0.288   6.148
 5080SOL    HW116139   5.169   0.235   6.161
 5080SOL    HW216140   5.057   0.284   6.052
 5081SOL     OW16141   2.935   3.376   3.081
 5081SOL    HW116142   2.950   3.282   3.110
 5081SOL    HW216143   2.958   3.438   3.156
 5082SOL     OW16144   1.099   1.966   5.406
 5082SOL    HW116145   1.112   1.879   5.453
 5082SOL    HW216146   1.111   1.952   5.308
 5083SOL     OW16147   1.002   3.366   2.114
 5083SOL    HW116148   0.942   3.423   2.170
 5083SOL    HW216149   1.067   3.424   2.065
 5084SOL     OW16150   1.664   5.435   2.313
 5084SOL    HW116151   1.717   5.361   2.271
 5084SOL    HW216152   1.567   5.420   2.298
 5085SOL     OW16153   6.771   2.435   0.739
 5085SOL    HW116154   6.696   2.444   0.804
 5085SOL    HW216155   6.735   2.405   0.651
 5086SOL     OW16156   6.637   4.662   4.358
 5086SOL    HW116157   6.633   4.716   4.274
 5086SOL    HW216158   6.684   4.575   4.339
 5087SOL     OW16159   5.790   5.511   6.062
 5087SOL    HW116160   5.766   5.417   6.085
 5087SOL    HW216161   5.875   5.536   6.109
 5088SOL     OW16162   5.675   1.508   6.237
 5088SOL    HW116163   5.672   1.418   6.280
 5088SOL    HW216164   5.692   1.578   6.306
 5089SOL     OW16165   5.142   2.822   4.268
 5089SOL    HW116166   5.159   2.778   4.180
 5089SOL    HW216167   5.087   2.761   4.325
 5090SOL     OW16168   0.875   5.142   6.982
 5090SOL    HW116169   0.780   5.110   6.980
 5090SOL    HW216170   0.935   5.064   7.000
 5091SOL     OW16171   0.845   5.746   4.423
 5091SOL    HW116172   0.839   5.786   4.332
 5091SOL    HW216173   0.939   5.716   4.441
 5092SOL     OW16174   3.706   3.343   0.319
 5092SOL    HW116175   3.754   3.370   0.235
 5092SOL    HW216176   3.610   3.372   0.312
 5093SOL     OW16177   0.638   0.602   2.277
 5093SOL    HW116178   0.627   0.685   2.223
 5093SOL    HW216179   0.616   0.621   2.372
 5094SOL     OW16180   1.033   0.456   6.296
 5094SOL    HW116181   1.048   0.521   6.221
 5094SOL    HW216182   1.081   0.371   6.277
 5095SOL     OW16183   3.283   6.755   4.554
 5095SOL    HW116184   3.321   6.769   4.646
 5095SOL    HW216185   3.285   6.658   4.532
 5096SOL     OW16186   3.147   6.069   1.777
 5096SOL    HW116187   3.245   6.052   1.762
 5096SOL    HW216188   3.111   6.003   1.842
 5097SOL     OW16189   1.151   2.085   0.136
 5097SOL    HW116190   1.143   2.168   0.082
 5097SOL    HW216191   1.241   2.082   0.179
 5098SOL     OW16192   1.597   3.165   2.984
 5098SOL    HW116193   1.686   3.120   2.995
 5098SOL    HW216194   1.538   3.106   2.928
 5099SOL     OW16195   0.576   1.783   4.291
 5099SOL    HW116196   0.647   1.847   4.318
 5099SOL    HW216197   0.531   1.816   4.208
 5100SOL     OW16198   5.122   4.739   5.133
 5100SOL    HW116199   5.210   4.701   5.103
 5100SOL    HW216200   5.051   4.670   5.124
 5101SOL     OW16201   5.638   6.156   0.700
 5101SOL    HW116202   5.592   6.244   0.703
 5101SOL    HW216203   5.605   6.103   0.622
 5102SOL     OW16204   4.000   6.259   3.439
 5102SOL    HW116205   4.068   6.187   3.449
 5102SOL    HW216206   3.967   6.286   3.530
 5103SOL     OW16207   1.774   1.906   3.818
 5103SOL    HW116208   1.741   1.823   3.773
 5103SOL    HW216209   1.870   1.921   3.794
 5104SOL     OW16210   0.681   0.652   0.716
 5104SOL    HW116211   0.585   0.628   0.729
 5104SOL    HW216212   0.730   0.642   0.802
 5105SOL     OW16213   1.670   3.191   0.717
 5105SOL    HW116214   1.638   3.282   0.690
 5105SOL    HW216215   1.711   3.146   0.638
 5106SOL     OW16216   2.119   0.009   1.866
 5106SOL    HW116217   2.084   0.054   1.948
 5106SOL    HW216218   2.085   0.056   1.785
 5107SOL     OW16219   1.301   0.124   5.953
 5107SOL    HW116220   1.206   0.156   5.945
 5107SOL    HW216221   1.341   0.159   6.037
 5108SOL     OW16222   4.050   3.135   4.422
 5108SOL    HW116223   4.118   3.067   4.449
 5108SOL    HW216224   4.026   3.192   4.501
 5109SOL     OW16225   0.932   2.763   2.133
 5109SOL    HW116226   0.950   2.669   2.162
 5109SOL    HW216227   0.919   2.821   2.214
 5110SOL     OW16228   1.393   5.883   5.328
 5110SOL    HW116229   1.443   5.886   5.415
 5110SOL    HW216230   1.307   5.835   5.341
 5111SOL     OW16231   1.046   1.203   6.627
 5111SOL    HW116232   1.102   1.244   6.699
 5111SOL    HW216233   1.012   1.114   6.657
 5112SOL     OW16234   0.670   0.348   3.480
 5112SOL    HW116235   0.592   0.287   3.494
 5112SOL    HW216236   0.726   0.314   3.405
 5113SOL     OW16237   1.071   1.963   6.762
 5113SOL    HW116238   0.979   1.971   6.723
 5113SOL    HW216239   1.072   1.893   6.833
 5114SOL     OW16240   5.069   5.006   6.332
 5114SOL    HW116241   4.970   5.002   6.317
 5114SOL    HW216242   5.107   5.085   6.284
 5115SOL     OW16243   2.680   3.909   5.284
 5115SOL    HW116244   2.707   3.983   5.346
 5115SOL    HW216245   2.590   3.929   5.245
 5116SOL     OW16246   6.450   4.524   1.267
 5116SOL    HW116247   6.354   4.547   1.251
 5116SOL    HW216248   6.460   4.425   1.278
 5117SOL     OW16249   2.574   6.018   2.129
 5117SOL    HW116250   2.655   6.069   2.098
 5117SOL    HW216251   2.531   6.069   2.204
 5118SOL     OW16252   4.686   7.012   1.311
 5118SOL    HW116253   4.615   6.968   1.366
 5118SOL    HW216254   4.772   7.011   1.361
 5119SOL     OW16255   6.370   1.131   3.417
 5119SOL    HW116256   6.439   1.184   3.367
 5119SOL    HW216257   6.376   1.151   3.514
 5120SOL     OW16258   3.661   0.967   1.266
 5120SOL    HW116259   3.661   0.956   1.167
 5120SOL    HW216260   3.639   0.880   1.310
 5121SOL     OW16261   1.004   3.600   4.163
 5121SOL    HW116262   1.070   3.659   4.207
 5121SOL    HW216263   0.912   3.637   4.176
 5122SOL     OW16264   2.707   5.692   2.760
 5122SOL    HW116265   2.620   5.661   2.722
 5122SOL    HW216266   2.714   5.661   2.855
 5123SOL     OW16267   6.573   3.189   1.913
 5123SOL    HW116268   6.525   3.276   1.923
 5123SOL    HW216269   6.605   3.158   2.003
 5124SOL     OW16270   3.393   6.920   6.819
 5124SOL    HW116271   3.369   6.962   6.731
 5124SOL    HW216272   3.431   6.829   6.803
 5125SOL     OW16273   0.888   1.688   6.873
 5125SOL    HW116274   0.953   1.705   6.799
 5125SOL    HW216275   0.847   1.598   6.862
 5126SOL     OW16276   4.054   1.223   0.549
 5126SOL    HW116277   3.971   1.264   0.513
 5126SOL    HW216278   4.129   1.288   0.542
 5127SOL     OW16279   4.963   3.846   5.722
 5127SOL    HW116280   5.012   3.927   5.688
 5127SOL    HW216281   4.968   3.774   5.654
 5128SOL     OW16282   0.321   0.918   6.931
 5128SOL    HW116283   0.241   0.899   6.873
 5128SOL    HW216284   0.293   0.977   7.007
 5129SOL     OW16285   4.710   2.686   4.342
 5129SOL    HW116286   4.685   2.629   4.421
 5129SOL    HW216287   4.701   2.783   4.367
 5130SOL     OW16288   1.710   6.691   4.801
 5130SOL    HW116289   1.651   6.766   4.827
 5130SOL    HW216290   1.664   6.604   4.819
 5131SOL     OW16291   3.858   4.831   2.814
 5131SOL    HW116292   3.829   4.853   2.721
 5131SOL    HW216293   3.796   4.872   2.880
 5132SOL     OW16294   3.291   1.904   6.430
 5132SOL    HW116295   3.211   1.848   6.410
 5132SOL    HW216296   3.268   2.001   6.417
 5133SOL     OW16297   2.630   3.868   6.592
 5133SOL    HW116298   2.595   3.958   6.567
 5133SOL    HW216299   2.713   3.879   6.646
 5134SOL     OW16300   5.578   6.039   1.781
 5134SOL    HW116301   5.500   6.099   1.801
 5134SOL    HW216302   5.638   6.083   1.715
 5135SOL     OW16303   1.529   2.930   2.539
 5135SOL    HW116304   1.463   2.941   2.465
 5135SOL    HW216305   1.615   2.973   2.514
 5136SOL     OW16306   6.806   0.601   5.245
 5136SOL    HW116307   6.760   0.684   5.274
 5136SOL    HW216308   6.793   0.588   5.146
 5137SOL     OW16309   5.178   0.751   3.236
 5137SOL    HW116310   5.086   0.771   3.204
 5137SOL    HW216311   5.191   0.791   3.327
 5138SOL     OW16312   3.747   3.657   2.974
 5138SOL    HW116313   3.791   3.668   2.885
 5138SOL    HW216314   3.751   3.561   3.002
 5139SOL     OW16315   5.402   0.588   4.927
 5139SOL    HW116316   5.368   0.513   4.984
 5139SOL    HW216317   5.473   0.554   4.866
 5140SOL     OW16318   2.847   3.331   5.310
 5140SOL    HW116319   2.758   3.327   5.354
 5140SOL    HW216320   2.852   3.412   5.251
 5141SOL     OW16321   0.398   2.343   1.484
 5141SOL    HW116322   0.443   2.324   1.397
 5141SOL    HW216323   0.444   2.292   1.557
 5142SOL     OW16324   0.352   6.687   3.280
 5142SOL    HW116325   0.444   6.678   3.242
 5142SOL    HW216326   0.358   6.707   3.378
 5143SOL     OW16327   5.889   5.464   2.403
 5143SOL    HW116328   5.805   5.518   2.412
 5143SOL    HW216329   5.869   5.380   2.352
 5144SOL     OW16330   1.770   2.602   4.864
 5144SOL    HW116331   1.803   2.670   4.798
 5144SOL    HW216332   1.799   2.510   4.835
 5145SOL     OW16333   0.914   4.950   6.445
 5145SOL    HW116334   0.994   4.915   6.398
 5145SOL    HW216335   0.941   5.022   6.509
 5146SOL     OW16336   5.421   5.709   6.758
 5146SOL    HW116337   5.405   5.611   6.768
 5146SOL    HW216338   5.483   5.725   6.681
 5147SOL     OW16339   3.826   1.101   3.336
 5147SOL    HW116340   3.797   1.061   3.250
 5147SOL    HW216341   3.758   1.168   3.366
 5148SOL     OW16342   6.342   1.334   0.694
 5148SOL    HW116343   6.339   1.422   0.646
 5148SOL    HW216344   6.253   1.314   0.733
 5149SOL     OW16345   2.789   6.537   3.641
 5149SOL    HW116346   2.750   6.446   3.627
 5149SOL    HW216347   2.752   6.600   3.573
 5150SOL     OW16348   6.619   0.962   4.901
 5150SOL    HW116349   6.551   0.905   4.855
 5150SOL    HW216350   6.584   1.054   4.912
 5151SOL     OW16351   5.205   5.079   2.068
 5151SOL    HW116352   5.140   5.107   1.998
 5151SOL    HW216353   5.279   5.147   2.073
 5152SOL     OW16354   2.013   1.106   0.560
 5152SOL    HW116355   1.976   1.190   0.599
 5152SOL    HW216356   1.979   1.094   0.467
 5153SOL     OW16357   1.998   1.894   6.766
 5153SOL    HW116358   2.066   1.837   6.812
 5153SOL    HW216359   2.025   1.990   6.772
 5154SOL     OW16360   0.934   3.073   6.575
 5154SOL    HW116361   0.960   3.170   6.567
 5154SOL    HW216362   0.989   3.030   6.646
 5155SOL     OW16363   1.287   0.536   0.291
 5155SOL    HW116364   1.272   0.462   0.225
 5155SOL    HW216365   1.379   0.529   0.329
 5156SOL     OW16366   5.406   3.508   5.585
 5156SOL    HW116367   5.436   3.418   5.554
 5156SOL    HW216368   5.313   3.502   5.621
 5157SOL     OW16369   3.301   0.487   2.661
 5157SOL    HW116370   3.365   0.448   2.594
 5157SOL    HW216371   3.238   0.415   2.690
 5158SOL     OW16372   0.954   2.613   1.731
 5158SOL    HW116373   0.961   2.707   1.764
 5158SOL    HW216374   1.040   2.564   1.751
 5159SOL     OW16375   6.569   3.176   5.977
 5159SOL    HW116376   6.649   3.237   5.984
 5159SOL    HW216377   6.566   3.117   6.058
 5160SOL     OW16378   5.723   0.589   3.138
 5160SOL    HW116379   5.681   0.624   3.053
 5160SOL    HW216380   5.794   0.653   3.168
 5161SOL     OW16381   1.310   1.561   6.887
 5161SOL    HW116382   1.290   1.616   6.969
 5161SOL    HW216383   1.354   1.618   6.818
 5162SOL     OW16384   0.488   0.773   6.313
 5162SOL    HW116385   0.532   0.783   6.224
 5162SOL    HW216386   0.422   0.847   6.326
 5163SOL     OW16387   3.843   1.546   1.458
 5163SOL    HW116388   3.821   1.641   1.477
 5163SOL    HW216389   3.764   1.488   1.478
 5164SOL     OW16390   2.255   2.595   0.037
 5164SOL    HW116391   2.200   2.530   7.012
 5164SOL    HW216392   2.234   2.587   0.135
 5165SOL     OW16393   1.090   5.511   5.226
 5165SOL    HW116394   1.056   5.446   5.295
 5165SOL    HW216395   1.116   5.461   5.144
 5166SOL     OW16396   6.537   5.913   6.184
 5166SOL    HW116397   6.520   5.814   6.192
 5166SOL    HW216398   6.549   5.937   6.088
 5167SOL     OW16399   6.133   3.175   6.289
 5167SOL    HW116400   6.220   3.223   6.282
 5167SOL    HW216401   6.059   3.233   6.255
 5168SOL     OW16402   6.047   1.061   4.134
 5168SOL    HW116403   6.020   1.043   4.229
 5168SOL    HW216404   6.055   0.974   4.085
 5169SOL     OW16405   4.944   6.093   4.501
 5169SOL    HW116406   4.950   6.148   4.585
 5169SOL    HW216407   5.000   6.012   4.510
 5170SOL     OW16408   2.517   2.809   6.216
 5170SOL    HW116409   2.601   2.808   6.270
 5170SOL    HW216410   2.520   2.735   6.148
 5171SOL     OW16411   1.148   6.962   6.135
 5171SOL    HW116412   1.244   6.973   6.112
 5171SOL    HW216413   1.092   6.990   6.056
 5172SOL     OW16414   4.632   5.404   5.961
 5172SOL    HW116415   4.548   5.459   5.957
 5172SOL    HW216416   4.700   5.444   5.900
 5173SOL     OW16417   4.477   6.468   4.293
 5173SOL    HW116418   4.463   6.535   4.220
 5173SOL    HW216419   4.500   6.379   4.252
 5174SOL     OW16420   0.671   5.592   4.079
 5174SOL    HW116421   0.678   5.662   4.150
 5174SOL    HW216422   0.736   5.518   4.099
 5175SOL     OW16423   2.874   2.153   6.406
 5175SOL    HW116424   2.889   2.251   6.391
 5175SOL    HW216425   2.880   2.105   6.319
 5176SOL     OW16426   5.654   6.187   5.865
 5176SOL    HW116427   5.562   6.168   5.899
 5176SOL    HW216428   5.665   6.286   5.853
 5177SOL     OW16429   4.443   5.032   1.078
 5177SOL    HW116430   4.438   5.083   0.993
 5177SOL    HW216431   4.354   5.034   1.124
 5178SOL     OW16432   0.717   3.785   1.608
 5178SOL    HW116433   0.639   3.803   1.668
 5178SOL    HW216434   0.708   3.693   1.568
 5179SOL     OW16435   4.383   5.952   2.864
 5179SOL    HW116436   4.410   5.987   2.775
 5179SOL    HW216437   4.465   5.928   2.917
 5180SOL     OW16438   3.210   5.149   2.690
 5180SOL    HW116439   3.118   5.108   2.693
 5180SOL    HW216440   3.202   5.248   2.686
 5181SOL     OW16441   6.923   1.516   5.431
 5181SOL    HW116442   6.827   1.488   5.420
 5181SOL    HW216443   6.928   1.615   5.440
 5182SOL     OW16444   1.990   6.422   2.027
 5182SOL    HW116445   2.056   6.497   2.029
 5182SOL    HW216446   1.999   6.368   2.110
 5183SOL     OW16447   5.108   2.138   3.862
 5183SOL    HW116448   5.027   2.185   3.894
 5183SOL    HW216449   5.082   2.060   3.805
 5184SOL     OW16450   3.381   1.002   1.659
 5184SOL    HW116451   3.459   1.059   1.685
 5184SOL    HW216452   3.296   1.049   1.684
 5185SOL     OW16453   6.432   0.630   1.021
 5185SOL    HW116454   6.422   0.710   0.963
 5185SOL    HW216455   6.341   0.594   1.045
 5186SOL     OW16456   6.810   2.470   6.425
 5186SOL    HW116457   6.886   2.533   6.406
 5186SOL    HW216458   6.840   2.398   6.487
 5187SOL     OW16459   1.029   4.472   4.896
 5187SOL    HW116460   0.963   4.491   4.969
 5187SOL    HW216461   1.113   4.434   4.936
 5188SOL     OW16462   6.629   0.964   1.475
 5188SOL    HW116463   6.592   0.895   1.413
 5188SOL    HW216464   6.569   0.971   1.555
 5189SOL     OW16465   5.740   6.096   6.424
 5189SOL    HW116466   5.702   6.016   6.469
 5189SOL    HW216467   5.735   6.084   6.325
 5190SOL     OW16468   1.678   4.963   1.075
 5190SOL    HW116469   1.610   4.954   1.148
 5190SOL    HW216470   1.636   4.940   0.987
 5191SOL     OW16471   3.328   4.027   1.140
 5191SOL    HW116472   3.281   4.116   1.139
 5191SOL    HW216473   3.293   3.971   1.215
 5192SOL     OW16474   0.699   4.425   2.626
 5192SOL    HW116475   0.674   4.381   2.540
 5192SOL    HW216476   0.692   4.358   2.700
 5193SOL     OW16477   4.122   0.563   5.109
 5193SOL    HW116478   4.121   0.463   5.098
 5193SOL    HW216479   4.217   0.594   5.116
 5194SOL     OW16480   3.892   1.698   5.189
 5194SOL    HW116481   3.873   1.607   5.150
 5194SOL    HW216482   3.990   1.707   5.205
 5195SOL     OW16483   1.934   1.347   4.988
 5195SOL    HW116484   1.996   1.425   4.989
 5195SOL    HW216485   1.971   1.276   4.928
 5196SOL     OW16486   6.268   6.193   2.810
 5196SOL    HW116487   6.354   6.152   2.781
 5196SOL    HW216488   6.230   6.247   2.735
 5197SOL     OW16489   2.357   3.612   5.699
 5197SOL    HW116490   2.438   3.669   5.685
 5197SOL    HW216491   2.328   3.573   5.611
 5198SOL     OW16492   6.626   5.564   3.893
 5198SOL    HW116493   6.695   5.563   3.966
 5198SOL    HW216494   6.644   5.490   3.829
 5199SOL     OW16495   0.532   5.132   1.270
 5199SOL    HW116496   0.597   5.178   1.210
 5199SOL    HW216497   0.548   5.160   1.365
 5200SOL     OW16498   0.355   4.414   6.001
 5200SOL    HW116499   0.336   4.500   6.049
 5200SOL    HW216500   0.424   4.362   6.052
 5201SOL     OW16501   0.849   5.607   4.673
 5201SOL    HW116502   0.889   5.522   4.638
 5201SOL    HW216503   0.820   5.664   4.597
 5202SOL     OW16504   0.223   4.921   1.472
 5202SOL    HW116505   0.303   4.946   1.527
 5202SOL    HW216506   0.217   4.980   1.392
 5203SOL     OW16507   6.648   3.557   6.899
 5203SOL    HW116508   6.573   3.622   6.883
 5203SOL    HW216509   6.647   3.527   6.995
 5204SOL     OW16510   5.495   5.274   6.273
 5204SOL    HW116511   5.511   5.352   6.334
 5204SOL    HW216512   5.504   5.189   6.325
 5205SOL     OW16513   2.936   5.897   0.577
 5205SOL    HW116514   3.013   5.838   0.601
 5205SOL    HW216515   2.952   5.938   0.487
 5206SOL     OW16516   0.293   4.036   4.771
 5206SOL    HW116517   0.358   4.073   4.837
 5206SOL    HW216518   0.231   3.973   4.818
 5207SOL     OW16519   1.738   6.486   1.931
 5207SOL    HW116520   1.738   6.514   1.835
 5207SOL    HW216521   1.832   6.472   1.961
 5208SOL     OW16522   4.368   2.122   0.834
 5208SOL    HW116523   4.372   2.153   0.929
 5208SOL    HW216524   4.454   2.143   0.788
 5209SOL     OW16525   6.113   5.675   3.221
 5209SOL    HW116526   6.102   5.763   3.174
 5209SOL    HW216527   6.184   5.683   3.291
 5210SOL     OW16528   4.914   3.516   3.462
 5210SOL    HW116529   4.904   3.544   3.366
 5210SOL    HW216530   4.955   3.425   3.466
 5211SOL     OW16531   2.999   4.297   1.702
 5211SOL    HW116532   2.962   4.381   1.742
 5211SOL    HW216533   3.086   4.275   1.747
 5212SOL     OW16534   6.902   6.692   6.538
 5212SOL    HW116535   6.983   6.732   6.581
 5212SOL    HW216536   6.878   6.607   6.585
 5213SOL     OW16537   4.154   1.728   0.085
 5213SOL    HW116538   4.215   1.656   0.051
 5213SOL    HW216539   4.110   1.774   0.008
 5214SOL     OW16540   4.300   1.972   0.230
 5214SOL    HW116541   4.272   1.881   0.200
 5214SOL    HW216542   4.379   2.002   0.178
 5215SOL     OW16543   6.123   5.971   4.543
 5215SOL    HW116544   6.053   5.902   4.522
 5215SOL    HW216545   6.209   5.925   4.565
 5216SOL     OW16546   2.851   6.588   0.876
 5216SOL    HW116547   2.875   6.491   0.881
 5216SOL    HW216548   2.835   6.613   0.780
 5217SOL     OW16549   2.958   5.463   3.386
 5217SOL    HW116550   3.043   5.472   3.335
 5217SOL    HW216551   2.978   5.430   3.479
 5218SOL     OW16552   1.151   0.628   3.572
 5218SOL    HW116553   1.077   0.694   3.559
 5218SOL    HW216554   1.149   0.561   3.497
 5219SOL     OW16555   3.070   6.610   1.067
 5219SOL    HW116556   3.067   6.708   1.087
 5219SOL    HW216557   2.988   6.584   1.016
 5220SOL     OW16558   1.061   0.033   1.822
 5220SOL    HW116559   1.022   0.105   1.879
 5220SOL    HW216560   1.124   7.004   1.878
 5221SOL     OW16561   4.937   1.182   0.390
 5221SOL    HW116562   4.971   1.219   0.476
 5221SOL    HW216563   4.964   1.086   0.383
 5222SOL     OW16564   6.513   5.046   2.294
 5222SOL    HW116565   6.472   5.018   2.206
 5222SOL    HW216566   6.451   5.021   2.368
 5223SOL     OW16567   3.757   6.368   1.363
 5223SOL    HW116568   3.685   6.431   1.394
 5223SOL    HW216569   3.813   6.413   1.293
 5224SOL     OW16570   5.316   0.286   3.252
 5224SOL    HW116571   5.357   0.374   3.276
 5224SOL    HW216572   5.389   0.220   3.233
 5225SOL     OW16573   0.354   0.295   5.564
 5225SOL    HW116574   0.268   0.270   5.519
 5225SOL    HW216575   0.406   0.212   5.582
 5226SOL     OW16576   2.584   0.617   3.309
 5226SOL    HW116577   2.511   0.584   3.369
 5226SOL    HW216578   2.602   0.713   3.328
 5227SOL     OW16579   5.527   3.960   4.438
 5227SOL    HW116580   5.460   3.890   4.416
 5227SOL    HW216581   5.617   3.931   4.408
 5228SOL     OW16582   5.247   0.301   2.287
 5228SOL    HW116583   5.345   0.295   2.309
 5228SOL    HW216584   5.194   0.305   2.372
 5229SOL     OW16585   0.573   3.860   4.097
 5229SOL    HW116586   0.669   3.886   4.089
 5229SOL    HW216587   0.550   3.846   4.193
 5230SOL     OW16588   0.891   1.823   6.491
 5230SOL    HW116589   0.886   1.922   6.481
 5230SOL    HW216590   0.980   1.791   6.459
 5231SOL     OW16591   3.018   3.811   3.295
 5231SOL    HW116592   3.024   3.899   3.341
 5231SOL    HW216593   3.041   3.821   3.199
 5232SOL     OW16594   5.553   2.810   4.967
 5232SOL    HW116595   5.552   2.765   4.877
 5232SOL    HW216596   5.490   2.764   5.029
 5233SOL     OW16597   0.569   6.725   2.401
 5233SOL    HW116598   0.582   6.761   2.493
 5233SOL    HW216599   0.492   6.661   2.401
 5234SOL     OW16600   3.479   3.889   1.782
 5234SOL    HW116601   3.563   3.847   1.748
 5234SOL    HW216602   3.502   3.976   1.828
 5235SOL     OW16603   0.817   1.699   1.828
 5235SOL    HW116604   0.815   1.620   1.767
 5235SOL    HW216605   0.880   1.680   1.904
 5236SOL     OW16606   6.732   2.978   1.413
 5236SOL    HW116607   6.786   2.901   1.447
 5236SOL    HW216608   6.636   2.966   1.437
 5237SOL     OW16609   2.016   2.338   2.665
 5237SOL    HW116610   2.056   2.246   2.664
 5237SOL    HW216611   2.076   2.399   2.716
 5238SOL     OW16612   1.605   3.470   1.626
 5238SOL    HW116613   1.658   3.513   1.699
 5238SOL    HW216614   1.659   3.468   1.542
 5239SOL     OW16615   3.262   3.262   5.040
 5239SOL    HW116616   3.324   3.195   5.084
 5239SOL    HW216617   3.195   3.213   4.985
 5240SOL     OW16618   4.317   2.325   3.900
 5240SOL    HW116619   4.232   2.276   3.880
 5240SOL    HW216620   4.311   2.418   3.865
 5241SOL     OW16621   4.664   6.165   5.379
 5241SOL    HW116622   4.732   6.095   5.357
 5241SOL    HW216623   4.665   6.236   5.308
 5242SOL     OW16624   2.751   0.824   6.524
 5242SOL    HW116625   2.662   0.864   6.549
 5242SOL    HW216626   2.745   0.785   6.432
 5243SOL     OW16627   2.264   3.642   6.886
 5243SOL    HW116628   2.271   3.626   6.984
 5243SOL    HW216629   2.240   3.556   6.840
 5244SOL     OW16630   6.297   3.110   6.631
 5244SOL    HW116631   6.327   3.115   6.536
 5244SOL    HW216632   6.258   3.198   6.658
 5245SOL     OW16633   3.885   4.811   6.161
 5245SOL    HW116634   3.821   4.739   6.189
 5245SOL    HW216635   3.884   4.818   6.061
 5246SOL     OW16636   1.420   3.864   3.626
 5246SOL    HW116637   1.359   3.877   3.704
 5246SOL    HW216638   1.414   3.769   3.595
 5247SOL     OW16639   0.795   4.185   6.636
 5247SOL    HW116640   0.888   4.220   6.644
 5247SOL    HW216641   0.742   4.210   6.717
 5248SOL     OW16642   5.145   2.147   0.288
 5248SOL    HW116643   5.100   2.190   0.209
 5248SOL    HW216644   5.088   2.072   0.321
 5249SOL     OW16645   0.973   5.171   6.658
 5249SOL    HW116646   0.939   5.179   6.752
 5249SOL    HW216647   0.939   5.247   6.603
 5250SOL     OW16648   2.064   1.302   5.227
 5250SOL    HW116649   2.008   1.313   5.145
 5250SOL    HW216650   2.095   1.207   5.233
 5251SOL     OW16651   0.955   2.509   2.273
 5251SOL    HW116652   1.002   2.480   2.356
 5251SOL    HW216653   0.988   2.454   2.196
 5252SOL     OW16654   5.801   5.514   1.352
 5252SOL    HW116655   5.883   5.490   1.404
 5252SOL    HW216656   5.722   5.466   1.391
 5253SOL     OW16657   5.828   2.974   4.637
 5253SOL    HW116658   5.893   3.043   4.669
 5253SOL    HW216659   5.736   2.996   4.672
 5254SOL     OW16660   5.420   0.289   4.898
 5254SOL    HW116661   5.353   0.327   4.835
 5254SOL    HW216662   5.468   0.213   4.854
 5255SOL     OW16663   2.223   5.341   2.040
 5255SOL    HW116664   2.146   5.334   1.977
 5255SOL    HW216665   2.293   5.274   2.016
 5256SOL     OW16666   4.522   5.967   1.809
 5256SOL    HW116667   4.529   5.868   1.826
 5256SOL    HW216668   4.518   6.015   1.896
 5257SOL     OW16669   2.179   1.189   1.924
 5257SOL    HW116670   2.180   1.208   1.825
 5257SOL    HW216671   2.125   1.259   1.970
 5258SOL     OW16672   5.104   2.233   1.535
 5258SOL    HW116673   5.093   2.333   1.535
 5258SOL    HW216674   5.021   2.191   1.572
 5259SOL     OW16675   5.274   5.065   1.039
 5259SOL    HW116676   5.224   5.151   1.024
 5259SOL    HW216677   5.339   5.051   0.964
 5260SOL     OW16678   5.393   3.155   1.987
 5260SOL    HW116679   5.460   3.228   1.991
 5260SOL    HW216680   5.422   3.079   2.046
 5261SOL     OW16681   2.345   2.810   4.743
 5261SOL    HW116682   2.410   2.841   4.812
 5261SOL    HW216683   2.285   2.741   4.783
 5262SOL     OW16684   0.898   0.541   2.240
 5262SOL    HW116685   0.925   0.561   2.146
 5262SOL    HW216686   0.805   0.576   2.256
 5263SOL     OW16687   1.188   6.403   6.251
 5263SOL    HW116688   1.113   6.365   6.305
 5263SOL    HW216689   1.201   6.348   6.168
 5264SOL     OW16690   1.332   1.230   0.748
 5264SOL    HW116691   1.306   1.137   0.724
 5264SOL    HW216692   1.314   1.291   0.670
 5265SOL     OW16693   4.904   5.467   4.028
 5265SOL    HW116694   4.898   5.479   4.127
 5265SOL    HW216695   4.812   5.468   3.988
 5266SOL     OW16696   0.548   6.670   0.910
 5266SOL    HW116697   0.582   6.756   0.872
 5266SOL    HW216698   0.497   6.688   0.994
 5267SOL     OW16699   3.542   3.513   4.495
 5267SOL    HW116700   3.531   3.443   4.425
 5267SOL    HW216701   3.616   3.488   4.557
 5268SOL     OW16702   5.966   4.446   6.837
 5268SOL    HW116703   5.917   4.419   6.920
 5268SOL    HW216704   5.902   4.450   6.761
 5269SOL     OW16705   2.595   5.302   5.341
 5269SOL    HW116706   2.592   5.203   5.327
 5269SOL    HW216707   2.689   5.335   5.331
 5270SOL     OW16708   7.011   1.107   3.260
 5270SOL    HW116709   0.081   1.124   3.243
 5270SOL    HW216710   6.988   1.133   3.353
 5271SOL     OW16711   6.178   3.507   4.903
 5271SOL    HW116712   6.086   3.474   4.924
 5271SOL    HW216713   6.183   3.533   4.807
 5272SOL     OW16714   2.429   2.574   3.701
 5272SOL    HW116715   2.478   2.624   3.630
 5272SOL    HW216716   2.334   2.605   3.705
 5273SOL     OW16717   0.160   1.579   5.380
 5273SOL    HW116718   0.211   1.550   5.461
 5273SOL    HW216719   0.063   1.559   5.393
 5274SOL     OW16720   0.309   4.837   4.874
 5274SOL    HW116721   0.344   4.743   4.877
 5274SOL    HW216722   0.385   4.900   4.857
 5275SOL     OW16723   2.454   6.426   6.597
 5275SOL    HW116724   2.433   6.448   6.502
 5275SOL    HW216725   2.401   6.346   6.625
 5276SOL     OW16726   7.014   1.341   6.663
 5276SOL    HW116727   0.085   1.359   6.673
 5276SOL    HW216728   6.984   1.369   6.571
 5277SOL     OW16729   0.940   0.536   1.344
 5277SOL    HW116730   1.007   0.609   1.338
 5277SOL    HW216731   0.972   0.456   1.293
 5278SOL     OW16732   0.447   4.827   0.038
 5278SOL    HW116733   0.479   4.735   0.058
 5278SOL    HW216734   0.370   4.822   7.001
 5279SOL     OW16735   2.744   6.706   0.179
 5279SOL    HW116736   2.710   6.800   0.192
 5279SOL    HW216737   2.705   6.668   0.095
 5280SOL     OW16738   4.277   6.212   6.150
 5280SOL    HW116739   4.276   6.163   6.063
 5280SOL    HW216740   4.352   6.278   6.151
 5281SOL     OW16741   2.109   6.372   4.526
 5281SOL    HW116742   2.151   6.391   4.437
 5281SOL    HW216743   2.125   6.277   4.551
 5282SOL     OW16744   6.519   6.215   1.052
 5282SOL    HW116745   6.499   6.302   1.096
 5282SOL    HW216746   6.564   6.154   1.118
 5283SOL     OW16747   1.751   0.306   4.185
 5283SOL    HW116748   1.732   0.287   4.089
 5283SOL    HW216749   1.667   0.333   4.231
 5284SOL     OW16750   4.930   3.513   2.107
 5284SOL    HW116751   4.900   3.431   2.057
 5284SOL    HW216752   5.017   3.545   2.068
 5285SOL     OW16753   2.434   1.724   4.000
 5285SOL    HW116754   2.471   1.793   4.063
 5285SOL    HW216755   2.420   1.766   3.910
 5286SOL     OW16756   0.034   3.041   1.905
 5286SOL    HW116757   0.041   2.959   1.849
 5286SOL    HW216758   0.009   3.016   1.999
 5287SOL     OW16759   0.173   5.668   1.958
 5287SOL    HW116760   0.098   5.673   1.891
 5287SOL    HW216761   0.198   5.760   1.987
 5288SOL     OW16762   4.301   0.717   2.274
 5288SOL    HW116763   4.257   0.699   2.186
 5288SOL    HW216764   4.400   0.725   2.260
 5289SOL     OW16765   1.674   5.543   6.714
 5289SOL    HW116766   1.646   5.466   6.657
 5289SOL    HW216767   1.593   5.588   6.752
 5290SOL     OW16768   2.300   2.144   5.280
 5290SOL    HW116769   2.289   2.209   5.355
 5290SOL    HW216770   2.310   2.195   5.194
 5291SOL     OW16771   2.864   6.547   4.840
 5291SOL    HW116772   2.914   6.591   4.915
 5291SOL    HW216773   2.766   6.563   4.853
 5292SOL     OW16774   0.850   3.906   4.159
 5292SOL    HW116775   0.841   4.001   4.186
 5292SOL    HW216776   0.945   3.887   4.134
 5293SOL     OW16777   2.542   0.400   3.594
 5293SOL    HW116778   2.515   0.492   3.565
 5293SOL    HW216779   2.472   0.362   3.654
 5294SOL     OW16780   5.067   0.276   4.502
 5294SOL    HW116781   5.118   0.215   4.563
 5294SOL    HW216782   5.108   0.272   4.411
 5295SOL     OW16783   2.205   0.586   0.708
 5295SOL    HW116784   2.153   0.671   0.705
 5295SOL    HW216785   2.247   0.569   0.619
 5296SOL     OW16786   5.038   5.151   1.864
 5296SOL    HW116787   4.968   5.217   1.891
 5296SOL    HW216788   4.994   5.071   1.822
 5297SOL     OW16789   3.920   5.109   5.656
 5297SOL    HW116790   3.877   5.179   5.712
 5297SOL    HW216791   3.856   5.032   5.645
 5298SOL     OW16792   3.269   0.747   6.529
 5298SOL    HW116793   3.322   0.812   6.584
 5298SOL    HW216794   3.174   0.748   6.559
 5299SOL     OW16795   1.341   0.489   1.350
 5299SOL    HW116796   1.422   0.525   1.303
 5299SOL    HW216797   1.356   0.393   1.374
 5300SOL     OW16798   2.999   4.540   6.378
 5300SOL    HW116799   3.055   4.621   6.358
 5300SOL    HW216800   2.907   4.554   6.343
 5301SOL     OW16801   5.760   0.517   5.646
 5301SOL    HW116802   5.713   0.497   5.560
 5301SOL    HW216803   5.781   0.615   5.650
 5302SOL     OW16804   4.733   5.810   3.405
 5302SOL    HW116805   4.779   5.881   3.351
 5302SOL    HW216806   4.769   5.811   3.498
 5303SOL     OW16807   1.791   6.230   5.490
 5303SOL    HW116808   1.711   6.275   5.531
 5303SOL    HW216809   1.790   6.245   5.391
 5304SOL     OW16810   0.210   0.175   2.842
 5304SOL    HW116811   0.276   0.131   2.780
 5304SOL    HW216812   0.120   0.175   2.799
 5305SOL     OW16813   6.035   5.376   5.049
 5305SOL    HW116814   6.112   5.427   5.087
 5305SOL    HW216815   5.956   5.385   5.109
 5306SOL     OW16816   1.288   1.755   0.071
 5306SOL    HW116817   1.356   1.815   0.030
 5306SOL    HW216818   1.197   1.782   0.041
 5307SOL     OW16819   1.314   1.354   1.750
 5307SOL    HW116820   1.290   1.336   1.846
 5307SOL    HW216821   1.376   1.282   1.717
 5308SOL     OW16822   1.903   4.608   3.646
 5308SOL    HW116823   1.858   4.573   3.728
 5308SOL    HW216824   2.000   4.626   3.666
 5309SOL     OW16825   6.106   6.201   2.481
 5309SOL    HW116826   6.109   6.172   2.385
 5309SOL    HW216827   6.197   6.230   2.509
 5310SOL     OW16828   6.013   1.952   3.879
 5310SOL    HW116829   6.086   1.928   3.814
 5310SOL    HW216830   5.961   1.870   3.901
 5311SOL     OW16831   6.103   0.219   6.967
 5311SOL    HW116832   6.030   0.221   0.008
 5311SOL    HW216833   6.123   0.312   6.936
 5312SOL     OW16834   5.123   6.338   0.846
 5312SOL    HW116835   5.194   6.389   0.797
 5312SOL    HW216836   5.132   6.355   0.944
 5313SOL     OW16837   0.760   6.666   5.870
 5313SOL    HW116838   0.805   6.687   5.783
 5313SOL    HW216839   0.706   6.582   5.860
 5314SOL     OW16840   5.721   1.757   2.760
 5314SOL    HW116841   5.754   1.674   2.717
 5314SOL    HW216842   5.684   1.819   2.691
 5315SOL     OW16843   4.281   1.317   3.380
 5315SOL    HW116844   4.326   1.350   3.463
 5315SOL    HW216845   4.345   1.260   3.328
 5316SOL     OW16846   0.346   2.690   5.768
 5316SOL    HW116847   0.362   2.596   5.797
 5316SOL    HW216848   0.315   2.690   5.673
 5317SOL     OW16849   5.464   2.924   2.155
 5317SOL    HW116850   5.373   2.885   2.168
 5317SOL    HW216851   5.521   2.858   2.105
 5318SOL     OW16852   0.061   4.584   6.416
 5318SOL    HW116853   0.159   4.603   6.411
 5318SOL    HW216854   0.024   4.575   6.323
 5319SOL     OW16855   4.061   5.730   2.285
 5319SOL    HW116856   4.048   5.722   2.186
 5319SOL    HW216857   4.004   5.804   2.320
 5320SOL     OW16858   4.434   6.016   0.630
 5320SOL    HW116859   4.338   5.996   0.611
 5320SOL    HW216860   4.491   5.946   0.587
 5321SOL     OW16861   1.352   4.142   5.261
 5321SOL    HW116862   1.406   4.061   5.286
 5321SOL    HW216863   1.399   4.192   5.188
 5322SOL     OW16864   4.171   5.757   1.775
 5322SOL    HW116865   4.230   5.679   1.798
 5322SOL    HW216866   4.170   5.770   1.675
 5323SOL     OW16867   4.563   0.026   6.426
 5323SOL    HW116868   4.485   0.012   6.364
 5323SOL    HW216869   4.529   0.051   6.517
 5324SOL     OW16870   0.888   1.072   1.769
 5324SOL    HW116871   0.957   1.060   1.698
 5324SOL    HW216872   0.878   1.169   1.791
 5325SOL     OW16873   1.885   3.075   4.110
 5325SOL    HW116874   1.831   3.098   4.029
 5325SOL    HW216875   1.845   2.995   4.155
 5326SOL     OW16876   6.164   0.450   0.996
 5326SOL    HW116877   6.179   0.539   1.038
 5326SOL    HW216878   6.089   0.403   1.044
 5327SOL     OW16879   0.509   2.043   6.420
 5327SOL    HW116880   0.427   2.096   6.441
 5327SOL    HW216881   0.563   2.091   6.350
 5328SOL     OW16882   4.188   5.319   0.391
 5328SOL    HW116883   4.090   5.328   0.372
 5328SOL    HW216884   4.236   5.397   0.351
 5329SOL     OW16885   2.344   5.915   6.326
 5329SOL    HW116886   2.397   5.971   6.389
 5329SOL    HW216887   2.334   5.823   6.362
 5330SOL     OW16888   2.516   5.325   0.521
 5330SOL    HW116889   2.515   5.371   0.609
 5330SOL    HW216890   2.609   5.326   0.484
 5331SOL     OW16891   5.847   1.534   6.864
 5331SOL    HW116892   5.870   1.500   6.772
 5331SOL    HW216893   5.928   1.528   6.922
 5332SOL     OW16894   0.681   4.954   2.667
 5332SOL    HW116895   0.701   4.881   2.602
 5332SOL    HW216896   0.716   4.928   2.757
 5333SOL     OW16897   0.754   6.215   4.496
 5333SOL    HW116898   0.837   6.249   4.540
 5333SOL    HW216899   0.689   6.185   4.566
 5334SOL     OW16900   3.098   0.012   5.349
 5334SOL    HW116901   3.094   0.002   5.249
 5334SOL    HW216902   3.099   6.948   5.391
 5335SOL     OW16903   5.938   6.594   0.687
 5335SOL    HW116904   5.919   6.575   0.590
 5335SOL    HW216905   5.892   6.678   0.714
 5336SOL     OW16906   0.787   3.696   1.871
 5336SOL    HW116907   0.714   3.681   1.938
 5336SOL    HW216908   0.788   3.620   1.806
 5337SOL     OW16909   5.189   4.849   1.530
 5337SOL    HW116910   5.248   4.927   1.551
 5337SOL    HW216911   5.155   4.858   1.436
 5338SOL     OW16912   5.583   2.738   0.557
 5338SOL    HW116913   5.496   2.766   0.597
 5338SOL    HW216914   5.566   2.684   0.475
 5339SOL     OW16915   6.016   0.914   2.325
 5339SOL    HW116916   6.082   0.904   2.399
 5339SOL    HW216917   6.008   0.827   2.276
 5340SOL     OW16918   5.535   2.168   0.291
 5340SOL    HW116919   5.602   2.241   0.301
 5340SOL    HW216920   5.445   2.208   0.271
 5341SOL     OW16921   4.594   0.399   1.409
 5341SOL    HW116922   4.692   0.391   1.387
 5341SOL    HW216923   4.546   0.442   1.333
 5342SOL     OW16924   1.776   0.298   5.545
 5342SOL    HW116925   1.750   0.292   5.448
 5342SOL    HW216926   1.874   0.278   5.554
 5343SOL     OW16927   3.248   3.868   1.333
 5343SOL    HW116928   3.170   3.927   1.353
 5343SOL    HW216929   3.216   3.776   1.314
 5344SOL     OW16930   1.865   3.054   3.024
 5344SOL    HW116931   1.895   2.984   3.089
 5344SOL    HW216932   1.942   3.113   3.000
 5345SOL     OW16933   5.146   0.415   2.843
 5345SOL    HW116934   5.163   0.422   2.941
 5345SOL    HW216935   5.055   0.449   2.822
 5346SOL     OW16936   3.800   0.797   4.181
 5346SOL    HW116937   3.770   0.807   4.276
 5346SOL    HW216938   3.858   0.875   4.156
 5347SOL     OW16939   6.776   1.562   2.088
 5347SOL    HW116940   6.780   1.655   2.124
 5347SOL    HW216941   6.802   1.498   2.161
 5348SOL     OW16942   6.413   1.717   0.422
 5348SOL    HW116943   6.480   1.656   0.379
 5348SOL    HW216944   6.367   1.771   0.351
 5349SOL     OW16945   5.333   0.745   0.154
 5349SOL    HW116946   5.311   0.741   0.057
 5349SOL    HW216947   5.354   0.840   0.180
 5350SOL     OW16948   2.888   0.836   6.860
 5350SOL    HW116949   2.813   0.885   6.815
 5350SOL    HW216950   2.911   0.883   6.945
 5351SOL     OW16951   4.565   1.524   2.069
 5351SOL    HW116952   4.607   1.468   2.140
 5351SOL    HW216953   4.573   1.478   1.981
 5352SOL     OW16954   4.127   0.578   4.006
 5352SOL    HW116955   4.177   0.634   4.073
 5352SOL    HW216956   4.042   0.547   4.047
 5353SOL     OW16957   6.557   0.545   6.133
 5353SOL    HW116958   6.476   0.493   6.108
 5353SOL    HW216959   6.536   0.604   6.211
 5354SOL     OW16960   0.702   2.277   1.109
 5354SOL    HW116961   0.752   2.259   1.025
 5354SOL    HW216962   0.759   2.253   1.188
 5355SOL     OW16963   4.517   1.159   5.368
 5355SOL    HW116964   4.540   1.092   5.298
 5355SOL    HW216965   4.529   1.251   5.331
 5356SOL     OW16966   6.299   3.589   2.087
 5356SOL    HW116967   6.309   3.687   2.070
 5356SOL    HW216968   6.286   3.573   2.185
 5357SOL     OW16969   4.502   5.587   0.117
 5357SOL    HW116970   4.461   5.644   0.046
 5357SOL    HW216971   4.554   5.513   0.074
 5358SOL     OW16972   5.413   4.233   1.533
 5358SOL    HW116973   5.403   4.142   1.493
 5358SOL    HW216974   5.494   4.277   1.493
 5359SOL     OW16975   2.638   0.641   5.414
 5359SOL    HW116976   2.575   0.619   5.340
 5359SOL    HW216977   2.627   0.573   5.487
 5360SOL     OW16978   4.415   2.523   0.292
 5360SOL    HW116979   4.377   2.447   0.239
 5360SOL    HW216980   4.496   2.491   0.341
 5361SOL     OW16981   0.761   1.466   6.810
 5361SOL    HW116982   0.755   1.511   6.720
 5361SOL    HW216983   0.752   1.367   6.798
 5362SOL     OW16984   4.599   6.243   4.168
 5362SOL    HW116985   4.546   6.224   4.086
 5362SOL    HW216986   4.690   6.277   4.143
 5363SOL     OW16987   0.482   5.941   4.837
 5363SOL    HW116988   0.549   5.871   4.862
 5363SOL    HW216989   0.396   5.897   4.809
 5364SOL     OW16990   1.213   5.618   6.798
 5364SOL    HW116991   1.130   5.578   6.838
 5364SOL    HW216992   1.214   5.599   6.700
 5365SOL     OW16993   4.170   2.407   6.446
 5365SOL    HW116994   4.130   2.398   6.537
 5365SOL    HW216995   4.264   2.373   6.448
 5366SOL     OW16996   4.088   3.656   5.788
 5366SOL    HW116997   4.165   3.592   5.792
 5366SOL    HW216998   4.115   3.743   5.829
 5367SOL     OW16999   0.112   3.766   1.332
 5367SOL    HW117000   0.108   3.713   1.248
 5367SOL    HW217001   0.182   3.728   1.393
 5368SOL     OW17002   0.465   0.189   3.525
 5368SOL    HW117003   0.380   0.179   3.472
 5368SOL    HW217004   0.468   0.120   3.597
 5369SOL     OW17005   1.746   3.603   2.605
 5369SOL    HW117006   1.713   3.612   2.511
 5369SOL    HW217007   1.842   3.576   2.604
 5370SOL     OW17008   3.740   2.806   1.830
 5370SOL    HW117009   3.644   2.823   1.809
 5370SOL    HW217010   3.786   2.892   1.852
 5371SOL     OW17011   2.183   4.235   4.897
 5371SOL    HW117012   2.095   4.193   4.923
 5371SOL    HW217013   2.258   4.181   4.936
 5372SOL     OW17014   3.833   6.338   2.311
 5372SOL    HW117015   3.851   6.387   2.226
 5372SOL    HW217016   3.743   6.295   2.306
 5373SOL     OW17017   3.219   4.920   3.816
 5373SOL    HW117018   3.288   4.926   3.889
 5373SOL    HW217019   3.252   4.969   3.736
 5374SOL     OW17020   3.173   2.640   0.776
 5374SOL    HW117021   3.186   2.545   0.748
 5374SOL    HW217022   3.125   2.644   0.864
 5375SOL     OW17023   1.662   4.351   4.329
 5375SOL    HW117024   1.714   4.312   4.405
 5375SOL    HW217025   1.690   4.446   4.314
 5376SOL     OW17026   3.214   4.990   5.904
 5376SOL    HW117027   3.239   4.928   5.979
 5376SOL    HW217028   3.192   5.080   5.942
 5377SOL     OW17029   1.783   1.952   1.790
 5377SOL    HW117030   1.848   2.028   1.796
 5377SOL    HW217031   1.798   1.901   1.706
 5378SOL     OW17032   5.497   6.798   6.885
 5378SOL    HW117033   5.536   6.878   6.839
 5378SOL    HW217034   5.518   6.801   6.983
 5379SOL     OW17035   0.053   0.271   6.999
 5379SOL    HW117036   0.010   0.339   6.940
 5379SOL    HW217037   0.118   0.217   6.946
 5380SOL     OW17038   2.252   1.678   4.746
 5380SOL    HW117039   2.287   1.772   4.756
 5380SOL    HW217040   2.224   1.644   4.836
 5381SOL     OW17041   5.865   3.672   2.262
 5381SOL    HW117042   5.880   3.676   2.360
 5381SOL    HW217043   5.942   3.714   2.214
 5382SOL     OW17044   1.737   6.594   1.223
 5382SOL    HW117045   1.680   6.578   1.142
 5382SOL    HW217046   1.827   6.553   1.209
 5383SOL     OW17047   2.294   1.926   4.861
 5383SOL    HW117048   2.319   1.912   4.957
 5383SOL    HW217049   2.356   1.994   4.820
 5384SOL     OW17050   4.949   6.120   5.112
 5384SOL    HW117051   4.928   6.215   5.091
 5384SOL    HW217052   5.014   6.085   5.044
 5385SOL     OW17053   3.504   4.098   2.210
 5385SOL    HW117054   3.547   4.091   2.300
 5385SOL    HW217055   3.487   4.006   2.175
 5386SOL     OW17056   6.019   6.301   5.546
 5386SOL    HW117057   6.005   6.293   5.645
 5386SOL    HW217058   6.065   6.219   5.513
 5387SOL     OW17059   4.016   5.368   0.182
 5387SOL    HW117060   4.054   5.301   0.117
 5387SOL    HW217061   4.054   5.459   0.162
 5388SOL     OW17062   6.105   5.922   3.035
 5388SOL    HW117063   6.085   6.020   3.043
 5388SOL    HW217064   6.158   5.905   2.952
 5389SOL     OW17065   5.650   3.204   1.592
 5389SOL    HW117066   5.563   3.253   1.583
 5389SOL    HW217067   5.706   3.219   1.510
 5390SOL     OW17068   6.784   4.480   6.613
 5390SOL    HW117069   6.692   4.500   6.646
 5390SOL    HW217070   6.817   4.395   6.654
 5391SOL     OW17071   2.984   4.808   0.080
 5391SOL    HW117072   2.990   4.726   0.137
 5391SOL    HW217073   2.992   4.889   0.138
 5392SOL     OW17074   0.633   2.674   3.285
 5392SOL    HW117075   0.697   2.597   3.279
 5392SOL    HW217076   0.683   2.760   3.286
 5393SOL     OW17077   6.550   0.666   6.380
 5393SOL    HW117078   6.481   0.736   6.398
 5393SOL    HW217079   6.579   0.626   6.467
 5394SOL     OW17080   1.941   3.729   6.686
 5394SOL    HW117081   1.970   3.744   6.780
 5394SOL    HW217082   1.896   3.640   6.679
 5395SOL     OW17083   5.164   0.796   1.622
 5395SOL    HW117084   5.096   0.795   1.549
 5395SOL    HW217085   5.206   0.886   1.627
 5396SOL     OW17086   4.479   2.588   1.010
 5396SOL    HW117087   4.479   2.549   1.102
 5396SOL    HW217088   4.426   2.672   1.009
 5397SOL     OW17089   1.465   2.188   2.483
 5397SOL    HW117090   1.439   2.134   2.403
 5397SOL    HW217091   1.539   2.141   2.532
 5398SOL     OW17092   2.986   3.735   2.408
 5398SOL    HW117093   2.913   3.668   2.422
 5398SOL    HW217094   3.062   3.717   2.470
 5399SOL     OW17095   0.687   4.656   0.338
 5399SOL    HW117096   0.601   4.642   0.290
 5399SOL    HW217097   0.673   4.715   0.417
 5400SOL     OW17098   2.254   3.658   0.144
 5400SOL    HW117099   2.201   3.644   0.227
 5400SOL    HW217100   2.348   3.681   0.169
 5401SOL     OW17101   5.791   2.205   1.034
 5401SOL    HW117102   5.840   2.191   1.120
 5401SOL    HW217103   5.790   2.120   0.981
 5402SOL     OW17104   0.872   6.000   2.145
 5402SOL    HW117105   0.841   5.956   2.228
 5402SOL    HW217106   0.959   6.047   2.162
 5403SOL     OW17107   0.932   2.386   6.345
 5403SOL    HW117108   0.836   2.388   6.371
 5403SOL    HW217109   0.955   2.297   6.306
 5404SOL     OW17110   0.201   2.538   2.989
 5404SOL    HW117111   0.105   2.526   2.963
 5404SOL    HW217112   0.212   2.628   3.031
 5405SOL     OW17113   6.473   4.109   4.643
 5405SOL    HW117114   6.458   4.205   4.665
 5405SOL    HW217115   6.479   4.056   4.728
 5406SOL     OW17116   1.864   6.688   2.469
 5406SOL    HW117117   1.795   6.678   2.541
 5406SOL    HW217118   1.873   6.602   2.419
 5407SOL     OW17119   4.076   2.557   6.699
 5407SOL    HW117120   3.981   2.555   6.667
 5407SOL    HW217121   4.086   2.498   6.778
 5408SOL     OW17122   4.359   0.946   0.077
 5408SOL    HW117123   4.419   1.025   0.066
 5408SOL    HW217124   4.274   0.962   0.028
 5409SOL     OW17125   5.040   0.811   1.870
 5409SOL    HW117126   5.116   0.817   1.805
 5409SOL    HW217127   4.984   0.894   1.863
 5410SOL     OW17128   1.931   2.800   2.056
 5410SOL    HW117129   1.840   2.765   2.036
 5410SOL    HW217130   1.926   2.898   2.075
 5411SOL     OW17131   2.947   5.024   5.351
 5411SOL    HW117132   2.966   4.936   5.309
 5411SOL    HW217133   2.856   5.023   5.392
 5412SOL     OW17134   0.031   1.620   2.571
 5412SOL    HW117135   0.112   1.610   2.630
 5412SOL    HW217136   0.054   1.592   2.478
 5413SOL     OW17137   1.300   6.699   2.620
 5413SOL    HW117138   1.222   6.743   2.574
 5413SOL    HW217139   1.372   6.683   2.553
 5414SOL     OW17140   4.755   6.710   6.548
 5414SOL    HW117141   4.744   6.727   6.450
 5414SOL    HW217142   4.681   6.755   6.598
 5415SOL     OW17143   5.793   3.561   3.568
 5415SOL    HW117144   5.823   3.656   3.559
 5415SOL    HW217145   5.733   3.538   3.492
 5416SOL     OW17146   4.335   5.426   4.626
 5416SOL    HW117147   4.396   5.484   4.680
 5416SOL    HW217148   4.248   5.472   4.613
 5417SOL     OW17149   2.368   0.110   5.770
 5417SOL    HW117150   2.390   0.080   5.677
 5417SOL    HW217151   2.284   0.066   5.801
 5418SOL     OW17152   3.479   1.499   3.595
 5418SOL    HW117153   3.547   1.464   3.531
 5418SOL    HW217154   3.422   1.424   3.627
 5419SOL     OW17155   2.759   3.893   0.006
 5419SOL    HW117156   2.807   3.980   0.001
 5419SOL    HW217157   2.821   3.819   7.005
 5420SOL     OW17158   1.411   2.460   2.494
 5420SOL    HW117159   1.492   2.512   2.521
 5420SOL    HW217160   1.432   2.363   2.493
 5421SOL     OW17161   2.279   3.263   0.835
 5421SOL    HW117162   2.217   3.278   0.758
 5421SOL    HW217163   2.291   3.349   0.885
 5422SOL     OW17164   0.429   3.362   0.249
 5422SOL    HW117165   0.367   3.341   0.325
 5422SOL    HW217166   0.443   3.279   0.194
 5423SOL     OW17167   4.030   3.478   5.549
 5423SOL    HW117168   4.040   3.552   5.615
 5423SOL    HW217169   4.109   3.477   5.488
 5424SOL     OW17170   5.610   3.159   5.265
 5424SOL    HW117171   5.557   3.076   5.279
 5424SOL    HW217172   5.596   3.193   5.171
 5425SOL     OW17173   5.153   1.322   4.820
 5425SOL    HW117174   5.082   1.390   4.801
 5425SOL    HW217175   5.241   1.358   4.790
 5426SOL     OW17176   6.991   0.451   4.539
 5426SOL    HW117177   0.039   0.457   4.605
 5426SOL    HW217178   6.992   0.360   4.496
 5427SOL     OW17179   4.310   6.804   0.598
 5427SOL    HW117180   4.270   6.850   0.677
 5427SOL    HW217181   4.251   6.728   0.570
 5428SOL     OW17182   1.477   0.115   0.459
 5428SOL    HW117183   1.538   0.089   0.534
 5428SOL    HW217184   1.479   0.044   0.388
 5429SOL     OW17185   1.363   2.537   6.073
 5429SOL    HW117186   1.302   2.591   6.132
 5429SOL    HW217187   1.417   2.475   6.130
 5430SOL     OW17188   2.543   2.344   5.584
 5430SOL    HW117189   2.447   2.337   5.558
 5430SOL    HW217190   2.600   2.297   5.516
 5431SOL     OW17191   3.341   4.952   4.071
 5431SOL    HW117192   3.329   5.049   4.089
 5431SOL    HW217193   3.409   4.914   4.134
 5432SOL     OW17194   6.119   4.222   0.921
 5432SOL    HW117195   6.072   4.270   0.995
 5432SOL    HW217196   6.213   4.257   0.913
 5433SOL     OW17197   2.169   1.913   3.310
 5433SOL    HW117198   2.128   1.987   3.364
 5433SOL    HW217199   2.264   1.900   3.338
 5434SOL     OW17200   2.354   6.370   4.715
 5434SOL    HW117201   2.318   6.447   4.768
 5434SOL    HW217202   2.358   6.288   4.773
 5435SOL     OW17203   4.630   2.137   1.681
 5435SOL    HW117204   4.623   2.127   1.781
 5435SOL    HW217205   4.563   2.078   1.637
 5436SOL     OW17206   4.985   4.288   3.261
 5436SOL    HW117207   5.073   4.286   3.308
 5436SOL    HW217208   4.927   4.213   3.295
 5437SOL     OW17209   3.036   5.702   5.550
 5437SOL    HW117210   3.109   5.636   5.568
 5437SOL    HW217211   2.965   5.659   5.494
 5438SOL     OW17212   6.616   1.136   6.785
 5438SOL    HW117213   6.688   1.205   6.792
 5438SOL    HW217214   6.585   1.111   6.876
 5439SOL     OW17215   1.462   1.993   0.794
 5439SOL    HW117216   1.485   2.034   0.882
 5439SOL    HW217217   1.495   2.052   0.720
 5440SOL     OW17218   1.672   0.555   1.001
 5440SOL    HW117219   1.691   0.631   0.939
 5440SOL    HW217220   1.735   0.479   0.982
 5441SOL     OW17221   3.754   1.886   5.474
 5441SOL    HW117222   3.774   1.845   5.563
 5441SOL    HW217223   3.678   1.949   5.483
 5442SOL     OW17224   4.021   1.135   1.957
 5442SOL    HW117225   4.037   1.208   2.024
 5442SOL    HW217226   4.070   1.155   1.873
 5443SOL     OW17227   0.894   5.686   5.492
 5443SOL    HW117228   0.923   5.627   5.568
 5443SOL    HW217229   0.973   5.739   5.461
 5444SOL     OW17230   0.088   0.711   3.374
 5444SOL    HW117231   0.115   0.717   3.278
 5444SOL    HW217232   7.020   0.741   3.384
 5445SOL     OW17233   5.391   3.268   2.248
 5445SOL    HW117234   5.329   3.345   2.261
 5445SOL    HW217235   5.360   3.212   2.171
 5446SOL     OW17236   6.414   6.762   5.685
 5446SOL    HW117237   6.454   6.673   5.662
 5446SOL    HW217238   6.361   6.795   5.606
 5447SOL     OW17239   3.454   2.612   1.297
 5447SOL    HW117240   3.452   2.578   1.390
 5447SOL    HW217241   3.461   2.712   1.298
 5448SOL     OW17242   4.816   1.302   6.632
 5448SOL    HW117243   4.877   1.226   6.657
 5448SOL    HW217244   4.869   1.375   6.589
 5449SOL     OW17245   6.996   3.020   6.692
 5449SOL    HW117246   7.026   2.979   6.606
 5449SOL    HW217247   0.048   3.038   6.750
 5450SOL     OW17248   2.214   5.836   1.019
 5450SOL    HW117249   2.214   5.753   1.075
 5450SOL    HW217250   2.162   5.819   0.936
 5451SOL     OW17251   2.461   6.728   2.279
 5451SOL    HW117252   2.418   6.801   2.227
 5451SOL    HW217253   2.521   6.675   2.220
 5452SOL     OW17254   2.816   3.865   6.285
 5452SOL    HW117255   2.721   3.877   6.314
 5452SOL    HW217256   2.856   3.954   6.264
 5453SOL     OW17257   0.191   5.623   5.536
 5453SOL    HW117258   0.149   5.674   5.461
 5453SOL    HW217259   0.135   5.634   5.618
 5454SOL     OW17260   1.237   3.874   5.572
 5454SOL    HW117261   1.264   3.792   5.522
 5454SOL    HW217262   1.264   3.866   5.667
 5455SOL     OW17263   6.139   1.816   1.263
 5455SOL    HW117264   6.230   1.784   1.236
 5455SOL    HW217265   6.148   1.899   1.318
 5456SOL     OW17266   4.171   0.451   1.415
 5456SOL    HW117267   4.125   0.497   1.338
 5456SOL    HW217268   4.147   0.354   1.415
 5457SOL     OW17269   6.248   3.039   1.705
 5457SOL    HW117270   6.340   3.003   1.717
 5457SOL    HW217271   6.198   3.036   1.792
 5458SOL     OW17272   1.653   4.218   5.298
 5458SOL    HW117273   1.605   4.297   5.337
 5458SOL    HW217274   1.639   4.138   5.356
 5459SOL     OW17275   2.028   4.862   5.927
 5459SOL    HW117276   2.109   4.811   5.956
 5459SOL    HW217277   1.988   4.909   6.005
 5460SOL     OW17278   4.354   0.671   4.618
 5460SOL    HW117279   4.450   0.675   4.590
 5460SOL    HW217280   4.339   0.731   4.696
 5461SOL     OW17281   3.893   6.669   4.913
 5461SOL    HW117282   3.948   6.634   4.989
 5461SOL    HW217283   3.953   6.702   4.841
 5462SOL     OW17284   0.106   1.183   2.185
 5462SOL    HW117285   0.140   1.263   2.136
 5462SOL    HW217286   0.077   1.209   2.277
 5463SOL     OW17287   6.482   2.932   1.714
 5463SOL    HW117288   6.573   2.897   1.740
 5463SOL    HW217289   6.460   2.901   1.622
 5464SOL     OW17290   1.510   6.961   4.453
 5464SOL    HW117291   1.410   6.963   4.463
 5464SOL    HW217292   1.537   7.011   4.371
 5465SOL     OW17293   2.325   5.969   5.867
 5465SOL    HW117294   2.418   5.964   5.830
 5465SOL    HW217295   2.326   5.936   5.962
 5466SOL     OW17296   4.419   6.462   3.808
 5466SOL    HW117297   4.432   6.364   3.825
 5466SOL    HW217298   4.381   6.505   3.890
 5467SOL     OW17299   6.250   1.756   1.875
 5467SOL    HW117300   6.211   1.835   1.922
 5467SOL    HW217301   6.234   1.765   1.776
 5468SOL     OW17302   4.473   1.642   6.355
 5468SOL    HW117303   4.469   1.637   6.255
 5468SOL    HW217304   4.381   1.661   6.391
 5469SOL     OW17305   4.922   4.677   1.391
 5469SOL    HW117306   4.958   4.607   1.453
 5469SOL    HW217307   4.986   4.754   1.387
 5470SOL     OW17308   0.646   4.423   3.073
 5470SOL    HW117309   0.611   4.417   3.166
 5470SOL    HW217310   0.575   4.397   3.008
 5471SOL     OW17311   6.563   3.340   2.865
 5471SOL    HW117312   6.480   3.312   2.816
 5471SOL    HW217313   6.543   3.421   2.919
 5472SOL     OW17314   3.418   5.252   4.850
 5472SOL    HW117315   3.371   5.194   4.917
 5472SOL    HW217316   3.495   5.201   4.811
 5473SOL     OW17317   2.564   4.890   3.668
 5473SOL    HW117318   2.648   4.840   3.687
 5473SOL    HW217319   2.581   4.988   3.675
 5474SOL     OW17320   1.301   5.978   3.317
 5474SOL    HW117321   1.212   5.969   3.362
 5474SOL    HW217322   1.366   6.018   3.381
 5475SOL     OW17323   3.088   1.685   2.247
 5475SOL    HW117324   3.009   1.747   2.243
 5475SOL    HW217325   3.164   1.726   2.197
 5476SOL     OW17326   2.088   3.186   6.773
 5476SOL    HW117327   2.071   3.204   6.676
 5476SOL    HW217328   2.119   3.091   6.785
 5477SOL     OW17329   2.315   2.344   2.589
 5477SOL    HW117330   2.295   2.441   2.577
 5477SOL    HW217331   2.321   2.300   2.499
 5478SOL     OW17332   0.373   5.221   4.890
 5478SOL    HW117333   0.371   5.189   4.795
 5478SOL    HW217334   0.330   5.311   4.895
 5479SOL     OW17335   4.251   6.891   4.620
 5479SOL    HW117336   4.258   6.941   4.534
 5479SOL    HW217337   4.223   6.953   4.693
 5480SOL     OW17338   0.512   1.899   5.886
 5480SOL    HW117339   0.472   1.991   5.893
 5480SOL    HW217340   0.568   1.894   5.804
 5481SOL     OW17341   4.548   6.862   2.791
 5481SOL    HW117342   4.643   6.842   2.815
 5481SOL    HW217343   4.535   6.853   2.692
 5482SOL     OW17344   1.361   6.235   1.928
 5482SOL    HW117345   1.326   6.327   1.946
 5482SOL    HW217346   1.453   6.226   1.967
 5483SOL     OW17347   1.223   2.735   6.234
 5483SOL    HW117348   1.218   2.822   6.185
 5483SOL    HW217349   1.134   2.716   6.277
 5484SOL     OW17350   4.804   5.908   5.440
 5484SOL    HW117351   4.811   5.886   5.538
 5484SOL    HW217352   4.830   5.828   5.386
 5485SOL     OW17353   4.274   0.430   4.733
 5485SOL    HW117354   4.288   0.528   4.723
 5485SOL    HW217355   4.351   0.381   4.692
 5486SOL     OW17356   2.696   5.383   3.750
 5486SOL    HW117357   2.791   5.363   3.774
 5486SOL    HW217358   2.695   5.439   3.667
 5487SOL     OW17359   4.179   6.191   5.487
 5487SOL    HW117360   4.114   6.127   5.528
 5487SOL    HW217361   4.206   6.258   5.556
 5488SOL     OW17362   4.709   2.009   6.122
 5488SOL    HW117363   4.722   1.969   6.213
 5488SOL    HW217364   4.733   1.941   6.052
 5489SOL     OW17365   0.110   2.697   3.923
 5489SOL    HW117366   0.022   2.657   3.947
 5489SOL    HW217367   0.144   2.656   3.839
 5490SOL     OW17368   0.880   4.980   1.343
 5490SOL    HW117369   0.849   4.885   1.339
 5490SOL    HW217370   0.953   4.988   1.412
 5491SOL     OW17371   0.338   3.766   1.044
 5491SOL    HW117372   0.254   3.820   1.041
 5491SOL    HW217373   0.404   3.804   0.979
 5492SOL     OW17374   1.230   1.626   0.319
 5492SOL    HW117375   1.243   1.655   0.224
 5492SOL    HW217376   1.223   1.707   0.377
 5493SOL     OW17377   4.516   3.717   5.300
 5493SOL    HW117378   4.568   3.762   5.373
 5493SOL    HW217379   4.577   3.660   5.246
 5494SOL     OW17380   6.030   1.864   5.163
 5494SOL    HW117381   6.109   1.831   5.214
 5494SOL    HW217382   6.015   1.805   5.083
 5495SOL     OW17383   5.559   1.724   0.360
 5495SOL    HW117384   5.609   1.807   0.387
 5495SOL    HW217385   5.599   1.645   0.406
 5496SOL     OW17386   4.361   6.965   6.243
 5496SOL    HW117387   4.391   6.976   6.148
 5496SOL    HW217388   4.292   6.894   6.249
 5497SOL     OW17389   0.921   1.000   5.527
 5497SOL    HW117390   0.997   1.023   5.466
 5497SOL    HW217391   0.841   1.054   5.502
 5498SOL     OW17392   0.012   5.659   1.752
 5498SOL    HW117393   7.004   5.582   1.806
 5498SOL    HW217394   6.981   5.671   1.671
 5499SOL     OW17395   2.001   6.938   3.209
 5499SOL    HW117396   2.046   6.945   3.298
 5499SOL    HW217397   1.951   7.022   3.190
 5500SOL     OW17398   0.615   6.502   1.651
 5500SOL    HW117399   0.647   6.521   1.744
 5500SOL    HW217400   0.644   6.577   1.591
 5501SOL     OW17401   5.081   3.516   1.251
 5501SOL    HW117402   5.134   3.470   1.322
 5501SOL    HW217403   5.105   3.479   1.162
 5502SOL     OW17404   4.418   3.581   0.563
 5502SOL    HW117405   4.374   3.494   0.540
 5502SOL    HW217406   4.374   3.620   0.644
 5503SOL     OW17407   6.093   2.691   1.653
 5503SOL    HW117408   6.027   2.697   1.728
 5503SOL    HW217409   6.182   2.666   1.690
 5504SOL     OW17410   3.667   2.408   0.300
 5504SOL    HW117411   3.765   2.409   0.282
 5504SOL    HW217412   3.636   2.502   0.319
 5505SOL     OW17413   2.817   5.545   2.988
 5505SOL    HW117414   2.880   5.499   2.925
 5505SOL    HW217415   2.801   5.487   3.067
 5506SOL     OW17416   6.864   3.046   6.933
 5506SOL    HW117417   6.777   3.094   6.929
 5506SOL    HW217418   6.910   3.055   6.844
 5507SOL     OW17419   4.063   6.265   6.891
 5507SOL    HW117420   4.100   6.347   6.848
 5507SOL    HW217421   3.981   6.288   6.943
 5508SOL     OW17422   6.860   3.012   5.857
 5508SOL    HW117423   6.797   2.963   5.797
 5508SOL    HW217424   6.927   2.949   5.895
 5509SOL     OW17425   6.076   4.305   0.657
 5509SOL    HW117426   5.993   4.270   0.613
 5509SOL    HW217427   6.070   4.290   0.756
 5510SOL     OW17428   4.994   6.289   6.741
 5510SOL    HW117429   4.938   6.369   6.762
 5510SOL    HW217430   5.065   6.278   6.811
 5511SOL     OW17431   0.529   2.951   5.762
 5511SOL    HW117432   0.441   2.987   5.793
 5511SOL    HW217433   0.516   2.901   5.677
 5512SOL     OW17434   2.719   7.016   2.008
 5512SOL    HW117435   2.669   0.067   1.969
 5512SOL    HW217436   2.739   0.007   2.104
 5513SOL     OW17437   3.395   5.115   6.213
 5513SOL    HW117438   3.439   5.176   6.279
 5513SOL    HW217439   3.362   5.169   6.135
 5514SOL     OW17440   4.066   1.232   0.207
 5514SOL    HW117441   4.044   1.171   0.132
 5514SOL    HW217442   4.089   1.179   0.289
 5515SOL     OW17443   3.802   4.982   2.538
 5515SOL    HW117444   3.878   5.041   2.511
 5515SOL    HW217445   3.780   4.919   2.464
 5516SOL     OW17446   1.299   2.151   5.511
 5516SOL    HW117447   1.277   2.218   5.582
 5516SOL    HW217448   1.216   2.125   5.461
 5517SOL     OW17449   1.240   2.286   4.461
 5517SOL    HW117450   1.301   2.234   4.401
 5517SOL    HW217451   1.258   2.262   4.556
 5518SOL     OW17452   3.949   3.960   5.549
 5518SOL    HW117453   4.040   4.000   5.560
 5518SOL    HW217454   3.953   3.885   5.483
 5519SOL     OW17455   5.184   2.386   5.509
 5519SOL    HW117456   5.088   2.409   5.523
 5519SOL    HW217457   5.198   2.354   5.415
 5520SOL     OW17458   5.237   5.973   1.289
 5520SOL    HW117459   5.237   5.874   1.305
 5520SOL    HW217460   5.192   5.991   1.201
 5521SOL     OW17461   4.708   6.753   1.615
 5521SOL    HW117462   4.683   6.676   1.675
 5521SOL    HW217463   4.762   6.719   1.538
 5522SOL     OW17464   5.194   6.249   6.536
 5522SOL    HW117465   5.191   6.332   6.479
 5522SOL    HW217466   5.115   6.248   6.597
 5523SOL     OW17467   6.015   1.482   0.588
 5523SOL    HW117468   6.053   1.515   0.502
 5523SOL    HW217469   6.007   1.557   0.653
 5524SOL     OW17470   2.639   1.869   2.685
 5524SOL    HW117471   2.690   1.956   2.682
 5524SOL    HW217472   2.681   1.804   2.622
 5525SOL     OW17473   6.588   1.235   0.744
 5525SOL    HW117474   6.571   1.201   0.836
 5525SOL    HW217475   6.501   1.256   0.699
 5526SOL     OW17476   4.976   4.313   3.928
 5526SOL    HW117477   5.071   4.303   3.959
 5526SOL    HW217478   4.928   4.226   3.940
 5527SOL     OW17479   6.456   6.831   2.208
 5527SOL    HW117480   6.375   6.889   2.207
 5527SOL    HW217481   6.519   6.862   2.280
 5528SOL     OW17482   2.163   1.736   6.887
 5528SOL    HW117483   2.173   1.691   6.975
 5528SOL    HW217484   2.243   1.716   6.830
 5529SOL     OW17485   3.127   1.101   1.782
 5529SOL    HW117486   3.152   1.057   1.868
 5529SOL    HW217487   3.032   1.080   1.760
 5530SOL     OW17488   1.066   1.706   1.206
 5530SOL    HW117489   0.989   1.661   1.163
 5530SOL    HW217490   1.136   1.727   1.137
 5531SOL     OW17491   1.116   4.477   6.248
 5531SOL    HW117492   1.190   4.520   6.300
 5531SOL    HW217493   1.113   4.517   6.156
 5532SOL     OW17494   6.812   5.321   5.605
 5532SOL    HW117495   6.813   5.341   5.507
 5532SOL    HW217496   6.718   5.306   5.635
 5533SOL     OW17497   4.111   1.102   4.265
 5533SOL    HW117498   4.092   1.013   4.224
 5533SOL    HW217499   4.089   1.175   4.201
 5534SOL     OW17500   1.523   0.095   4.219
 5534SOL    HW117501   1.545   0.080   4.123
 5534SOL    HW217502   1.456   0.169   4.227
 5535SOL     OW17503   1.197   1.999   3.149
 5535SOL    HW117504   1.155   1.943   3.220
 5535SOL    HW217505   1.271   1.947   3.106
 5536SOL     OW17506   4.659   0.306   5.385
 5536SOL    HW117507   4.709   0.260   5.458
 5536SOL    HW217508   4.651   0.244   5.307
 5537SOL     OW17509   2.714   2.266   2.920
 5537SOL    HW117510   2.628   2.215   2.925
 5537SOL    HW217511   2.704   2.352   2.970
 5538SOL     OW17512   3.676   5.984   3.923
 5538SOL    HW117513   3.596   5.944   3.879
 5538SOL    HW217514   3.669   5.970   4.022
 5539SOL     OW17515   1.728   3.944   0.649
 5539SOL    HW117516   1.791   4.019   0.668
 5539SOL    HW217517   1.730   3.922   0.551
 5540SOL     OW17518   3.085   5.297   0.841
 5540SOL    HW117519   3.101   5.324   0.936
 5540SOL    HW217520   3.009   5.232   0.837
 5541SOL     OW17521   4.442   0.114   6.642
 5541SOL    HW117522   4.524   0.164   6.670
 5541SOL    HW217523   4.368   0.134   6.705
 5542SOL     OW17524   5.769   4.234   6.427
 5542SOL    HW117525   5.679   4.240   6.469
 5542SOL    HW217526   5.818   4.154   6.463
 5543SOL     OW17527   0.556   2.896   5.157
 5543SOL    HW117528   0.466   2.896   5.200
 5543SOL    HW217529   0.549   2.927   5.063
 5544SOL     OW17530   5.316   6.676   0.106
 5544SOL    HW117531   5.363   6.763   0.098
 5544SOL    HW217532   5.236   6.686   0.165
 5545SOL     OW17533   3.013   2.468   1.427
 5545SOL    HW117534   2.955   2.438   1.503
 5545SOL    HW217535   3.105   2.489   1.462
 5546SOL     OW17536   3.292   6.052   4.294
 5546SOL    HW117537   3.319   6.057   4.197
 5546SOL    HW217538   3.374   6.063   4.351
 5547SOL     OW17539   3.389   5.406   3.763
 5547SOL    HW117540   3.294   5.436   3.754
 5547SOL    HW217541   3.396   5.340   3.838
 5548SOL     OW17542   6.137   1.449   4.715
 5548SOL    HW117543   6.106   1.364   4.758
 5548SOL    HW217544   6.210   1.490   4.769
 5549SOL     OW17545   3.962   5.242   5.114
 5549SOL    HW117546   3.961   5.277   5.208
 5549SOL    HW217547   3.912   5.155   5.111
 5550SOL     OW17548   2.753   5.687   1.969
 5550SOL    HW117549   2.819   5.710   2.041
 5550SOL    HW217550   2.701   5.768   1.944
 5551SOL     OW17551   0.840   1.041   2.251
 5551SOL    HW117552   0.897   1.069   2.174
 5551SOL    HW217553   0.743   1.050   2.226
 5552SOL     OW17554   2.324   2.628   2.152
 5552SOL    HW117555   2.287   2.672   2.234
 5552SOL    HW217556   2.312   2.689   2.073
 5553SOL     OW17557   4.703   6.497   5.879
 5553SOL    HW117558   4.710   6.475   5.976
 5553SOL    HW217559   4.637   6.435   5.836
 5554SOL     OW17560   3.049   0.372   5.982
 5554SOL    HW117561   3.040   0.427   6.066
 5554SOL    HW217562   3.126   0.309   5.992
 5555SOL     OW17563   1.147   6.074   2.145
 5555SOL    HW117564   1.172   6.139   2.074
 5555SOL    HW217565   1.228   6.022   2.172
 5556SOL     OW17566   0.099   1.227   5.038
 5556SOL    HW117567   0.026   1.280   5.081
 5556SOL    HW217568   0.121   1.267   4.949
 5557SOL     OW17569   3.610   1.066   2.711
 5557SOL    HW117570   3.637   1.140   2.773
 5557SOL    HW217571   3.513   1.072   2.692
 5558SOL     OW17572   5.541   2.314   6.517
 5558SOL    HW117573   5.638   2.339   6.518
 5558SOL    HW217574   5.490   2.379   6.461
 5559SOL     OW17575   3.546   1.392   1.214
 5559SOL    HW117576   3.554   1.354   1.307
 5559SOL    HW217577   3.460   1.442   1.206
 5560SOL     OW17578   0.535   2.214   4.746
 5560SOL    HW117579   0.549   2.150   4.670
 5560SOL    HW217580   0.470   2.285   4.718
 5561SOL     OW17581   2.038   4.505   2.406
 5561SOL    HW117582   2.127   4.547   2.426
 5561SOL    HW217583   2.024   4.427   2.467
 5562SOL     OW17584   5.209   3.051   0.433
 5562SOL    HW117585   5.112   3.027   0.423
 5562SOL    HW217586   5.258   2.974   0.475
 5563SOL     OW17587   4.246   4.117   0.584
 5563SOL    HW117588   4.241   4.035   0.642
 5563SOL    HW217589   4.202   4.099   0.497
 5564SOL     OW17590   6.291   0.793   3.109
 5564SOL    HW117591   6.270   0.699   3.081
 5564SOL    HW217592   6.285   0.799   3.209
 5565SOL     OW17593   1.983   2.502   5.956
 5565SOL    HW117594   1.886   2.482   5.939
 5565SOL    HW217595   1.990   2.572   6.026
 5566SOL     OW17596   1.818   4.458   0.531
 5566SOL    HW117597   1.809   4.376   0.473
 5566SOL    HW217598   1.817   4.540   0.473
 5567SOL     OW17599   1.471   5.832   2.871
 5567SOL    HW117600   1.488   5.875   2.959
 5567SOL    HW217601   1.473   5.901   2.799
 5568SOL     OW17602   4.896   2.940   0.146
 5568SOL    HW117603   4.882   2.843   0.128
 5568SOL    HW217604   4.827   2.993   0.097
 5569SOL     OW17605   3.925   1.105   6.301
 5569SOL    HW117606   3.830   1.089   6.273
 5569SOL    HW217607   3.987   1.056   6.240
 5570SOL     OW17608   2.003   1.463   5.885
 5570SOL    HW117609   2.020   1.540   5.946
 5570SOL    HW217610   2.086   1.407   5.878
 5571SOL     OW17611   1.499   4.995   6.716
 5571SOL    HW117612   1.453   4.983   6.804
 5571SOL    HW217613   1.454   5.069   6.665
 5572SOL     OW17614   1.020   3.339   5.469
 5572SOL    HW117615   1.078   3.420   5.480
 5572SOL    HW217616   1.052   3.286   5.390
 5573SOL     OW17617   0.559   3.822   6.766
 5573SOL    HW117618   0.592   3.796   6.856
 5573SOL    HW217619   0.546   3.739   6.710
 5574SOL     OW17620   1.606   5.819   4.600
 5574SOL    HW117621   1.520   5.812   4.650
 5574SOL    HW217622   1.602   5.899   4.540
 5575SOL     OW17623   1.594   1.846   2.456
 5575SOL    HW117624   1.648   1.923   2.488
 5575SOL    HW217625   1.508   1.843   2.507
 5576SOL     OW17626   5.386   6.173   6.765
 5576SOL    HW117627   5.347   6.201   6.677
 5576SOL    HW217628   5.339   6.220   6.839
 5577SOL     OW17629   1.692   5.557   5.458
 5577SOL    HW117630   1.708   5.617   5.379
 5577SOL    HW217631   1.675   5.464   5.426
 5578SOL     OW17632   4.144   1.639   6.033
 5578SOL    HW117633   4.166   1.693   5.952
 5578SOL    HW217634   4.149   1.542   6.011
 5579SOL     OW17635   5.228   4.778   2.252
 5579SOL    HW117636   5.230   4.696   2.193
 5579SOL    HW217637   5.136   4.818   2.250
 5580SOL     OW17638   6.460   0.779   2.565
 5580SOL    HW117639   6.481   0.682   2.550
 5580SOL    HW217640   6.533   0.836   2.527
 5581SOL     OW17641   3.316   3.397   0.574
 5581SOL    HW117642   3.363   3.431   0.493
 5581SOL    HW217643   3.383   3.355   0.636
 5582SOL     OW17644   3.102   3.598   5.366
 5582SOL    HW117645   3.153   3.576   5.449
 5582SOL    HW217646   3.144   3.552   5.288
 5583SOL     OW17647   4.052   0.873   6.725
 5583SOL    HW117648   4.003   0.933   6.661
 5583SOL    HW217649   4.041   0.778   6.696
 5584SOL     OW17650   5.556   3.520   4.613
 5584SOL    HW117651   5.595   3.437   4.651
 5584SOL    HW217652   5.565   3.594   4.679
 5585SOL     OW17653   0.401   1.326   3.749
 5585SOL    HW117654   0.343   1.404   3.767
 5585SOL    HW217655   0.412   1.272   3.833
 5586SOL     OW17656   1.837   0.688   0.558
 5586SOL    HW117657   1.846   0.613   0.492
 5586SOL    HW217658   1.766   0.665   0.624
 5587SOL     OW17659   3.418   0.438   2.940
 5587SOL    HW117660   3.389   0.343   2.948
 5587SOL    HW217661   3.407   0.469   2.846
 5588SOL     OW17662   4.293   5.621   0.281
 5588SOL    HW117663   4.297   5.596   0.378
 5588SOL    HW217664   4.372   5.584   0.234
 5589SOL     OW17665   1.701   2.436   6.702
 5589SOL    HW117666   1.714   2.499   6.626
 5589SOL    HW217667   1.784   2.435   6.759
 5590SOL     OW17668   5.925   6.820   3.388
 5590SOL    HW117669   5.867   6.901   3.404
 5590SOL    HW217670   5.997   6.818   3.457
 5591SOL     OW17671   5.202   0.962   5.456
 5591SOL    HW117672   5.140   1.007   5.521
 5591SOL    HW217673   5.263   0.900   5.506
 5592SOL     OW17674   1.005   3.962   2.951
 5592SOL    HW117675   0.942   3.998   3.021
 5592SOL    HW217676   1.058   3.887   2.991
 5593SOL     OW17677   2.492   3.854   5.653
 5593SOL    HW117678   2.474   3.950   5.675
 5593SOL    HW217679   2.459   3.834   5.560
 5594SOL     OW17680   2.995   1.280   5.547
 5594SOL    HW117681   2.906   1.322   5.564
 5594SOL    HW217682   3.012   1.208   5.614
 5595SOL     OW17683   6.434   3.791   1.268
 5595SOL    HW117684   6.475   3.700   1.271
 5595SOL    HW217685   6.351   3.792   1.324
 5596SOL     OW17686   5.229   4.276   4.592
 5596SOL    HW117687   5.327   4.267   4.577
 5596SOL    HW217688   5.201   4.215   4.666
 5597SOL     OW17689   1.158   2.287   6.982
 5597SOL    HW117690   1.069   2.289   6.936
 5597SOL    HW217691   1.222   2.347   6.933
 5598SOL     OW17692   6.968   0.432   3.292
 5598SOL    HW117693   6.888   0.488   3.272
 5598SOL    HW217694   0.023   0.479   3.257
 5599SOL     OW17695   5.005   2.870   2.378
 5599SOL    HW117696   4.985   2.958   2.336
 5599SOL    HW217697   5.080   2.879   2.443
 5600SOL     OW17698   2.056   3.472   2.196
 5600SOL    HW117699   2.124   3.474   2.122
 5600SOL    HW217700   1.969   3.508   2.162
 5601SOL     OW17701   5.116   2.596   6.749
 5601SOL    HW117702   5.175   2.665   6.791
 5601SOL    HW217703   5.020   2.618   6.767
 5602SOL     OW17704   5.411   0.673   2.703
 5602SOL    HW117705   5.351   0.626   2.769
 5602SOL    HW217706   5.365   0.753   2.667
 5603SOL     OW17707   3.412   1.635   6.954
 5603SOL    HW117708   3.340   1.684   6.904
 5603SOL    HW217709   3.424   1.679   0.017
 5604SOL     OW17710   2.033   4.670   4.142
 5604SOL    HW117711   2.024   4.675   4.241
 5604SOL    HW217712   1.991   4.586   4.109
 5605SOL     OW17713   3.835   0.068   4.052
 5605SOL    HW117714   3.884   0.128   3.988
 5605SOL    HW217715   3.886   7.010   4.063
 5606SOL     OW17716   3.980   4.769   0.618
 5606SOL    HW117717   3.972   4.790   0.716
 5606SOL    HW217718   4.059   4.819   0.581
 5607SOL     OW17719   1.767   1.708   1.990
 5607SOL    HW117720   1.763   1.771   1.913
 5607SOL    HW217721   1.853   1.720   2.039
 5608SOL     OW17722   6.131   6.196   3.045
 5608SOL    HW117723   6.149   6.207   2.948
 5608SOL    HW217724   6.051   6.251   3.071
 5609SOL     OW17725   0.071   0.822   0.632
 5609SOL    HW117726   0.050   0.747   0.695
 5609SOL    HW217727   0.035   0.800   0.541
 5610SOL     OW17728   5.703   6.726   6.200
 5610SOL    HW117729   5.689   6.762   6.292
 5610SOL    HW217730   5.801   6.720   6.181
 5611SOL     OW17731   6.960   3.530   2.036
 5611SOL    HW117732   7.024   3.461   2.003
 5611SOL    HW217733   6.891   3.547   1.965
 5612SOL     OW17734   4.844   2.396   0.715
 5612SOL    HW117735   4.749   2.408   0.687
 5612SOL    HW217736   4.890   2.333   0.652
 5613SOL     OW17737   6.582   5.048   4.786
 5613SOL    HW117738   6.614   5.050   4.692
 5613SOL    HW217739   6.512   4.977   4.796
 5614SOL     OW17740   6.463   2.010   4.718
 5614SOL    HW117741   6.363   2.015   4.717
 5614SOL    HW217742   6.491   1.915   4.732
 5615SOL     OW17743   0.876   4.050   3.166
 5615SOL    HW117744   0.892   4.145   3.192
 5615SOL    HW217745   0.827   4.003   3.239
 5616SOL     OW17746   1.564   2.856   1.814
 5616SOL    HW117747   1.465   2.869   1.821
 5616SOL    HW217748   1.597   2.809   1.896
 5617SOL     OW17749   0.934   5.423   5.635
 5617SOL    HW117750   0.921   5.382   5.545
 5617SOL    HW217751   1.003   5.371   5.686
 5618SOL     OW17752   5.222   1.345   3.272
 5618SOL    HW117753   5.247   1.372   3.365
 5618SOL    HW217754   5.303   1.352   3.213
 5619SOL     OW17755   3.761   4.119   4.587
 5619SOL    HW117756   3.674   4.074   4.567
 5619SOL    HW217757   3.761   4.152   4.681
 5620SOL     OW17758   4.575   4.056   5.354
 5620SOL    HW117759   4.491   4.002   5.342
 5620SOL    HW217760   4.574   4.133   5.289
 5621SOL     OW17761   0.703   4.050   0.447
 5621SOL    HW117762   0.656   3.962   0.456
 5621SOL    HW217763   0.802   4.034   0.437
 5622SOL     OW17764   5.943   5.248   4.108
 5622SOL    HW117765   5.910   5.165   4.063
 5622SOL    HW217766   5.961   5.318   4.039
 5623SOL     OW17767   4.717   4.610   3.847
 5623SOL    HW117768   4.734   4.537   3.781
 5623SOL    HW217769   4.795   4.620   3.908
 5624SOL     OW17770   4.890   3.667   4.243
 5624SOL    HW117771   4.858   3.600   4.310
 5624SOL    HW217772   4.899   3.623   4.154
 5625SOL     OW17773   3.903   0.191   0.053
 5625SOL    HW117774   3.918   0.133   6.999
 5625SOL    HW217775   3.885   0.132   0.132
 5626SOL     OW17776   2.003   4.569   6.044
 5626SOL    HW117777   1.971   4.489   6.095
 5626SOL    HW217778   1.959   4.571   5.954
 5627SOL     OW17779   0.969   5.252   1.257
 5627SOL    HW117780   0.962   5.183   1.329
 5627SOL    HW217781   0.883   5.257   1.206
 5628SOL     OW17782   1.637   2.500   0.473
 5628SOL    HW117783   1.674   2.582   0.430
 5628SOL    HW217784   1.551   2.522   0.520
 5629SOL     OW17785   1.039   3.258   4.949
 5629SOL    HW117786   1.024   3.168   4.907
 5629SOL    HW217787   1.130   3.260   4.991
 5630SOL     OW17788   1.035   4.382   6.946
 5630SOL    HW117789   1.123   4.377   6.994
 5630SOL    HW217790   1.049   4.362   6.849
 5631SOL     OW17791   2.646   0.873   3.671
 5631SOL    HW117792   2.710   0.838   3.740
 5631SOL    HW217793   2.562   0.903   3.717
 5632SOL     OW17794   3.016   6.479   5.576
 5632SOL    HW117795   2.923   6.461   5.543
 5632SOL    HW217796   3.035   6.423   5.657
 5633SOL     OW17797   1.469   4.932   5.124
 5633SOL    HW117798   1.516   5.012   5.161
 5633SOL    HW217799   1.495   4.919   5.028
 5634SOL     OW17800   1.250   0.123   1.652
 5634SOL    HW117801   1.171   0.118   1.714
 5634SOL    HW217802   1.301   0.038   1.655
 5635SOL     OW17803   3.714   0.743   3.103
 5635SOL    HW117804   3.644   0.777   3.041
 5635SOL    HW217805   3.679   0.746   3.197
 5636SOL     OW17806   4.883   0.360   5.193
 5636SOL    HW117807   4.834   0.361   5.280
 5636SOL    HW217808   4.865   0.273   5.146
 5637SOL     OW17809   5.633   6.601   5.138
 5637SOL    HW117810   5.602   6.541   5.064
 5637SOL    HW217811   5.591   6.572   5.224
 5638SOL     OW17812   1.976   6.089   0.151
 5638SOL    HW117813   1.988   6.111   0.054
 5638SOL    HW217814   2.056   6.121   0.203
 5639SOL     OW17815   3.257   0.377   1.761
 5639SOL    HW117816   3.275   0.415   1.852
 5639SOL    HW217817   3.331   0.314   1.736
 5640SOL     OW17818   4.515   6.620   4.534
 5640SOL    HW117819   4.537   6.714   4.510
 5640SOL    HW217820   4.502   6.566   4.450
 5641SOL     OW17821   6.343   5.281   3.934
 5641SOL    HW117822   6.277   5.292   4.008
 5641SOL    HW217823   6.385   5.191   3.939
 5642SOL     OW17824   1.452   1.534   6.491
 5642SOL    HW117825   1.428   1.558   6.397
 5642SOL    HW217826   1.418   1.442   6.512
 5643SOL     OW17827   4.596   1.915   3.701
 5643SOL    HW117828   4.695   1.901   3.698
 5643SOL    HW217829   4.576   2.012   3.688
 5644SOL     OW17830   2.494   1.011   4.898
 5644SOL    HW117831   2.588   1.044   4.893
 5644SOL    HW217832   2.480   0.939   4.829
 5645SOL     OW17833   6.957   6.223   4.286
 5645SOL    HW117834   6.960   6.262   4.378
 5645SOL    HW217835   6.953   6.124   4.292
 5646SOL     OW17836   6.250   1.165   2.737
 5646SOL    HW117837   6.311   1.091   2.766
 5646SOL    HW217838   6.155   1.138   2.754
 5647SOL     OW17839   5.789   3.475   6.495
 5647SOL    HW117840   5.880   3.435   6.488
 5647SOL    HW217841   5.726   3.426   6.436
 5648SOL     OW17842   1.676   2.266   4.683
 5648SOL    HW117843   1.667   2.330   4.607
 5648SOL    HW217844   1.738   2.304   4.752
 5649SOL     OW17845   6.846   0.854   4.539
 5649SOL    HW117846   6.782   0.900   4.600
 5649SOL    HW217847   6.819   0.758   4.528
 5650SOL     OW17848   5.825   4.537   5.791
 5650SOL    HW117849   5.868   4.460   5.839
 5650SOL    HW217850   5.784   4.599   5.858
 5651SOL     OW17851   5.449   0.575   3.295
 5651SOL    HW117852   5.522   0.601   3.233
 5651SOL    HW217853   5.405   0.657   3.332
 5652SOL     OW17854   3.252   4.418   6.591
 5652SOL    HW117855   3.163   4.394   6.551
 5652SOL    HW217856   3.262   4.517   6.595
 5653SOL     OW17857   1.799   6.982   5.317
 5653SOL    HW117858   1.869   0.024   5.335
 5653SOL    HW217859   1.819   6.899   5.368
 5654SOL     OW17860   3.107   6.965   6.910
 5654SOL    HW117861   3.065   6.879   6.882
 5654SOL    HW217862   3.207   6.955   6.908
 5655SOL     OW17863   5.801   4.769   2.166
 5655SOL    HW117864   5.839   4.780   2.074
 5655SOL    HW217865   5.749   4.850   2.191
 5656SOL     OW17866   2.640   4.212   6.596
 5656SOL    HW117867   2.610   4.207   6.691
 5656SOL    HW217868   2.739   4.217   6.592
 5657SOL     OW17869   5.208   5.681   1.597
 5657SOL    HW117870   5.287   5.711   1.650
 5657SOL    HW217871   5.236   5.662   1.503
 5658SOL     OW17872   4.619   6.786   6.318
 5658SOL    HW117873   4.578   6.840   6.392
 5658SOL    HW217874   4.550   6.764   6.250
 5659SOL     OW17875   3.203   3.429   2.355
 5659SOL    HW117876   3.263   3.437   2.275
 5659SOL    HW217877   3.189   3.519   2.396
 5660SOL     OW17878   0.711   4.417   1.860
 5660SOL    HW117879   0.693   4.485   1.931
 5660SOL    HW217880   0.776   4.349   1.895
 5661SOL     OW17881   5.658   5.354   5.490
 5661SOL    HW117882   5.663   5.269   5.543
 5661SOL    HW217883   5.646   5.432   5.552
 5662SOL     OW17884   1.717   4.887   5.275
 5662SOL    HW117885   1.730   4.922   5.183
 5662SOL    HW217886   1.732   4.788   5.276
 5663SOL     OW17887   2.519   3.382   0.433
 5663SOL    HW117888   2.427   3.369   0.396
 5663SOL    HW217889   2.558   3.294   0.458
 5664SOL     OW17890   6.142   0.004   1.441
 5664SOL    HW117891   6.094   6.953   1.400
 5664SOL    HW217892   6.130   0.003   1.540
 5665SOL     OW17893   1.005   0.589   6.056
 5665SOL    HW117894   1.067   0.617   5.982
 5665SOL    HW217895   0.943   0.519   6.022
 5666SOL     OW17896   4.494   6.270   6.445
 5666SOL    HW117897   4.416   6.259   6.507
 5666SOL    HW217898   4.529   6.363   6.452
 5667SOL     OW17899   5.679   5.251   3.024
 5667SOL    HW117900   5.742   5.252   3.101
 5667SOL    HW217901   5.699   5.173   2.965
 5668SOL     OW17902   6.644   2.792   6.256
 5668SOL    HW117903   6.696   2.743   6.326
 5668SOL    HW217904   6.608   2.727   6.189
 5669SOL     OW17905   1.588   1.801   5.454
 5669SOL    HW117906   1.528   1.876   5.427
 5669SOL    HW217907   1.680   1.819   5.420
 5670SOL     OW17908   1.435   3.014   2.785
 5670SOL    HW117909   1.363   2.952   2.817
 5670SOL    HW217910   1.479   2.975   2.705
 5671SOL     OW17911   0.844   0.989   6.268
 5671SOL    HW117912   0.904   0.912   6.290
 5671SOL    HW217913   0.884   1.073   6.306
 5672SOL     OW17914   3.780   4.661   6.463
 5672SOL    HW117915   3.772   4.633   6.368
 5672SOL    HW217916   3.767   4.581   6.522
 5673SOL     OW17917   2.144   5.603   1.136
 5673SOL    HW117918   2.110   5.642   1.221
 5673SOL    HW217919   2.125   5.505   1.134
 5674SOL     OW17920   0.506   2.925   7.006
 5674SOL    HW117921   0.566   2.856   0.020
 5674SOL    HW217922   0.535   2.942   6.912
 5675SOL     OW17923   4.598   1.447   5.981
 5675SOL    HW117924   4.581   1.487   5.891
 5675SOL    HW217925   4.558   1.506   6.051
 5676SOL     OW17926   2.201   5.323   1.698
 5676SOL    HW117927   2.192   5.224   1.713
 5676SOL    HW217928   2.206   5.342   1.601
 5677SOL     OW17929   5.884   1.083   3.810
 5677SOL    HW117930   5.896   1.037   3.722
 5677SOL    HW217931   5.897   1.182   3.798
 5678SOL     OW17932   1.289   5.299   2.454
 5678SOL    HW117933   1.282   5.369   2.383
 5678SOL    HW217934   1.308   5.343   2.542
 5679SOL     OW17935   3.722   6.278   5.644
 5679SOL    HW117936   3.770   6.342   5.585
 5679SOL    HW217937   3.669   6.329   5.713
 5680SOL     OW17938   0.622   0.258   6.415
 5680SOL    HW117939   0.711   0.246   6.372
 5680SOL    HW217940   0.631   0.318   6.494
 5681SOL     OW17941   2.851   3.318   0.471
 5681SOL    HW117942   2.804   3.279   0.550
 5681SOL    HW217943   2.947   3.290   0.473
 5682SOL     OW17944   2.078   5.004   4.723
 5682SOL    HW117945   2.129   4.931   4.768
 5682SOL    HW217946   2.009   4.964   4.662
 5683SOL     OW17947   3.251   3.506   4.680
 5683SOL    HW117948   3.249   3.605   4.669
 5683SOL    HW217949   3.280   3.463   4.594
 5684SOL     OW17950   3.408   4.021   2.641
 5684SOL    HW117951   3.428   3.992   2.735
 5684SOL    HW217952   3.309   4.029   2.629
 5685SOL     OW17953   6.493   1.003   2.087
 5685SOL    HW117954   6.572   1.003   2.026
 5685SOL    HW217955   6.412   1.031   2.036
 5686SOL     OW17956   3.453   4.529   6.242
 5686SOL    HW117957   3.443   4.430   6.253
 5686SOL    HW217958   3.377   4.575   6.288
 5687SOL     OW17959   5.277   0.095   6.155
 5687SOL    HW117960   5.321   0.059   6.237
 5687SOL    HW217961   5.327   0.065   6.074
 5688SOL     OW17962   5.705   1.265   2.245
 5688SOL    HW117963   5.785   1.298   2.295
 5688SOL    HW217964   5.624   1.313   2.277
 5689SOL     OW17965   3.734   3.584   5.571
 5689SOL    HW117966   3.671   3.573   5.494
 5689SOL    HW217967   3.821   3.539   5.550
 5690SOL     OW17968   2.707   0.560   2.478
 5690SOL    HW117969   2.670   0.525   2.564
 5690SOL    HW217970   2.691   0.658   2.472
 5691SOL     OW17971   3.323   0.210   4.678
 5691SOL    HW117972   3.256   0.212   4.604
 5691SOL    HW217973   3.397   0.274   4.658
 5692SOL     OW17974   6.429   3.268   1.005
 5692SOL    HW117975   6.422   3.364   0.980
 5692SOL    HW217976   6.493   3.221   0.944
 5693SOL     OW17977   5.643   3.321   2.101
 5693SOL    HW117978   5.573   3.346   2.169
 5693SOL    HW217979   5.695   3.242   2.135
 5694SOL     OW17980   2.069   2.397   5.030
 5694SOL    HW117981   1.998   2.356   5.087
 5694SOL    HW217982   2.159   2.364   5.059
 5695SOL     OW17983   1.251   3.700   2.821
 5695SOL    HW117984   1.325   3.742   2.767
 5695SOL    HW217985   1.231   3.609   2.785
 5696SOL     OW17986   3.194   1.551   6.228
 5696SOL    HW117987   3.153   1.520   6.314
 5696SOL    HW217988   3.206   1.473   6.167
 5697SOL     OW17989   6.482   3.761   0.878
 5697SOL    HW117990   6.459   3.821   0.955
 5697SOL    HW217991   6.455   3.805   0.792
 5698SOL     OW17992   1.762   5.215   4.380
 5698SOL    HW117993   1.751   5.141   4.314
 5698SOL    HW217994   1.806   5.293   4.337
 5699SOL     OW17995   1.056   1.986   5.135
 5699SOL    HW117996   0.973   1.959   5.086
 5699SOL    HW217997   1.059   2.086   5.143
 5700SOL     OW17998   2.005   5.258   4.648
 5700SOL    HW117999   2.063   5.178   4.660
 5700SOL    HW218000   1.924   5.249   4.706
 5701SOL     OW18001   4.801   2.131   2.381
 5701SOL    HW118002   4.720   2.105   2.329
 5701SOL    HW218003   4.782   2.212   2.436
 5702SOL     OW18004   4.036   0.792   7.026
 5702SOL    HW118005   4.042   0.843   6.940
 5702SOL    HW218006   4.120   0.738   0.012
 5703SOL     OW18007   4.845   4.107   2.699
 5703SOL    HW118008   4.783   4.185   2.698
 5703SOL    HW218009   4.817   4.041   2.630
 5704SOL     OW18010   5.274   3.417   3.884
 5704SOL    HW118011   5.194   3.430   3.824
 5704SOL    HW218012   5.303   3.505   3.920
 5705SOL     OW18013   6.414   0.870   4.766
 5705SOL    HW118014   6.403   0.950   4.706
 5705SOL    HW218015   6.341   0.804   4.747
 5706SOL     OW18016   2.025   1.110   5.791
 5706SOL    HW118017   2.063   1.184   5.847
 5706SOL    HW218018   2.093   1.038   5.780
 5707SOL     OW18019   4.930   0.270   1.121
 5707SOL    HW118020   4.902   0.327   1.198
 5707SOL    HW218021   4.859   0.203   1.100
 5708SOL     OW18022   0.747   6.677   0.317
 5708SOL    HW118023   0.657   6.676   0.360
 5708SOL    HW218024   0.762   6.766   0.274
 5709SOL     OW18025   6.995   2.700   0.617
 5709SOL    HW118026   0.031   2.771   0.649
 5709SOL    HW218027   6.957   2.652   0.696
 5710SOL     OW18028   3.274   5.295   6.017
 5710SOL    HW118029   3.221   5.338   5.945
 5710SOL    HW218030   3.261   5.345   6.103
 5711SOL     OW18031   5.674   0.588   5.383
 5711SOL    HW118032   5.678   0.685   5.405
 5711SOL    HW218033   5.580   0.556   5.389
 5712SOL     OW18034   4.981   0.001   6.217
 5712SOL    HW118035   5.057   0.062   6.193
 5712SOL    HW218036   4.894   0.047   6.202
 5713SOL     OW18037   0.510   3.000   2.863
 5713SOL    HW118038   0.549   3.060   2.792
 5713SOL    HW218039   0.515   2.905   2.833
 5714SOL     OW18040   2.249   0.475   1.127
 5714SOL    HW118041   2.252   0.543   1.053
 5714SOL    HW218042   2.310   0.399   1.105
 5715SOL     OW18043   0.500   5.606   3.857
 5715SOL    HW118044   0.511   5.507   3.852
 5715SOL    HW218045   0.546   5.641   3.938
 5716SOL     OW18046   1.827   2.812   4.676
 5716SOL    HW118047   1.874   2.894   4.709
 5716SOL    HW218048   1.734   2.837   4.648
 5717SOL     OW18049   0.350   4.844   5.458
 5717SOL    HW118050   0.420   4.794   5.508
 5717SOL    HW218051   0.269   4.787   5.447
 5718SOL     OW18052   2.250   6.232   5.847
 5718SOL    HW118053   2.173   6.264   5.902
 5718SOL    HW218054   2.277   6.141   5.877
 5719SOL     OW18055   1.443   0.744   0.471
 5719SOL    HW118056   1.355   0.746   0.519
 5719SOL    HW218057   1.501   0.818   0.504
 5720SOL     OW18058   2.075   5.934   3.916
 5720SOL    HW118059   2.017   5.939   3.998
 5720SOL    HW218060   2.046   5.857   3.860
 5721SOL     OW18061   6.339   5.299   6.701
 5721SOL    HW118062   6.409   5.306   6.773
 5721SOL    HW218063   6.248   5.303   6.742
 5722SOL     OW18064   5.040   0.542   4.172
 5722SOL    HW118065   5.140   0.544   4.172
 5722SOL    HW218066   5.007   0.513   4.082
 5723SOL     OW18067   6.304   5.673   1.187
 5723SOL    HW118068   6.315   5.758   1.239
 5723SOL    HW218069   6.269   5.693   1.096
 5724SOL     OW18070   4.775   3.038   5.980
 5724SOL    HW118071   4.813   2.946   5.969
 5724SOL    HW218072   4.821   3.101   5.917
 5725SOL     OW18073   6.297   6.922   5.277
 5725SOL    HW118074   6.258   6.861   5.208
 5725SOL    HW218075   6.276   6.888   5.368
 5726SOL     OW18076   4.465   5.842   5.191
 5726SOL    HW118077   4.552   5.889   5.209
 5726SOL    HW218078   4.441   5.854   5.094
 5727SOL     OW18079   5.292   3.364   3.503
 5727SOL    HW118080   5.222   3.373   3.573
 5727SOL    HW218081   5.316   3.267   3.491
 5728SOL     OW18082   3.571   0.778   4.914
 5728SOL    HW118083   3.622   0.754   4.996
 5728SOL    HW218084   3.476   0.799   4.939
 5729SOL     OW18085   3.282   1.275   3.613
 5729SOL    HW118086   3.185   1.291   3.630
 5729SOL    HW218087   3.311   1.193   3.662
 5730SOL     OW18088   3.657   5.487   0.059
 5730SOL    HW118089   3.722   5.553   0.096
 5730SOL    HW218090   3.683   5.395   0.087
 5731SOL     OW18091   3.823   1.099   5.143
 5731SOL    HW118092   3.775   1.048   5.214
 5731SOL    HW218093   3.921   1.083   5.151
 5732SOL     OW18094   6.200   4.004   4.755
 5732SOL    HW118095   6.189   3.913   4.715
 5732SOL    HW218096   6.266   4.057   4.701
 5733SOL     OW18097   2.079   6.144   0.564
 5733SOL    HW118098   1.980   6.129   0.560
 5733SOL    HW218099   2.127   6.058   0.543
 5734SOL     OW18100   1.589   0.425   6.360
 5734SOL    HW118101   1.594   0.478   6.445
 5734SOL    HW218102   1.673   0.372   6.348
 5735SOL     OW18103   6.226   1.232   0.988
 5735SOL    HW118104   6.289   1.309   0.982
 5735SOL    HW218105   6.150   1.257   1.048
 5736SOL     OW18106   3.767   3.148   6.653
 5736SOL    HW118107   3.765   3.166   6.554
 5736SOL    HW218108   3.782   3.233   6.702
 5737SOL     OW18109   4.864   5.523   2.365
 5737SOL    HW118110   4.881   5.487   2.456
 5737SOL    HW218111   4.907   5.613   2.356
 5738SOL     OW18112   3.230   1.408   1.195
 5738SOL    HW118113   3.203   1.483   1.256
 5738SOL    HW218114   3.215   1.320   1.241
 5739SOL     OW18115   1.980   1.079   6.103
 5739SOL    HW118116   1.908   1.074   6.033
 5739SOL    HW218117   1.969   1.164   6.155
 5740SOL     OW18118   5.706   2.147   2.409
 5740SOL    HW118119   5.765   2.228   2.404
 5740SOL    HW218120   5.611   2.176   2.414
 5741SOL     OW18121   1.221   3.446   3.630
 5741SOL    HW118122   1.192   3.503   3.706
 5741SOL    HW218123   1.235   3.352   3.661
 5742SOL     OW18124   6.603   4.206   2.296
 5742SOL    HW118125   6.599   4.220   2.197
 5742SOL    HW218126   6.554   4.122   2.319
 5743SOL     OW18127   3.232   0.147   5.959
 5743SOL    HW118128   3.219   0.124   5.863
 5743SOL    HW218129   3.330   0.159   5.978
 5744SOL     OW18130   5.375   6.015   4.674
 5744SOL    HW118131   5.461   6.012   4.726
 5744SOL    HW218132   5.395   6.005   4.577
 5745SOL     OW18133   2.186   3.905   2.895
 5745SOL    HW118134   2.108   3.928   2.837
 5745SOL    HW218135   2.233   3.989   2.923
 5746SOL     OW18136   4.975   0.601   3.570
 5746SOL    HW118137   4.974   0.529   3.500
 5746SOL    HW218138   4.910   0.673   3.544
 5747SOL     OW18139   0.466   0.225   1.604
 5747SOL    HW118140   0.469   0.305   1.544
 5747SOL    HW218141   0.549   0.170   1.590
 5748SOL     OW18142   6.160   0.145   6.682
 5748SOL    HW118143   6.165   0.160   6.781
 5748SOL    HW218144   6.168   0.047   6.663
 5749SOL     OW18145   1.835   6.113   6.058
 5749SOL    HW118146   1.807   6.114   6.154
 5749SOL    HW218147   1.757   6.138   6.000
 5750SOL     OW18148   6.327   2.200   4.070
 5750SOL    HW118149   6.349   2.209   3.973
 5750SOL    HW218150   6.372   2.273   4.122
 5751SOL     OW18151   0.116   4.541   4.867
 5751SOL    HW118152   0.072   4.469   4.813
 5751SOL    HW218153   0.102   4.523   4.965
 5752SOL     OW18154   5.379   1.817   6.505
 5752SOL    HW118155   5.470   1.850   6.480
 5752SOL    HW218156   5.309   1.871   6.457
 5753SOL     OW18157   3.609   3.499   3.978
 5753SOL    HW118158   3.587   3.529   4.071
 5753SOL    HW218159   3.534   3.523   3.916
 5754SOL     OW18160   6.031   0.535   0.750
 5754SOL    HW118161   6.086   0.489   0.821
 5754SOL    HW218162   5.934   0.525   0.772
 5755SOL     OW18163   1.161   3.999   6.454
 5755SOL    HW118164   1.193   3.930   6.390
 5755SOL    HW218165   1.078   3.966   6.501
 5756SOL     OW18166   4.889   6.675   1.422
 5756SOL    HW118167   4.840   6.620   1.355
 5756SOL    HW218168   4.954   6.735   1.375
 5757SOL     OW18169   2.102   2.073   4.156
 5757SOL    HW118170   2.148   2.088   4.069
 5757SOL    HW218171   2.004   2.092   4.146
 5758SOL     OW18172   6.162   6.801   2.907
 5758SOL    HW118173   6.068   6.797   2.873
 5758SOL    HW218174   6.195   6.709   2.928
 5759SOL     OW18175   3.234   6.077   2.674
 5759SOL    HW118176   3.301   6.150   2.659
 5759SOL    HW218177   3.214   6.070   2.772
 5760SOL     OW18178   0.257   2.332   0.066
 5760SOL    HW118179   0.175   2.374   0.028
 5760SOL    HW218180   0.239   2.236   0.087
 5761SOL     OW18181   0.268   0.020   5.222
 5761SOL    HW118182   0.229   0.106   5.188
 5761SOL    HW218183   0.198   6.975   5.218
 5762SOL     OW18184   0.411   6.551   5.987
 5762SOL    HW118185   0.473   6.506   5.922
 5762SOL    HW218186   0.353   6.482   6.030
 5763SOL     OW18187   4.507   0.238   6.993
 5763SOL    HW118188   4.426   0.280   6.953
 5763SOL    HW218189   4.518   0.145   6.956
 5764SOL     OW18190   3.390   6.140   4.055
 5764SOL    HW118191   3.341   6.198   3.990
 5764SOL    HW218192   3.472   6.104   4.012
 5765SOL     OW18193   5.698   6.755   3.228
 5765SOL    HW118194   5.626   6.804   3.278
 5765SOL    HW218195   5.776   6.741   3.289
 5766SOL     OW18196   1.091   1.168   4.325
 5766SOL    HW118197   1.043   1.254   4.307
 5766SOL    HW218198   1.051   1.124   4.405
 5767SOL     OW18199   6.061   0.112   0.558
 5767SOL    HW118200   6.153   0.148   0.576
 5767SOL    HW218201   6.068   0.026   0.506
 5768SOL     OW18202   1.699   0.310   5.000
 5768SOL    HW118203   1.685   0.404   4.972
 5768SOL    HW218204   1.620   0.255   4.974
 5769SOL     OW18205   1.171   2.458   6.456
 5769SOL    HW118206   1.089   2.417   6.416
 5769SOL    HW218207   1.232   2.386   6.487
 5770SOL     OW18208   1.000   2.846   1.874
 5770SOL    HW118209   0.977   2.812   1.965
 5770SOL    HW218210   0.936   2.919   1.849
 5771SOL     OW18211   3.432   5.851   3.517
 5771SOL    HW118212   3.451   5.856   3.419
 5771SOL    HW218213   3.341   5.813   3.531
 5772SOL     OW18214   2.984   1.243   3.272
 5772SOL    HW118215   3.076   1.271   3.243
 5772SOL    HW218216   2.989   1.155   3.320
 5773SOL     OW18217   5.436   0.363   4.453
 5773SOL    HW118218   5.431   0.317   4.364
 5773SOL    HW218219   5.389   0.307   4.522
 5774SOL     OW18220   1.204   6.808   4.115
 5774SOL    HW118221   1.247   6.744   4.051
 5774SOL    HW218222   1.123   6.848   4.072
 5775SOL     OW18223   6.198   4.883   2.330
 5775SOL    HW118224   6.261   4.863   2.405
 5775SOL    HW218225   6.106   4.856   2.355
 5776SOL     OW18226   4.068   0.987   4.533
 5776SOL    HW118227   3.991   1.033   4.489
 5776SOL    HW218228   4.059   0.996   4.632
 5777SOL     OW18229   6.840   1.102   1.631
 5777SOL    HW118230   6.920   1.054   1.595
 5777SOL    HW218231   6.757   1.052   1.607
 5778SOL     OW18232   0.100   0.648   6.157
 5778SOL    HW118233   0.124   0.731   6.107
 5778SOL    HW218234   0.143   0.650   6.247
 5779SOL     OW18235   5.555   1.839   0.071
 5779SOL    HW118236   5.556   1.740   0.056
 5779SOL    HW218237   5.544   1.858   0.169
 5780SOL     OW18238   5.590   4.950   4.019
 5780SOL    HW118239   5.582   4.852   4.037
 5780SOL    HW218240   5.676   4.984   4.057
 5781SOL     OW18241   1.106   6.201   5.507
 5781SOL    HW118242   1.121   6.268   5.579
 5781SOL    HW218243   1.092   6.111   5.548
 5782SOL     OW18244   5.701   0.924   1.165
 5782SOL    HW118245   5.671   0.870   1.087
 5782SOL    HW218246   5.701   1.021   1.141
 5783SOL     OW18247   2.361   2.229   6.439
 5783SOL    HW118248   2.435   2.210   6.503
 5783SOL    HW218249   2.277   2.184   6.471
 5784SOL     OW18250   6.516   6.070   0.493
 5784SOL    HW118251   6.507   6.126   0.411
 5784SOL    HW218252   6.453   5.993   0.488
 5785SOL     OW18253   1.406   1.420   2.370
 5785SOL    HW118254   1.423   1.367   2.453
 5785SOL    HW218255   1.427   1.363   2.290
 5786SOL     OW18256   5.842   4.537   1.899
 5786SOL    HW118257   5.817   4.512   1.993
 5786SOL    HW218258   5.933   4.503   1.878
 5787SOL     OW18259   2.232   2.456   6.280
 5787SOL    HW118260   2.182   2.388   6.227
 5787SOL    HW218261   2.291   2.409   6.347
 5788SOL     OW18262   3.393   1.021   4.256
 5788SOL    HW118263   3.418   0.941   4.201
 5788SOL    HW218264   3.366   0.991   4.348
 5789SOL     OW18265   3.347   4.832   6.121
 5789SOL    HW118266   3.380   4.919   6.158
 5789SOL    HW218267   3.426   4.776   6.093
 5790SOL     OW18268   2.206   3.272   3.830
 5790SOL    HW118269   2.212   3.235   3.923
 5790SOL    HW218270   2.111   3.288   3.806
 5791SOL     OW18271   1.520   0.985   3.463
 5791SOL    HW118272   1.453   0.941   3.405
 5791SOL    HW218273   1.603   1.005   3.410
 5792SOL     OW18274   1.247   1.669   3.256
 5792SOL    HW118275   1.218   1.749   3.203
 5792SOL    HW218276   1.184   1.656   3.333
 5793SOL     OW18277   6.394   1.516   5.624
 5793SOL    HW118278   6.328   1.556   5.687
 5793SOL    HW218279   6.362   1.529   5.530
 5794SOL     OW18280   6.918   3.592   6.634
 5794SOL    HW118281   7.018   3.583   6.626
 5794SOL    HW218282   6.882   3.510   6.679
 5795SOL     OW18283   6.932   4.666   0.046
 5795SOL    HW118284   6.929   4.740   7.006
 5795SOL    HW218285   6.841   4.625   0.055
 5796SOL     OW18286   2.902   1.940   0.498
 5796SOL    HW118287   2.823   1.993   0.469
 5796SOL    HW218288   2.877   1.881   0.574
 5797SOL     OW18289   2.993   3.201   5.961
 5797SOL    HW118290   2.950   3.189   5.871
 5797SOL    HW218291   2.923   3.224   6.028
 5798SOL     OW18292   6.192   4.944   4.127
 5798SOL    HW118293   6.291   4.932   4.133
 5798SOL    HW218294   6.153   4.952   4.219
 5799SOL     OW18295   5.218   0.262   4.281
 5799SOL    HW118296   5.202   0.177   4.229
 5799SOL    HW218297   5.247   0.334   4.218
 5800SOL     OW18298   5.142   6.098   6.313
 5800SOL    HW118299   5.052   6.123   6.279
 5800SOL    HW218300   5.157   6.142   6.402
 5801SOL     OW18301   1.881   0.739   1.982
 5801SOL    HW118302   1.912   0.795   1.905
 5801SOL    HW218303   1.924   0.649   1.978
 5802SOL     OW18304   0.521   2.621   4.322
 5802SOL    HW118305   0.580   2.697   4.297
 5802SOL    HW218306   0.438   2.624   4.267
 5803SOL     OW18307   1.532   4.899   0.858
 5803SOL    HW118308   1.554   4.841   0.780
 5803SOL    HW218309   1.448   4.866   0.902
 5804SOL     OW18310   0.553   2.963   6.750
 5804SOL    HW118311   0.589   2.956   6.657
 5804SOL    HW218312   0.505   3.050   6.762
 5805SOL     OW18313   4.822   3.362   6.854
 5805SOL    HW118314   4.760   3.434   6.887
 5805SOL    HW218315   4.903   3.404   6.813
 5806SOL     OW18316   5.969   6.302   5.813
 5806SOL    HW118317   5.931   6.217   5.850
 5806SOL    HW218318   5.951   6.378   5.875
 5807SOL     OW18319   1.972   4.350   0.863
 5807SOL    HW118320   1.932   4.422   0.920
 5807SOL    HW218321   2.006   4.389   0.778
 5808SOL     OW18322   6.625   1.409   3.973
 5808SOL    HW118323   6.699   1.359   3.929
 5808SOL    HW218324   6.664   1.482   4.030
 5809SOL     OW18325   0.478   3.639   3.548
 5809SOL    HW118326   0.541   3.714   3.527
 5809SOL    HW218327   0.530   3.558   3.573
 5810SOL     OW18328   3.376   1.574   2.894
 5810SOL    HW118329   3.284   1.580   2.932
 5810SOL    HW218330   3.442   1.560   2.968
 5811SOL     OW18331   3.247   6.959   1.213
 5811SOL    HW118332   3.153   6.929   1.230
 5811SOL    HW218333   3.247   0.028   1.183
 5812SOL     OW18334   4.890   0.673   4.874
 5812SOL    HW118335   4.918   0.664   4.778
 5812SOL    HW218336   4.971   0.666   4.933
 5813SOL     OW18337   1.485   2.563   4.647
 5813SOL    HW118338   1.421   2.595   4.576
 5813SOL    HW218339   1.565   2.522   4.603
 5814SOL     OW18340   0.515   4.823   1.246
 5814SOL    HW118341   0.598   4.796   1.197
 5814SOL    HW218342   0.523   4.918   1.275
 5815SOL     OW18343   4.428   6.372   5.419
 5815SOL    HW118344   4.376   6.444   5.372
 5815SOL    HW218345   4.412   6.285   5.372
 5816SOL     OW18346   5.614   6.489   6.747
 5816SOL    HW118347   5.520   6.524   6.742
 5816SOL    HW218348   5.625   6.414   6.682
 5817SOL     OW18349   6.429   2.505   6.277
 5817SOL    HW118350   6.360   2.444   6.240
 5817SOL    HW218351   6.442   2.582   6.215
 5818SOL     OW18352   5.856   6.686   4.945
 5818SOL    HW118353   5.775   6.673   5.002
 5818SOL    HW218354   5.894   6.777   4.962
 5819SOL     OW18355   6.496   0.953   1.729
 5819SOL    HW118356   6.405   0.963   1.771
 5819SOL    HW218357   6.566   0.973   1.796
 5820SOL     OW18358   5.374   4.681   1.613
 5820SOL    HW118359   5.333   4.632   1.690
 5820SOL    HW218360   5.313   4.754   1.584
 5821SOL     OW18361   2.641   6.348   2.470
 5821SOL    HW118362   2.688   6.357   2.558
 5821SOL    HW218363   2.706   6.313   2.402
 5822SOL     OW18364   0.161   0.453   2.855
 5822SOL    HW118365   0.174   0.358   2.883
 5822SOL    HW218366   0.078   0.461   2.800
 5823SOL     OW18367   1.449   2.186   4.110
 5823SOL    HW118368   1.467   2.282   4.131
 5823SOL    HW218369   1.359   2.161   4.147
 5824SOL     OW18370   5.014   0.571   3.863
 5824SOL    HW118371   4.942   0.502   3.863
 5824SOL    HW218372   5.021   0.613   3.773
 5825SOL     OW18373   2.977   0.778   1.700
 5825SOL    HW118374   3.050   0.717   1.732
 5825SOL    HW218375   2.996   0.807   1.607
 5826SOL     OW18376   0.727   6.775   3.325
 5826SOL    HW118377   0.741   6.869   3.355
 5826SOL    HW218378   0.678   6.774   3.238
 5827SOL     OW18379   1.724   5.512   6.228
 5827SOL    HW118380   1.789   5.474   6.162
 5827SOL    HW218381   1.700   5.605   6.201
 5828SOL     OW18382   6.434   1.438   1.015
 5828SOL    HW118383   6.471   1.467   1.103
 5828SOL    HW218384   6.509   1.412   0.954
 5829SOL     OW18385   1.984   0.653   1.284
 5829SOL    HW118386   1.895   0.683   1.319
 5829SOL    HW218387   2.009   0.707   1.204
 5830SOL     OW18388   1.088   1.020   6.016
 5830SOL    HW118389   1.075   0.990   6.111
 5830SOL    HW218390   1.161   0.967   5.974
 5831SOL     OW18391   5.622   5.453   2.686
 5831SOL    HW118392   5.609   5.552   2.696
 5831SOL    HW218393   5.720   5.432   2.687
 5832SOL     OW18394   4.134   3.479   4.319
 5832SOL    HW118395   4.141   3.382   4.293
 5832SOL    HW218396   4.123   3.534   4.236
 5833SOL     OW18397   3.076   3.034   4.454
 5833SOL    HW118398   3.138   3.008   4.380
 5833SOL    HW218399   3.128   3.048   4.538
 5834SOL     OW18400   5.425   1.553   6.534
 5834SOL    HW118401   5.382   1.517   6.451
 5834SOL    HW218402   5.396   1.648   6.547
 5835SOL     OW18403   5.965   2.451   4.547
 5835SOL    HW118404   5.947   2.354   4.564
 5835SOL    HW218405   5.888   2.490   4.497
 5836SOL     OW18406   3.866   6.797   3.597
 5836SOL    HW118407   3.790   6.740   3.626
 5836SOL    HW218408   3.836   6.859   3.525
 5837SOL     OW18409   4.089   4.096   0.117
 5837SOL    HW118410   4.038   4.098   0.203
 5837SOL    HW218411   4.133   4.007   0.106
 5838SOL     OW18412   0.972   1.533   6.193
 5838SOL    HW118413   1.019   1.532   6.281
 5838SOL    HW218414   1.029   1.488   6.124
 5839SOL     OW18415   0.244   2.526   2.448
 5839SOL    HW118416   0.160   2.540   2.395
 5839SOL    HW218417   0.323   2.559   2.397
 5840SOL     OW18418   3.286   5.436   0.232
 5840SOL    HW118419   3.376   5.420   0.270
 5840SOL    HW218420   3.289   5.427   0.133
 5841SOL     OW18421   6.675   2.913   3.501
 5841SOL    HW118422   6.698   2.873   3.412
 5841SOL    HW218423   6.595   2.866   3.539
 5842SOL     OW18424   3.363   2.642   1.018
 5842SOL    HW118425   3.266   2.637   1.043
 5842SOL    HW218426   3.419   2.606   1.093
 5843SOL     OW18427   0.334   1.726   1.754
 5843SOL    HW118428   0.245   1.686   1.732
 5843SOL    HW218429   0.398   1.712   1.678
 5844SOL     OW18430   1.846   6.475   6.484
 5844SOL    HW118431   1.798   6.487   6.571
 5844SOL    HW218432   1.783   6.434   6.418
 5845SOL     OW18433   2.551   2.432   4.215
 5845SOL    HW118434   2.540   2.369   4.292
 5845SOL    HW218435   2.639   2.478   4.221
 5846SOL     OW18436   0.512   3.421   6.563
 5846SOL    HW118437   0.459   3.497   6.526
 5846SOL    HW218438   0.580   3.391   6.496
 5847SOL     OW18439   1.488   2.722   4.335
 5847SOL    HW118440   1.414   2.661   4.364
 5847SOL    HW218441   1.450   2.795   4.277
 5848SOL     OW18442   1.085   4.433   3.549
 5848SOL    HW118443   0.990   4.456   3.525
 5848SOL    HW218444   1.129   4.513   3.589
 5849SOL     OW18445   2.074   0.323   5.534
 5849SOL    HW118446   2.054   0.385   5.458
 5849SOL    HW218447   2.160   0.351   5.578
 5850SOL     OW18448   0.492   4.975   3.008
 5850SOL    HW118449   0.589   4.977   2.981
 5850SOL    HW218450   0.465   5.064   3.044
 5851SOL     OW18451   6.683   3.545   2.152
 5851SOL    HW118452   6.776   3.510   2.144
 5851SOL    HW218453   6.655   3.585   2.065
 5852SOL     OW18454   3.537   6.535   2.451
 5852SOL    HW118455   3.496   6.448   2.480
 5852SOL    HW218456   3.588   6.575   2.527
 5853SOL     OW18457   4.887   4.140   5.376
 5853SOL    HW118458   4.944   4.059   5.364
 5853SOL    HW218459   4.859   4.148   5.471
 5854SOL     OW18460   1.284   1.005   0.037
 5854SOL    HW118461   1.207   1.027   7.004
 5854SOL    HW218462   1.266   0.919   0.084
 5855SOL     OW18463   2.034   1.421   5.519
 5855SOL    HW118464   2.013   1.379   5.430
 5855SOL    HW218465   1.979   1.378   5.590
 5856SOL     OW18466   0.627   6.636   3.993
 5856SOL    HW118467   0.669   6.727   3.997
 5856SOL    HW218468   0.581   6.617   4.080
 5857SOL     OW18469   1.051   2.484   5.308
 5857SOL    HW118470   0.971   2.426   5.317
 5857SOL    HW218471   1.038   2.549   5.233
 5858SOL     OW18472   3.326   0.296   4.193
 5858SOL    HW118473   3.370   0.348   4.266
 5858SOL    HW218474   3.274   0.358   4.134
 5859SOL     OW18475   5.693   4.811   1.836
 5859SOL    HW118476   5.743   4.839   1.754
 5859SOL    HW218477   5.674   4.713   1.832
 5860SOL     OW18478   6.383   4.511   0.281
 5860SOL    HW118479   6.413   4.416   0.282
 5860SOL    HW218480   6.283   4.515   0.291
 5861SOL     OW18481   6.557   2.179   4.918
 5861SOL    HW118482   6.502   2.171   5.001
 5861SOL    HW218483   6.522   2.115   4.849
 5862SOL     OW18484   6.379   5.366   4.325
 5862SOL    HW118485   6.411   5.446   4.273
 5862SOL    HW218486   6.317   5.313   4.268
 5863SOL     OW18487   2.040   1.476   1.446
 5863SOL    HW118488   2.106   1.436   1.510
 5863SOL    HW218489   2.006   1.562   1.484
 5864SOL     OW18490   4.402   5.029   6.922
 5864SOL    HW118491   4.397   4.945   6.976
 5864SOL    HW218492   4.422   5.106   6.982
 5865SOL     OW18493   4.492   0.374   2.885
 5865SOL    HW118494   4.526   0.371   2.979
 5865SOL    HW218495   4.393   0.383   2.885
 5866SOL     OW18496   3.816   1.493   6.958
 5866SOL    HW118497   3.877   1.514   0.007
 5866SOL    HW218498   3.733   1.449   6.992
 5867SOL     OW18499   6.640   3.165   2.191
 5867SOL    HW118500   6.634   3.081   2.245
 5867SOL    HW218501   6.561   3.223   2.211
 5868SOL     OW18502   0.456   6.217   5.593
 5868SOL    HW118503   0.421   6.126   5.615
 5868SOL    HW218504   0.390   6.265   5.535
 5869SOL     OW18505   2.317   5.187   4.939
 5869SOL    HW118506   2.368   5.194   5.025
 5869SOL    HW218507   2.244   5.256   4.938
 5870SOL     OW18508   5.703   5.952   4.437
 5870SOL    HW118509   5.783   5.940   4.379
 5870SOL    HW218510   5.722   6.022   4.506
 5871SOL     OW18511   3.628   4.799   0.890
 5871SOL    HW118512   3.635   4.770   0.795
 5871SOL    HW218513   3.537   4.838   0.906
 5872SOL     OW18514   4.382   5.845   3.870
 5872SOL    HW118515   4.300   5.897   3.845
 5872SOL    HW218516   4.391   5.766   3.809
 5873SOL     OW18517   1.977   3.356   1.162
 5873SOL    HW118518   1.942   3.314   1.245
 5873SOL    HW218519   1.952   3.453   1.160
 5874SOL     OW18520   0.720   4.520   6.473
 5874SOL    HW118521   0.690   4.440   6.524
 5874SOL    HW218522   0.659   4.597   6.490
 5875SOL     OW18523   4.385   2.677   1.302
 5875SOL    HW118524   4.374   2.755   1.239
 5875SOL    HW218525   4.304   2.618   1.295
 5876SOL     OW18526   4.147   4.632   6.136
 5876SOL    HW118527   4.119   4.724   6.162
 5876SOL    HW218528   4.134   4.570   6.214
 5877SOL     OW18529   5.864   6.091   2.539
 5877SOL    HW118530   5.894   6.004   2.578
 5877SOL    HW218531   5.944   6.143   2.509
 5878SOL     OW18532   4.881   4.402   3.025
 5878SOL    HW118533   4.931   4.369   3.105
 5878SOL    HW218534   4.799   4.451   3.054
 5879SOL     OW18535   3.062   4.429   5.611
 5879SOL    HW118536   3.071   4.336   5.648
 5879SOL    HW218537   3.099   4.430   5.518
 5880SOL     OW18538   5.581   2.428   1.137
 5880SOL    HW118539   5.656   2.397   1.078
 5880SOL    HW218540   5.601   2.520   1.171
 5881SOL     OW18541   0.805   6.121   3.751
 5881SOL    HW118542   0.727   6.161   3.701
 5881SOL    HW218543   0.830   6.181   3.827
 5882SOL     OW18544   1.274   5.511   4.310
 5882SOL    HW118545   1.298   5.414   4.316
 5882SOL    HW218546   1.357   5.566   4.321
 5883SOL     OW18547   0.274   5.859   0.250
 5883SOL    HW118548   0.266   5.801   0.330
 5883SOL    HW218549   0.183   5.890   0.221
 5884SOL     OW18550   1.029   1.314   1.358
 5884SOL    HW118551   1.107   1.358   1.315
 5884SOL    HW218552   0.951   1.314   1.295
 5885SOL     OW18553   6.937   5.876   2.194
 5885SOL    HW118554   6.976   5.943   2.131
 5885SOL    HW218555   7.006   5.849   2.262
 5886SOL     OW18556   2.059   4.079   3.302
 5886SOL    HW118557   1.964   4.056   3.324
 5886SOL    HW218558   2.072   4.177   3.310
 5887SOL     OW18559   2.117   3.616   1.526
 5887SOL    HW118560   2.060   3.593   1.605
 5887SOL    HW218561   2.210   3.635   1.557
 5888SOL     OW18562   2.882   6.369   1.512
 5888SOL    HW118563   2.972   6.367   1.555
 5888SOL    HW218564   2.813   6.337   1.577
 5889SOL     OW18565   4.645   1.163   1.494
 5889SOL    HW118566   4.730   1.215   1.504
 5889SOL    HW218567   4.655   1.097   1.419
 5890SOL     OW18568   2.611   5.027   2.629
 5890SOL    HW118569   2.528   5.006   2.681
 5890SOL    HW218570   2.682   4.960   2.652
 5891SOL     OW18571   2.195   2.920   6.801
 5891SOL    HW118572   2.256   2.917   6.722
 5891SOL    HW218573   2.247   2.946   6.882
 5892SOL     OW18574   0.523   2.134   1.646
 5892SOL    HW118575   0.577   2.105   1.567
 5892SOL    HW218576   0.516   2.060   1.712
 5893SOL     OW18577   0.177   6.161   1.092
 5893SOL    HW118578   0.155   6.233   1.158
 5893SOL    HW218579   0.266   6.121   1.115
 5894SOL     OW18580   2.995   5.531   6.421
 5894SOL    HW118581   2.930   5.457   6.440
 5894SOL    HW218582   3.008   5.538   6.322
 5895SOL     OW18583   6.397   2.172   4.479
 5895SOL    HW118584   6.404   2.096   4.544
 5895SOL    HW218585   6.312   2.221   4.494
 5896SOL     OW18586   5.432   2.101   0.725
 5896SOL    HW118587   5.414   2.165   0.800
 5896SOL    HW218588   5.345   2.071   0.686
 5897SOL     OW18589   2.971   3.750   0.443
 5897SOL    HW118590   3.023   3.674   0.481
 5897SOL    HW218591   3.021   3.835   0.457
 5898SOL     OW18592   3.948   0.436   6.821
 5898SOL    HW118593   3.865   0.407   6.869
 5898SOL    HW218594   4.025   0.381   6.852
 5899SOL     OW18595   6.773   0.355   0.880
 5899SOL    HW118596   6.729   0.425   0.825
 5899SOL    HW218597   6.796   0.392   0.970
 5900SOL     OW18598   5.024   5.839   2.149
 5900SOL    HW118599   5.077   5.782   2.212
 5900SOL    HW218600   5.086   5.889   2.088
 5901SOL     OW18601   1.314   0.478   4.952
 5901SOL    HW118602   1.227   0.435   4.928
 5901SOL    HW218603   1.307   0.521   5.042
 5902SOL     OW18604   4.707   3.853   5.483
 5902SOL    HW118605   4.667   3.919   5.419
 5902SOL    HW218606   4.792   3.817   5.444
 5903SOL     OW18607   4.983   1.184   5.874
 5903SOL    HW118608   4.978   1.164   5.971
 5903SOL    HW218609   5.041   1.264   5.858
 5904SOL     OW18610   6.980   5.489   1.375
 5904SOL    HW118611   0.030   5.521   1.430
 5904SOL    HW218612   6.944   5.404   1.414
 5905SOL     OW18613   6.481   1.751   5.216
 5905SOL    HW118614   6.391   1.789   5.236
 5905SOL    HW218615   6.533   1.816   5.159
 5906SOL     OW18616   4.165   0.285   4.937
 5906SOL    HW118617   4.069   0.257   4.926
 5906SOL    HW218618   4.204   0.305   4.847
 5907SOL     OW18619   1.094   3.601   5.756
 5907SOL    HW118620   1.084   3.554   5.844
 5907SOL    HW218621   1.162   3.674   5.765
 5908SOL     OW18622   4.885   2.704   6.803
 5908SOL    HW118623   4.806   2.676   6.857
 5908SOL    HW218624   4.902   2.801   6.818
 5909SOL     OW18625   6.811   4.719   3.090
 5909SOL    HW118626   6.740   4.775   3.132
 5909SOL    HW218627   6.885   4.778   3.058
 5910SOL     OW18628   1.639   4.202   2.848
 5910SOL    HW118629   1.634   4.104   2.863
 5910SOL    HW218630   1.716   4.224   2.789
 5911SOL     OW18631   0.408   1.240   5.036
 5911SOL    HW118632   0.431   1.143   5.040
 5911SOL    HW218633   0.324   1.256   5.089
 5912SOL     OW18634   0.872   3.686   5.925
 5912SOL    HW118635   0.877   3.639   5.837
 5912SOL    HW218636   0.887   3.784   5.911
 5913SOL     OW18637   1.563   2.810   5.614
 5913SOL    HW118638   1.513   2.870   5.676
 5913SOL    HW218639   1.534   2.828   5.519
 5914SOL     OW18640   0.896   5.543   0.337
 5914SOL    HW118641   0.969   5.512   0.276
 5914SOL    HW218642   0.828   5.470   0.347
 5915SOL     OW18643   5.520   4.108   4.856
 5915SOL    HW118644   5.516   4.171   4.934
 5915SOL    HW218645   5.434   4.057   4.850
 5916SOL     OW18646   3.025   0.777   6.624
 5916SOL    HW118647   2.948   0.789   6.561
 5916SOL    HW218648   2.991   0.788   6.718
 5917SOL     OW18649   3.435   3.244   1.801
 5917SOL    HW118650   3.485   3.186   1.866
 5917SOL    HW218651   3.451   3.211   1.708
 5918SOL     OW18652   3.239   2.089   3.704
 5918SOL    HW118653   3.312   2.040   3.751
 5918SOL    HW218654   3.252   2.080   3.605
 5919SOL     OW18655   1.835   1.323   5.696
 5919SOL    HW118656   1.837   1.396   5.763
 5919SOL    HW218657   1.886   1.244   5.730
 5920SOL     OW18658   2.162   3.572   6.514
 5920SOL    HW118659   2.094   3.613   6.575
 5920SOL    HW218660   2.160   3.618   6.426
 5921SOL     OW18661   3.543   6.413   4.157
 5921SOL    HW118662   3.620   6.411   4.093
 5921SOL    HW218663   3.501   6.322   4.162
 5922SOL     OW18664   6.701   5.024   2.544
 5922SOL    HW118665   6.668   5.113   2.574
 5922SOL    HW218666   6.625   4.970   2.508
 5923SOL     OW18667   1.075   6.813   3.158
 5923SOL    HW118668   1.151   6.754   3.131
 5923SOL    HW218669   1.101   6.866   3.238
 5924SOL     OW18670   6.199   2.019   4.732
 5924SOL    HW118671   6.171   2.082   4.805
 5924SOL    HW218672   6.120   1.968   4.700
 5925SOL     OW18673   6.779   6.927   1.400
 5925SOL    HW118674   6.747   7.021   1.412
 5925SOL    HW218675   6.710   6.863   1.436
 5926SOL     OW18676   2.410   7.003   1.836
 5926SOL    HW118677   2.446   6.967   1.922
 5926SOL    HW218678   2.310   7.008   1.841
 5927SOL     OW18679   2.090   5.726   0.782
 5927SOL    HW118680   1.996   5.756   0.768
 5927SOL    HW218681   2.104   5.637   0.737
 5928SOL     OW18682   6.653   6.618   0.858
 5928SOL    HW118683   6.635   6.716   0.864
 5928SOL    HW218684   6.590   6.577   0.792
 5929SOL     OW18685   0.258   0.564   6.380
 5929SOL    HW118686   0.345   0.614   6.374
 5929SOL    HW218687   0.266   0.476   6.333
 5930SOL     OW18688   6.879   1.915   5.138
 5930SOL    HW118689   6.787   1.953   5.147
 5930SOL    HW218690   6.933   1.940   5.218
 5931SOL     OW18691   6.474   4.567   0.566
 5931SOL    HW118692   6.464   4.653   0.617
 5931SOL    HW218693   6.452   4.583   0.470
 5932SOL     OW18694   2.353   0.726   0.451
 5932SOL    HW118695   2.284   0.749   0.519
 5932SOL    HW218696   2.431   0.682   0.495
 5933SOL     OW18697   5.548   2.419   3.440
 5933SOL    HW118698   5.630   2.476   3.427
 5933SOL    HW218699   5.558   2.334   3.389
 5934SOL     OW18700   4.471   3.569   1.661
 5934SOL    HW118701   4.383   3.569   1.707
 5934SOL    HW218702   4.496   3.663   1.635
 5935SOL     OW18703   3.801   3.471   2.694
 5935SOL    HW118704   3.882   3.413   2.700
 5935SOL    HW218705   3.826   3.561   2.657
 5936SOL     OW18706   6.570   5.834   6.851
 5936SOL    HW118707   6.521   5.921   6.859
 5936SOL    HW218708   6.637   5.826   6.925
 5937SOL     OW18709   0.701   3.351   1.098
 5937SOL    HW118710   0.643   3.409   1.156
 5937SOL    HW218711   0.761   3.408   1.043
 5938SOL     OW18712   3.213   5.184   1.322
 5938SOL    HW118713   3.231   5.111   1.257
 5938SOL    HW218714   3.285   5.185   1.392
 5939SOL     OW18715   0.155   6.956   2.553
 5939SOL    HW118716   0.167   6.964   2.454
 5939SOL    HW218717   0.238   6.984   2.600
 5940SOL     OW18718   4.281   4.887   2.482
 5940SOL    HW118719   4.350   4.950   2.518
 5940SOL    HW218720   4.294   4.796   2.521
 5941SOL     OW18721   6.162   3.003   3.778
 5941SOL    HW118722   6.070   2.963   3.783
 5941SOL    HW218723   6.229   2.935   3.806
 5942SOL     OW18724   0.164   2.129   5.067
 5942SOL    HW118725   0.067   2.145   5.051
 5942SOL    HW218726   0.186   2.034   5.044
 5943SOL     OW18727   1.423   6.076   0.758
 5943SOL    HW118728   1.489   6.002   0.745
 5943SOL    HW218729   1.333   6.048   0.725
 5944SOL     OW18730   5.241   2.738   3.110
 5944SOL    HW118731   5.318   2.711   3.053
 5944SOL    HW218732   5.208   2.659   3.162
 5945SOL     OW18733   6.498   6.307   6.441
 5945SOL    HW118734   6.525   6.383   6.383
 5945SOL    HW218735   6.577   6.276   6.494
 5946SOL     OW18736   3.951   2.183   5.158
 5946SOL    HW118737   3.856   2.177   5.186
 5946SOL    HW218738   3.961   2.149   5.065
 5947SOL     OW18739   5.605   4.269   3.453
 5947SOL    HW118740   5.542   4.331   3.502
 5947SOL    HW218741   5.662   4.323   3.391
 5948SOL     OW18742   2.761   5.141   3.104
 5948SOL    HW118743   2.826   5.193   3.048
 5948SOL    HW218744   2.771   5.169   3.199
 5949SOL     OW18745   5.585   4.372   2.903
 5949SOL    HW118746   5.510   4.384   2.838
 5949SOL    HW218747   5.666   4.422   2.870
 5950SOL     OW18748   0.791   2.312   5.342
 5950SOL    HW118749   0.708   2.341   5.390
 5950SOL    HW218750   0.767   2.248   5.270
 5951SOL     OW18751   1.985   0.833   3.215
 5951SOL    HW118752   1.982   0.888   3.131
 5951SOL    HW218753   1.893   0.805   3.240
 5952SOL     OW18754   6.955   6.572   4.456
 5952SOL    HW118755   6.933   6.474   4.456
 5952SOL    HW218756   7.008   6.594   4.374
 5953SOL     OW18757   1.537   4.155   5.644
 5953SOL    HW118758   1.606   4.182   5.711
 5953SOL    HW218759   1.468   4.228   5.637
 5954SOL     OW18760   1.071   4.511   5.981
 5954SOL    HW118761   1.026   4.592   5.943
 5954SOL    HW218762   1.032   4.429   5.940
 5955SOL     OW18763   3.711   5.146   2.016
 5955SOL    HW118764   3.686   5.064   2.067
 5955SOL    HW218765   3.641   5.216   2.029
 5956SOL     OW18766   0.379   1.505   1.049
 5956SOL    HW118767   0.473   1.537   1.048
 5956SOL    HW218768   0.325   1.557   0.982
 5957SOL     OW18769   4.304   6.831   6.520
 5957SOL    HW118770   4.268   6.815   6.428
 5957SOL    HW218771   4.229   6.855   6.582
 5958SOL     OW18772   0.887   5.918   2.453
 5958SOL    HW118773   0.906   5.825   2.420
 5958SOL    HW218774   0.960   5.946   2.516
 5959SOL     OW18775   1.366   0.731   5.125
 5959SOL    HW118776   1.314   0.789   5.063
 5959SOL    HW218777   1.389   0.783   5.208
 5960SOL     OW18778   3.128   5.891   4.706
 5960SOL    HW118779   3.032   5.865   4.707
 5960SOL    HW218780   3.182   5.823   4.756
 5961SOL     OW18781   3.671   0.433   5.175
 5961SOL    HW118782   3.583   0.391   5.196
 5961SOL    HW218783   3.666   0.477   5.085
 5962SOL     OW18784   5.384   4.395   3.524
 5962SOL    HW118785   5.402   4.472   3.463
 5962SOL    HW218786   5.308   4.342   3.489
 5963SOL     OW18787   4.269   3.952   1.645
 5963SOL    HW118788   4.180   3.927   1.684
 5963SOL    HW218789   4.297   4.040   1.683
 5964SOL     OW18790   1.578   3.559   4.999
 5964SOL    HW118791   1.539   3.601   5.081
 5964SOL    HW218792   1.676   3.577   4.995
 5965SOL     OW18793   2.156   2.367   4.283
 5965SOL    HW118794   2.139   2.411   4.370
 5965SOL    HW218795   2.129   2.271   4.288
 5966SOL     OW18796   0.856   5.630   3.867
 5966SOL    HW118797   0.774   5.614   3.921
 5966SOL    HW218798   0.932   5.654   3.927
 5967SOL     OW18799   5.332   5.401   0.920
 5967SOL    HW118800   5.260   5.370   0.858
 5967SOL    HW218801   5.297   5.474   0.979
 5968SOL     OW18802   2.292   2.032   4.508
 5968SOL    HW118803   2.216   2.023   4.573
 5968SOL    HW218804   2.271   1.978   4.426
 5969SOL     OW18805   0.416   2.479   3.264
 5969SOL    HW118806   0.413   2.453   3.168
 5969SOL    HW218807   0.474   2.560   3.275
 5970SOL     OW18808   1.794   4.470   3.846
 5970SOL    HW118809   1.861   4.429   3.908
 5970SOL    HW218810   1.739   4.397   3.803
 5971SOL     OW18811   3.277   5.628   3.511
 5971SOL    HW118812   3.272   5.550   3.448
 5971SOL    HW218813   3.222   5.608   3.593
 5972SOL     OW18814   4.895   7.011   1.472
 5972SOL    HW118815   4.963   6.971   1.410
 5972SOL    HW218816   4.913   6.981   1.565
 5973SOL     OW18817   3.012   4.890   3.265
 5973SOL    HW118818   2.958   4.923   3.342
 5973SOL    HW218819   2.961   4.817   3.218
 5974SOL     OW18820   0.474   3.835   0.053
 5974SOL    HW118821   0.431   3.874   0.134
 5974SOL    HW218822   0.428   3.869   6.998
 5975SOL     OW18823   1.830   3.259   6.931
 5975SOL    HW118824   1.793   3.244   6.840
 5975SOL    HW218825   1.920   3.216   6.939
 5976SOL     OW18826   3.189   3.981   4.356
 5976SOL    HW118827   3.120   3.909   4.345
 5976SOL    HW218828   3.197   4.005   4.453
 5977SOL     OW18829   0.579   3.582   3.044
 5977SOL    HW118830   0.652   3.519   3.021
 5977SOL    HW218831   0.588   3.666   2.990
 5978SOL     OW18832   5.246   5.084   1.317
 5978SOL    HW118833   5.264   5.078   1.219
 5978SOL    HW218834   5.236   5.180   1.343
 5979SOL     OW18835   1.356   0.929   1.781
 5979SOL    HW118836   1.299   1.001   1.741
 5979SOL    HW218837   1.352   0.936   1.881
 5980SOL     OW18838   5.789   2.644   5.390
 5980SOL    HW118839   5.809   2.679   5.298
 5980SOL    HW218840   5.798   2.719   5.456
 5981SOL     OW18841   3.536   2.236   0.519
 5981SOL    HW118842   3.456   2.294   0.537
 5981SOL    HW218843   3.576   2.262   0.432
 5982SOL     OW18844   6.471   3.179   6.419
 5982SOL    HW118845   6.491   3.273   6.389
 5982SOL    HW218846   6.525   3.158   6.501
 5983SOL     OW18847   0.021   0.844   4.113
 5983SOL    HW118848   0.082   0.923   4.120
 5983SOL    HW218849   6.958   0.874   4.083
 5984SOL     OW18850   0.238   0.350   6.214
 5984SOL    HW118851   0.203   0.359   6.121
 5984SOL    HW218852   0.287   0.264   6.224
 5985SOL     OW18853   5.645   3.622   3.941
 5985SOL    HW118854   5.725   3.675   3.966
 5985SOL    HW218855   5.609   3.655   3.854
 5986SOL     OW18856   3.215   4.060   2.281
 5986SOL    HW118857   3.279   4.137   2.279
 5986SOL    HW218858   3.265   3.975   2.261
 5987SOL     OW18859   4.270   0.038   5.118
 5987SOL    HW118860   4.264   0.103   5.042
 5987SOL    HW218861   4.210   0.068   5.192
 5988SOL     OW18862   3.311   6.884   5.851
 5988SOL    HW118863   3.318   6.795   5.806
 5988SOL    HW218864   3.238   6.882   5.919
 5989SOL     OW18865   3.161   2.116   6.388
 5989SOL    HW118866   3.072   2.092   6.428
 5989SOL    HW218867   3.160   2.212   6.361
 5990SOL     OW18868   2.532   5.668   3.395
 5990SOL    HW118869   2.569   5.705   3.310
 5990SOL    HW218870   2.568   5.576   3.411
 5991SOL     OW18871   4.101   4.728   2.760
 5991SOL    HW118872   4.006   4.749   2.781
 5991SOL    HW218873   4.125   4.766   2.670
 5992SOL     OW18874   3.841   2.054   4.123
 5992SOL    HW118875   3.745   2.063   4.149
 5992SOL    HW218876   3.848   2.043   4.024
 5993SOL     OW18877   2.611   5.700   3.811
 5993SOL    HW118878   2.611   5.714   3.910
 5993SOL    HW218879   2.553   5.769   3.768
 5994SOL     OW18880   6.104   2.549   0.512
 5994SOL    HW118881   6.046   2.567   0.433
 5994SOL    HW218882   6.122   2.635   0.560
 5995SOL     OW18883   0.286   3.946   1.522
 5995SOL    HW118884   0.207   4.004   1.500
 5995SOL    HW218885   0.256   3.867   1.576
 5996SOL     OW18886   1.086   6.406   5.766
 5996SOL    HW118887   0.992   6.434   5.745
 5996SOL    HW218888   1.149   6.453   5.705
 5997SOL     OW18889   6.887   0.205   1.564
 5997SOL    HW118890   6.946   0.226   1.485
 5997SOL    HW218891   6.821   0.279   1.576
 5998SOL     OW18892   4.874   3.557   2.848
 5998SOL    HW118893   4.850   3.511   2.934
 5998SOL    HW218894   4.953   3.616   2.863
 5999SOL     OW18895   2.121   3.177   3.006
 5999SOL    HW118896   2.151   3.103   2.945
 5999SOL    HW218897   2.143   3.265   2.965
 6000SOL     OW18898   4.784   0.758   3.458
 6000SOL    HW118899   4.793   0.843   3.509
 6000SOL    HW218900   4.803   0.775   3.361
 6001SOL     OW18901   4.818   1.154   0.078
 6001SOL    HW118902   4.782   1.062   0.065
 6001SOL    HW218903   4.756   1.206   0.136
 6002SOL     OW18904   1.759   0.424   2.199
 6002SOL    HW118905   1.799   0.465   2.117
 6002SOL    HW218906   1.704   0.344   2.172
 6003SOL     OW18907   5.048   5.375   3.679
 6003SOL    HW118908   5.127   5.322   3.649
 6003SOL    HW218909   4.996   5.324   3.747
 6004SOL     OW18910   0.834   3.045   1.765
 6004SOL    HW118911   0.834   3.016   1.669
 6004SOL    HW218912   0.842   3.145   1.769
 6005SOL     OW18913   2.243   6.886   2.624
 6005SOL    HW118914   2.283   6.830   2.696
 6005SOL    HW218915   2.186   6.828   2.565
 6006SOL     OW18916   2.362   6.542   6.333
 6006SOL    HW118917   2.268   6.537   6.367
 6006SOL    HW218918   2.376   6.629   6.286
 6007SOL     OW18919   5.612   3.640   4.358
 6007SOL    HW118920   5.583   3.615   4.450
 6007SOL    HW218921   5.618   3.558   4.301
 6008SOL     OW18922   5.362   3.963   2.228
 6008SOL    HW118923   5.394   3.948   2.322
 6008SOL    HW218924   5.284   3.903   2.210
 6009SOL     OW18925   3.418   1.527   4.810
 6009SOL    HW118926   3.323   1.516   4.839
 6009SOL    HW218927   3.421   1.543   4.711
 6010SOL     OW18928   1.931   5.186   3.289
 6010SOL    HW118929   1.916   5.112   3.223
 6010SOL    HW218930   1.859   5.183   3.359
 6011SOL     OW18931   6.082   2.438   1.522
 6011SOL    HW118932   6.026   2.409   1.444
 6011SOL    HW218933   6.057   2.531   1.549
 6012SOL     OW18934   0.794   2.195   0.878
 6012SOL    HW118935   0.834   2.275   0.832
 6012SOL    HW218936   0.759   2.131   0.810
 6013SOL     OW18937   5.282   0.869   2.520
 6013SOL    HW118938   5.329   0.877   2.432
 6013SOL    HW218939   5.199   0.925   2.519
 6014SOL     OW18940   6.069   1.792   0.187
 6014SOL    HW118941   6.029   1.809   0.097
 6014SOL    HW218942   6.026   1.853   0.254
 6015SOL     OW18943   6.252   6.954   3.830
 6015SOL    HW118944   6.221   0.001   3.770
 6015SOL    HW218945   6.331   6.984   3.884
 6016SOL     OW18946   0.873   0.416   5.335
 6016SOL    HW118947   0.805   0.391   5.405
 6016SOL    HW218948   0.932   0.337   5.316
 6017SOL     OW18949   0.488   3.598   2.331
 6017SOL    HW118950   0.461   3.641   2.245
 6017SOL    HW218951   0.570   3.643   2.367
 6018SOL     OW18952   3.247   4.828   1.925
 6018SOL    HW118953   3.254   4.810   1.826
 6018SOL    HW218954   3.328   4.791   1.971
 6019SOL     OW18955   0.039   6.866   3.513
 6019SOL    HW118956   0.091   6.910   3.586
 6019SOL    HW218957   6.981   6.828   3.550
 6020SOL     OW18958   2.752   6.151   2.826
 6020SOL    HW118959   2.780   6.090   2.752
 6020SOL    HW218960   2.653   6.161   2.826
 6021SOL     OW18961   2.649   0.855   3.389
 6021SOL    HW118962   2.731   0.888   3.343
 6021SOL    HW218963   2.657   0.872   3.488
 6022SOL     OW18964   3.346   2.681   5.819
 6022SOL    HW118965   3.433   2.724   5.844
 6022SOL    HW218966   3.283   2.750   5.783
 6023SOL     OW18967   0.625   2.136   2.003
 6023SOL    HW118968   0.624   2.233   1.979
 6023SOL    HW218969   0.560   2.086   1.946
 6024SOL     OW18970   6.097   4.436   1.805
 6024SOL    HW118971   6.154   4.470   1.730
 6024SOL    HW218972   6.154   4.383   1.869
 6025SOL     OW18973   4.447   2.366   2.378
 6025SOL    HW118974   4.479   2.301   2.448
 6025SOL    HW218975   4.510   2.443   2.374
 6026SOL     OW18976   1.279   4.384   5.032
 6026SOL    HW118977   1.358   4.398   4.971
 6026SOL    HW218978   1.287   4.445   5.111
 6027SOL     OW18979   3.632   4.241   0.221
 6027SOL    HW118980   3.564   4.314   0.214
 6027SOL    HW218981   3.586   4.154   0.233
 6028SOL     OW18982   0.995   4.182   5.649
 6028SOL    HW118983   1.083   4.153   5.613
 6028SOL    HW218984   0.929   4.191   5.575
 6029SOL     OW18985   1.954   5.345   1.152
 6029SOL    HW118986   1.965   5.273   1.221
 6029SOL    HW218987   1.892   5.415   1.188
 6030SOL     OW18988   1.755   6.088   1.167
 6030SOL    HW118989   1.819   6.049   1.233
 6030SOL    HW218990   1.699   6.015   1.127
 6031SOL     OW18991   4.538   1.088   4.583
 6031SOL    HW118992   4.506   1.053   4.495
 6031SOL    HW218993   4.638   1.089   4.584
 6032SOL     OW18994   1.213   2.200   2.110
 6032SOL    HW118995   1.160   2.115   2.111
 6032SOL    HW218996   1.151   2.278   2.107
 6033SOL     OW18997   0.517   6.724   4.673
 6033SOL    HW118998   0.429   6.720   4.625
 6033SOL    HW218999   0.551   6.631   4.688
 6034SOL     OW19000   2.933   4.934   4.562
 6034SOL    HW119001   2.843   4.902   4.592
 6034SOL    HW219002   2.993   4.945   4.641
 6035SOL     OW19003   4.572   0.655   4.165
 6035SOL    HW119004   4.510   0.733   4.174
 6035SOL    HW219005   4.591   0.617   4.256
 6036SOL     OW19006   5.368   0.773   5.574
 6036SOL    HW119007   5.391   0.701   5.510
 6036SOL    HW219008   5.387   0.742   5.667
 6037SOL     OW19009   0.004   4.579   4.336
 6037SOL    HW119010   7.000   4.492   4.296
 6037SOL    HW219011   0.051   4.633   4.266
 6038SOL     OW19012   0.156   3.230   6.557
 6038SOL    HW119013   0.132   3.141   6.517
 6038SOL    HW219014   0.190   3.216   6.650
 6039SOL     OW19015   3.110   4.044   3.447
 6039SOL    HW119016   3.051   4.125   3.440
 6039SOL    HW219017   3.123   4.021   3.544
 6040SOL     OW19018   1.238   1.416   1.229
 6040SOL    HW119019   1.270   1.388   1.138
 6040SOL    HW219020   1.313   1.408   1.295
 6041SOL     OW19021   0.921   2.940   6.212
 6041SOL    HW119022   0.831   2.952   6.170
 6041SOL    HW219023   0.992   2.942   6.141
 6042SOL     OW19024   5.996   5.827   4.982
 6042SOL    HW119025   6.011   5.926   4.973
 6042SOL    HW219026   5.999   5.785   4.892
 6043SOL     OW19027   6.519   4.382   3.404
 6043SOL    HW119028   6.534   4.415   3.497
 6043SOL    HW219029   6.584   4.427   3.343
 6044SOL     OW19030   1.329   1.391   0.978
 6044SOL    HW119031   1.424   1.420   0.963
 6044SOL    HW219032   1.302   1.328   0.905
 6045SOL     OW19033   5.916   4.021   6.511
 6045SOL    HW119034   5.960   4.017   6.601
 6045SOL    HW219035   5.931   3.935   6.462
 6046SOL     OW19036   0.326   3.570   0.097
 6046SOL    HW119037   0.395   3.640   0.078
 6046SOL    HW219038   0.364   3.502   0.159
 6047SOL     OW19039   1.122   6.727   4.925
 6047SOL    HW119040   1.070   6.812   4.934
 6047SOL    HW219041   1.216   6.748   4.897
 6048SOL     OW19042   4.965   6.631   3.785
 6048SOL    HW119043   4.970   6.612   3.883
 6048SOL    HW219044   4.956   6.730   3.771
 6049SOL     OW19045   0.200   5.154   0.612
 6049SOL    HW119046   0.160   5.071   0.576
 6049SOL    HW219047   0.129   5.224   0.623
 6050SOL     OW19048   5.469   4.394   5.529
 6050SOL    HW119049   5.565   4.414   5.551
 6050SOL    HW219050   5.430   4.471   5.479
 6051SOL     OW19051   2.441   1.835   3.408
 6051SOL    HW119052   2.491   1.798   3.330
 6051SOL    HW219053   2.505   1.873   3.475
 6052SOL     OW19054   0.646   1.846   6.991
 6052SOL    HW119055   0.720   1.905   7.022
 6052SOL    HW219056   0.639   1.851   6.892
 6053SOL     OW19057   1.031   0.812   6.218
 6053SOL    HW119058   0.995   0.747   6.151
 6053SOL    HW219059   1.124   0.786   6.243
 6054SOL     OW19060   0.297   4.018   6.023
 6054SOL    HW119061   0.201   4.033   6.046
 6054SOL    HW219062   0.327   4.086   5.956
 6055SOL     OW19063   5.617   5.730   2.727
 6055SOL    HW119064   5.600   5.802   2.660
 6055SOL    HW219065   5.583   5.758   2.817
 6056SOL     OW19066   5.452   2.517   6.361
 6056SOL    HW119067   5.405   2.604   6.372
 6056SOL    HW219068   5.403   2.461   6.293
 6057SOL     OW19069   5.121   0.507   6.457
 6057SOL    HW119070   5.148   0.550   6.371
 6057SOL    HW219071   5.090   0.413   6.439
 6058SOL     OW19072   5.550   2.115   5.479
 6058SOL    HW119073   5.522   2.061   5.399
 6058SOL    HW219074   5.642   2.151   5.464
 6059SOL     OW19075   6.863   6.475   6.735
 6059SOL    HW119076   6.853   6.391   6.681
 6059SOL    HW219077   6.932   6.460   6.806
 6060SOL     OW19078   3.454   5.709   6.529
 6060SOL    HW119079   3.356   5.716   6.509
 6060SOL    HW219080   3.476   5.770   6.605
 6061SOL     OW19081   1.716   1.467   6.635
 6061SOL    HW119082   1.696   1.369   6.641
 6061SOL    HW219083   1.631   1.517   6.616
 6062SOL     OW19084   1.545   6.325   3.326
 6062SOL    HW119085   1.474   6.390   3.350
 6062SOL    HW219086   1.573   6.274   3.408
 6063SOL     OW19087   6.119   6.140   6.994
 6063SOL    HW119088   6.118   6.062   0.029
 6063SOL    HW219089   6.202   6.193   7.010
 6064SOL     OW19090   0.438   5.163   1.962
 6064SOL    HW119091   0.403   5.257   1.969
 6064SOL    HW219092   0.433   5.119   2.051
 6065SOL     OW19093   4.579   6.883   1.095
 6065SOL    HW119094   4.646   6.926   1.157
 6065SOL    HW219095   4.500   6.853   1.148
 6066SOL     OW19096   5.359   2.246   5.312
 6066SOL    HW119097   5.425   2.235   5.386
 6066SOL    HW219098   5.401   2.296   5.237
 6067SOL     OW19099   4.713   1.293   0.295
 6067SOL    HW119100   4.798   1.268   0.341
 6067SOL    HW219101   4.657   1.350   0.355
 6068SOL     OW19102   5.399   0.554   5.361
 6068SOL    HW119103   5.300   0.563   5.350
 6068SOL    HW219104   5.427   0.463   5.329
 6069SOL     OW19105   6.641   4.926   3.252
 6069SOL    HW119106   6.698   5.001   3.285
 6069SOL    HW219107   6.546   4.940   3.280
 6070SOL     OW19108   4.646   3.237   1.397
 6070SOL    HW119109   4.695   3.204   1.478
 6070SOL    HW219110   4.556   3.271   1.423
 6071SOL     OW19111   6.128   0.601   5.699
 6071SOL    HW119112   6.134   0.504   5.674
 6071SOL    HW219113   6.157   0.613   5.794
 6072SOL     OW19114   5.889   1.518   1.651
 6072SOL    HW119115   5.982   1.535   1.619
 6072SOL    HW219116   5.850   1.440   1.602
 6073SOL     OW19117   5.413   1.089   0.662
 6073SOL    HW119118   5.455   1.180   0.664
 6073SOL    HW219119   5.485   1.019   0.658
 6074SOL     OW19120   0.745   1.424   6.024
 6074SOL    HW119121   0.755   1.325   6.029
 6074SOL    HW219122   0.832   1.468   6.044
 6075SOL     OW19123   5.234   3.070   5.837
 6075SOL    HW119124   5.176   3.113   5.907
 6075SOL    HW219125   5.176   3.033   5.765
 6076SOL     OW19126   3.477   0.475   3.760
 6076SOL    HW119127   3.390   0.467   3.808
 6076SOL    HW219128   3.545   0.417   3.804
 6077SOL     OW19129   5.461   5.348   3.149
 6077SOL    HW119130   5.549   5.307   3.123
 6077SOL    HW219131   5.423   5.397   3.070
 6078SOL     OW19132   2.302   4.319   4.353
 6078SOL    HW119133   2.295   4.223   4.324
 6078SOL    HW219134   2.297   4.324   4.453
 6079SOL     OW19135   3.289   2.663   0.474
 6079SOL    HW119136   3.220   2.680   0.403
 6079SOL    HW219137   3.256   2.699   0.561
 6080SOL     OW19138   6.079   3.294   3.820
 6080SOL    HW119139   5.981   3.293   3.839
 6080SOL    HW219140   6.116   3.202   3.829
 6081SOL     OW19141   0.833   4.147   1.769
 6081SOL    HW119142   0.873   4.089   1.698
 6081SOL    HW219143   0.734   4.152   1.757
 6082SOL     OW19144   4.819   1.816   5.205
 6082SOL    HW119145   4.855   1.725   5.184
 6082SOL    HW219146   4.867   1.854   5.284
 6083SOL     OW19147   1.804   5.851   0.238
 6083SOL    HW119148   1.753   5.800   0.168
 6083SOL    HW219149   1.855   5.925   0.195
 6084SOL     OW19150   0.496   6.187   6.418
 6084SOL    HW119151   0.522   6.242   6.497
 6084SOL    HW219152   0.535   6.095   6.428
 6085SOL     OW19153   5.585   5.038   1.909
 6085SOL    HW119154   5.636   4.954   1.927
 6085SOL    HW219155   5.624   5.085   1.830
 6086SOL     OW19156   3.074   2.097   1.767
 6086SOL    HW119157   2.985   2.096   1.812
 6086SOL    HW219158   3.145   2.120   1.833
 6087SOL     OW19159   3.678   1.124   0.290
 6087SOL    HW119160   3.701   1.104   0.195
 6087SOL    HW219161   3.588   1.087   0.312
 6088SOL     OW19162   0.695   0.921   4.136
 6088SOL    HW119163   0.778   0.868   4.155
 6088SOL    HW219164   0.691   0.999   4.200
 6089SOL     OW19165   0.184   3.379   1.291
 6089SOL    HW119166   0.246   3.450   1.260
 6089SOL    HW219167   0.178   3.381   1.391
 6090SOL     OW19168   6.654   6.890   3.954
 6090SOL    HW119169   6.579   6.830   3.929
 6090SOL    HW219170   6.687   6.866   4.046
 6091SOL     OW19171   6.650   2.199   2.383
 6091SOL    HW119172   6.607   2.287   2.404
 6091SOL    HW219173   6.722   2.213   2.315
 6092SOL     OW19174   0.140   2.921   1.347
 6092SOL    HW119175   0.066   2.986   1.362
 6092SOL    HW219176   0.198   2.953   1.273
 6093SOL     OW19177   0.679   4.084   0.764
 6093SOL    HW119178   0.621   4.125   0.693
 6093SOL    HW219179   0.661   4.128   0.852
 6094SOL     OW19180   0.248   1.374   1.259
 6094SOL    HW119181   0.157   1.411   1.279
 6094SOL    HW219182   0.288   1.424   1.182
 6095SOL     OW19183   0.475   4.192   4.637
 6095SOL    HW119184   0.469   4.281   4.592
 6095SOL    HW219185   0.389   4.143   4.627
 6096SOL     OW19186   5.700   1.890   3.013
 6096SOL    HW119187   5.742   1.971   2.973
 6096SOL    HW219188   5.681   1.824   2.941
 6097SOL     OW19189   4.099   1.132   3.148
 6097SOL    HW119190   4.073   1.157   3.242
 6097SOL    HW219191   4.028   1.075   3.108
 6098SOL     OW19192   0.011   1.016   6.687
 6098SOL    HW119193   6.955   1.010   6.744
 6098SOL    HW219194   0.028   1.112   6.663
 6099SOL     OW19195   5.852   4.261   4.364
 6099SOL    HW119196   5.853   4.329   4.437
 6099SOL    HW219197   5.763   4.262   4.318
 6100SOL     OW19198   0.061   2.864   1.047
 6100SOL    HW119199   7.016   2.894   1.109
 6100SOL    HW219200   0.131   2.935   1.039
 6101SOL     OW19201   6.005   6.400   3.329
 6101SOL    HW119202   5.946   6.336   3.280
 6101SOL    HW219203   6.090   6.354   3.355
 6102SOL     OW19204   3.684   6.371   5.123
 6102SOL    HW119205   3.720   6.281   5.149
 6102SOL    HW219206   3.685   6.379   5.023
 6103SOL     OW19207   5.430   1.973   4.578
 6103SOL    HW119208   5.468   1.960   4.487
 6103SOL    HW219209   5.478   2.049   4.623
 6104SOL     OW19210   2.665   2.598   1.294
 6104SOL    HW119211   2.679   2.607   1.392
 6104SOL    HW219212   2.682   2.686   1.249
 6105SOL     OW19213   3.321   4.931   4.570
 6105SOL    HW119214   3.242   4.925   4.631
 6105SOL    HW219215   3.401   4.962   4.621
 6106SOL     OW19216   1.910   5.399   4.241
 6106SOL    HW119217   1.968   5.335   4.192
 6106SOL    HW219218   1.956   5.427   4.326
 6107SOL     OW19219   2.024   4.794   5.668
 6107SOL    HW119220   2.009   4.819   5.764
 6107SOL    HW219221   2.028   4.694   5.660
 6108SOL     OW19222   5.317   1.526   4.573
 6108SOL    HW119223   5.343   1.528   4.670
 6108SOL    HW219224   5.383   1.470   4.522
 6109SOL     OW19225   0.428   4.418   1.884
 6109SOL    HW119226   0.397   4.512   1.900
 6109SOL    HW219227   0.528   4.415   1.887
 6110SOL     OW19228   3.374   1.752   3.286
 6110SOL    HW119229   3.300   1.686   3.283
 6110SOL    HW219230   3.400   1.778   3.193
 6111SOL     OW19231   0.573   4.604   3.555
 6111SOL    HW119232   0.570   4.631   3.459
 6111SOL    HW219233   0.550   4.506   3.562
 6112SOL     OW19234   2.400   0.778   1.251
 6112SOL    HW119235   2.392   0.715   1.175
 6112SOL    HW219236   2.315   0.831   1.261
 6113SOL     OW19237   0.489   5.021   6.299
 6113SOL    HW119238   0.534   5.107   6.324
 6113SOL    HW219239   0.431   5.035   6.219
 6114SOL     OW19240   3.825   4.187   1.426
 6114SOL    HW119241   3.778   4.105   1.395
 6114SOL    HW219242   3.821   4.192   1.526
 6115SOL     OW19243   0.433   3.815   2.923
 6115SOL    HW119244   0.375   3.866   2.860
 6115SOL    HW219245   0.490   3.879   2.975
 6116SOL     OW19246   4.106   2.849   1.061
 6116SOL    HW119247   4.031   2.865   1.124
 6116SOL    HW219248   4.071   2.839   0.968
 6117SOL     OW19249   5.281   6.466   4.445
 6117SOL    HW119250   5.190   6.475   4.486
 6117SOL    HW219251   5.305   6.550   4.397
 6118SOL     OW19252   6.459   0.561   3.361
 6118SOL    HW119253   6.454   0.475   3.312
 6118SOL    HW219254   6.399   0.557   3.442
 6119SOL     OW19255   6.166   4.602   5.322
 6119SOL    HW119256   6.237   4.637   5.262
 6119SOL    HW219257   6.082   4.588   5.270
 6120SOL     OW19258   2.816   1.753   1.962
 6120SOL    HW119259   2.810   1.796   1.872
 6120SOL    HW219260   2.753   1.799   2.025
 6121SOL     OW19261   0.017   1.811   3.060
 6121SOL    HW119262   0.116   1.810   3.075
 6121SOL    HW219263   7.017   1.895   3.012
 6122SOL     OW19264   3.682   5.944   4.212
 6122SOL    HW119265   3.706   5.874   4.279
 6122SOL    HW219266   3.732   6.028   4.232
 6123SOL     OW19267   6.807   1.922   2.758
 6123SOL    HW119268   6.872   1.961   2.824
 6123SOL    HW219269   6.776   1.993   2.696
 6124SOL     OW19270   2.935   0.475   4.526
 6124SOL    HW119271   3.025   0.513   4.548
 6124SOL    HW219272   2.894   0.435   4.608
 6125SOL     OW19273   0.958   3.755   2.734
 6125SOL    HW119274   1.054   3.730   2.747
 6125SOL    HW219275   0.928   3.812   2.811
 6126SOL     OW19276   3.278   7.008   2.785
 6126SOL    HW119277   3.356   0.010   2.841
 6126SOL    HW219278   3.198   6.995   2.844
 6127SOL     OW19279   1.839   5.698   1.028
 6127SOL    HW119280   1.857   5.657   0.938
 6127SOL    HW219281   1.910   5.766   1.047
 6128SOL     OW19282   5.626   3.587   1.739
 6128SOL    HW119283   5.621   3.494   1.774
 6128SOL    HW219284   5.701   3.595   1.674
 6129SOL     OW19285   6.221   3.745   3.632
 6129SOL    HW119286   6.240   3.809   3.706
 6129SOL    HW219287   6.170   3.791   3.560
 6130SOL     OW19288   6.303   3.396   2.672
 6130SOL    HW119289   6.249   3.328   2.623
 6130SOL    HW219290   6.245   3.441   2.740
 6131SOL     OW19291   0.214   2.005   5.703
 6131SOL    HW119292   0.188   1.975   5.611
 6131SOL    HW219293   0.171   1.946   5.771
 6132SOL     OW19294   0.303   2.994   0.299
 6132SOL    HW119295   0.289   2.919   0.234
 6132SOL    HW219296   0.217   3.013   0.347
 6133SOL     OW19297   1.585   4.862   0.462
 6133SOL    HW119298   1.595   4.821   0.553
 6133SOL    HW219299   1.492   4.847   0.428
 6134SOL     OW19300   4.136   4.546   5.867
 6134SOL    HW119301   4.127   4.571   5.964
 6134SOL    HW219302   4.228   4.512   5.850
 6135SOL     OW19303   5.577   6.519   1.660
 6135SOL    HW119304   5.500   6.577   1.688
 6135SOL    HW219305   5.663   6.563   1.685
 6136SOL     OW19306   1.922   2.181   2.343
 6136SOL    HW119307   1.882   2.089   2.350
 6136SOL    HW219308   1.948   2.213   2.435
 6137SOL     OW19309   2.859   6.766   5.709
 6137SOL    HW119310   2.847   6.862   5.734
 6137SOL    HW219311   2.829   6.708   5.785
 6138SOL     OW19312   4.321   0.264   3.230
 6138SOL    HW119313   4.336   0.193   3.161
 6138SOL    HW219314   4.401   0.324   3.234
 6139SOL     OW19315   3.005   6.344   3.674
 6139SOL    HW119316   2.938   6.409   3.639
 6139SOL    HW219317   2.969   6.251   3.665
 6140SOL     OW19318   2.247   5.426   1.422
 6140SOL    HW119319   2.194   5.349   1.388
 6140SOL    HW219320   2.331   5.436   1.367
 6141SOL     OW19321   0.916   6.314   4.684
 6141SOL    HW119322   0.873   6.269   4.763
 6141SOL    HW219323   0.973   6.390   4.716
 6142SOL     OW19324   0.077   2.840   4.167
 6142SOL    HW119325   0.014   2.916   4.179
 6142SOL    HW219326   0.090   2.822   4.069
 6143SOL     OW19327   6.694   6.149   6.636
 6143SOL    HW119328   6.716   6.140   6.733
 6143SOL    HW219329   6.674   6.058   6.598
 6144SOL     OW19330   0.428   5.559   4.940
 6144SOL    HW119331   0.413   5.544   4.842
 6144SOL    HW219332   0.350   5.608   4.978
 6145SOL     OW19333   5.624   5.354   3.372
 6145SOL    HW119334   5.552   5.350   3.302
 6145SOL    HW219335   5.704   5.399   3.334
 6146SOL     OW19336   6.002   1.292   4.287
 6146SOL    HW119337   6.070   1.244   4.341
 6146SOL    HW219338   6.031   1.293   4.191
 6147SOL     OW19339   0.728   4.151   3.956
 6147SOL    HW119340   0.776   4.116   4.036
 6147SOL    HW219341   0.720   4.251   3.962
 6148SOL     OW19342   5.596   6.525   4.160
 6148SOL    HW119343   5.582   6.427   4.144
 6148SOL    HW219344   5.618   6.540   4.257
 6149SOL     OW19345   0.383   5.539   4.664
 6149SOL    HW119346   0.301   5.483   4.676
 6149SOL    HW219347   0.413   5.533   4.569
 6150SOL     OW19348   4.790   6.936   6.782
 6150SOL    HW119349   4.857   6.885   6.835
 6150SOL    HW219350   4.834   6.976   6.701
 6151SOL     OW19351   4.362   0.667   5.171
 6151SOL    HW119352   4.336   0.762   5.186
 6151SOL    HW219353   4.435   0.642   5.235
 6152SOL     OW19354   6.038   3.368   6.524
 6152SOL    HW119355   6.087   3.298   6.472
 6152SOL    HW219356   6.099   3.444   6.543
 6153SOL     OW19357   3.829   5.911   5.491
 6153SOL    HW119358   3.824   5.865   5.402
 6153SOL    HW219359   3.764   5.987   5.492
 6154SOL     OW19360   5.203   2.685   3.534
 6154SOL    HW119361   5.145   2.716   3.609
 6154SOL    HW219362   5.197   2.750   3.458
 6155SOL     OW19363   3.132   4.943   4.775
 6155SOL    HW119364   3.069   4.879   4.818
 6155SOL    HW219365   3.183   4.992   4.846
 6156SOL     OW19366   5.383   0.640   4.469
 6156SOL    HW119367   5.385   0.540   4.464
 6156SOL    HW219368   5.288   0.670   4.481
 6157SOL     OW19369   1.316   0.455   4.667
 6157SOL    HW119370   1.263   0.375   4.638
 6157SOL    HW219371   1.317   0.460   4.767
 6158SOL     OW19372   4.861   6.145   0.386
 6158SOL    HW119373   4.856   6.227   0.442
 6158SOL    HW219374   4.842   6.065   0.443
 6159SOL     OW19375   4.629   3.523   6.516
 6159SOL    HW119376   4.728   3.509   6.506
 6159SOL    HW219377   4.609   3.564   6.605
 6160SOL     OW19378   6.118   4.799   0.660
 6160SOL    HW119379   6.046   4.857   0.622
 6160SOL    HW219380   6.095   4.775   0.755
 6161SOL     OW19381   5.032   0.767   6.545
 6161SOL    HW119382   5.051   0.841   6.480
 6161SOL    HW219383   5.079   0.684   6.515
 6162SOL     OW19384   5.308   5.786   3.904
 6162SOL    HW119385   5.246   5.727   3.957
 6162SOL    HW219386   5.290   5.774   3.806
 6163SOL     OW19387   0.035   3.970   3.126
 6163SOL    HW119388   0.068   3.891   3.075
 6163SOL    HW219389   0.111   4.032   3.144
 6164SOL     OW19390   4.878   3.039   0.654
 6164SOL    HW119391   4.790   2.995   0.673
 6164SOL    HW219392   4.896   3.035   0.556
 6165SOL     OW19393   3.687   6.861   1.285
 6165SOL    HW119394   3.776   6.883   1.245
 6165SOL    HW219395   3.620   6.850   1.212
 6166SOL     OW19396   3.563   0.527   0.880
 6166SOL    HW119397   3.562   0.609   0.937
 6166SOL    HW219398   3.498   0.538   0.805
 6167SOL     OW19399   0.274   5.200   3.297
 6167SOL    HW119400   0.188   5.238   3.262
 6167SOL    HW219401   0.346   5.213   3.229
 6168SOL     OW19402   0.037   2.056   1.660
 6168SOL    HW119403   0.041   1.964   1.699
 6168SOL    HW219404   0.103   2.064   1.586
 6169SOL     OW19405   1.996   4.014   1.426
 6169SOL    HW119406   2.035   3.929   1.391
 6169SOL    HW219407   1.946   4.060   1.353
 6170SOL     OW19408   5.930   1.926   4.201
 6170SOL    HW119409   5.956   2.001   4.140
 6170SOL    HW219410   6.010   1.869   4.220
 6171SOL     OW19411   6.547   2.418   6.502
 6171SOL    HW119412   6.643   2.438   6.482
 6171SOL    HW219413   6.492   2.433   6.420
 6172SOL     OW19414   0.065   4.286   3.233
 6172SOL    HW119415   0.013   4.299   3.318
 6172SOL    HW219416   0.077   4.374   3.187
 6173SOL     OW19417   5.536   5.861   2.392
 6173SOL    HW119418   5.565   5.770   2.421
 6173SOL    HW219419   5.558   5.927   2.463
 6174SOL     OW19420   0.587   1.755   3.650
 6174SOL    HW119421   0.528   1.803   3.585
 6174SOL    HW219422   0.545   1.757   3.741
 6175SOL     OW19423   4.641   2.055   6.799
 6175SOL    HW119424   4.580   2.078   6.723
 6175SOL    HW219425   4.727   2.020   6.763
 6176SOL     OW19426   2.468   5.330   5.951
 6176SOL    HW119427   2.469   5.261   6.024
 6176SOL    HW219428   2.403   5.302   5.880
 6177SOL     OW19429   6.088   4.960   1.476
 6177SOL    HW119430   6.120   5.033   1.536
 6177SOL    HW219431   6.033   4.999   1.402
 6178SOL     OW19432   4.303   4.421   1.707
 6178SOL    HW119433   4.270   4.470   1.787
 6178SOL    HW219434   4.351   4.338   1.735
 6179SOL     OW19435   4.845   5.585   4.615
 6179SOL    HW119436   4.757   5.579   4.567
 6179SOL    HW219437   4.840   5.659   4.682
 6180SOL     OW19438   1.350   3.381   5.993
 6180SOL    HW119439   1.361   3.480   6.003
 6180SOL    HW219440   1.436   3.341   5.960
 6181SOL     OW19441   0.078   6.848   6.619
 6181SOL    HW119442   0.099   6.901   6.537
 6181SOL    HW219443   0.080   6.909   6.699
 6182SOL     OW19444   2.588   2.744   5.773
 6182SOL    HW119445   2.639   2.799   5.707
 6182SOL    HW219446   2.615   2.648   5.765
 6183SOL     OW19447   0.195   0.562   0.990
 6183SOL    HW119448   0.128   0.579   0.918
 6183SOL    HW219449   0.267   0.631   0.985
 6184SOL     OW19450   3.551   6.675   5.224
 6184SOL    HW119451   3.482   6.725   5.275
 6184SOL    HW219452   3.560   6.583   5.262
 6185SOL     OW19453   3.431   3.060   2.979
 6185SOL    HW119454   3.429   3.033   2.882
 6185SOL    HW219455   3.478   3.148   2.987
 6186SOL     OW19456   0.688   1.406   2.187
 6186SOL    HW119457   0.612   1.401   2.252
 6186SOL    HW219458   0.661   1.366   2.099
 6187SOL     OW19459   3.865   2.459   6.015
 6187SOL    HW119460   3.779   2.476   6.063
 6187SOL    HW219461   3.863   2.504   5.926
 6188SOL     OW19462   0.926   1.629   5.764
 6188SOL    HW119463   0.896   1.657   5.855
 6188SOL    HW219464   0.847   1.593   5.713
 6189SOL     OW19465   6.685   5.194   0.695
 6189SOL    HW119466   6.605   5.134   0.691
 6189SOL    HW219467   6.729   5.197   0.605
 6190SOL     OW19468   1.359   2.976   3.517
 6190SOL    HW119469   1.405   2.937   3.597
 6190SOL    HW219470   1.427   2.994   3.445
 6191SOL     OW19471   2.215   5.077   6.858
 6191SOL    HW119472   2.228   5.162   6.806
 6191SOL    HW219473   2.240   4.999   6.801
 6192SOL     OW19474   3.055   1.660   0.857
 6192SOL    HW119475   3.032   1.700   0.946
 6192SOL    HW219476   3.081   1.564   0.869
 6193SOL     OW19477   4.693   5.402   0.068
 6193SOL    HW119478   4.683   5.303   0.058
 6193SOL    HW219479   4.783   5.422   0.108
 6194SOL     OW19480   5.159   6.715   6.080
 6194SOL    HW119481   5.061   6.733   6.078
 6194SOL    HW219482   5.177   6.629   6.128
 6195SOL     OW19483   5.609   5.111   5.625
 6195SOL    HW119484   5.537   5.132   5.691
 6195SOL    HW219485   5.618   5.012   5.616
 6196SOL     OW19486   6.808   3.813   3.543
 6196SOL    HW119487   6.730   3.858   3.587
 6196SOL    HW219488   6.802   3.825   3.444
 6197SOL     OW19489   0.158   5.532   1.547
 6197SOL    HW119490   0.255   5.508   1.556
 6197SOL    HW219491   0.119   5.547   1.638
 6198SOL     OW19492   6.403   2.098   5.806
 6198SOL    HW119493   6.333   2.149   5.856
 6198SOL    HW219494   6.367   2.008   5.781
 6199SOL     OW19495   2.057   0.085   6.046
 6199SOL    HW119496   1.985   0.024   6.080
 6199SOL    HW219497   2.102   0.129   6.123
 6200SOL     OW19498   1.432   6.353   6.897
 6200SOL    HW119499   1.420   6.400   6.810
 6200SOL    HW219500   1.517   6.300   6.896
 6201SOL     OW19501   1.012   4.862   3.552
 6201SOL    HW119502   1.030   4.873   3.650
 6201SOL    HW219503   1.075   4.920   3.500
 6202SOL     OW19504   4.942   1.855   1.812
 6202SOL    HW119505   5.040   1.846   1.794
 6202SOL    HW219506   4.905   1.766   1.837
 6203SOL     OW19507   0.345   0.832   2.662
 6203SOL    HW119508   0.270   0.860   2.602
 6203SOL    HW219509   0.343   0.887   2.745
 6204SOL     OW19510   1.235   5.877   4.311
 6204SOL    HW119511   1.184   5.819   4.374
 6204SOL    HW219512   1.184   5.961   4.294
 6205SOL     OW19513   0.349   4.594   3.223
 6205SOL    HW119514   0.380   4.643   3.141
 6205SOL    HW219515   0.411   4.519   3.243
 6206SOL     OW19516   5.166   2.449   4.087
 6206SOL    HW119517   5.222   2.418   4.010
 6206SOL    HW219518   5.208   2.419   4.173
 6207SOL     OW19519   1.730   6.048   3.260
 6207SOL    HW119520   1.751   6.124   3.198
 6207SOL    HW219521   1.754   6.075   3.354
 6208SOL     OW19522   4.035   4.461   6.335
 6208SOL    HW119523   4.001   4.384   6.281
 6208SOL    HW219524   3.975   4.475   6.414
 6209SOL     OW19525   3.238   0.739   2.512
 6209SOL    HW119526   3.257   0.666   2.578
 6209SOL    HW219527   3.155   0.787   2.539
 6210SOL     OW19528   5.181   0.104   4.663
 6210SOL    HW119529   5.138   0.022   4.625
 6210SOL    HW219530   5.279   0.087   4.673
 6211SOL     OW19531   4.977   2.932   5.385
 6211SOL    HW119532   4.898   2.892   5.432
 6211SOL    HW219533   4.952   3.023   5.351
 6212SOL     OW19534   4.871   3.822   4.640
 6212SOL    HW119535   4.968   3.798   4.646
 6212SOL    HW219536   4.822   3.749   4.593
 6213SOL     OW19537   5.088   5.654   0.769
 6213SOL    HW119538   5.148   5.588   0.723
 6213SOL    HW219539   5.061   5.725   0.704
 6214SOL     OW19540   6.906   6.768   5.935
 6214SOL    HW119541   6.869   6.861   5.947
 6214SOL    HW219542   6.849   6.718   5.870
 6215SOL     OW19543   5.275   3.150   5.499
 6215SOL    HW119544   5.211   3.116   5.568
 6215SOL    HW219545   5.254   3.108   5.410
 6216SOL     OW19546   5.682   2.634   6.472
 6216SOL    HW119547   5.719   2.541   6.480
 6216SOL    HW219548   5.592   2.629   6.428
 6217SOL     OW19549   0.188   4.104   2.302
 6217SOL    HW119550   0.286   4.087   2.288
 6217SOL    HW219551   0.177   4.178   2.368
 6218SOL     OW19552   4.872   6.344   1.763
 6218SOL    HW119553   4.789   6.397   1.750
 6218SOL    HW219554   4.851   6.246   1.754
 6219SOL     OW19555   1.978   0.514   6.937
 6219SOL    HW119556   1.949   0.427   6.897
 6219SOL    HW219557   2.056   0.499   6.997
 6220SOL     OW19558   2.060   0.794   2.766
 6220SOL    HW119559   2.064   0.731   2.688
 6220SOL    HW219560   2.145   0.785   2.819
 6221SOL     OW19561   4.162   5.237   5.596
 6221SOL    HW119562   4.146   5.335   5.610
 6221SOL    HW219563   4.078   5.187   5.619
 6222SOL     OW19564   0.607   1.137   1.730
 6222SOL    HW119565   0.699   1.113   1.761
 6222SOL    HW219566   0.613   1.197   1.650
 6223SOL     OW19567   6.626   5.068   3.557
 6223SOL    HW119568   6.581   4.980   3.573
 6223SOL    HW219569   6.707   5.054   3.501
 6224SOL     OW19570   4.082   0.170   0.440
 6224SOL    HW119571   4.057   0.083   0.399
 6224SOL    HW219572   4.090   0.161   0.539
 6225SOL     OW19573   5.883   5.033   6.496
 6225SOL    HW119574   5.786   5.009   6.490
 6225SOL    HW219575   5.912   5.078   6.412
 6226SOL     OW19576   1.663   1.298   3.312
 6226SOL    HW119577   1.656   1.346   3.399
 6226SOL    HW219578   1.577   1.308   3.262
 6227SOL     OW19579   1.700   4.556   6.094
 6227SOL    HW119580   1.774   4.600   6.146
 6227SOL    HW219581   1.708   4.581   5.998
 6228SOL     OW19582   1.123   3.854   3.710
 6228SOL    HW119583   1.102   3.775   3.767
 6228SOL    HW219584   1.080   3.843   3.620
 6229SOL     OW19585   0.442   5.197   4.218
 6229SOL    HW119586   0.368   5.219   4.154
 6229SOL    HW219587   0.466   5.100   4.209
 6230SOL     OW19588   1.573   1.032   0.524
 6230SOL    HW119589   1.487   1.071   0.491
 6230SOL    HW219590   1.581   1.049   0.623
 6231SOL     OW19591   1.337   5.626   5.791
 6231SOL    HW119592   1.356   5.642   5.694
 6231SOL    HW219593   1.387   5.545   5.822
 6232SOL     OW19594   3.729   0.898   6.305
 6232SOL    HW119595   3.760   0.812   6.346
 6232SOL    HW219596   3.693   0.957   6.376
 6233SOL     OW19597   6.718   4.387   1.365
 6233SOL    HW119598   6.637   4.331   1.345
 6233SOL    HW219599   6.716   4.470   1.308
 6234SOL     OW19600   4.955   4.953   2.497
 6234SOL    HW119601   4.951   4.897   2.414
 6234SOL    HW219602   5.042   4.937   2.543
 6235SOL     OW19603   0.826   1.310   0.903
 6235SOL    HW119604   0.898   1.372   0.937
 6235SOL    HW219605   0.869   1.227   0.868
 6236SOL     OW19606   5.919   6.217   1.703
 6236SOL    HW119607   6.005   6.257   1.672
 6236SOL    HW219608   5.854   6.291   1.725
 6237SOL     OW19609   3.966   0.919   3.454
 6237SOL    HW119610   3.929   0.998   3.405
 6237SOL    HW219611   4.001   0.852   3.389
 6238SOL     OW19612   2.478   6.047   3.042
 6238SOL    HW119613   2.497   6.100   2.959
 6238SOL    HW219614   2.487   6.106   3.122
 6239SOL     OW19615   4.534   1.199   4.100
 6239SOL    HW119616   4.468   1.166   4.167
 6239SOL    HW219617   4.513   1.295   4.077
 6240SOL     OW19618   4.052   3.545   4.037
 6240SOL    HW119619   3.971   3.574   4.088
 6240SOL    HW219620   4.064   3.446   4.047
 6241SOL     OW19621   3.856   0.937   2.777
 6241SOL    HW119622   3.877   0.879   2.699
 6241SOL    HW219623   3.762   0.970   2.771
 6242SOL     OW19624   3.233   1.902   4.390
 6242SOL    HW119625   3.268   1.989   4.422
 6242SOL    HW219626   3.290   1.869   4.314
 6243SOL     OW19627   3.340   0.641   0.222
 6243SOL    HW119628   3.374   0.552   0.194
 6243SOL    HW219629   3.412   0.690   0.273
 6244SOL     OW19630   5.158   2.519   1.709
 6244SOL    HW119631   5.230   2.573   1.665
 6244SOL    HW219632   5.142   2.553   1.801
 6245SOL     OW19633   6.962   5.050   1.653
 6245SOL    HW119634   6.950   5.003   1.741
 6245SOL    HW219635   6.952   4.984   1.578
 6246SOL     OW19636   1.124   6.325   5.271
 6246SOL    HW119637   1.115   6.280   5.360
 6246SOL    HW219638   1.201   6.286   5.221
 6247SOL     OW19639   5.214   4.548   2.108
 6247SOL    HW119640   5.245   4.470   2.163
 6247SOL    HW219641   5.114   4.546   2.102
 6248SOL     OW19642   4.786   2.371   5.771
 6248SOL    HW119643   4.840   2.446   5.809
 6248SOL    HW219644   4.832   2.284   5.788
 6249SOL     OW19645   5.755   2.285   3.678
 6249SOL    HW119646   5.708   2.205   3.640
 6249SOL    HW219647   5.754   2.281   3.777
 6250SOL     OW19648   4.853   6.858   5.441
 6250SOL    HW119649   4.936   6.896   5.399
 6250SOL    HW219650   4.783   6.845   5.371
 6251SOL     OW19651   2.956   1.071   4.078
 6251SOL    HW119652   3.011   1.132   4.022
 6251SOL    HW219653   2.860   1.079   4.053
 6252SOL     OW19654   1.943   4.846   6.864
 6252SOL    HW119655   1.923   4.748   6.864
 6252SOL    HW219656   1.914   4.885   6.777
 6253SOL     OW19657   4.812   6.310   3.989
 6253SOL    HW119658   4.889   6.260   4.029
 6253SOL    HW219659   4.797   6.280   3.895
 6254SOL     OW19660   6.740   6.902   1.814
 6254SOL    HW119661   6.733   6.803   1.818
 6254SOL    HW219662   6.782   6.929   1.727
 6255SOL     OW19663   2.982   6.878   1.190
 6255SOL    HW119664   2.998   6.827   1.275
 6255SOL    HW219665   2.895   6.849   1.150
 6256SOL     OW19666   0.094   4.093   2.051
 6256SOL    HW119667   0.138   4.102   2.141
 6256SOL    HW219668   0.007   4.044   2.062
 6257SOL     OW19669   3.975   4.130   0.365
 6257SOL    HW119670   3.905   4.060   0.377
 6257SOL    HW219671   3.952   4.210   0.421
 6258SOL     OW19672   4.412   5.340   4.377
 6258SOL    HW119673   4.380   5.246   4.385
 6258SOL    HW219674   4.401   5.387   4.465
 6259SOL     OW19675   5.224   6.806   4.568
 6259SOL    HW119676   5.231   6.812   4.667
 6259SOL    HW219677   5.130   6.784   4.542
 6260SOL     OW19678   3.265   2.183   0.234
 6260SOL    HW119679   3.169   2.202   0.252
 6260SOL    HW219680   3.306   2.260   0.185
 6261SOL     OW19681   4.395   6.083   1.287
 6261SOL    HW119682   4.449   6.091   1.371
 6261SOL    HW219683   4.328   6.158   1.283
 6262SOL     OW19684   5.886   1.689   3.956
 6262SOL    HW119685   5.881   1.605   3.903
 6262SOL    HW219686   5.841   1.676   4.044
 6263SOL     OW19687   6.784   6.314   6.032
 6263SOL    HW119688   6.856   6.257   5.992
 6263SOL    HW219689   6.821   6.359   6.114
 6264SOL     OW19690   0.836   6.626   0.570
 6264SOL    HW119691   0.802   6.640   0.477
 6264SOL    HW219692   0.891   6.705   0.598
 6265SOL     OW19693   4.134   6.448   6.696
 6265SOL    HW119694   4.213   6.491   6.653
 6265SOL    HW219695   4.067   6.422   6.626
 6266SOL     OW19696   2.714   5.112   3.723
 6266SOL    HW119697   2.701   5.208   3.748
 6266SOL    HW219698   2.805   5.082   3.751
 6267SOL     OW19699   6.988   6.951   4.558
 6267SOL    HW119700   6.953   6.893   4.632
 6267SOL    HW219701   0.037   6.904   4.513
 6268SOL     OW19702   2.811   2.566   0.598
 6268SOL    HW119703   2.900   2.562   0.552
 6268SOL    HW219704   2.782   2.474   0.622
 6269SOL     OW19705   0.885   5.286   0.773
 6269SOL    HW119706   0.804   5.314   0.824
 6269SOL    HW219707   0.923   5.366   0.726
 6270SOL     OW19708   1.851   5.886   0.761
 6270SOL    HW119709   1.881   5.963   0.704
 6270SOL    HW219710   1.790   5.919   0.832
 6271SOL     OW19711   6.802   3.212   5.150
 6271SOL    HW119712   6.786   3.181   5.243
 6271SOL    HW219713   6.726   3.183   5.092
 6272SOL     OW19714   6.489   0.690   0.365
 6272SOL    HW119715   6.453   0.645   0.283
 6272SOL    HW219716   6.497   0.622   0.438
 6273SOL     OW19717   0.909   6.666   2.882
 6273SOL    HW119718   1.001   6.627   2.884
 6273SOL    HW219719   0.843   6.598   2.914
 6274SOL     OW19720   3.023   5.925   4.336
 6274SOL    HW119721   3.109   5.976   4.336
 6274SOL    HW219722   2.978   5.936   4.424
 6275SOL     OW19723   3.033   5.430   1.385
 6275SOL    HW119724   3.027   5.333   1.409
 6275SOL    HW219725   2.958   5.480   1.427
 6276SOL     OW19726   2.084   4.337   2.608
 6276SOL    HW119727   2.131   4.252   2.586
 6276SOL    HW219728   2.136   4.387   2.678
 6277SOL     OW19729   5.645   1.846   1.376
 6277SOL    HW119730   5.585   1.857   1.296
 6277SOL    HW219731   5.589   1.837   1.458
 6278SOL     OW19732   4.163   3.010   0.027
 6278SOL    HW119733   4.151   2.950   6.975
 6278SOL    HW219734   4.074   3.044   0.058
 6279SOL     OW19735   1.091   6.084   1.692
 6279SOL    HW119736   1.049   6.150   1.755
 6279SOL    HW219737   1.188   6.074   1.715
 6280SOL     OW19738   4.923   0.823   6.811
 6280SOL    HW119739   4.824   0.840   6.818
 6280SOL    HW219740   4.951   0.830   6.715
 6281SOL     OW19741   5.865   3.758   5.927
 6281SOL    HW119742   5.867   3.735   5.830
 6281SOL    HW219743   5.840   3.854   5.939
 6282SOL     OW19744   6.607   4.816   6.138
 6282SOL    HW119745   6.668   4.890   6.111
 6282SOL    HW219746   6.612   4.803   6.237
 6283SOL     OW19747   3.284   6.464   4.459
 6283SOL    HW119748   3.230   6.418   4.388
 6283SOL    HW219749   3.381   6.444   4.446
 6284SOL     OW19750   2.244   4.604   5.841
 6284SOL    HW119751   2.298   4.688   5.851
 6284SOL    HW219752   2.305   4.525   5.852
 6285SOL     OW19753   1.689   4.958   4.200
 6285SOL    HW119754   1.630   4.937   4.122
 6285SOL    HW219755   1.784   4.939   4.177
 6286SOL     OW19756   0.655   3.516   6.789
 6286SOL    HW119757   0.712   3.505   6.708
 6286SOL    HW219758   0.559   3.504   6.764
 6287SOL     OW19759   3.695   5.331   4.654
 6287SOL    HW119760   3.656   5.355   4.565
 6287SOL    HW219761   3.683   5.407   4.717
 6288SOL     OW19762   3.014   4.195   5.788
 6288SOL    HW119763   2.943   4.135   5.824
 6288SOL    HW219764   3.062   4.239   5.864
 6289SOL     OW19765   2.819   5.643   5.788
 6289SOL    HW119766   2.769   5.697   5.721
 6289SOL    HW219767   2.789   5.548   5.784
 6290SOL     OW19768   6.524   0.841   3.290
 6290SOL    HW119769   6.492   0.747   3.305
 6290SOL    HW219770   6.472   0.882   3.215
 6291SOL     OW19771   2.908   3.091   1.884
 6291SOL    HW119772   2.936   3.115   1.977
 6291SOL    HW219773   2.819   3.133   1.865
 6292SOL     OW19774   0.707   4.016   4.638
 6292SOL    HW119775   0.763   4.037   4.718
 6292SOL    HW219776   0.627   4.076   4.636
 6293SOL     OW19777   3.073   2.072   0.739
 6293SOL    HW119778   3.023   2.014   0.675
 6293SOL    HW219779   3.169   2.079   0.710
 6294SOL     OW19780   0.422   0.601   1.976
 6294SOL    HW119781   0.359   0.679   1.983
 6294SOL    HW219782   0.514   0.630   2.000
 6295SOL     OW19783   4.713   3.134   5.683
 6295SOL    HW119784   4.657   3.075   5.741
 6295SOL    HW219785   4.770   3.192   5.741
 6296SOL     OW19786   6.589   2.354   0.513
 6296SOL    HW119787   6.534   2.429   0.477
 6296SOL    HW219788   6.666   2.337   0.451
 6297SOL     OW19789   0.815   1.737   4.827
 6297SOL    HW119790   0.720   1.753   4.802
 6297SOL    HW219791   0.843   1.804   4.897
 6298SOL     OW19792   0.460   1.241   6.076
 6298SOL    HW119793   0.504   1.196   5.998
 6298SOL    HW219794   0.442   1.337   6.054
 6299SOL     OW19795   3.535   1.664   3.790
 6299SOL    HW119796   3.508   1.618   3.874
 6299SOL    HW219797   3.515   1.605   3.711
 6300SOL     OW19798   2.521   2.136   0.640
 6300SOL    HW119799   2.461   2.215   0.629
 6300SOL    HW219800   2.465   2.053   0.651
 6301SOL     OW19801   4.472   5.747   1.120
 6301SOL    HW119802   4.508   5.833   1.084
 6301SOL    HW219803   4.380   5.732   1.084
 6302SOL     OW19804   1.652   3.465   0.680
 6302SOL    HW119805   1.645   3.560   0.709
 6302SOL    HW219806   1.621   3.458   0.585
 6303SOL     OW19807   6.449   4.845   5.656
 6303SOL    HW119808   6.373   4.800   5.609
 6303SOL    HW219809   6.489   4.914   5.597
 6304SOL     OW19810   2.148   2.611   4.884
 6304SOL    HW119811   2.113   2.538   4.943
 6304SOL    HW219812   2.184   2.685   4.941
 6305SOL     OW19813   1.503   6.383   5.180
 6305SOL    HW119814   1.439   6.331   5.237
 6305SOL    HW219815   1.597   6.360   5.206
 6306SOL     OW19816   2.013   4.391   4.020
 6306SOL    HW119817   1.996   4.348   4.108
 6306SOL    HW219818   2.110   4.383   3.997
 6307SOL     OW19819   3.693   3.315   2.135
 6307SOL    HW119820   3.784   3.275   2.151
 6307SOL    HW219821   3.656   3.349   2.221
 6308SOL     OW19822   1.544   0.878   1.404
 6308SOL    HW119823   1.471   0.839   1.460
 6308SOL    HW219824   1.614   0.919   1.463
 6309SOL     OW19825   2.175   5.866   4.810
 6309SOL    HW119826   2.089   5.867   4.759
 6309SOL    HW219827   2.164   5.918   4.896
 6310SOL     OW19828   1.010   6.683   2.570
 6310SOL    HW119829   1.071   6.618   2.616
 6310SOL    HW219830   0.980   6.645   2.483
 6311SOL     OW19831   5.223   0.736   5.983
 6311SOL    HW119832   5.240   0.829   6.015
 6311SOL    HW219833   5.297   0.707   5.923
 6312SOL     OW19834   4.089   4.855   1.429
 6312SOL    HW119835   4.188   4.870   1.436
 6312SOL    HW219836   4.041   4.930   1.475
 6313SOL     OW19837   5.781   5.530   2.989
 6313SOL    HW119838   5.721   5.479   3.051
 6313SOL    HW219839   5.807   5.471   2.912
 6314SOL     OW19840   2.292   5.255   2.874
 6314SOL    HW119841   2.261   5.165   2.843
 6314SOL    HW219842   2.389   5.250   2.899
 6315SOL     OW19843   2.071   2.827   3.936
 6315SOL    HW119844   2.144   2.874   3.888
 6315SOL    HW219845   2.097   2.814   4.032
 6316SOL     OW19846   4.781   0.684   5.620
 6316SOL    HW119847   4.695   0.637   5.641
 6316SOL    HW219848   4.767   0.747   5.544
 6317SOL     OW19849   4.754   4.508   3.423
 6317SOL    HW119850   4.838   4.517   3.478
 6317SOL    HW219851   4.698   4.590   3.434
 6318SOL     OW19852   5.924   6.060   0.313
 6318SOL    HW119853   5.952   5.974   0.270
 6318SOL    HW219854   5.989   6.083   0.385
 6319SOL     OW19855   5.345   1.865   4.084
 6319SOL    HW119856   5.409   1.810   4.030
 6319SOL    HW219857   5.295   1.805   4.147
 6320SOL     OW19858   5.965   2.898   6.797
 6320SOL    HW119859   5.963   2.938   6.889
 6320SOL    HW219860   6.055   2.910   6.757
 6321SOL     OW19861   0.200   3.066   6.853
 6321SOL    HW119862   0.229   2.971   6.842
 6321SOL    HW219863   0.281   3.124   6.866
 6322SOL     OW19864   2.267   0.817   2.472
 6322SOL    HW119865   2.176   0.782   2.450
 6322SOL    HW219866   2.261   0.879   2.550
 6323SOL     OW19867   1.556   5.847   0.751
 6323SOL    HW119868   1.612   5.836   0.669
 6323SOL    HW219869   1.512   5.760   0.774
 6324SOL     OW19870   5.289   4.381   2.323
 6324SOL    HW119871   5.298   4.325   2.241
 6324SOL    HW219872   5.365   4.362   2.385
 6325SOL     OW19873   0.847   3.307   3.902
 6325SOL    HW119874   0.829   3.209   3.895
 6325SOL    HW219875   0.775   3.351   3.956
 6326SOL     OW19876   5.618   5.681   4.584
 6326SOL    HW119877   5.529   5.669   4.629
 6326SOL    HW219878   5.620   5.769   4.537
 6327SOL     OW19879   0.652   0.794   2.100
 6327SOL    HW119880   0.719   0.807   2.027
 6327SOL    HW219881   0.594   0.875   2.107
 6328SOL     OW19882   4.033   3.545   4.555
 6328SOL    HW119883   4.084   3.535   4.469
 6328SOL    HW219884   4.001   3.639   4.564
 6329SOL     OW19885   6.915   3.151   4.587
 6329SOL    HW119886   6.831   3.096   4.588
 6329SOL    HW219887   6.994   3.090   4.589
 6330SOL     OW19888   4.242   1.542   3.199
 6330SOL    HW119889   4.241   1.455   3.249
 6330SOL    HW219890   4.333   1.582   3.203
 6331SOL     OW19891   1.588   2.617   3.845
 6331SOL    HW119892   1.677   2.651   3.875
 6331SOL    HW219893   1.598   2.523   3.812
 6332SOL     OW19894   4.481   1.391   0.415
 6332SOL    HW119895   4.442   1.305   0.383
 6332SOL    HW219896   4.424   1.467   0.384
 6333SOL     OW19897   6.362   1.845   0.164
 6333SOL    HW119898   6.270   1.811   0.146
 6333SOL    HW219899   6.358   1.919   0.230
 6334SOL     OW19900   2.714   1.345   2.649
 6334SOL    HW119901   2.797   1.291   2.638
 6334SOL    HW219902   2.714   1.420   2.582
 6335SOL     OW19903   6.216   2.190   5.498
 6335SOL    HW119904   6.274   2.110   5.484
 6335SOL    HW219905   6.123   2.161   5.518
 6336SOL     OW19906   0.869   5.647   6.016
 6336SOL    HW119907   0.778   5.625   6.050
 6336SOL    HW219908   0.875   5.744   5.994
 6337SOL     OW19909   6.441   0.324   5.963
 6337SOL    HW119910   6.527   0.316   5.914
 6337SOL    HW219911   6.404   0.233   5.983
 6338SOL     OW19912   1.008   1.084   2.032
 6338SOL    HW119913   1.052   1.168   2.063
 6338SOL    HW219914   0.964   1.100   1.944
 6339SOL     OW19915   7.015   4.680   3.630
 6339SOL    HW119916   0.012   4.592   3.671
 6339SOL    HW219917   0.068   4.718   3.583
 6340SOL     OW19918   2.828   5.356   6.716
 6340SOL    HW119919   2.788   5.289   6.654
 6340SOL    HW219920   2.927   5.358   6.702
 6341SOL     OW19921   1.074   4.419   3.235
 6341SOL    HW119922   0.983   4.389   3.266
 6341SOL    HW219923   1.143   4.353   3.266
 6342SOL     OW19924   2.759   6.777   1.054
 6342SOL    HW119925   2.663   6.790   1.028
 6342SOL    HW219926   2.809   6.735   0.978
 6343SOL     OW19927   1.779   3.550   6.994
 6343SOL    HW119928   1.824   3.461   6.995
 6343SOL    HW219929   1.841   3.619   6.956
 6344SOL     OW19930   2.419   0.533   3.977
 6344SOL    HW119931   2.422   0.632   3.967
 6344SOL    HW219932   2.341   0.506   4.033
 6345SOL     OW19933   0.083   3.468   4.237
 6345SOL    HW119934   0.152   3.527   4.280
 6345SOL    HW219935   0.055   3.507   4.149
 6346SOL     OW19936   0.786   4.164   4.255
 6346SOL    HW119937   0.868   4.190   4.306
 6346SOL    HW219938   0.707   4.212   4.293
 6347SOL     OW19939   1.788   1.424   2.224
 6347SOL    HW119940   1.705   1.451   2.175
 6347SOL    HW219941   1.813   1.496   2.288
 6348SOL     OW19942   0.875   2.465   0.242
 6348SOL    HW119943   0.922   2.525   0.178
 6348SOL    HW219944   0.844   2.518   0.321
 6349SOL     OW19945   6.149   1.097   0.728
 6349SOL    HW119946   6.160   1.001   0.704
 6349SOL    HW219947   6.122   1.105   0.824
 6350SOL     OW19948   6.598   0.343   1.552
 6350SOL    HW119949   6.640   0.399   1.623
 6350SOL    HW219950   6.520   0.392   1.512
 6351SOL     OW19951   6.578   2.088   2.630
 6351SOL    HW119952   6.625   2.112   2.545
 6351SOL    HW219953   6.590   2.162   2.697
 6352SOL     OW19954   3.572   0.510   4.912
 6352SOL    HW119955   3.578   0.605   4.878
 6352SOL    HW219956   3.476   0.484   4.919
 6353SOL     OW19957   3.814   6.493   5.465
 6353SOL    HW119958   3.893   6.486   5.525
 6353SOL    HW219959   3.805   6.587   5.433
 6354SOL     OW19960   6.380   5.064   3.321
 6354SOL    HW119961   6.417   5.153   3.294
 6354SOL    HW219962   6.343   5.069   3.413
 6355SOL     OW19963   4.062   6.258   0.517
 6355SOL    HW119964   4.016   6.170   0.509
 6355SOL    HW219965   4.153   6.245   0.555
 6356SOL     OW19966   0.164   6.992   6.377
 6356SOL    HW119967   0.235   0.036   6.380
 6356SOL    HW219968   0.175   6.937   6.294
 6357SOL     OW19969   4.856   1.978   3.549
 6357SOL    HW119970   4.951   1.968   3.579
 6357SOL    HW219971   4.855   2.026   3.461
 6358SOL     OW19972   1.566   0.770   4.595
 6358SOL    HW119973   1.577   0.779   4.496
 6358SOL    HW219974   1.595   0.679   4.624
 6359SOL     OW19975   6.869   4.773   1.188
 6359SOL    HW119976   6.798   4.734   1.129
 6359SOL    HW219977   6.952   4.719   1.182
 6360SOL     OW19978   3.028   2.859   0.509
 6360SOL    HW119979   2.962   2.845   0.583
 6360SOL    HW219980   2.981   2.856   0.421
 6361SOL     OW19981   0.691   1.756   2.834
 6361SOL    HW119982   0.662   1.660   2.836
 6361SOL    HW219983   0.640   1.808   2.902
 6362SOL     OW19984   2.111   4.916   0.037
 6362SOL    HW119985   2.046   4.877   6.998
 6362SOL    HW219986   2.172   4.979   7.016
 6363SOL     OW19987   0.528   1.666   1.550
 6363SOL    HW119988   0.562   1.693   1.460
 6363SOL    HW219989   0.601   1.619   1.601
 6364SOL     OW19990   2.753   1.942   3.460
 6364SOL    HW119991   2.734   2.040   3.451
 6364SOL    HW219992   2.851   1.928   3.473
 6365SOL     OW19993   5.840   6.984   2.021
 6365SOL    HW119994   5.938   6.973   2.004
 6365SOL    HW219995   5.811   0.048   1.990
 6366SOL     OW19996   6.647   1.690   5.448
 6366SOL    HW119997   6.615   1.724   5.360
 6366SOL    HW219998   6.678   1.595   5.438
 6367SOL     OW19999   1.805   3.280   4.377
 6367SOL    HW120000   1.758   3.245   4.296
 6367SOL    HW220001   1.763   3.367   4.404
 6368SOL     OW20002   5.603   3.419   5.039
 6368SOL    HW120003   5.520   3.363   5.033
 6368SOL    HW220004   5.655   3.391   5.120
 6369SOL     OW20005   2.993   4.257   0.751
 6369SOL    HW120006   3.057   4.277   0.825
 6369SOL    HW220007   2.988   4.159   0.736
 6370SOL     OW20008   6.013   3.104   4.999
 6370SOL    HW120009   5.954   3.056   5.063
 6370SOL    HW220010   6.090   3.144   5.049
 6371SOL     OW20011   6.104   4.305   1.480
 6371SOL    HW120012   6.112   4.234   1.550
 6371SOL    HW220013   6.179   4.371   1.491
 6372SOL     OW20014   5.569   1.634   2.028
 6372SOL    HW120015   5.615   1.721   2.049
 6372SOL    HW220016   5.614   1.592   1.950
 6373SOL     OW20017   5.519   1.792   1.620
 6373SOL    HW120018   5.574   1.824   1.697
 6373SOL    HW220019   5.535   1.694   1.605
 6374SOL     OW20020   3.788   3.066   6.273
 6374SOL    HW120021   3.884   3.050   6.249
 6374SOL    HW220022   3.756   3.150   6.229
 6375SOL     OW20023   5.201   1.379   2.370
 6375SOL    HW120024   5.142   1.459   2.357
 6375SOL    HW220025   5.183   1.312   2.298
 6376SOL     OW20026   3.535   6.425   6.947
 6376SOL    HW120027   3.575   6.453   0.008
 6376SOL    HW220028   3.444   6.386   6.963
 6377SOL     OW20029   0.056   2.080   0.330
 6377SOL    HW120030   0.148   2.068   0.367
 6377SOL    HW220031   0.061   2.095   0.231
 6378SOL     OW20032   6.256   4.008   2.276
 6378SOL    HW120033   6.228   4.097   2.239
 6378SOL    HW220034   6.260   4.013   2.375
 6379SOL     OW20035   2.328   4.622   6.681
 6379SOL    HW120036   2.349   4.580   6.770
 6379SOL    HW220037   2.229   4.632   6.672
 6380SOL     OW20038   2.057   2.828   4.435
 6380SOL    HW120039   2.135   2.887   4.459
 6380SOL    HW220040   2.044   2.759   4.506
 6381SOL     OW20041   3.616   4.806   0.357
 6381SOL    HW120042   3.658   4.879   0.413
 6381SOL    HW220043   3.553   4.846   0.291
 6382SOL     OW20044   2.098   1.252   0.991
 6382SOL    HW120045   2.087   1.254   1.090
 6382SOL    HW220046   2.112   1.158   0.960
 6383SOL     OW20047   3.245   1.556   1.998
 6383SOL    HW120048   3.193   1.636   1.969
 6383SOL    HW220049   3.183   1.490   2.042
 6384SOL     OW20050   0.511   1.295   1.969
 6384SOL    HW120051   0.488   1.256   1.880
 6384SOL    HW220052   0.476   1.389   1.974
 6385SOL     OW20053   0.121   3.674   1.650
 6385SOL    HW120054   0.109   3.671   1.749
 6385SOL    HW220055   0.055   3.738   1.610
 6386SOL     OW20056   2.871   4.999   1.093
 6386SOL    HW120057   2.849   4.906   1.122
 6386SOL    HW220058   2.913   4.998   1.003
 6387SOL     OW20059   6.367   1.584   5.968
 6387SOL    HW120060   6.312   1.504   5.944
 6387SOL    HW220061   6.416   1.567   6.053
 6388SOL     OW20062   6.720   4.764   1.994
 6388SOL    HW120063   6.785   4.832   1.963
 6388SOL    HW220064   6.643   4.759   1.930
 6389SOL     OW20065   6.812   0.671   0.674
 6389SOL    HW120066   6.802   0.731   0.595
 6389SOL    HW220067   6.723   0.632   0.698
 6390SOL     OW20068   4.039   5.901   0.889
 6390SOL    HW120069   4.001   5.818   0.930
 6390SOL    HW220070   4.139   5.897   0.893
 6391SOL     OW20071   0.928   1.706   4.586
 6391SOL    HW120072   0.981   1.784   4.550
 6391SOL    HW220073   0.869   1.737   4.660
 6392SOL     OW20074   4.201   6.678   2.764
 6392SOL    HW120075   4.155   6.629   2.838
 6392SOL    HW220076   4.177   6.775   2.769
 6393SOL     OW20077   1.893   4.238   0.292
 6393SOL    HW120078   1.859   4.182   0.216
 6393SOL    HW220079   1.993   4.240   0.290
 6394SOL     OW20080   1.657   5.131   1.807
 6394SOL    HW120081   1.754   5.140   1.783
 6394SOL    HW220082   1.628   5.211   1.858
 6395SOL     OW20083   0.994   3.428   5.168
 6395SOL    HW120084   1.000   3.370   5.087
 6395SOL    HW220085   0.908   3.480   5.165
 6396SOL     OW20086   1.079   3.378   3.980
 6396SOL    HW120087   1.004   3.330   3.934
 6396SOL    HW220088   1.043   3.427   4.060
 6397SOL     OW20089   1.200   3.754   4.933
 6397SOL    HW120090   1.279   3.815   4.927
 6397SOL    HW220091   1.184   3.711   4.845
 6398SOL     OW20092   6.933   0.216   2.323
 6398SOL    HW120093   7.016   0.241   2.273
 6398SOL    HW220094   6.915   0.118   2.312
 6399SOL     OW20095   2.376   6.762   6.182
 6399SOL    HW120096   2.325   6.706   6.117
 6399SOL    HW220097   2.451   6.808   6.135
 6400SOL     OW20098   1.804   0.185   2.596
 6400SOL    HW120099   1.877   0.158   2.659
 6400SOL    HW220100   1.784   0.108   2.535
 6401SOL     OW20101   4.069   4.754   1.057
 6401SOL    HW120102   3.999   4.767   1.128
 6401SOL    HW220103   4.115   4.666   1.072
 6402SOL     OW20104   3.690   3.500   6.829
 6402SOL    HW120105   3.635   3.447   6.893
 6402SOL    HW220106   3.689   3.597   6.856
 6403SOL     OW20107   3.238   5.393   6.266
 6403SOL    HW120108   3.309   5.459   6.292
 6403SOL    HW220109   3.227   5.325   6.339
 6404SOL     OW20110   5.186   6.575   6.809
 6404SOL    HW120111   5.198   6.521   6.892
 6404SOL    HW220112   5.191   6.673   6.832
 6405SOL     OW20113   4.174   0.863   3.634
 6405SOL    HW120114   4.215   0.784   3.589
 6405SOL    HW220115   4.092   0.891   3.584
 6406SOL     OW20116   0.203   3.406   1.978
 6406SOL    HW120117   0.182   3.404   2.075
 6406SOL    HW220118   0.214   3.313   1.944
 6407SOL     OW20119   1.317   0.047   2.844
 6407SOL    HW120120   1.316   6.981   2.883
 6407SOL    HW220121   1.308   0.114   2.918
 6408SOL     OW20122   1.018   0.046   2.799
 6408SOL    HW120123   1.106   7.025   2.800
 6408SOL    HW220124   0.947   7.013   2.835
 6409SOL     OW20125   6.521   4.485   3.669
 6409SOL    HW120126   6.542   4.398   3.715
 6409SOL    HW220127   6.553   4.561   3.726
 6410SOL     OW20128   2.275   0.411   6.808
 6410SOL    HW120129   2.368   0.394   6.776
 6410SOL    HW220130   2.272   0.499   6.856
 6411SOL     OW20131   1.677   1.872   4.388
 6411SOL    HW120132   1.768   1.843   4.415
 6411SOL    HW220133   1.672   1.880   4.288
 6412SOL     OW20134   5.071   0.521   0.156
 6412SOL    HW120135   5.086   0.446   0.091
 6412SOL    HW220136   5.158   0.544   0.199
 6413SOL     OW20137   4.466   6.094   3.382
 6413SOL    HW120138   4.522   6.033   3.326
 6413SOL    HW220139   4.490   6.082   3.478
 6414SOL     OW20140   3.339   0.040   0.035
 6414SOL    HW120141   3.365   6.998   6.994
 6414SOL    HW220142   3.254   0.084   0.006
 6415SOL     OW20143   0.302   1.809   3.688
 6415SOL    HW120144   0.346   1.800   3.777
 6415SOL    HW220145   0.324   1.728   3.632
 6416SOL     OW20146   2.201   4.279   0.320
 6416SOL    HW120147   2.262   4.221   0.375
 6416SOL    HW220148   2.208   4.374   0.351
 6417SOL     OW20149   4.648   2.916   5.269
 6417SOL    HW120150   4.606   2.953   5.352
 6417SOL    HW220151   4.736   2.961   5.253
 6418SOL     OW20152   4.700   5.890   6.956
 6418SOL    HW120153   4.650   5.961   7.005
 6418SOL    HW220154   4.751   5.932   6.881
 6419SOL     OW20155   1.418   6.827   6.848
 6419SOL    HW120156   1.430   6.814   6.749
 6419SOL    HW220157   1.337   6.882   6.865
 6420SOL     OW20158   3.147   5.266   3.511
 6420SOL    HW120159   3.158   5.275   3.412
 6420SOL    HW220160   3.236   5.245   3.553
 6421SOL     OW20161   4.510   6.683   1.926
 6421SOL    HW120162   4.516   6.742   2.007
 6421SOL    HW220163   4.422   6.698   1.881
 6422SOL     OW20164   1.387   1.198   5.566
 6422SOL    HW120165   1.378   1.291   5.601
 6422SOL    HW220166   1.469   1.156   5.604
 6423SOL     OW20167   0.846   3.473   3.707
 6423SOL    HW120168   0.778   3.545   3.713
 6423SOL    HW220169   0.843   3.416   3.790
 6424SOL     OW20170   5.858   4.354   6.011
 6424SOL    HW120171   5.821   4.388   6.098
 6424SOL    HW220172   5.946   4.310   6.028
 6425SOL     OW20173   0.956   6.886   3.970
 6425SOL    HW120174   0.857   6.892   3.984
 6425SOL    HW220175   0.979   6.794   3.938
 6426SOL     OW20176   3.637   5.245   3.975
 6426SOL    HW120177   3.688   5.249   4.060
 6426SOL    HW220178   3.654   5.328   3.921
 6427SOL     OW20179   2.860   3.521   2.532
 6427SOL    HW120180   2.901   3.438   2.493
 6427SOL    HW220181   2.873   3.520   2.632
 6428SOL     OW20182   6.931   4.238   6.413
 6428SOL    HW120183   6.900   4.153   6.369
 6428SOL    HW220184   6.899   4.316   6.359
 6429SOL     OW20185   3.008   1.596   4.493
 6429SOL    HW120186   2.948   1.527   4.532
 6429SOL    HW220187   2.958   1.681   4.481
 6430SOL     OW20188   6.196   1.262   4.496
 6430SOL    HW120189   6.215   1.355   4.465
 6430SOL    HW220190   6.153   1.265   4.586
 6431SOL     OW20191   3.697   4.960   3.014
 6431SOL    HW120192   3.717   4.986   3.109
 6431SOL    HW220193   3.601   4.935   3.006
 6432SOL     OW20194   3.490   3.767   0.241
 6432SOL    HW120195   3.576   3.728   0.274
 6432SOL    HW220196   3.501   3.866   0.231
 6433SOL     OW20197   3.874   5.584   6.366
 6433SOL    HW120198   3.846   5.637   6.446
 6433SOL    HW220199   3.970   5.557   6.376
 6434SOL     OW20200   6.646   5.084   6.799
 6434SOL    HW120201   6.660   5.154   6.870
 6434SOL    HW220202   6.714   5.097   6.727
 6435SOL     OW20203   4.311   0.397   0.877
 6435SOL    HW120204   4.230   0.352   0.916
 6435SOL    HW220205   4.291   0.494   0.863
 6436SOL     OW20206   1.222   1.465   3.651
 6436SOL    HW120207   1.178   1.525   3.584
 6436SOL    HW220208   1.259   1.520   3.725
 6437SOL     OW20209   1.215   3.178   0.207
 6437SOL    HW120210   1.136   3.238   0.208
 6437SOL    HW220211   1.188   3.088   0.172
 6438SOL     OW20212   1.363   5.562   1.911
 6438SOL    HW120213   1.284   5.546   1.969
 6438SOL    HW220214   1.336   5.612   1.829
 6439SOL     OW20215   4.214   6.141   2.949
 6439SOL    HW120216   4.286   6.080   2.918
 6439SOL    HW220217   4.253   6.213   3.007
 6440SOL     OW20218   2.078   1.741   5.270
 6440SOL    HW120219   2.064   1.835   5.239
 6440SOL    HW220220   2.116   1.742   5.362
 6441SOL     OW20221   1.180   1.289   2.189
 6441SOL    HW120222   1.187   1.219   2.260
 6441SOL    HW220223   1.116   1.360   2.218
 6442SOL     OW20224   3.174   1.892   4.072
 6442SOL    HW120225   3.161   1.841   3.987
 6442SOL    HW220226   3.232   1.971   4.055
 6443SOL     OW20227   2.218   1.190   6.445
 6443SOL    HW120228   2.130   1.207   6.401
 6443SOL    HW220229   2.283   1.154   6.377
 6444SOL     OW20230   6.540   3.963   5.621
 6444SOL    HW120231   6.546   3.956   5.720
 6444SOL    HW220232   6.580   3.882   5.579
 6445SOL     OW20233   3.435   2.983   3.271
 6445SOL    HW120234   3.434   3.003   3.173
 6445SOL    HW220235   3.529   2.963   3.299
 6446SOL     OW20236   0.290   0.567   1.541
 6446SOL    HW120237   0.317   0.616   1.459
 6446SOL    HW220238   0.257   0.631   1.610
 6447SOL     OW20239   0.911   4.077   2.029
 6447SOL    HW120240   0.897   4.172   2.055
 6447SOL    HW220241   0.886   4.064   1.933
 6448SOL     OW20242   3.820   4.207   1.703
 6448SOL    HW120243   3.807   4.140   1.776
 6448SOL    HW220244   3.918   4.215   1.683
 6449SOL     OW20245   4.288   6.449   0.021
 6449SOL    HW120246   4.372   6.401   0.045
 6449SOL    HW220247   4.224   6.445   0.099
 6450SOL     OW20248   4.666   3.641   0.681
 6450SOL    HW120249   4.658   3.729   0.635
 6450SOL    HW220250   4.582   3.588   0.667
 6451SOL     OW20251   4.383   3.223   1.243
 6451SOL    HW120252   4.375   3.293   1.314
 6451SOL    HW220253   4.478   3.214   1.215
 6452SOL     OW20254   4.600   1.461   3.796
 6452SOL    HW120255   4.644   1.417   3.875
 6452SOL    HW220256   4.561   1.549   3.824
 6453SOL     OW20257   2.930   0.556   2.674
 6453SOL    HW120258   2.909   0.502   2.755
 6453SOL    HW220259   2.960   0.495   2.600
 6454SOL     OW20260   4.545   3.328   5.563
 6454SOL    HW120261   4.455   3.284   5.554
 6454SOL    HW220262   4.612   3.259   5.590
 6455SOL     OW20263   0.135   3.279   5.977
 6455SOL    HW120264   0.208   3.232   5.927
 6455SOL    HW220265   0.139   3.377   5.958
 6456SOL     OW20266   6.024   2.183   3.657
 6456SOL    HW120267   6.081   2.231   3.590
 6456SOL    HW220268   5.937   2.231   3.667
 6457SOL     OW20269   1.875   6.152   2.813
 6457SOL    HW120270   1.929   6.219   2.762
 6457SOL    HW220271   1.785   6.190   2.832
 6458SOL     OW20272   1.296   6.938   4.789
 6458SOL    HW120273   1.358   6.862   4.810
 6458SOL    HW220274   1.347   7.013   4.748
 6459SOL     OW20275   0.015   3.241   3.686
 6459SOL    HW120276   6.991   3.325   3.668
 6459SOL    HW220277   0.112   3.262   3.693
 6460SOL     OW20278   1.753   5.490   5.741
 6460SOL    HW120279   1.692   5.544   5.800
 6460SOL    HW220280   1.747   5.525   5.648
 6461SOL     OW20281   6.024   0.673   2.224
 6461SOL    HW120282   6.008   0.613   2.145
 6461SOL    HW220283   6.097   0.636   2.280
 6462SOL     OW20284   2.823   4.289   5.297
 6462SOL    HW120285   2.834   4.380   5.256
 6462SOL    HW220286   2.725   4.267   5.300
 6463SOL     OW20287   4.753   3.487   1.771
 6463SOL    HW120288   4.773   3.410   1.832
 6463SOL    HW220289   4.659   3.518   1.787
 6464SOL     OW20290   0.537   3.722   3.279
 6464SOL    HW120291   0.551   3.664   3.199
 6464SOL    HW220292   0.477   3.675   3.344
 6465SOL     OW20293   2.749   0.982   2.464
 6465SOL    HW120294   2.780   1.057   2.405
 6465SOL    HW220295   2.674   0.934   2.420
 6466SOL     OW20296   6.409   5.054   6.573
 6466SOL    HW120297   6.418   5.129   6.638
 6466SOL    HW220298   6.443   5.083   6.484
 6467SOL     OW20299   2.991   3.371   6.357
 6467SOL    HW120300   2.915   3.399   6.415
 6467SOL    HW220301   2.960   3.359   6.263
 6468SOL     OW20302   0.628   1.163   6.484
 6468SOL    HW120303   0.644   1.223   6.406
 6468SOL    HW220304   0.678   1.078   6.472
 6469SOL     OW20305   3.282   0.999   0.885
 6469SOL    HW120306   3.308   0.970   0.977
 6469SOL    HW220307   3.365   1.010   0.829
 6470SOL     OW20308   5.876   1.197   6.603
 6470SOL    HW120309   5.940   1.121   6.590
 6470SOL    HW220310   5.806   1.172   6.669
 6471SOL     OW20311   0.332   6.952   4.797
 6471SOL    HW120312   0.415   6.944   4.853
 6471SOL    HW220313   0.264   6.886   4.828
 6472SOL     OW20314   1.035   6.339   0.994
 6472SOL    HW120315   1.124   6.296   0.975
 6472SOL    HW220316   0.985   6.349   0.908
 6473SOL     OW20317   3.147   1.567   3.298
 6473SOL    HW120318   3.048   1.558   3.297
 6473SOL    HW220319   3.188   1.495   3.241
 6474SOL     OW20320   4.399   0.141   4.852
 6474SOL    HW120321   4.405   0.209   4.925
 6474SOL    HW220322   4.407   0.186   4.763
 6475SOL     OW20323   5.337   5.331   4.539
 6475SOL    HW120324   5.249   5.360   4.502
 6475SOL    HW220325   5.392   5.289   4.466
 6476SOL     OW20326   5.302   4.343   4.321
 6476SOL    HW120327   5.364   4.385   4.387
 6476SOL    HW220328   5.217   4.395   4.317
 6477SOL     OW20329   0.848   0.082   0.740
 6477SOL    HW120330   0.941   0.119   0.743
 6477SOL    HW220331   0.789   0.146   0.690
 6478SOL     OW20332   1.964   6.920   0.266
 6478SOL    HW120333   2.012   6.832   0.271
 6478SOL    HW220334   1.981   6.961   0.176
 6479SOL     OW20335   4.808   4.918   4.910
 6479SOL    HW120336   4.875   4.959   4.972
 6479SOL    HW220337   4.818   4.818   4.911
 6480SOL     OW20338   2.720   0.068   4.705
 6480SOL    HW120339   2.646   0.048   4.642
 6480SOL    HW220340   2.746   7.012   4.754
 6481SOL     OW20341   4.352   3.659   1.314
 6481SOL    HW120342   4.451   3.659   1.324
 6481SOL    HW220343   4.316   3.750   1.332
 6482SOL     OW20344   5.381   3.392   4.265
 6482SOL    HW120345   5.457   3.397   4.201
 6482SOL    HW220346   5.312   3.461   4.241
 6483SOL     OW20347   1.770   6.600   5.739
 6483SOL    HW120348   1.729   6.660   5.807
 6483SOL    HW220349   1.818   6.525   5.784
 6484SOL     OW20350   3.204   0.694   3.980
 6484SOL    HW120351   3.202   0.739   3.891
 6484SOL    HW220352   3.110   0.672   4.008
 6485SOL     OW20353   2.576   5.463   5.115
 6485SOL    HW120354   2.552   5.424   5.204
 6485SOL    HW220355   2.674   5.485   5.114
 6486SOL     OW20356   6.812   3.472   2.701
 6486SOL    HW120357   6.818   3.460   2.800
 6486SOL    HW220358   6.876   3.411   2.656
 6487SOL     OW20359   5.969   6.132   4.716
 6487SOL    HW120360   5.975   6.115   4.814
 6487SOL    HW220361   6.044   6.085   4.669
 6488SOL     OW20362   3.561   5.459   2.680
 6488SOL    HW120363   3.603   5.477   2.769
 6488SOL    HW220364   3.584   5.367   2.650
 6489SOL     OW20365   6.965   4.471   5.387
 6489SOL    HW120366   7.007   4.412   5.455
 6489SOL    HW220367   6.909   4.416   5.325
 6490SOL     OW20368   1.788   3.330   6.125
 6490SOL    HW120369   1.787   3.412   6.183
 6490SOL    HW220370   1.874   3.327   6.073
 6491SOL     OW20371   0.719   6.699   1.878
 6491SOL    HW120372   0.684   6.788   1.847
 6491SOL    HW220373   0.675   6.676   1.965
 6492SOL     OW20374   4.120   3.411   2.915
 6492SOL    HW120375   4.092   3.318   2.893
 6492SOL    HW220376   4.133   3.420   3.013
 6493SOL     OW20377   2.481   5.004   4.157
 6493SOL    HW120378   2.518   4.949   4.231
 6493SOL    HW220379   2.485   4.952   4.071
 6494SOL     OW20380   6.244   1.414   2.233
 6494SOL    HW120381   6.336   1.383   2.254
 6494SOL    HW220382   6.182   1.336   2.226
 6495SOL     OW20383   6.833   5.752   2.468
 6495SOL    HW120384   6.851   5.834   2.415
 6495SOL    HW220385   6.753   5.767   2.527
 6496SOL     OW20386   2.706   2.813   1.114
 6496SOL    HW120387   2.789   2.807   1.060
 6496SOL    HW220388   2.714   2.889   1.180
 6497SOL     OW20389   6.936   3.240   0.767
 6497SOL    HW120390   6.965   3.149   0.797
 6497SOL    HW220391   6.875   3.279   0.836
 6498SOL     OW20392   2.694   4.816   4.678
 6498SOL    HW120393   2.702   4.767   4.591
 6498SOL    HW220394   2.619   4.777   4.732
 6499SOL     OW20395   5.258   1.656   3.025
 6499SOL    HW120396   5.305   1.679   2.940
 6499SOL    HW220397   5.240   1.740   3.077
 6500SOL     OW20398   1.796   3.746   2.830
 6500SOL    HW120399   1.863   3.811   2.794
 6500SOL    HW220400   1.763   3.687   2.756
 6501SOL     OW20401   6.115   0.464   2.838
 6501SOL    HW120402   6.157   0.380   2.804
 6501SOL    HW220403   6.115   0.533   2.765
 6502SOL     OW20404   0.782   2.896   3.239
 6502SOL    HW120405   0.862   2.866   3.187
 6502SOL    HW220406   0.793   2.991   3.266
 6503SOL     OW20407   1.031   3.134   5.726
 6503SOL    HW120408   0.973   3.208   5.759
 6503SOL    HW220409   0.992   3.095   5.643
 6504SOL     OW20410   4.169   6.624   6.064
 6504SOL    HW120411   4.104   6.654   5.994
 6504SOL    HW220412   4.155   6.527   6.084
 6505SOL     OW20413   0.807   0.090   0.033
 6505SOL    HW120414   0.904   0.100   0.057
 6505SOL    HW220415   0.762   0.179   0.039
 6506SOL     OW20416   1.540   5.216   2.158
 6506SOL    HW120417   1.449   5.189   2.189
 6506SOL    HW220418   1.532   5.266   2.072
 6507SOL     OW20419   5.596   5.232   0.759
 6507SOL    HW120420   5.570   5.151   0.812
 6507SOL    HW220421   5.571   5.314   0.810
 6508SOL     OW20422   6.777   1.532   4.549
 6508SOL    HW120423   6.821   1.621   4.542
 6508SOL    HW220424   6.843   1.461   4.523
 6509SOL     OW20425   2.955   1.853   6.264
 6509SOL    HW120426   2.974   1.825   6.170
 6509SOL    HW220427   2.861   1.884   6.272
 6510SOL     OW20428   4.411   4.810   4.311
 6510SOL    HW120429   4.350   4.883   4.342
 6510SOL    HW220430   4.404   4.801   4.212
 6511SOL     OW20431   3.546   3.323   7.018
 6511SOL    HW120432   3.467   3.356   0.043
 6511SOL    HW220433   3.568   3.230   0.019
 6512SOL     OW20434   5.222   1.279   2.621
 6512SOL    HW120435   5.164   1.342   2.673
 6512SOL    HW220436   5.239   1.317   2.530
 6513SOL     OW20437   3.178   4.234   1.227
 6513SOL    HW120438   3.095   4.260   1.278
 6513SOL    HW220439   3.255   4.288   1.260
 6514SOL     OW20440   5.637   5.571   5.686
 6514SOL    HW120441   5.621   5.663   5.723
 6514SOL    HW220442   5.711   5.528   5.738
 6515SOL     OW20443   0.653   4.608   2.088
 6515SOL    HW120444   0.687   4.675   2.155
 6515SOL    HW220445   0.572   4.644   2.042
 6516SOL     OW20446   5.928   1.321   3.730
 6516SOL    HW120447   6.010   1.379   3.728
 6516SOL    HW220448   5.878   1.333   3.644
 6517SOL     OW20449   6.964   3.862   1.514
 6517SOL    HW120450   6.868   3.881   1.495
 6517SOL    HW220451   7.008   3.828   1.431
 6518SOL     OW20452   1.151   1.720   2.859
 6518SOL    HW120453   1.071   1.699   2.803
 6518SOL    HW220454   1.179   1.637   2.908
 6519SOL     OW20455   2.548   1.775   3.173
 6519SOL    HW120456   2.498   1.782   3.086
 6519SOL    HW220457   2.634   1.826   3.166
 6520SOL     OW20458   5.604   7.025   6.723
 6520SOL    HW120459   5.674   0.059   6.687
 6520SOL    HW220460   5.581   6.955   6.655
 6521SOL     OW20461   1.879   4.946   4.533
 6521SOL    HW120462   1.883   5.031   4.479
 6521SOL    HW220463   1.796   4.947   4.589
 6522SOL     OW20464   2.588   3.261   5.385
 6522SOL    HW120465   2.547   3.252   5.476
 6522SOL    HW220466   2.549   3.192   5.324
 6523SOL     OW20467   4.774   6.712   0.841
 6523SOL    HW120468   4.694   6.743   0.789
 6523SOL    HW220469   4.797   6.618   0.815
 6524SOL     OW20470   3.727   2.257   1.115
 6524SOL    HW120471   3.721   2.354   1.137
 6524SOL    HW220472   3.637   2.223   1.088
 6525SOL     OW20473   3.523   5.281   3.467
 6525SOL    HW120474   3.594   5.224   3.509
 6525SOL    HW220475   3.520   5.369   3.515
 6526SOL     OW20476   6.441   6.682   0.430
 6526SOL    HW120477   6.517   6.743   0.409
 6526SOL    HW220478   6.410   6.637   0.346
 6527SOL     OW20479   5.366   2.660   0.841
 6527SOL    HW120480   5.286   2.666   0.900
 6527SOL    HW220481   5.359   2.579   0.782
 6528SOL     OW20482   4.413   0.200   1.028
 6528SOL    HW120483   4.425   0.282   0.974
 6528SOL    HW220484   4.417   0.119   0.969
 6529SOL     OW20485   3.309   5.981   1.374
 6529SOL    HW120486   3.210   5.965   1.378
 6529SOL    HW220487   3.354   5.930   1.447
 6530SOL     OW20488   1.031   2.939   4.483
 6530SOL    HW120489   1.030   2.840   4.465
 6530SOL    HW220490   1.124   2.973   4.473
 6531SOL     OW20491   2.981   3.271   4.318
 6531SOL    HW120492   2.983   3.251   4.220
 6531SOL    HW220493   2.995   3.187   4.369
 6532SOL     OW20494   0.616   6.161   0.032
 6532SOL    HW120495   0.681   6.094   0.067
 6532SOL    HW220496   0.665   6.241   7.025
 6533SOL     OW20497   5.919   5.102   1.287
 6533SOL    HW120498   5.866   5.036   1.234
 6533SOL    HW220499   5.868   5.188   1.293
 6534SOL     OW20500   6.326   2.582   4.546
 6534SOL    HW120501   6.237   2.625   4.532
 6534SOL    HW220502   6.329   2.541   4.637
 6535SOL     OW20503   5.344   3.403   6.846
 6535SOL    HW120504   5.335   3.342   6.925
 6535SOL    HW220505   5.416   3.470   6.865
 6536SOL     OW20506   6.888   5.522   6.031
 6536SOL    HW120507   6.958   5.454   6.055
 6536SOL    HW220508   6.804   5.476   6.003
 6537SOL     OW20509   6.708   5.041   3.931
 6537SOL    HW120510   6.779   5.003   3.872
 6537SOL    HW220511   6.750   5.102   3.999
 6538SOL     OW20512   1.059   4.320   3.862
 6538SOL    HW120513   0.991   4.393   3.855
 6538SOL    HW220514   1.138   4.353   3.915
 6539SOL     OW20515   5.867   6.463   6.031
 6539SOL    HW120516   5.922   6.516   6.095
 6539SOL    HW220517   5.790   6.422   6.079
 6540SOL     OW20518   0.719   2.954   5.364
 6540SOL    HW120519   0.684   2.895   5.436
 6540SOL    HW220520   0.661   2.946   5.282
 6541SOL     OW20521   3.490   1.616   6.252
 6541SOL    HW120522   3.395   1.603   6.223
 6541SOL    HW220523   3.552   1.590   6.177
 6542SOL     OW20524   1.942   4.981   1.142
 6542SOL    HW120525   1.937   4.894   1.191
 6542SOL    HW220526   1.852   5.003   1.104
 6543SOL     OW20527   4.186   1.727   3.699
 6543SOL    HW120528   4.092   1.727   3.664
 6543SOL    HW220529   4.249   1.747   3.624
 6544SOL     OW20530   1.022   1.456   1.000
 6544SOL    HW120531   1.115   1.450   1.035
 6544SOL    HW220532   1.023   1.500   0.911
 6545SOL     OW20533   6.385   4.189   0.406
 6545SOL    HW120534   6.407   4.243   0.487
 6545SOL    HW220535   6.309   4.127   0.426
 6546SOL     OW20536   4.185   5.958   4.328
 6546SOL    HW120537   4.167   5.892   4.401
 6546SOL    HW220538   4.265   5.929   4.275
 6547SOL     OW20539   6.770   6.130   4.571
 6547SOL    HW120540   6.679   6.143   4.532
 6547SOL    HW220541   6.771   6.046   4.626
 6548SOL     OW20542   1.763   0.847   4.976
 6548SOL    HW120543   1.786   0.876   4.883
 6548SOL    HW220544   1.687   0.781   4.972
 6549SOL     OW20545   2.262   1.768   2.109
 6549SOL    HW120546   2.318   1.692   2.142
 6549SOL    HW220547   2.181   1.731   2.063
 6550SOL     OW20548   5.723   0.548   2.043
 6550SOL    HW120549   5.624   0.536   2.040
 6550SOL    HW220550   5.744   0.638   2.081
 6551SOL     OW20551   2.428   5.487   1.203
 6551SOL    HW120552   2.413   5.480   1.105
 6551SOL    HW220553   2.407   5.581   1.233
 6552SOL     OW20554   2.332   3.341   6.509
 6552SOL    HW120555   2.328   3.241   6.517
 6552SOL    HW220556   2.242   3.380   6.529
 6553SOL     OW20557   0.453   1.924   3.468
 6553SOL    HW120558   0.365   1.912   3.514
 6553SOL    HW220559   0.451   2.008   3.413
 6554SOL     OW20560   2.775   1.351   3.876
 6554SOL    HW120561   2.819   1.431   3.917
 6554SOL    HW220562   2.735   1.376   3.788
 6555SOL     OW20563   2.033   3.501   1.762
 6555SOL    HW120564   1.990   3.414   1.784
 6555SOL    HW220565   2.123   3.506   1.804
 6556SOL     OW20566   4.702   2.856   3.436
 6556SOL    HW120567   4.674   2.877   3.343
 6556SOL    HW220568   4.659   2.772   3.467
 6557SOL     OW20569   1.703   6.961   2.421
 6557SOL    HW120570   1.676   6.935   2.328
 6557SOL    HW220571   1.764   6.890   2.458
 6558SOL     OW20572   4.944   5.995   0.818
 6558SOL    HW120573   4.997   5.954   0.743
 6558SOL    HW220574   4.862   6.038   0.782
 6559SOL     OW20575   0.346   2.231   6.136
 6559SOL    HW120576   0.430   2.227   6.190
 6559SOL    HW220577   0.286   2.303   6.173
 6560SOL     OW20578   6.838   3.982   6.299
 6560SOL    HW120579   6.838   3.895   6.350
 6560SOL    HW220580   6.747   4.024   6.307
 6561SOL     OW20581   2.462   5.631   6.703
 6561SOL    HW120582   2.388   5.583   6.751
 6561SOL    HW220583   2.546   5.622   6.755
 6562SOL     OW20584   5.146   2.597   0.986
 6562SOL    HW120585   5.090   2.522   1.021
 6562SOL    HW220586   5.086   2.667   0.946
 6563SOL     OW20587   5.718   4.011   5.896
 6563SOL    HW120588   5.740   4.018   5.993
 6563SOL    HW220589   5.657   4.085   5.869
 6564SOL     OW20590   6.080   4.083   2.691
 6564SOL    HW120591   6.157   4.066   2.629
 6564SOL    HW220592   6.082   4.016   2.766
 6565SOL     OW20593   5.571   5.484   2.059
 6565SOL    HW120594   5.576   5.466   1.961
 6565SOL    HW220595   5.613   5.573   2.078
 6566SOL     OW20596   5.615   5.979   4.833
 6566SOL    HW120597   5.654   6.039   4.763
 6566SOL    HW220598   5.637   6.014   4.924
 6567SOL     OW20599   2.538   0.121   2.687
 6567SOL    HW120600   2.529   0.219   2.670
 6567SOL    HW220601   2.529   0.071   2.601
 6568SOL     OW20602   5.279   1.463   1.124
 6568SOL    HW120603   5.198   1.429   1.172
 6568SOL    HW220604   5.329   1.385   1.085
 6569SOL     OW20605   1.246   3.977   3.427
 6569SOL    HW120606   1.160   3.925   3.426
 6569SOL    HW220607   1.307   3.939   3.496
 6570SOL     OW20608   4.083   0.195   2.360
 6570SOL    HW120609   3.999   0.183   2.307
 6570SOL    HW220610   4.112   0.291   2.355
 6571SOL     OW20611   2.427   6.346   3.660
 6571SOL    HW120612   2.398   6.293   3.580
 6571SOL    HW220613   2.483   6.423   3.631
 6572SOL     OW20614   0.694   6.942   3.998
 6572SOL    HW120615   0.645   6.929   4.084
 6572SOL    HW220616   0.651   7.016   3.946
 6573SOL     OW20617   1.296   2.041   3.458
 6573SOL    HW120618   1.375   2.069   3.402
 6573SOL    HW220619   1.244   2.123   3.483
 6574SOL     OW20620   1.821   5.348   1.604
 6574SOL    HW120621   1.730   5.308   1.616
 6574SOL    HW220622   1.890   5.284   1.637
 6575SOL     OW20623   6.777   0.895   4.274
 6575SOL    HW120624   6.852   0.942   4.229
 6575SOL    HW220625   6.792   0.896   4.373
 6576SOL     OW20626   3.976   0.679   3.046
 6576SOL    HW120627   3.998   0.638   2.958
 6576SOL    HW220628   3.877   0.675   3.061
 6577SOL     OW20629   2.843   0.733   5.236
 6577SOL    HW120630   2.932   0.712   5.276
 6577SOL    HW220631   2.771   0.682   5.284
 6578SOL     OW20632   0.776   5.757   0.392
 6578SOL    HW120633   0.805   5.825   0.324
 6578SOL    HW220634   0.831   5.674   0.382
 6579SOL     OW20635   2.368   1.846   2.522
 6579SOL    HW120636   2.442   1.910   2.502
 6579SOL    HW220637   2.405   1.753   2.529
 6580SOL     OW20638   2.964   2.465   6.964
 6580SOL    HW120639   2.932   2.370   6.969
 6580SOL    HW220640   3.050   2.474   7.015
 6581SOL     OW20641   0.695   2.267   2.402
 6581SOL    HW120642   0.794   2.274   2.409
 6581SOL    HW220643   0.671   2.200   2.331
 6582SOL     OW20644   3.554   6.826   2.997
 6582SOL    HW120645   3.480   6.784   2.945
 6582SOL    HW220646   3.642   6.794   2.962
 6583SOL     OW20647   1.857   4.704   0.402
 6583SOL    HW120648   1.924   4.776   0.383
 6583SOL    HW220649   1.770   4.747   0.428
 6584SOL     OW20650   4.784   3.402   5.366
 6584SOL    HW120651   4.760   3.434   5.458
 6584SOL    HW220652   4.755   3.470   5.299
 6585SOL     OW20653   4.837   6.058   1.780
 6585SOL    HW120654   4.768   6.022   1.843
 6585SOL    HW220655   4.922   6.072   1.830
 6586SOL     OW20656   6.693   2.043   7.021
 6586SOL    HW120657   6.609   2.000   6.988
 6586SOL    HW220658   6.686   2.060   0.093
 6587SOL     OW20659   2.644   4.993   4.992
 6587SOL    HW120660   2.654   5.093   4.986
 6587SOL    HW220661   2.733   4.950   4.975
 6588SOL     OW20662   1.871   2.373   0.536
 6588SOL    HW120663   1.911   2.417   0.617
 6588SOL    HW220664   1.789   2.422   0.508
 6589SOL     OW20665   5.931   0.922   0.184
 6589SOL    HW120666   5.904   1.008   0.142
 6589SOL    HW220667   6.000   0.940   0.255
 6590SOL     OW20668   0.534   5.869   4.425
 6590SOL    HW120669   0.610   5.804   4.437
 6590SOL    HW220670   0.457   5.840   4.481
 6591SOL     OW20671   5.962   3.613   3.796
 6591SOL    HW120672   5.912   3.570   3.721
 6591SOL    HW220673   5.911   3.693   3.829
 6592SOL     OW20674   0.492   0.384   3.932
 6592SOL    HW120675   0.551   0.446   3.984
 6592SOL    HW220676   0.397   0.394   3.964
 6593SOL     OW20677   0.381   6.707   3.599
 6593SOL    HW120678   0.478   6.733   3.605
 6593SOL    HW220679   0.366   6.625   3.655
 6594SOL     OW20680   5.642   6.470   6.299
 6594SOL    HW120681   5.551   6.437   6.326
 6594SOL    HW220682   5.633   6.535   6.224
 6595SOL     OW20683   0.649   7.001   4.761
 6595SOL    HW120684   0.617   0.069   4.761
 6595SOL    HW220685   0.628   6.959   4.673
 6596SOL     OW20686   4.635   0.678   3.035
 6596SOL    HW120687   4.667   0.771   3.016
 6596SOL    HW220688   4.702   0.612   3.001
 6597SOL     OW20689   0.686   5.205   1.788
 6597SOL    HW120690   0.601   5.223   1.836
 6597SOL    HW220691   0.723   5.117   1.817
 6598SOL     OW20692   1.912   5.072   1.708
 6598SOL    HW120693   1.858   5.019   1.643
 6598SOL    HW220694   2.006   5.039   1.708
 6599SOL     OW20695   0.389   5.331   0.745
 6599SOL    HW120696   0.332   5.377   0.814
 6599SOL    HW220697   0.332   5.267   0.693
 6600SOL     OW20698   5.248   0.415   4.705
 6600SOL    HW120699   5.181   0.384   4.637
 6600SOL    HW220700   5.251   0.515   4.705
 6601SOL     OW20701   1.199   2.096   3.907
 6601SOL    HW120702   1.209   2.069   4.003
 6601SOL    HW220703   1.261   2.171   3.887
 6602SOL     OW20704   6.528   6.866   1.182
 6602SOL    HW120705   6.627   6.874   1.195
 6602SOL    HW220706   6.481   6.876   1.270
 6603SOL     OW20707   6.923   4.790   2.678
 6603SOL    HW120708   6.966   4.834   2.600
 6603SOL    HW220709   6.872   4.859   2.731
 6604SOL     OW20710   2.222   4.961   3.041
 6604SOL    HW120711   2.246   5.029   3.110
 6604SOL    HW220712   2.219   4.870   3.082
 6605SOL     OW20713   6.972   5.896   0.833
 6605SOL    HW120714   0.011   5.822   0.822
 6605SOL    HW220715   7.021   5.981   0.853
 6606SOL     OW20716   0.641   5.362   3.309
 6606SOL    HW120717   0.673   5.456   3.303
 6606SOL    HW220718   0.720   5.300   3.301
 6607SOL     OW20719   0.772   2.722   4.247
 6607SOL    HW120720   0.727   2.809   4.227
 6607SOL    HW220721   0.758   2.659   4.171
 6608SOL     OW20722   0.977   6.858   5.237
 6608SOL    HW120723   1.027   6.903   5.163
 6608SOL    HW220724   0.962   6.762   5.213
 6609SOL     OW20725   2.309   1.960   6.677
 6609SOL    HW120726   2.313   2.059   6.692
 6609SOL    HW220727   2.399   1.920   6.696
 6610SOL     OW20728   2.768   5.490   0.125
 6610SOL    HW120729   2.864   5.495   0.096
 6610SOL    HW220730   2.757   5.539   0.211
 6611SOL     OW20731   2.756   0.744   4.742
 6611SOL    HW120732   2.828   0.797   4.697
 6611SOL    HW220733   2.687   0.718   4.674
 6612SOL     OW20734   5.900   0.484   0.002
 6612SOL    HW120735   5.960   0.563   7.015
 6612SOL    HW220736   5.934   0.429   0.078
 6613SOL     OW20737   5.663   5.833   0.815
 6613SOL    HW120738   5.674   5.915   0.871
 6613SOL    HW220739   5.571   5.831   0.777
 6614SOL     OW20740   3.949   5.708   1.174
 6614SOL    HW120741   3.925   5.643   1.246
 6614SOL    HW220742   3.885   5.699   1.098
 6615SOL     OW20743   3.318   5.933   5.629
 6615SOL    HW120744   3.265   5.998   5.684
 6615SOL    HW220745   3.342   5.854   5.685
 6616SOL     OW20746   3.956   2.015   0.086
 6616SOL    HW120747   3.863   2.051   0.090
 6616SOL    HW220748   4.015   2.065   0.149
 6617SOL     OW20749   4.252   2.042   4.039
 6617SOL    HW120750   4.158   2.069   4.059
 6617SOL    HW220751   4.303   2.031   4.125
 6618SOL     OW20752   5.917   2.497   4.081
 6618SOL    HW120753   5.970   2.531   4.003
 6618SOL    HW220754   5.819   2.505   4.060
 6619SOL     OW20755   4.850   5.233   3.840
 6619SOL    HW120756   4.766   5.255   3.890
 6619SOL    HW220757   4.880   5.140   3.863
 6620SOL     OW20758   1.310   2.976   4.145
 6620SOL    HW120759   1.380   3.010   4.208
 6620SOL    HW220760   1.307   3.034   4.064
 6621SOL     OW20761   3.498   3.780   3.459
 6621SOL    HW120762   3.513   3.875   3.486
 6621SOL    HW220763   3.428   3.776   3.388
 6622SOL     OW20764   6.959   4.963   0.837
 6622SOL    HW120765   6.999   5.014   0.913
 6622SOL    HW220766   6.865   4.938   0.859
 6623SOL     OW20767   3.549   4.033   3.981
 6623SOL    HW120768   3.649   4.025   3.987
 6623SOL    HW220769   3.515   4.081   4.062
 6624SOL     OW20770   2.549   2.468   2.433
 6624SOL    HW120771   2.592   2.425   2.513
 6624SOL    HW220772   2.615   2.473   2.358
 6625SOL     OW20773   0.810   5.323   6.147
 6625SOL    HW120774   0.876   5.391   6.116
 6625SOL    HW220775   0.813   5.243   6.087
 6626SOL     OW20776   3.277   5.981   5.953
 6626SOL    HW120777   3.345   5.918   5.915
 6626SOL    HW220778   3.225   6.023   5.878
 6627SOL     OW20779   2.488   6.964   4.617
 6627SOL    HW120780   2.458   6.903   4.690
 6627SOL    HW220781   2.411   7.022   4.589
 6628SOL     OW20782   4.422   6.631   4.047
 6628SOL    HW120783   4.500   6.673   4.000
 6628SOL    HW220784   4.349   6.698   4.058
 6629SOL     OW20785   5.506   5.914   5.332
 6629SOL    HW120786   5.574   5.897   5.260
 6629SOL    HW220787   5.424   5.859   5.313
 6630SOL     OW20788   1.636   6.979   0.638
 6630SOL    HW120789   1.565   6.909   0.643
 6630SOL    HW220790   1.693   6.964   0.558
 6631SOL     OW20791   2.250   1.495   5.286
 6631SOL    HW120792   2.199   1.580   5.298
 6631SOL    HW220793   2.187   1.419   5.275
 6632SOL     OW20794   1.149   1.098   5.417
 6632SOL    HW120795   1.224   1.133   5.473
 6632SOL    HW220796   1.105   1.174   5.369
 6633SOL     OW20797   5.347   0.392   5.978
 6633SOL    HW120798   5.344   0.446   6.062
 6633SOL    HW220799   5.438   0.350   5.969
 6634SOL     OW20800   2.968   2.270   3.958
 6634SOL    HW120801   2.936   2.180   3.928
 6634SOL    HW220802   2.968   2.273   4.058
 6635SOL     OW20803   4.294   5.269   6.246
 6635SOL    HW120804   4.227   5.315   6.189
 6635SOL    HW220805   4.252   5.244   6.333
 6636SOL     OW20806   5.048   1.882   1.142
 6636SOL    HW120807   4.962   1.928   1.120
 6636SOL    HW220808   5.125   1.943   1.121
 6637SOL     OW20809   0.237   3.937   6.940
 6637SOL    HW120810   0.270   3.965   6.850
 6637SOL    HW220811   0.213   4.018   6.994
 6638SOL     OW20812   3.658   3.756   4.427
 6638SOL    HW120813   3.624   3.829   4.486
 6638SOL    HW220814   3.636   3.667   4.469
 6639SOL     OW20815   6.324   2.299   2.946
 6639SOL    HW120816   6.319   2.229   3.017
 6639SOL    HW220817   6.262   2.374   2.969
 6640SOL     OW20818   0.263   3.254   4.226
 6640SOL    HW120819   0.180   3.308   4.214
 6640SOL    HW220820   0.332   3.308   4.273
 6641SOL     OW20821   5.670   2.439   0.543
 6641SOL    HW120822   5.695   2.367   0.607
 6641SOL    HW220823   5.670   2.527   0.590
 6642SOL     OW20824   0.601   5.059   7.009
 6642SOL    HW120825   0.556   4.980   0.025
 6642SOL    HW220826   0.587   5.056   6.910
 6643SOL     OW20827   6.424   5.276   5.956
 6643SOL    HW120828   6.435   5.266   6.055
 6643SOL    HW220829   6.330   5.304   5.935
 6644SOL     OW20830   2.058   6.427   3.042
 6644SOL    HW120831   1.988   6.467   3.101
 6644SOL    HW220832   2.055   6.327   3.051
 6645SOL     OW20833   4.895   2.710   5.751
 6645SOL    HW120834   4.840   2.742   5.828
 6645SOL    HW220835   4.899   2.781   5.681
 6646SOL     OW20836   4.553   6.855   5.901
 6646SOL    HW120837   4.529   6.786   5.832
 6646SOL    HW220838   4.530   6.946   5.867
 6647SOL     OW20839   3.140   4.931   0.332
 6647SOL    HW120840   3.088   5.015   0.323
 6647SOL    HW220841   3.171   4.920   0.426
 6648SOL     OW20842   3.301   6.093   4.709
 6648SOL    HW120843   3.385   6.082   4.763
 6648SOL    HW220844   3.252   6.006   4.707
 6649SOL     OW20845   5.530   1.918   5.282
 6649SOL    HW120846   5.515   1.920   5.183
 6649SOL    HW220847   5.457   1.866   5.326
 6650SOL     OW20848   2.885   0.830   4.478
 6650SOL    HW120849   2.957   0.849   4.411
 6650SOL    HW220850   2.835   0.748   4.451
 6651SOL     OW20851   6.146   1.510   3.728
 6651SOL    HW120852   6.176   1.476   3.638
 6651SOL    HW220853   6.099   1.598   3.717
 6652SOL     OW20854   0.126   4.953   0.036
 6652SOL    HW120855   0.082   4.945   0.125
 6652SOL    HW220856   0.209   5.008   0.045
 6653SOL     OW20857   5.579   3.513   6.934
 6653SOL    HW120858   5.670   3.509   6.894
 6653SOL    HW220859   5.584   3.554   7.025
 6654SOL     OW20860   6.634   1.877   3.070
 6654SOL    HW120861   6.580   1.796   3.090
 6654SOL    HW220862   6.631   1.896   2.972
 6655SOL     OW20863   6.323   5.461   1.557
 6655SOL    HW120864   6.294   5.496   1.645
 6655SOL    HW220865   6.284   5.370   1.542
 6656SOL     OW20866   5.967   1.843   2.577
 6656SOL    HW120867   5.902   1.792   2.520
 6656SOL    HW220868   6.055   1.848   2.531
 6657SOL     OW20869   5.304   1.836   3.795
 6657SOL    HW120870   5.403   1.818   3.801
 6657SOL    HW220871   5.257   1.780   3.864
 6658SOL     OW20872   6.320   4.818   3.754
 6658SOL    HW120873   6.223   4.844   3.763
 6658SOL    HW220874   6.334   4.770   3.667
 6659SOL     OW20875   0.802   6.431   0.825
 6659SOL    HW120876   0.748   6.501   0.872
 6659SOL    HW220877   0.840   6.468   0.741
 6660SOL     OW20878   1.812   0.777   3.537
 6660SOL    HW120879   1.765   0.773   3.448
 6660SOL    HW220880   1.834   0.872   3.559
 6661SOL     OW20881   3.723   6.563   3.250
 6661SOL    HW120882   3.675   6.645   3.283
 6661SOL    HW220883   3.693   6.483   3.302
 6662SOL     OW20884   3.890   5.535   1.368
 6662SOL    HW120885   3.960   5.532   1.439
 6662SOL    HW220886   3.799   5.526   1.410
 6663SOL     OW20887   1.675   5.052   5.788
 6663SOL    HW120888   1.664   5.133   5.731
 6663SOL    HW220889   1.722   4.981   5.735
 6664SOL     OW20890   2.607   6.790   1.765
 6664SOL    HW120891   2.557   6.877   1.759
 6664SOL    HW220892   2.703   6.806   1.745
 6665SOL     OW20893   2.964   6.916   0.395
 6665SOL    HW120894   2.897   6.981   0.359
 6665SOL    HW220895   2.981   6.937   0.491
 6666SOL     OW20896   2.840   0.102   0.123
 6666SOL    HW120897   2.880   0.075   0.036
 6666SOL    HW220898   2.824   0.200   0.125
 6667SOL     OW20899   1.570   5.534   0.210
 6667SOL    HW120900   1.576   5.492   0.300
 6667SOL    HW220901   1.656   5.521   0.161
 6668SOL     OW20902   6.931   3.266   5.715
 6668SOL    HW120903   6.916   3.179   5.763
 6668SOL    HW220904   7.025   3.297   5.732
 6669SOL     OW20905   0.742   3.898   3.354
 6669SOL    HW120906   0.723   3.902   3.452
 6669SOL    HW220907   0.671   3.844   3.308
 6670SOL     OW20908   1.754   3.705   0.864
 6670SOL    HW120909   1.823   3.771   0.891
 6670SOL    HW220910   1.788   3.612   0.880
 6671SOL     OW20911   5.545   5.021   0.526
 6671SOL    HW120912   5.495   5.050   0.445
 6671SOL    HW220913   5.619   5.086   0.545
 6672SOL     OW20914   1.829   2.206   1.131
 6672SOL    HW120915   1.845   2.146   1.053
 6672SOL    HW220916   1.839   2.302   1.102
 6673SOL     OW20917   5.608   3.848   4.177
 6673SOL    HW120918   5.616   3.767   4.236
 6673SOL    HW220919   5.518   3.848   4.134
 6674SOL     OW20920   6.081   1.441   6.967
 6674SOL    HW120921   6.147   1.437   0.015
 6674SOL    HW220922   6.065   1.348   6.932
 6675SOL     OW20923   5.754   1.140   0.978
 6675SOL    HW120924   5.803   1.069   0.928
 6675SOL    HW220925   5.759   1.226   0.928
 6676SOL     OW20926   0.515   3.746   5.376
 6676SOL    HW120927   0.576   3.776   5.450
 6676SOL    HW220928   0.425   3.725   5.413
 6677SOL     OW20929   0.553   2.350   0.498
 6677SOL    HW120930   0.561   2.443   0.462
 6677SOL    HW220931   0.575   2.284   0.427
 6678SOL     OW20932   3.306   4.028   6.883
 6678SOL    HW120933   3.279   3.932   6.876
 6678SOL    HW220934   3.344   4.059   6.796
 6679SOL     OW20935   1.342   6.483   3.391
 6679SOL    HW120936   1.267   6.419   3.405
 6679SOL    HW220937   1.323   6.568   3.440
 6680SOL     OW20938   6.229   5.479   1.814
 6680SOL    HW120939   6.142   5.447   1.853
 6680SOL    HW220940   6.293   5.402   1.809
 6681SOL     OW20941   3.003   6.344   0.896
 6681SOL    HW120942   2.979   6.278   0.967
 6681SOL    HW220943   2.996   6.301   0.806
 6682SOL     OW20944   2.189   4.748   6.146
 6682SOL    HW120945   2.117   4.787   6.204
 6682SOL    HW220946   2.163   4.655   6.119
 6683SOL     OW20947   6.508   6.403   6.030
 6683SOL    HW120948   6.597   6.360   6.044
 6683SOL    HW220949   6.437   6.333   6.024
 6684SOL     OW20950   2.972   0.068   6.035
 6684SOL    HW120951   3.010   7.002   6.041
 6684SOL    HW220952   3.047   0.134   6.029
 6685SOL     OW20953   4.008   3.383   0.652
 6685SOL    HW120954   3.989   3.364   0.748
 6685SOL    HW220955   4.104   3.360   0.632
 6686SOL     OW20956   4.007   4.781   5.386
 6686SOL    HW120957   4.026   4.752   5.480
 6686SOL    HW220958   4.087   4.762   5.329
 6687SOL     OW20959   6.856   2.313   1.113
 6687SOL    HW120960   6.889   2.407   1.114
 6687SOL    HW220961   6.828   2.287   1.205
 6688SOL     OW20962   5.529   5.678   0.343
 6688SOL    HW120963   5.482   5.646   0.260
 6688SOL    HW220964   5.577   5.763   0.323
 6689SOL     OW20965   3.862   4.786   5.840
 6689SOL    HW120966   3.782   4.726   5.849
 6689SOL    HW220967   3.904   4.772   5.750
 6690SOL     OW20968   0.359   0.674   0.061
 6690SOL    HW120969   0.349   0.753   0.000
 6690SOL    HW220970   0.360   0.590   0.007
 6691SOL     OW20971   2.541   2.090   2.465
 6691SOL    HW120972   2.633   2.122   2.441
 6691SOL    HW220973   2.474   2.135   2.407
 6692SOL     OW20974   3.834   6.815   2.242
 6692SOL    HW120975   3.857   6.800   2.338
 6692SOL    HW220976   3.740   6.787   2.225
 6693SOL     OW20977   2.908   1.263   6.066
 6693SOL    HW120978   2.868   1.293   6.152
 6693SOL    HW220979   2.998   1.223   6.083
 6694SOL     OW20980   4.646   4.421   1.754
 6694SOL    HW120981   4.565   4.411   1.811
 6694SOL    HW220982   4.715   4.354   1.782
 6695SOL     OW20983   2.928   1.941   6.997
 6695SOL    HW120984   2.936   1.920   0.067
 6695SOL    HW220985   2.902   1.859   6.946
 6696SOL     OW20986   3.743   2.994   5.435
 6696SOL    HW120987   3.718   3.017   5.341
 6696SOL    HW220988   3.801   3.066   5.472
 6697SOL     OW20989   4.341   1.053   2.700
 6697SOL    HW120990   4.306   1.109   2.625
 6697SOL    HW220991   4.344   1.108   2.784
 6698SOL     OW20992   2.576   3.300   1.325
 6698SOL    HW120993   2.620   3.357   1.394
 6698SOL    HW220994   2.479   3.288   1.347
 6699SOL     OW20995   1.603   3.722   5.222
 6699SOL    HW120996   1.584   3.819   5.205
 6699SOL    HW220997   1.697   3.702   5.195
 6700SOL     OW20998   4.646   6.444   1.333
 6700SOL    HW120999   4.724   6.434   1.270
 6700SOL    HW221000   4.568   6.481   1.284
 6701SOL     OW21001   6.590   0.504   1.201
 6701SOL    HW121002   6.552   0.544   1.118
 6701SOL    HW221003   6.658   0.435   1.177
 6702SOL     OW21004   5.136   2.850   1.341
 6702SOL    HW121005   5.100   2.863   1.434
 6702SOL    HW221006   5.062   2.863   1.275
 6703SOL     OW21007   6.982   0.702   1.418
 6703SOL    HW121008   6.969   0.655   1.505
 6703SOL    HW221009   0.013   0.645   1.358
 6704SOL     OW21010   1.983   5.630   6.347
 6704SOL    HW121011   2.077   5.627   6.381
 6704SOL    HW221012   1.925   5.574   6.406
 6705SOL     OW21013   2.062   4.249   3.009
 6705SOL    HW121014   2.066   4.298   3.096
 6705SOL    HW221015   1.990   4.179   3.013
 6706SOL     OW21016   0.364   5.730   1.724
 6706SOL    HW121017   0.426   5.791   1.773
 6706SOL    HW221018   0.289   5.703   1.784
 6707SOL     OW21019   5.604   0.726   2.927
 6707SOL    HW121020   5.630   0.792   2.857
 6707SOL    HW221021   5.513   0.748   2.962
 6708SOL     OW21022   0.254   3.043   1.084
 6708SOL    HW121023   0.206   3.131   1.081
 6708SOL    HW221024   0.317   3.037   1.007
 6709SOL     OW21025   2.279   4.140   2.562
 6709SOL    HW121026   2.241   4.068   2.505
 6709SOL    HW221027   2.298   4.104   2.653
 6710SOL     OW21028   5.152   2.241   1.839
 6710SOL    HW121029   5.175   2.328   1.796
 6710SOL    HW221030   5.076   2.198   1.791
 6711SOL     OW21031   3.998   5.397   6.656
 6711SOL    HW121032   3.919   5.443   6.696
 6711SOL    HW221033   3.979   5.299   6.649
 6712SOL     OW21034   5.969   3.732   0.940
 6712SOL    HW121035   6.017   3.648   0.914
 6712SOL    HW221036   6.013   3.771   1.021
 6713SOL     OW21037   2.551   4.939   4.418
 6713SOL    HW121038   2.451   4.946   4.409
 6713SOL    HW221039   2.581   4.991   4.497
 6714SOL     OW21040   6.228   0.534   3.069
 6714SOL    HW121041   6.166   0.508   2.995
 6714SOL    HW221042   6.293   0.459   3.085
 6715SOL     OW21043   0.590   0.226   4.814
 6715SOL    HW121044   0.552   0.224   4.906
 6715SOL    HW221045   0.540   0.293   4.759
 6716SOL     OW21046   1.952   4.159   1.889
 6716SOL    HW121047   1.942   4.081   1.827
 6716SOL    HW221048   2.020   4.222   1.851
 6717SOL     OW21049   5.919   3.286   5.856
 6717SOL    HW121050   6.000   3.318   5.807
 6717SOL    HW221051   5.837   3.328   5.817
 6718SOL     OW21052   5.184   2.028   0.660
 6718SOL    HW121053   5.125   2.083   0.721
 6718SOL    HW221054   5.184   2.069   0.569
 6719SOL     OW21055   1.066   0.202   0.521
 6719SOL    HW121056   1.099   0.110   0.543
 6719SOL    HW221057   1.085   0.264   0.597
 6720SOL     OW21058   1.868   1.810   4.695
 6720SOL    HW121059   1.787   1.867   4.706
 6720SOL    HW221060   1.908   1.790   4.785
 6721SOL     OW21061   6.817   6.416   0.961
 6721SOL    HW121062   6.737   6.467   0.931
 6721SOL    HW221063   6.869   6.386   0.881
 6722SOL     OW21064   6.799   3.483   1.429
 6722SOL    HW121065   6.742   3.550   1.478
 6722SOL    HW221066   6.867   3.532   1.374
 6723SOL     OW21067   2.367   4.341   3.407
 6723SOL    HW121068   2.326   4.339   3.498
 6723SOL    HW221069   2.405   4.251   3.386
 6724SOL     OW21070   2.212   3.831   5.775
 6724SOL    HW121071   2.264   3.753   5.741
 6724SOL    HW221072   2.156   3.869   5.701
 6725SOL     OW21073   4.467   2.537   3.271
 6725SOL    HW121074   4.503   2.604   3.206
 6725SOL    HW221075   4.485   2.445   3.238
 6726SOL     OW21076   0.206   1.217   0.397
 6726SOL    HW121077   0.305   1.211   0.405
 6726SOL    HW221078   0.170   1.277   0.470
 6727SOL     OW21079   1.146   5.764   5.342
 6727SOL    HW121080   1.126   5.808   5.254
 6727SOL    HW221081   1.147   5.665   5.330
 6728SOL     OW21082   3.895   2.005   5.816
 6728SOL    HW121083   3.980   2.010   5.868
 6728SOL    HW221084   3.906   2.052   5.729
 6729SOL     OW21085   4.390   1.740   2.174
 6729SOL    HW121086   4.475   1.697   2.205
 6729SOL    HW221087   4.355   1.691   2.095
 6730SOL     OW21088   6.338   2.446   1.505
 6730SOL    HW121089   6.243   2.417   1.515
 6730SOL    HW221090   6.387   2.432   1.591
 6731SOL     OW21091   4.151   0.483   5.764
 6731SOL    HW121092   4.220   0.529   5.820
 6731SOL    HW221093   4.062   0.485   5.810
 6732SOL     OW21094   6.430   4.367   6.236
 6732SOL    HW121095   6.337   4.401   6.255
 6732SOL    HW221096   6.491   4.394   6.311
 6733SOL     OW21097   5.731   4.779   6.279
 6733SOL    HW121098   5.647   4.729   6.300
 6733SOL    HW221099   5.805   4.745   6.336
 6734SOL     OW21100   5.566   2.191   4.621
 6734SOL    HW121101   5.526   2.283   4.621
 6734SOL    HW221102   5.663   2.197   4.596
 6735SOL     OW21103   5.181   2.268   4.672
 6735SOL    HW121104   5.104   2.204   4.663
 6735SOL    HW221105   5.182   2.306   4.764
 6736SOL     OW21106   4.223   3.101   0.756
 6736SOL    HW121107   4.136   3.085   0.802
 6736SOL    HW221108   4.247   3.021   0.701
 6737SOL     OW21109   5.788   2.679   1.827
 6737SOL    HW121110   5.863   2.643   1.882
 6737SOL    HW221111   5.745   2.755   1.876
 6738SOL     OW21112   1.656   6.839   2.817
 6738SOL    HW121113   1.748   6.830   2.780
 6738SOL    HW221114   1.654   6.912   2.885
 6739SOL     OW21115   0.674   0.819   6.107
 6739SOL    HW121116   0.741   0.806   6.033
 6739SOL    HW221117   0.711   0.883   6.174
 6740SOL     OW21118   1.037   0.116   1.373
 6740SOL    HW121119   1.123   0.156   1.341
 6740SOL    HW221120   0.970   0.116   1.298
 6741SOL     OW21121   2.781   2.506   0.283
 6741SOL    HW121122   2.718   2.576   0.317
 6741SOL    HW221123   2.872   2.522   0.321
 6742SOL     OW21124   6.192   4.550   2.678
 6742SOL    HW121125   6.168   4.467   2.728
 6742SOL    HW221126   6.289   4.548   2.653
 6743SOL     OW21127   4.166   4.810   6.958
 6743SOL    HW121128   4.176   4.814   6.859
 6743SOL    HW221129   4.244   4.761   6.998
 6744SOL     OW21130   6.496   6.564   5.440
 6744SOL    HW121131   6.591   6.533   5.439
 6744SOL    HW221132   6.494   6.664   5.444
 6745SOL     OW21133   5.663   3.300   4.765
 6745SOL    HW121134   5.656   3.317   4.864
 6745SOL    HW221135   5.653   3.202   4.748
 6746SOL     OW21136   1.018   2.838   3.123
 6746SOL    HW121137   1.038   2.918   3.065
 6746SOL    HW221138   0.977   2.766   3.067
 6747SOL     OW21139   0.595   6.093   5.259
 6747SOL    HW121140   0.686   6.133   5.250
 6747SOL    HW221141   0.547   6.137   5.335
 6748SOL     OW21142   1.740   2.661   4.237
 6748SOL    HW121143   1.649   2.660   4.277
 6748SOL    HW221144   1.774   2.568   4.226
 6749SOL     OW21145   3.036   5.204   2.176
 6749SOL    HW121146   3.132   5.210   2.147
 6749SOL    HW221147   3.006   5.293   2.210
 6750SOL     OW21148   3.839   0.739   5.897
 6750SOL    HW121149   3.880   0.794   5.824
 6750SOL    HW221150   3.891   0.750   5.981
 6751SOL     OW21151   4.479   1.745   4.309
 6751SOL    HW121152   4.565   1.696   4.296
 6751SOL    HW221153   4.452   1.740   4.405
 6752SOL     OW21154   2.242   5.322   2.310
 6752SOL    HW121155   2.226   5.335   2.213
 6752SOL    HW221156   2.340   5.312   2.327
 6753SOL     OW21157   3.543   4.388   6.713
 6753SOL    HW121158   3.589   4.427   6.633
 6753SOL    HW221159   3.445   4.386   6.697
 6754SOL     OW21160   5.686   0.516   0.139
 6754SOL    HW121161   5.609   0.497   0.079
 6754SOL    HW221162   5.770   0.520   0.086
 6755SOL     OW21163   3.751   6.087   5.203
 6755SOL    HW121164   3.807   6.140   5.268
 6755SOL    HW221165   3.786   5.994   5.198
 6756SOL     OW21166   4.493   3.036   5.496
 6756SOL    HW121167   4.502   3.029   5.595
 6756SOL    HW221168   4.419   3.098   5.473
 6757SOL     OW21169   3.435   0.292   1.469
 6757SOL    HW121170   3.463   0.296   1.565
 6757SOL    HW221171   3.483   0.217   1.424
 6758SOL     OW21172   4.584   2.634   3.495
 6758SOL    HW121173   4.531   2.591   3.422
 6758SOL    HW221174   4.663   2.577   3.516
 6759SOL     OW21175   1.626   2.473   2.078
 6759SOL    HW121176   1.573   2.388   2.080
 6759SOL    HW221177   1.698   2.469   2.147
 6760SOL     OW21178   5.188   2.090   5.446
 6760SOL    HW121179   5.201   2.119   5.541
 6760SOL    HW221180   5.251   2.140   5.386
 6761SOL     OW21181   2.918   0.269   5.180
 6761SOL    HW121182   2.938   0.185   5.231
 6761SOL    HW221183   2.827   0.263   5.140
 6762SOL     OW21184   5.552   5.069   4.765
 6762SOL    HW121185   5.546   5.160   4.806
 6762SOL    HW221186   5.461   5.038   4.740
 6763SOL     OW21187   5.384   5.775   4.195
 6763SOL    HW121188   5.434   5.692   4.172
 6763SOL    HW221189   5.405   5.847   4.128
 6764SOL     OW21190   1.245   4.635   2.235
 6764SOL    HW121191   1.309   4.686   2.178
 6764SOL    HW221192   1.185   4.580   2.176
 6765SOL     OW21193   0.219   4.350   2.435
 6765SOL    HW121194   0.256   4.392   2.352
 6765SOL    HW221195   0.130   4.390   2.456
 6766SOL     OW21196   5.537   0.111   1.286
 6766SOL    HW121197   5.616   0.160   1.324
 6766SOL    HW221198   5.479   0.176   1.236
 6767SOL     OW21199   2.663   0.031   1.210
 6767SOL    HW121200   2.656   0.109   1.273
 6767SOL    HW221201   2.740   7.000   1.237
 6768SOL     OW21202   2.220   0.819   6.337
 6768SOL    HW121203   2.273   0.736   6.354
 6768SOL    HW221204   2.215   0.873   6.421
 6769SOL     OW21205   5.395   2.681   1.608
 6769SOL    HW121206   5.414   2.766   1.657
 6769SOL    HW221207   5.478   2.627   1.601
 6770SOL     OW21208   6.981   1.507   1.923
 6770SOL    HW121209   6.951   1.418   1.888
 6770SOL    HW221210   6.909   1.547   1.980
 6771SOL     OW21211   4.179   0.509   4.468
 6771SOL    HW121212   4.139   0.570   4.400
 6771SOL    HW221213   4.242   0.561   4.526
 6772SOL     OW21214   2.754   0.866   5.582
 6772SOL    HW121215   2.666   0.831   5.550
 6772SOL    HW221216   2.741   0.916   5.667
 6773SOL     OW21217   6.973   3.279   2.577
 6773SOL    HW121218   6.937   3.249   2.489
 6773SOL    HW221219   0.045   3.294   2.570
 6774SOL     OW21220   1.713   1.597   5.769
 6774SOL    HW121221   1.799   1.647   5.760
 6774SOL    HW221222   1.683   1.564   5.680
 6775SOL     OW21223   0.203   3.284   0.418
 6775SOL    HW121224   0.141   3.319   0.488
 6775SOL    HW221225   0.212   3.185   0.428
 6776SOL     OW21226   6.507   6.483   5.777
 6776SOL    HW121227   6.519   6.407   5.714
 6776SOL    HW221228   6.518   6.451   5.871
 6777SOL     OW21229   4.572   4.400   0.209
 6777SOL    HW121230   4.551   4.383   0.306
 6777SOL    HW221231   4.489   4.387   0.155
 6778SOL     OW21232   6.566   5.312   3.372
 6778SOL    HW121233   6.606   5.395   3.410
 6778SOL    HW221234   6.596   5.233   3.425
 6779SOL     OW21235   5.415   3.603   6.330
 6779SOL    HW121236   5.386   3.556   6.413
 6779SOL    HW221237   5.502   3.649   6.346
 6780SOL     OW21238   1.369   2.347   1.541
 6780SOL    HW121239   1.424   2.299   1.610
 6780SOL    HW221240   1.430   2.389   1.474
 6781SOL     OW21241   6.055   4.355   5.173
 6781SOL    HW121242   5.956   4.340   5.170
 6781SOL    HW221243   6.097   4.291   5.238
 6782SOL     OW21244   6.213   1.518   4.000
 6782SOL    HW121245   6.184   1.537   3.906
 6782SOL    HW221246   6.161   1.441   4.036
 6783SOL     OW21247   1.097   5.394   0.222
 6783SOL    HW121248   1.058   5.305   0.246
 6783SOL    HW221249   1.164   5.382   0.149
 6784SOL     OW21250   4.130   3.604   0.286
 6784SOL    HW121251   4.209   3.543   0.293
 6784SOL    HW221252   4.132   3.669   0.362
 6785SOL     OW21253   5.142   6.398   1.109
 6785SOL    HW121254   5.202   6.357   1.178
 6785SOL    HW221255   5.184   6.482   1.074
 6786SOL     OW21256   2.214   3.490   5.508
 6786SOL    HW121257   2.214   3.447   5.417
 6786SOL    HW221258   2.120   3.510   5.536
 6787SOL     OW21259   0.922   4.218   2.627
 6787SOL    HW121260   0.928   4.223   2.528
 6787SOL    HW221261   0.839   4.169   2.654
 6788SOL     OW21262   2.789   3.695   1.153
 6788SOL    HW121263   2.713   3.631   1.164
 6788SOL    HW221264   2.776   3.772   1.216
 6789SOL     OW21265   1.950   4.814   3.299
 6789SOL    HW121266   1.880   4.864   3.247
 6789SOL    HW221267   1.905   4.755   3.366
 6790SOL     OW21268   0.880   2.682   1.410
 6790SOL    HW121269   0.965   2.643   1.444
 6790SOL    HW221270   0.816   2.694   1.486
 6791SOL     OW21271   3.437   3.797   5.589
 6791SOL    HW121272   3.360   3.787   5.653
 6791SOL    HW221273   3.520   3.820   5.640
 6792SOL     OW21274   1.306   5.011   1.128
 6792SOL    HW121275   1.231   4.984   1.067
 6792SOL    HW221276   1.315   5.111   1.126
 6793SOL     OW21277   5.629   1.091   0.226
 6793SOL    HW121278   5.668   1.014   0.277
 6793SOL    HW221279   5.530   1.091   0.238
 6794SOL     OW21280   3.290   1.863   5.421
 6794SOL    HW121281   3.329   1.890   5.334
 6794SOL    HW221282   3.239   1.940   5.460
 6795SOL     OW21283   4.038   5.953   0.150
 6795SOL    HW121284   4.103   6.002   0.093
 6795SOL    HW221285   3.949   5.999   0.147
 6796SOL     OW21286   4.017   2.131   2.490
 6796SOL    HW121287   3.942   2.196   2.494
 6796SOL    HW221288   3.994   2.056   2.428
 6797SOL     OW21289   6.920   2.598   3.031
 6797SOL    HW121290   6.876   2.602   2.941
 6797SOL    HW221291   6.893   2.679   3.084
 6798SOL     OW21292   6.303   0.179   1.905
 6798SOL    HW121293   6.383   0.223   1.946
 6798SOL    HW221294   6.288   0.215   1.813
 6799SOL     OW21295   4.481   5.832   2.339
 6799SOL    HW121296   4.462   5.755   2.400
 6799SOL    HW221297   4.580   5.844   2.331
 6800SOL     OW21298   3.488   3.597   6.256
 6800SOL    HW121299   3.520   3.683   6.295
 6800SOL    HW221300   3.417   3.558   6.315
 6801SOL     OW21301   0.214   2.863   3.645
 6801SOL    HW121302   0.180   2.784   3.698
 6801SOL    HW221303   0.288   2.834   3.586
 6802SOL     OW21304   3.387   5.260   2.322
 6802SOL    HW121305   3.398   5.166   2.354
 6802SOL    HW221306   3.419   5.267   2.227
 6803SOL     OW21307   4.730   2.206   0.185
 6803SOL    HW121308   4.724   2.288   0.242
 6803SOL    HW221309   4.825   2.190   0.159
 6804SOL     OW21310   1.491   5.973   3.118
 6804SOL    HW121311   1.577   5.969   3.169
 6804SOL    HW221312   1.414   5.978   3.182
 6805SOL     OW21313   6.231   1.374   5.887
 6805SOL    HW121314   6.240   1.341   5.793
 6805SOL    HW221315   6.138   1.358   5.920
 6806SOL     OW21316   4.693   5.361   5.353
 6806SOL    HW121317   4.598   5.391   5.360
 6806SOL    HW221318   4.722   5.321   5.440
 6807SOL     OW21319   4.509   3.208   0.171
 6807SOL    HW121320   4.479   3.285   0.115
 6807SOL    HW221321   4.604   3.185   0.149
 6808SOL     OW21322   2.961   5.042   3.850
 6808SOL    HW121323   2.893   4.996   3.908
 6808SOL    HW221324   3.047   4.990   3.852
 6809SOL     OW21325   1.163   3.091   6.378
 6809SOL    HW121326   1.201   3.124   6.291
 6809SOL    HW221327   1.084   3.033   6.359
 6810SOL     OW21328   6.241   1.930   3.373
 6810SOL    HW121329   6.243   1.964   3.278
 6810SOL    HW221330   6.321   1.873   3.390
 6811SOL     OW21331   4.808   6.587   2.125
 6811SOL    HW121332   4.734   6.600   2.191
 6811SOL    HW221333   4.775   6.608   2.033
 6812SOL     OW21334   3.676   3.324   3.362
 6812SOL    HW121335   3.576   3.316   3.370
 6812SOL    HW221336   3.711   3.379   3.439
 6813SOL     OW21337   5.356   3.651   0.896
 6813SOL    HW121338   5.390   3.663   0.803
 6813SOL    HW221339   5.259   3.627   0.894
 6814SOL     OW21340   2.226   2.981   0.914
 6814SOL    HW121341   2.168   3.021   0.985
 6814SOL    HW221342   2.253   3.053   0.850
 6815SOL     OW21343   1.385   6.497   6.661
 6815SOL    HW121344   1.288   6.478   6.643
 6815SOL    HW221345   1.412   6.580   6.611
 6816SOL     OW21346   5.268   4.353   1.209
 6816SOL    HW121347   5.185   4.409   1.216
 6816SOL    HW221348   5.252   4.279   1.143
 6817SOL     OW21349   1.624   1.952   5.868
 6817SOL    HW121350   1.648   1.872   5.923
 6817SOL    HW221351   1.694   1.967   5.798
 6818SOL     OW21352   4.188   5.145   0.639
 6818SOL    HW121353   4.168   5.049   0.618
 6818SOL    HW221354   4.208   5.195   0.555
 6819SOL     OW21355   2.871   1.076   3.654
 6819SOL    HW121356   2.927   1.158   3.640
 6819SOL    HW221357   2.781   1.103   3.688
 6820SOL     OW21358   1.659   5.062   4.676
 6820SOL    HW121359   1.672   5.158   4.650
 6820SOL    HW221360   1.599   5.057   4.756
 6821SOL     OW21361   2.261   1.909   4.266
 6821SOL    HW121362   2.204   1.983   4.230
 6821SOL    HW221363   2.346   1.904   4.214
 6822SOL     OW21364   5.503   1.035   5.500
 6822SOL    HW121365   5.509   0.942   5.537
 6822SOL    HW221366   5.465   1.031   5.407
 6823SOL     OW21367   3.957   3.436   2.399
 6823SOL    HW121368   4.001   3.417   2.486
 6823SOL    HW221369   3.971   3.359   2.337
 6824SOL     OW21370   0.667   5.736   4.881
 6824SOL    HW121371   0.602   5.669   4.915
 6824SOL    HW221372   0.734   5.691   4.822
 6825SOL     OW21373   5.883   0.309   4.157
 6825SOL    HW121374   5.971   0.341   4.192
 6825SOL    HW221375   5.888   0.210   4.140
 6826SOL     OW21376   1.354   2.448   3.605
 6826SOL    HW121377   1.310   2.474   3.519
 6826SOL    HW221378   1.452   2.465   3.599
 6827SOL     OW21379   4.312   5.602   5.528
 6827SOL    HW121380   4.352   5.584   5.439
 6827SOL    HW221381   4.248   5.678   5.522
 6828SOL     OW21382   2.228   2.385   1.237
 6828SOL    HW121383   2.157   2.448   1.206
 6828SOL    HW221384   2.316   2.415   1.200
 6829SOL     OW21385   5.901   4.528   4.001
 6829SOL    HW121386   5.934   4.520   4.095
 6829SOL    HW221387   5.809   4.569   4.002
 6830SOL     OW21388   4.532   0.932   3.756
 6830SOL    HW121389   4.561   0.943   3.851
 6830SOL    HW221390   4.504   0.838   3.741
 6831SOL     OW21391   1.143   1.781   6.354
 6831SOL    HW121392   1.143   1.745   6.261
 6831SOL    HW221393   1.198   1.864   6.359
 6832SOL     OW21394   3.012   4.757   1.404
 6832SOL    HW121395   2.985   4.771   1.500
 6832SOL    HW221396   3.003   4.661   1.380
 6833SOL     OW21397   4.395   6.313   6.801
 6833SOL    HW121398   4.327   6.310   6.727
 6833SOL    HW221399   4.348   6.329   6.888
 6834SOL     OW21400   2.586   4.614   2.639
 6834SOL    HW121401   2.563   4.640   2.732
 6834SOL    HW221402   2.563   4.518   2.624
 6835SOL     OW21403   4.066   6.702   3.877
 6835SOL    HW121404   4.134   6.689   3.804
 6835SOL    HW221405   3.974   6.696   3.838
 6836SOL     OW21406   3.403   5.004   0.743
 6836SOL    HW121407   3.503   5.017   0.739
 6836SOL    HW221408   3.377   4.973   0.834
 6837SOL     OW21409   0.915   3.545   3.212
 6837SOL    HW121410   0.962   3.626   3.176
 6837SOL    HW221411   0.945   3.529   3.306
 6838SOL     OW21412   2.487   2.593   0.387
 6838SOL    HW121413   2.532   2.662   0.444
 6838SOL    HW221414   2.491   2.622   0.291
 6839SOL     OW21415   3.791   1.023   2.178
 6839SOL    HW121416   3.840   1.041   2.263
 6839SOL    HW221417   3.736   0.940   2.189
 6840SOL     OW21418   0.735   1.312   5.768
 6840SOL    HW121419   0.715   1.367   5.849
 6840SOL    HW221420   0.819   1.259   5.783
 6841SOL     OW21421   6.708   2.827   5.673
 6841SOL    HW121422   6.694   2.740   5.720
 6841SOL    HW221423   6.643   2.895   5.707
 6842SOL     OW21424   2.614   4.589   2.930
 6842SOL    HW121425   2.544   4.640   2.980
 6842SOL    HW221426   2.705   4.612   2.967
 6843SOL     OW21427   3.233   6.266   1.345
 6843SOL    HW121428   3.263   6.171   1.355
 6843SOL    HW221429   3.189   6.297   1.429
 6844SOL     OW21430   5.794   6.988   5.369
 6844SOL    HW121431   5.881   0.009   5.354
 6844SOL    HW221432   5.748   6.975   5.281
 6845SOL     OW21433   5.832   2.536   3.425
 6845SOL    HW121434   5.866   2.502   3.337
 6845SOL    HW221435   5.856   2.471   3.497
 6846SOL     OW21436   1.435   3.517   0.925
 6846SOL    HW121437   1.430   3.614   0.899
 6846SOL    HW221438   1.454   3.509   1.023
 6847SOL     OW21439   6.745   2.015   3.623
 6847SOL    HW121440   6.795   1.954   3.561
 6847SOL    HW221441   6.807   2.050   3.692
 6848SOL     OW21442   6.925   3.884   3.995
 6848SOL    HW121443   6.834   3.876   4.036
 6848SOL    HW221444   6.943   3.804   3.937
 6849SOL     OW21445   2.916   4.066   5.450
 6849SOL    HW121446   2.955   3.980   5.418
 6849SOL    HW221447   2.914   4.132   5.375
 6850SOL     OW21448   5.960   0.588   4.287
 6850SOL    HW121449   5.895   0.663   4.276
 6850SOL    HW221450   5.929   0.527   4.360
 6851SOL     OW21451   2.270   4.284   3.657
 6851SOL    HW121452   2.187   4.337   3.637
 6851SOL    HW221453   2.265   4.196   3.609
 6852SOL     OW21454   4.588   2.947   0.693
 6852SOL    HW121455   4.593   2.878   0.766
 6852SOL    HW221456   4.544   2.907   0.613
 6853SOL     OW21457   5.562   5.305   5.876
 6853SOL    HW121458   5.534   5.384   5.931
 6853SOL    HW221459   5.516   5.308   5.788
 6854SOL     OW21460   5.691   5.981   5.648
 6854SOL    HW121461   5.726   6.051   5.709
 6854SOL    HW221462   5.628   5.921   5.699
 6855SOL     OW21463   4.665   6.220   3.193
 6855SOL    HW121464   4.636   6.268   3.110
 6855SOL    HW221465   4.701   6.287   3.258
 6856SOL     OW21466   6.524   2.410   1.188
 6856SOL    HW121467   6.530   2.325   1.240
 6856SOL    HW221468   6.614   2.454   1.187
 6857SOL     OW21469   1.128   4.558   5.220
 6857SOL    HW121470   1.056   4.489   5.223
 6857SOL    HW221471   1.102   4.631   5.158
 6858SOL     OW21472   1.235   3.250   1.614
 6858SOL    HW121473   1.141   3.279   1.595
 6858SOL    HW221474   1.299   3.311   1.567
 6859SOL     OW21475   2.439   2.405   0.605
 6859SOL    HW121476   2.444   2.446   0.514
 6859SOL    HW221477   2.484   2.466   0.671
 6860SOL     OW21478   0.495   0.256   6.788
 6860SOL    HW121479   0.532   0.343   6.755
 6860SOL    HW221480   0.541   0.180   6.741
 6861SOL     OW21481   5.852   3.685   0.059
 6861SOL    HW121482   5.852   3.726   6.995
 6861SOL    HW221483   5.924   3.615   0.065
 6862SOL     OW21484   0.530   5.448   2.960
 6862SOL    HW121485   0.509   5.446   2.862
 6862SOL    HW221486   0.620   5.489   2.974
 6863SOL     OW21487   5.005   1.290   5.279
 6863SOL    HW121488   5.091   1.282   5.329
 6863SOL    HW221489   4.937   1.229   5.320
 6864SOL     OW21490   2.176   3.712   6.290
 6864SOL    HW121491   2.245   3.772   6.250
 6864SOL    HW221492   2.099   3.766   6.323
 6865SOL     OW21493   1.641   1.212   2.983
 6865SOL    HW121494   1.725   1.214   3.037
 6865SOL    HW221495   1.655   1.263   2.898
 6866SOL     OW21496   1.475   4.943   6.224
 6866SOL    HW121497   1.457   4.860   6.172
 6866SOL    HW221498   1.440   4.932   6.317
 6867SOL     OW21499   1.641   1.919   6.709
 6867SOL    HW121500   1.638   1.993   6.777
 6867SOL    HW221501   1.734   1.913   6.672
 6868SOL     OW21502   4.300   5.038   3.785
 6868SOL    HW121503   4.296   4.939   3.802
 6868SOL    HW221504   4.357   5.056   3.705
 6869SOL     OW21505   0.997   0.566   5.516
 6869SOL    HW121506   1.091   0.588   5.488
 6869SOL    HW221507   0.947   0.529   5.437
 6870SOL     OW21508   6.489   2.998   6.159
 6870SOL    HW121509   6.469   3.045   6.245
 6870SOL    HW221510   6.545   2.917   6.177
 6871SOL     OW21511   6.025   2.766   3.651
 6871SOL    HW121512   5.999   2.722   3.565
 6871SOL    HW221513   6.003   2.864   3.646
 6872SOL     OW21514   2.496   4.726   1.336
 6872SOL    HW121515   2.549   4.811   1.336
 6872SOL    HW221516   2.401   4.746   1.313
 6873SOL     OW21517   0.379   3.303   2.797
 6873SOL    HW121518   0.458   3.256   2.758
 6873SOL    HW221519   0.410   3.386   2.845
 6874SOL     OW21520   3.448   6.067   1.709
 6874SOL    HW121521   3.512   5.991   1.721
 6874SOL    HW221522   3.488   6.134   1.646
 6875SOL     OW21523   2.758   0.465   6.407
 6875SOL    HW121524   2.832   0.441   6.470
 6875SOL    HW221525   2.695   0.388   6.399
 6876SOL     OW21526   5.643   5.966   3.216
 6876SOL    HW121527   5.557   5.916   3.223
 6876SOL    HW221528   5.707   5.914   3.160
 6877SOL     OW21529   1.400   3.841   1.660
 6877SOL    HW121530   1.480   3.890   1.625
 6877SOL    HW221531   1.376   3.876   1.751
 6878SOL     OW21532   1.252   0.333   3.606
 6878SOL    HW121533   1.285   0.244   3.639
 6878SOL    HW221534   1.178   0.365   3.664
 6879SOL     OW21535   1.563   1.545   1.199
 6879SOL    HW121536   1.658   1.525   1.176
 6879SOL    HW221537   1.514   1.573   1.116
 6880SOL     OW21538   1.011   6.888   0.257
 6880SOL    HW121539   1.025   6.984   0.231
 6880SOL    HW221540   0.960   6.841   0.185
 6881SOL     OW21541   6.642   3.638   1.562
 6881SOL    HW121542   6.551   3.603   1.540
 6881SOL    HW221543   6.640   3.685   1.651
 6882SOL     OW21544   2.782   6.839   6.694
 6882SOL    HW121545   2.811   6.897   6.617
 6882SOL    HW221546   2.702   6.785   6.667
 6883SOL     OW21547   4.453   7.015   0.872
 6883SOL    HW121548   4.522   6.966   0.925
 6883SOL    HW221549   4.422   6.957   0.796
 6884SOL     OW21550   1.502   5.572   3.217
 6884SOL    HW121551   1.460   5.596   3.305
 6884SOL    HW221552   1.572   5.640   3.194
 6885SOL     OW21553   5.504   4.467   4.447
 6885SOL    HW121554   5.526   4.520   4.528
 6885SOL    HW221555   5.543   4.375   4.455
 6886SOL     OW21556   5.980   3.342   0.717
 6886SOL    HW121557   5.913   3.301   0.655
 6886SOL    HW221558   6.062   3.286   0.721
 6887SOL     OW21559   5.360   6.062   5.681
 6887SOL    HW121560   5.381   6.160   5.681
 6887SOL    HW221561   5.432   6.013   5.730
 6888SOL     OW21562   6.898   4.175   1.428
 6888SOL    HW121563   6.827   4.107   1.447
 6888SOL    HW221564   6.855   4.265   1.419
 6889SOL     OW21565   0.641   2.768   5.556
 6889SOL    HW121566   0.660   2.709   5.635
 6889SOL    HW221567   0.615   2.711   5.478
 6890SOL     OW21568   4.958   4.611   4.026
 6890SOL    HW121569   5.036   4.667   3.997
 6890SOL    HW221570   4.984   4.515   4.027
 6891SOL     OW21571   1.342   1.447   0.538
 6891SOL    HW121572   1.389   1.487   0.460
 6891SOL    HW221573   1.259   1.400   0.508
 6892SOL     OW21574   1.007   0.831   5.222
 6892SOL    HW121575   0.961   0.918   5.201
 6892SOL    HW221576   1.105   0.847   5.231
 6893SOL     OW21577   6.078   3.548   1.201
 6893SOL    HW121578   6.134   3.473   1.237
 6893SOL    HW221579   5.986   3.514   1.180
 6894SOL     OW21580   5.508   5.231   0.023
 6894SOL    HW121581   5.421   5.247   0.070
 6894SOL    HW221582   5.535   5.313   7.000
 6895SOL     OW21583   1.459   5.143   2.878
 6895SOL    HW121584   1.522   5.218   2.859
 6895SOL    HW221585   1.409   5.118   2.795
 6896SOL     OW21586   4.823   1.075   6.111
 6896SOL    HW121587   4.854   0.999   6.053
 6896SOL    HW221588   4.740   1.115   6.072
 6897SOL     OW21589   4.166   2.257   4.829
 6897SOL    HW121590   4.172   2.334   4.892
 6897SOL    HW221591   4.255   2.211   4.824
 6898SOL     OW21592   1.820   6.259   0.973
 6898SOL    HW121593   1.770   6.204   1.040
 6898SOL    HW221594   1.764   6.269   0.891
 6899SOL     OW21595   6.088   5.232   3.009
 6899SOL    HW121596   6.061   5.319   2.968
 6899SOL    HW221597   6.019   5.204   3.077
 6900SOL     OW21598   0.397   4.568   4.884
 6900SOL    HW121599   0.398   4.505   4.961
 6900SOL    HW221600   0.311   4.558   4.834
 6901SOL     OW21601   4.836   4.049   6.198
 6901SOL    HW121602   4.772   3.974   6.213
 6901SOL    HW221603   4.922   4.014   6.163
 6902SOL     OW21604   0.234   5.721   5.084
 6902SOL    HW121605   0.316   5.778   5.096
 6902SOL    HW221606   0.195   5.700   5.174
 6903SOL     OW21607   0.530   6.711   5.056
 6903SOL    HW121608   0.630   6.707   5.060
 6903SOL    HW221609   0.498   6.653   4.981
 6904SOL     OW21610   0.394   0.143   6.303
 6904SOL    HW121611   0.476   0.189   6.338
 6904SOL    HW221612   0.422   0.067   6.244
 6905SOL     OW21613   4.426   5.568   5.283
 6905SOL    HW121614   4.435   5.653   5.231
 6905SOL    HW221615   4.372   5.502   5.231
 6906SOL     OW21616   2.461   2.067   3.718
 6906SOL    HW121617   2.430   2.110   3.634
 6906SOL    HW221618   2.561   2.072   3.723
 6907SOL     OW21619   5.522   3.481   0.426
 6907SOL    HW121620   5.433   3.441   0.403
 6907SOL    HW221621   5.546   3.455   0.519
 6908SOL     OW21622   2.942   5.476   1.067
 6908SOL    HW121623   2.890   5.398   1.033
 6908SOL    HW221624   2.883   5.531   1.126
 6909SOL     OW21625   6.007   5.054   2.171
 6909SOL    HW121626   6.072   5.012   2.233
 6909SOL    HW221627   5.992   4.994   2.092
 6910SOL     OW21628   1.895   2.542   2.479
 6910SOL    HW121629   1.875   2.476   2.550
 6910SOL    HW221630   1.890   2.497   2.389
 6911SOL     OW21631   1.934   6.742   5.211
 6911SOL    HW121632   2.027   6.760   5.181
 6911SOL    HW221633   1.871   6.805   5.166
 6912SOL     OW21634   2.357   4.340   6.295
 6912SOL    HW121635   2.280   4.322   6.233
 6912SOL    HW221636   2.390   4.433   6.282
 6913SOL     OW21637   4.064   5.429   6.167
 6913SOL    HW121638   4.105   5.478   6.244
 6913SOL    HW221639   3.971   5.401   6.190
 6914SOL     OW21640   0.845   1.944   2.317
 6914SOL    HW121641   0.818   2.017   2.255
 6914SOL    HW221642   0.944   1.942   2.327
 6915SOL     OW21643   5.818   2.904   4.090
 6915SOL    HW121644   5.807   2.853   4.005
 6915SOL    HW221645   5.885   2.858   4.148
 6916SOL     OW21646   4.326   6.158   5.792
 6916SOL    HW121647   4.370   6.139   5.704
 6916SOL    HW221648   4.297   6.072   5.834
 6917SOL     OW21649   3.343   5.537   2.321
 6917SOL    HW121650   3.403   5.586   2.258
 6917SOL    HW221651   3.390   5.456   2.356
 6918SOL     OW21652   1.469   3.711   6.241
 6918SOL    HW121653   1.539   3.729   6.172
 6918SOL    HW221654   1.511   3.713   6.332
 6919SOL     OW21655   6.328   5.892   3.593
 6919SOL    HW121656   6.377   5.873   3.679
 6919SOL    HW221657   6.231   5.908   3.613
 6920SOL     OW21658   0.183   3.524   5.113
 6920SOL    HW121659   0.232   3.439   5.136
 6920SOL    HW221660   0.241   3.603   5.134
 6921SOL     OW21661   3.638   0.157   5.685
 6921SOL    HW121662   3.596   0.125   5.770
 6921SOL    HW221663   3.712   0.220   5.707
 6922SOL     OW21664   2.565   4.103   6.843
 6922SOL    HW121665   2.624   4.046   6.900
 6922SOL    HW221666   2.475   4.060   6.834
 6923SOL     OW21667   4.895   6.721   2.689
 6923SOL    HW121668   4.884   6.809   2.644
 6923SOL    HW221669   4.867   6.729   2.785
 6924SOL     OW21670   3.202   4.885   1.224
 6924SOL    HW121671   3.122   4.848   1.270
 6924SOL    HW221672   3.242   4.815   1.165
 6925SOL     OW21673   6.141   0.382   4.245
 6925SOL    HW121674   6.169   0.373   4.340
 6925SOL    HW221675   6.105   0.474   4.229
 6926SOL     OW21676   2.397   2.920   0.288
 6926SOL    HW121677   2.412   2.957   0.380
 6926SOL    HW221678   2.482   2.880   0.254
 6927SOL     OW21679   3.564   6.695   5.624
 6927SOL    HW121680   3.627   6.707   5.702
 6927SOL    HW221681   3.470   6.691   5.658
 6928SOL     OW21682   4.114   5.612   0.746
 6928SOL    HW121683   4.029   5.587   0.792
 6928SOL    HW221684   4.167   5.672   0.805
 6929SOL     OW21685   4.571   6.095   3.633
 6929SOL    HW121686   4.648   6.150   3.604
 6929SOL    HW221687   4.604   6.011   3.676
 6930SOL     OW21688   0.551   6.290   2.402
 6930SOL    HW121689   0.598   6.209   2.368
 6930SOL    HW221690   0.588   6.316   2.491
 6931SOL     OW21691   4.052   2.609   0.031
 6931SOL    HW121692   4.094   2.674   6.994
 6931SOL    HW221693   4.057   2.517   7.019
 6932SOL     OW21694   4.024   0.623   6.662
 6932SOL    HW121695   4.007   0.552   6.731
 6932SOL    HW221696   3.944   0.632   6.603
 6933SOL     OW21697   3.607   5.869   6.099
 6933SOL    HW121698   3.696   5.828   6.082
 6933SOL    HW221699   3.602   5.959   6.055
 6934SOL     OW21700   4.449   5.728   6.907
 6934SOL    HW121701   4.539   5.763   6.933
 6934SOL    HW221702   4.425   5.762   6.816
 6935SOL     OW21703   4.012   5.783   2.006
 6935SOL    HW121704   4.008   5.875   2.046
 6935SOL    HW221705   4.061   5.787   1.919
 6936SOL     OW21706   1.363   1.133   0.366
 6936SOL    HW121707   1.421   1.124   0.285
 6936SOL    HW221708   1.305   1.214   0.357
 6937SOL     OW21709   6.598   4.283   0.246
 6937SOL    HW121710   6.517   4.234   0.277
 6937SOL    HW221711   6.630   4.243   0.160
 6938SOL     OW21712   2.629   0.098   5.575
 6938SOL    HW121713   2.622   0.195   5.601
 6938SOL    HW221714   2.676   0.048   5.648
 6939SOL     OW21715   6.289   3.179   3.223
 6939SOL    HW121716   6.384   3.203   3.241
 6939SOL    HW221717   6.285   3.092   3.172
 6940SOL     OW21718   0.397   6.676   1.154
 6940SOL    HW121719   0.302   6.706   1.150
 6940SOL    HW221720   0.403   6.591   1.206
 6941SOL     OW21721   3.933   3.204   2.248
 6941SOL    HW121722   3.887   3.116   2.231
 6941SOL    HW221723   3.982   3.232   2.165
 6942SOL     OW21724   0.465   5.724   2.723
 6942SOL    HW121725   0.500   5.636   2.694
 6942SOL    HW221726   0.473   5.733   2.822
 6943SOL     OW21727   3.384   5.558   5.251
 6943SOL    HW121728   3.321   5.569   5.173
 6943SOL    HW221729   3.385   5.642   5.304
 6944SOL     OW21730   1.093   4.854   6.084
 6944SOL    HW121731   1.151   4.927   6.048
 6944SOL    HW221732   1.105   4.849   6.184
 6945SOL     OW21733   3.778   1.910   1.267
 6945SOL    HW121734   3.844   1.983   1.284
 6945SOL    HW221735   3.685   1.944   1.283
 6946SOL     OW21736   5.700   5.473   4.007
 6946SOL    HW121737   5.760   5.506   3.934
 6946SOL    HW221738   5.636   5.406   3.970
 6947SOL     OW21739   6.521   3.191   5.536
 6947SOL    HW121740   6.496   3.120   5.602
 6947SOL    HW221741   6.619   3.188   5.519
 6948SOL     OW21742   0.532   5.874   0.179
 6948SOL    HW121743   0.441   5.859   0.218
 6948SOL    HW221744   0.523   5.891   0.080
 6949SOL     OW21745   1.911   1.599   3.486
 6949SOL    HW121746   1.982   1.549   3.436
 6949SOL    HW221747   1.843   1.534   3.521
 6950SOL     OW21748   2.006   1.369   4.195
 6950SOL    HW121749   2.030   1.281   4.236
 6950SOL    HW221750   2.050   1.442   4.246
 6951SOL     OW21751   0.991   3.337   0.237
 6951SOL    HW121752   0.900   3.313   0.203
 6951SOL    HW221753   1.030   3.409   0.179
 6952SOL     OW21754   4.884   5.006   4.005
 6952SOL    HW121755   4.829   4.966   4.079
 6952SOL    HW221756   4.975   5.028   4.040
 6953SOL     OW21757   0.592   0.712   1.693
 6953SOL    HW121758   0.514   0.651   1.710
 6953SOL    HW221759   0.616   0.708   1.596
 6954SOL     OW21760   6.702   5.395   6.656
 6954SOL    HW121761   6.783   5.453   6.655
 6954SOL    HW221762   6.726   5.301   6.631
 6955SOL     OW21763   3.720   5.612   2.924
 6955SOL    HW121764   3.668   5.694   2.948
 6955SOL    HW221765   3.665   5.531   2.943
 6956SOL     OW21766   6.342   4.737   3.012
 6956SOL    HW121767   6.268   4.751   2.945
 6956SOL    HW221768   6.426   4.712   2.965
 6957SOL     OW21769   5.365   4.163   5.416
 6957SOL    HW121770   5.451   4.117   5.395
 6957SOL    HW221771   5.382   4.243   5.474
 6958SOL     OW21772   3.496   3.522   1.755
 6958SOL    HW121773   3.421   3.587   1.739
 6958SOL    HW221774   3.459   3.439   1.797
 6959SOL     OW21775   0.141   3.270   3.277
 6959SOL    HW121776   0.210   3.258   3.348
 6959SOL    HW221777   0.093   3.356   3.291
 6960SOL     OW21778   4.950   4.840   0.171
 6960SOL    HW121779   4.986   4.926   0.136
 6960SOL    HW221780   4.993   4.764   0.123
 6961SOL     OW21781   4.760   2.956   4.418
 6961SOL    HW121782   4.819   2.993   4.346
 6961SOL    HW221783   4.715   3.032   4.466
 6962SOL     OW21784   2.706   6.754   0.527
 6962SOL    HW121785   2.628   6.694   0.545
 6962SOL    HW221786   2.706   6.780   0.430
 6963SOL     OW21787   0.455   0.405   7.013
 6963SOL    HW121788   0.546   0.436   0.014
 6963SOL    HW221789   0.463   0.345   6.933
 6964SOL     OW21790   2.732   1.577   5.403
 6964SOL    HW121791   2.796   1.550   5.331
 6964SOL    HW221792   2.730   1.506   5.473
 6965SOL     OW21793   1.862   1.369   0.417
 6965SOL    HW121794   1.808   1.396   0.337
 6965SOL    HW221795   1.947   1.422   0.419
 6966SOL     OW21796   0.886   6.297   0.408
 6966SOL    HW121797   0.835   6.214   0.387
 6966SOL    HW221798   0.867   6.366   0.339
 6967SOL     OW21799   4.020   6.842   0.041
 6967SOL    HW121800   4.090   6.909   0.063
 6967SOL    HW221801   4.026   6.817   6.971
 6968SOL     OW21802   4.745   0.623   1.616
 6968SOL    HW121803   4.725   0.675   1.699
 6968SOL    HW221804   4.813   0.552   1.637
 6969SOL     OW21805   1.537   3.440   2.715
 6969SOL    HW121806   1.493   3.434   2.625
 6969SOL    HW221807   1.621   3.493   2.707
 6970SOL     OW21808   2.852   5.830   6.010
 6970SOL    HW121809   2.826   5.762   5.942
 6970SOL    HW221810   2.951   5.844   6.008
 6971SOL     OW21811   0.106   3.961   0.332
 6971SOL    HW121812   0.132   4.017   0.253
 6971SOL    HW221813   0.026   3.906   0.308
 6972SOL     OW21814   5.837   3.365   1.398
 6972SOL    HW121815   5.808   3.411   1.315
 6972SOL    HW221816   5.875   3.275   1.375
 6973SOL     OW21817   1.042   0.951   2.863
 6973SOL    HW121818   0.951   0.961   2.904
 6973SOL    HW221819   1.033   0.944   2.764
 6974SOL     OW21820   4.007   3.639   2.821
 6974SOL    HW121821   4.064   3.568   2.862
 6974SOL    HW221822   3.989   3.615   2.725
 6975SOL     OW21823   2.912   5.936   5.633
 6975SOL    HW121824   2.821   5.921   5.670
 6975SOL    HW221825   2.956   5.848   5.615
 6976SOL     OW21826   5.147   5.136   5.306
 6976SOL    HW121827   5.116   5.219   5.352
 6976SOL    HW221828   5.069   5.093   5.260
 6977SOL     OW21829   4.228   5.338   2.486
 6977SOL    HW121830   4.154   5.389   2.530
 6977SOL    HW221831   4.197   5.304   2.397
 6978SOL     OW21832   0.189   3.446   0.900
 6978SOL    HW121833   0.198   3.427   0.802
 6978SOL    HW221834   0.168   3.361   0.948
 6979SOL     OW21835   1.193   4.058   2.780
 6979SOL    HW121836   1.171   4.095   2.689
 6979SOL    HW221837   1.114   4.007   2.814
 6980SOL     OW21838   3.121   4.988   2.991
 6980SOL    HW121839   3.114   4.905   3.046
 6980SOL    HW221840   3.157   5.062   3.047
 6981SOL     OW21841   4.197   2.766   6.837
 6981SOL    HW121842   4.272   2.817   6.795
 6981SOL    HW221843   4.169   2.692   6.776
 6982SOL     OW21844   6.774   6.085   2.288
 6982SOL    HW121845   6.822   6.125   2.366
 6982SOL    HW221846   6.823   6.004   2.255
 6983SOL     OW21847   6.685   0.361   4.140
 6983SOL    HW121848   6.760   0.418   4.171
 6983SOL    HW221849   6.598   0.407   4.156
 6984SOL     OW21850   1.727   4.227   3.114
 6984SOL    HW121851   1.651   4.220   3.177
 6984SOL    HW221852   1.693   4.250   3.023
 6985SOL     OW21853   5.055   3.211   0.826
 6985SOL    HW121854   4.961   3.203   0.792
 6985SOL    HW221855   5.115   3.152   0.772
 6986SOL     OW21856   4.556   6.120   4.979
 6986SOL    HW121857   4.576   6.076   5.067
 6986SOL    HW221858   4.604   6.071   4.906
 6987SOL     OW21859   0.293   1.683   6.776
 6987SOL    HW121860   0.226   1.706   6.846
 6987SOL    HW221861   0.386   1.693   6.813
 6988SOL     OW21862   1.205   0.497   6.535
 6988SOL    HW121863   1.155   0.494   6.448
 6988SOL    HW221864   1.276   0.567   6.530
 6989SOL     OW21865   0.557   3.065   2.346
 6989SOL    HW121866   0.472   3.027   2.309
 6989SOL    HW221867   0.541   3.159   2.377
 6990SOL     OW21868   3.080   5.034   6.370
 6990SOL    HW121869   3.114   5.082   6.450
 6990SOL    HW221870   3.157   5.010   6.310
 6991SOL     OW21871   5.398   4.099   4.254
 6991SOL    HW121872   5.462   4.069   4.326
 6991SOL    HW221873   5.346   4.178   4.287
 6992SOL     OW21874   2.061   5.394   5.668
 6992SOL    HW121875   2.005   5.476   5.684
 6992SOL    HW221876   2.069   5.377   5.570
 6993SOL     OW21877   4.269   2.387   1.922
 6993SOL    HW121878   4.220   2.322   1.979
 6993SOL    HW221879   4.326   2.446   1.980
 6994SOL     OW21880   2.330   1.032   2.953
 6994SOL    HW121881   2.316   1.059   3.048
 6994SOL    HW221882   2.378   1.106   2.904
 6995SOL     OW21883   6.417   5.284   0.323
 6995SOL    HW121884   6.352   5.356   0.346
 6995SOL    HW221885   6.508   5.310   0.356
 6996SOL     OW21886   1.575   0.776   0.241
 6996SOL    HW121887   1.577   0.874   0.219
 6996SOL    HW221888   1.537   0.762   0.332
 6997SOL     OW21889   5.783   5.789   6.383
 6997SOL    HW121890   5.808   5.760   6.476
 6997SOL    HW221891   5.862   5.834   6.340
 6998SOL     OW21892   0.358   0.994   5.663
 6998SOL    HW121893   0.427   0.953   5.723
 6998SOL    HW221894   0.286   1.036   5.718
 6999SOL     OW21895   1.011   2.602   0.040
 6999SOL    HW121896   0.950   2.643   6.998
 6999SOL    HW221897   1.043   2.513   0.007
 7000SOL     OW21898   0.656   5.198   2.292
 7000SOL    HW121899   0.681   5.289   2.257
 7000SOL    HW221900   0.671   5.196   2.391
 7001SOL     OW21901   0.846   1.330   3.871
 7001SOL    HW121902   0.774   1.264   3.849
 7001SOL    HW221903   0.926   1.314   3.812
 7002SOL     OW21904   1.368   4.589   3.129
 7002SOL    HW121905   1.395   4.629   3.042
 7002SOL    HW221906   1.446   4.588   3.191
 7003SOL     OW21907   0.342   5.548   6.641
 7003SOL    HW121908   0.383   5.639   6.650
 7003SOL    HW221909   0.313   5.534   6.546
 7004SOL     OW21910   1.018   0.461   0.026
 7004SOL    HW121911   1.004   0.553   0.062
 7004SOL    HW221912   1.112   0.432   0.042
 7005SOL     OW21913   2.099   5.091   0.469
 7005SOL    HW121914   2.098   5.065   0.566
 7005SOL    HW221915   2.134   5.184   0.459
 7006SOL     OW21916   1.279   0.747   3.818
 7006SOL    HW121917   1.267   0.718   3.723
 7006SOL    HW221918   1.375   0.735   3.845
 7007SOL     OW21919   2.099   6.466   6.382
 7007SOL    HW121920   2.003   6.471   6.410
 7007SOL    HW221921   2.130   6.371   6.385
 7008SOL     OW21922   6.094   2.946   3.014
 7008SOL    HW121923   6.194   2.942   3.014
 7008SOL    HW221924   6.064   3.038   2.988
 7009SOL     OW21925   5.234   5.392   2.328
 7009SOL    HW121926   5.162   5.435   2.274
 7009SOL    HW221927   5.204   5.300   2.355
 7010SOL     OW21928   4.831   2.461   3.088
 7010SOL    HW121929   4.797   2.395   3.020
 7010SOL    HW221930   4.911   2.424   3.134
 7011SOL     OW21931   2.048   5.832   6.706
 7011SOL    HW121932   2.050   5.931   6.701
 7011SOL    HW221933   2.119   5.800   6.769
 7012SOL     OW21934   0.772   3.593   0.124
 7012SOL    HW121935   0.766   3.527   0.049
 7012SOL    HW221936   0.783   3.685   0.088
 7013SOL     OW21937   2.402   2.628   6.849
 7013SOL    HW121938   2.333   2.615   6.920
 7013SOL    HW221939   2.467   2.698   6.877
 7014SOL     OW21940   0.096   3.920   1.031
 7014SOL    HW121941   0.144   3.982   1.092
 7014SOL    HW221942   0.034   3.971   0.972
 7015SOL     OW21943   6.183   6.668   0.825
 7015SOL    HW121944   6.149   6.683   0.918
 7015SOL    HW221945   6.107   6.667   0.761
 7016SOL     OW21946   2.796   5.272   0.898
 7016SOL    HW121947   2.782   5.210   0.976
 7016SOL    HW221948   2.751   5.234   0.817
 7017SOL     OW21949   5.860   3.797   6.836
 7017SOL    HW121950   5.808   3.789   6.751
 7017SOL    HW221951   5.924   3.873   6.829
 7018SOL     OW21952   6.819   2.234   4.241
 7018SOL    HW121953   6.851   2.272   4.154
 7018SOL    HW221954   6.748   2.166   4.224
 7019SOL     OW21955   2.804   6.273   2.282
 7019SOL    HW121956   2.874   6.219   2.234
 7019SOL    HW221957   2.795   6.362   2.238
 7020SOL     OW21958   6.591   2.149   0.813
 7020SOL    HW121959   6.606   2.247   0.805
 7020SOL    HW221960   6.654   2.100   0.753
 7021SOL     OW21961   0.764   2.348   4.823
 7021SOL    HW121962   0.685   2.289   4.804
 7021SOL    HW221963   0.739   2.415   4.893
 7022SOL     OW21964   1.927   3.616   1.165
 7022SOL    HW121965   1.832   3.642   1.149
 7022SOL    HW221966   1.969   3.682   1.228
 7023SOL     OW21967   6.528   1.780   0.867
 7023SOL    HW121968   6.560   1.695   0.907
 7023SOL    HW221969   6.434   1.769   0.835
 7024SOL     OW21970   3.710   4.519   5.383
 7024SOL    HW121971   3.639   4.521   5.453
 7024SOL    HW221972   3.709   4.430   5.338
 7025SOL     OW21973   3.708   0.617   1.186
 7025SOL    HW121974   3.732   0.577   1.275
 7025SOL    HW221975   3.789   0.624   1.129
 7026SOL     OW21976   2.974   2.423   1.146
 7026SOL    HW121977   2.936   2.333   1.128
 7026SOL    HW221978   2.980   2.438   1.245
 7027SOL     OW21979   2.624   4.477   0.606
 7027SOL    HW121980   2.613   4.378   0.610
 7027SOL    HW221981   2.636   4.505   0.511
 7028SOL     OW21982   3.012   0.271   2.116
 7028SOL    HW121983   2.932   0.280   2.057
 7028SOL    HW221984   3.024   0.355   2.170
 7029SOL     OW21985   3.361   4.132   2.997
 7029SOL    HW121986   3.295   4.131   2.922
 7029SOL    HW221987   3.442   4.079   2.971
 7030SOL     OW21988   5.618   6.877   4.588
 7030SOL    HW121989   5.662   6.818   4.656
 7030SOL    HW221990   5.684   6.942   4.552
 7031SOL     OW21991   5.274   4.782   1.132
 7031SOL    HW121992   5.363   4.777   1.177
 7031SOL    HW221993   5.219   4.852   1.176
 7032SOL     OW21994   3.607   4.987   3.897
 7032SOL    HW121995   3.617   5.082   3.926
 7032SOL    HW221996   3.529   4.946   3.946
 7033SOL     OW21997   2.746   1.973   5.634
 7033SOL    HW121998   2.774   2.055   5.584
 7033SOL    HW221999   2.824   1.936   5.683
 7034SOL     OW22000   6.669   2.516   2.923
 7034SOL    HW122001   6.698   2.496   3.017
 7034SOL    HW222002   6.612   2.598   2.922
 7035SOL     OW22003   3.488   2.492   0.838
 7035SOL    HW122004   3.443   2.575   0.873
 7035SOL    HW222005   3.455   2.474   0.745
 7036SOL     OW22006   6.787   1.829   1.885
 7036SOL    HW122007   6.822   1.901   1.945
 7036SOL    HW222008   6.693   1.806   1.911
 7037SOL     OW22009   0.547   1.435   5.406
 7037SOL    HW122010   0.467   1.435   5.466
 7037SOL    HW222011   0.519   1.411   5.313
 7038SOL     OW22012   1.534   3.885   6.791
 7038SOL    HW122013   1.504   3.857   6.700
 7038SOL    HW222014   1.499   3.821   6.859
 7039SOL     OW22015   6.083   0.505   1.354
 7039SOL    HW122016   6.021   0.471   1.425
 7039SOL    HW222017   6.119   0.428   1.301
 7040SOL     OW22018   5.205   2.968   4.727
 7040SOL    HW122019   5.272   2.927   4.665
 7040SOL    HW222020   5.113   2.949   4.693
 7041SOL     OW22021   0.936   6.284   2.923
 7041SOL    HW122022   0.936   6.286   2.823
 7041SOL    HW222023   1.030   6.289   2.957
 7042SOL     OW22024   4.522   5.046   5.534
 7042SOL    HW122025   4.478   5.101   5.605
 7042SOL    HW222026   4.466   5.047   5.451
 7043SOL     OW22027   2.483   5.943   0.435
 7043SOL    HW122028   2.551   5.981   0.499
 7043SOL    HW222029   2.522   5.939   0.343
 7044SOL     OW22030   5.033   6.026   5.344
 7044SOL    HW122031   5.013   6.061   5.252
 7044SOL    HW222032   4.947   6.018   5.395
 7045SOL     OW22033   5.331   0.705   1.442
 7045SOL    HW122034   5.257   0.753   1.488
 7045SOL    HW222035   5.384   0.652   1.509
 7046SOL     OW22036   3.085   0.731   2.033
 7046SOL    HW122037   2.998   0.694   2.001
 7046SOL    HW222038   3.118   0.676   2.110
 7047SOL     OW22039   0.905   7.011   1.070
 7047SOL    HW122040   0.830   0.041   1.106
 7047SOL    HW222041   0.867   6.936   1.016
 7048SOL     OW22042   0.742   5.275   4.895
 7048SOL    HW122043   0.752   5.351   4.960
 7048SOL    HW222044   0.680   5.207   4.934
 7049SOL     OW22045   2.560   1.808   5.044
 7049SOL    HW122046   2.573   1.857   4.957
 7049SOL    HW222047   2.478   1.844   5.090
 7050SOL     OW22048   4.249   4.364   0.810
 7050SOL    HW122049   4.197   4.401   0.733
 7050SOL    HW222050   4.239   4.264   0.813
 7051SOL     OW22051   2.218   0.899   2.223
 7051SOL    HW122052   2.125   0.930   2.208
 7051SOL    HW222053   2.234   0.888   2.321
 7052SOL     OW22054   5.579   2.394   2.889
 7052SOL    HW122055   5.481   2.394   2.911
 7052SOL    HW222056   5.605   2.304   2.854
 7053SOL     OW22057   0.485   4.356   3.301
 7053SOL    HW122058   0.514   4.305   3.382
 7053SOL    HW222059   0.409   4.308   3.257
 7054SOL     OW22060   5.375   6.501   0.756
 7054SOL    HW122061   5.354   6.516   0.659
 7054SOL    HW222062   5.470   6.475   0.767
 7055SOL     OW22063   1.963   0.021   7.007
 7055SOL    HW122064   1.907   6.991   6.945
 7055SOL    HW222065   2.060   7.025   6.994
 7056SOL     OW22066   0.729   5.611   1.598
 7056SOL    HW122067   0.682   5.589   1.512
 7056SOL    HW222068   0.738   5.710   1.606
 7057SOL     OW22069   2.964   6.298   4.820
 7057SOL    HW122070   2.907   6.380   4.809
 7057SOL    HW222071   3.044   6.305   4.761
 7058SOL     OW22072   5.818   2.867   5.569
 7058SOL    HW122073   5.842   2.806   5.645
 7058SOL    HW222074   5.742   2.926   5.596
 7059SOL     OW22075   2.088   0.960   3.886
 7059SOL    HW122076   2.084   0.876   3.941
 7059SOL    HW222077   2.116   1.037   3.943
 7060SOL     OW22078   2.465   2.592   0.801
 7060SOL    HW122079   2.559   2.620   0.780
 7060SOL    HW222080   2.410   2.673   0.823
 7061SOL     OW22081   1.143   6.646   0.842
 7061SOL    HW122082   1.060   6.700   0.849
 7061SOL    HW222083   1.120   6.549   0.848
 7062SOL     OW22084   3.456   0.634   5.361
 7062SOL    HW122085   3.551   0.630   5.395
 7062SOL    HW222086   3.400   0.567   5.411
 7063SOL     OW22087   0.137   1.126   1.152
 7063SOL    HW122088   0.040   1.145   1.136
 7063SOL    HW222089   0.192   1.202   1.117
 7064SOL     OW22090   2.410   1.612   5.781
 7064SOL    HW122091   2.495   1.645   5.738
 7064SOL    HW222092   2.360   1.555   5.716
 7065SOL     OW22093   2.895   0.150   2.787
 7065SOL    HW122094   2.859   0.087   2.856
 7065SOL    HW222095   2.903   0.104   2.699
 7066SOL     OW22096   4.364   1.162   1.470
 7066SOL    HW122097   4.463   1.153   1.481
 7066SOL    HW222098   4.338   1.145   1.375
 7067SOL     OW22099   3.029   4.621   5.836
 7067SOL    HW122100   3.026   4.561   5.756
 7067SOL    HW222101   3.074   4.574   5.912
 7068SOL     OW22102   4.725   5.156   2.766
 7068SOL    HW122103   4.716   5.064   2.728
 7068SOL    HW222104   4.744   5.220   2.692
 7069SOL     OW22105   3.658   1.524   6.044
 7069SOL    HW122106   3.731   1.500   5.980
 7069SOL    HW222107   3.600   1.445   6.061
 7070SOL     OW22108   0.675   1.840   5.681
 7070SOL    HW122109   0.621   1.804   5.605
 7070SOL    HW222110   0.754   1.890   5.646
 7071SOL     OW22111   4.234   5.338   6.929
 7071SOL    HW122112   4.195   5.430   6.926
 7071SOL    HW222113   4.162   5.270   6.913
 7072SOL     OW22114   1.547   3.713   5.497
 7072SOL    HW122115   1.569   3.693   5.401
 7072SOL    HW222116   1.494   3.638   5.535
 7073SOL     OW22117   4.235   1.194   4.733
 7073SOL    HW122118   4.227   1.208   4.635
 7073SOL    HW222119   4.306   1.255   4.770
 7074SOL     OW22120   5.841   2.769   2.670
 7074SOL    HW122121   5.779   2.694   2.693
 7074SOL    HW222122   5.929   2.754   2.715
 7075SOL     OW22123   1.802   4.354   2.688
 7075SOL    HW122124   1.754   4.383   2.605
 7075SOL    HW222125   1.901   4.355   2.670
 7076SOL     OW22126   6.399   1.724   1.222
 7076SOL    HW122127   6.462   1.795   1.251
 7076SOL    HW222128   6.436   1.634   1.248
 7077SOL     OW22129   3.633   6.169   2.222
 7077SOL    HW122130   3.635   6.227   2.141
 7077SOL    HW222131   3.648   6.074   2.196
 7078SOL     OW22132   6.524   1.502   0.089
 7078SOL    HW122133   6.589   1.577   0.077
 7078SOL    HW222134   6.568   1.427   0.137
 7079SOL     OW22135   2.809   6.032   5.168
 7079SOL    HW122136   2.785   5.935   5.162
 7079SOL    HW222137   2.879   6.053   5.100
 7080SOL     OW22138   3.568   1.914   6.677
 7080SOL    HW122139   3.538   1.822   6.701
 7080SOL    HW222140   3.497   1.980   6.703
 7081SOL     OW22141   3.495   6.534   6.158
 7081SOL    HW122142   3.545   6.574   6.235
 7081SOL    HW222143   3.488   6.435   6.171
 7082SOL     OW22144   1.703   5.075   2.304
 7082SOL    HW122145   1.644   5.138   2.254
 7082SOL    HW222146   1.705   4.987   2.257
 7083SOL     OW22147   5.629   2.729   3.369
 7083SOL    HW122148   5.595   2.734   3.462
 7083SOL    HW222149   5.711   2.670   3.366
 7084SOL     OW22150   1.271   5.185   0.670
 7084SOL    HW122151   1.194   5.122   0.660
 7084SOL    HW222152   1.290   5.229   0.582
 7085SOL     OW22153   0.371   3.069   2.012
 7085SOL    HW122154   0.432   3.002   1.969
 7085SOL    HW222155   0.323   3.121   1.942
 7086SOL     OW22156   3.918   0.461   3.390
 7086SOL    HW122157   3.835   0.454   3.335
 7086SOL    HW222158   3.903   0.526   3.465
 7087SOL     OW22159   6.121   2.440   4.275
 7087SOL    HW122160   6.080   2.410   4.361
 7087SOL    HW222161   6.050   2.443   4.204
 7088SOL     OW22162   6.075   1.520   5.641
 7088SOL    HW122163   6.016   1.519   5.722
 7088SOL    HW222164   6.127   1.435   5.637
 7089SOL     OW22165   3.659   6.217   1.935
 7089SOL    HW122166   3.734   6.156   1.909
 7089SOL    HW222167   3.578   6.196   1.880
 7090SOL     OW22168   5.658   3.052   1.813
 7090SOL    HW122169   5.728   3.068   1.882
 7090SOL    HW222170   5.677   3.107   1.733
 7091SOL     OW22171   5.559   6.610   5.998
 7091SOL    HW122172   5.467   6.643   5.975
 7091SOL    HW222173   5.603   6.674   6.060
 7092SOL     OW22174   3.900   0.234   6.044
 7092SOL    HW122175   3.912   0.310   5.980
 7092SOL    HW222176   3.879   0.151   5.994
 7093SOL     OW22177   4.220   2.635   0.449
 7093SOL    HW122178   4.238   2.584   0.533
 7093SOL    HW222179   4.290   2.614   0.381
 7094SOL     OW22180   4.312   0.942   5.469
 7094SOL    HW122181   4.293   0.942   5.370
 7094SOL    HW222182   4.324   1.036   5.500
 7095SOL     OW22183   2.676   4.899   3.024
 7095SOL    HW122184   2.610   4.861   3.089
 7095SOL    HW222185   2.718   4.981   3.063
 7096SOL     OW22186   0.169   4.664   0.147
 7096SOL    HW122187   0.080   4.661   0.103
 7096SOL    HW222188   0.196   4.760   0.160
 7097SOL     OW22189   4.850   2.091   3.300
 7097SOL    HW122190   4.770   2.052   3.254
 7097SOL    HW222191   4.925   2.102   3.234
 7098SOL     OW22192   1.363   1.237   1.999
 7098SOL    HW122193   1.445   1.241   2.055
 7098SOL    HW222194   1.282   1.238   2.058
 7099SOL     OW22195   3.119   1.398   5.174
 7099SOL    HW122196   3.148   1.399   5.078
 7099SOL    HW222197   3.147   1.484   5.218
 7100SOL     OW22198   0.597   4.192   1.016
 7100SOL    HW122199   0.606   4.094   1.033
 7100SOL    HW222200   0.529   4.231   1.078
 7101SOL     OW22201   2.810   6.773   4.134
 7101SOL    HW122202   2.892   6.722   4.158
 7101SOL    HW222203   2.764   6.727   4.058
 7102SOL     OW22204   5.330   1.973   2.453
 7102SOL    HW122205   5.318   1.877   2.478
 7102SOL    HW222206   5.241   2.013   2.431
 7103SOL     OW22207   6.447   3.744   4.678
 7103SOL    HW122208   6.477   3.818   4.738
 7103SOL    HW222209   6.468   3.656   4.721
 7104SOL     OW22210   4.467   2.382   4.114
 7104SOL    HW122211   4.518   2.467   4.097
 7104SOL    HW222212   4.400   2.368   4.041
 7105SOL     OW22213   3.131   3.446   1.705
 7105SOL    HW122214   3.191   3.525   1.701
 7105SOL    HW222215   3.137   3.404   1.795
 7106SOL     OW22216   2.501   2.158   2.724
 7106SOL    HW122217   2.432   2.216   2.682
 7106SOL    HW222218   2.534   2.091   2.657
 7107SOL     OW22219   3.808   0.331   0.823
 7107SOL    HW122220   3.813   0.420   0.779
 7107SOL    HW222221   3.748   0.336   0.902
 7108SOL     OW22222   2.322   6.268   1.846
 7108SOL    HW122223   2.354   6.177   1.821
 7108SOL    HW222224   2.400   6.327   1.866
 7109SOL     OW22225   2.241   5.203   5.784
 7109SOL    HW122226   2.261   5.114   5.743
 7109SOL    HW222227   2.198   5.262   5.716
 7110SOL     OW22228   2.498   5.686   5.848
 7110SOL    HW122229   2.588   5.724   5.871
 7110SOL    HW222230   2.440   5.688   5.929
 7111SOL     OW22231   6.392   1.913   3.886
 7111SOL    HW122232   6.321   1.915   3.815
 7111SOL    HW222233   6.398   1.821   3.925
 7112SOL     OW22234   6.391   4.783   4.443
 7112SOL    HW122235   6.324   4.719   4.405
 7112SOL    HW222236   6.483   4.758   4.412
 7113SOL     OW22237   3.452   0.260   5.204
 7113SOL    HW122238   3.449   0.163   5.228
 7113SOL    HW222239   3.428   0.272   5.108
 7114SOL     OW22240   6.074   3.826   0.523
 7114SOL    HW122241   6.021   3.804   0.441
 7114SOL    HW222242   6.134   3.749   0.545
 7115SOL     OW22243   5.069   3.161   6.050
 7115SOL    HW122244   4.972   3.136   6.051
 7115SOL    HW222245   5.078   3.258   6.073
 7116SOL     OW22246   6.872   5.404   4.467
 7116SOL    HW122247   6.885   5.445   4.557
 7116SOL    HW222248   6.807   5.329   4.473
 7117SOL     OW22249   2.981   0.824   2.593
 7117SOL    HW122250   2.945   0.746   2.644
 7117SOL    HW222251   2.906   0.872   2.547
 7118SOL     OW22252   5.365   5.129   5.940
 7118SOL    HW122253   5.445   5.187   5.953
 7118SOL    HW222254   5.354   5.107   5.843
 7119SOL     OW22255   3.290   6.370   3.849
 7119SOL    HW122256   3.312   6.372   3.752
 7119SOL    HW222257   3.307   6.461   3.889
 7120SOL     OW22258   4.536   2.087   2.306
 7120SOL    HW122259   4.501   2.092   2.400
 7120SOL    HW222260   4.465   2.114   2.242
 7121SOL     OW22261   1.401   6.064   1.717
 7121SOL    HW122262   1.384   6.125   1.794
 7121SOL    HW222263   1.499   6.065   1.695
 7122SOL     OW22264   2.568   2.500   6.420
 7122SOL    HW122265   2.583   2.403   6.439
 7122SOL    HW222266   2.638   2.533   6.356
 7123SOL     OW22267   5.383   3.285   5.966
 7123SOL    HW122268   5.338   3.222   5.902
 7123SOL    HW222269   5.474   3.250   5.988
 7124SOL     OW22270   3.627   2.815   5.858
 7124SOL    HW122271   3.601   2.899   5.906
 7124SOL    HW222272   3.622   2.831   5.759
 7125SOL     OW22273   1.507   5.580   1.538
 7125SOL    HW122274   1.553   5.640   1.603
 7125SOL    HW222275   1.501   5.488   1.576
 7126SOL     OW22276   3.898   4.718   0.358
 7126SOL    HW122277   3.801   4.728   0.340
 7126SOL    HW222278   3.914   4.717   0.457
 7127SOL     OW22279   2.465   0.125   4.889
 7127SOL    HW122280   2.415   0.205   4.856
 7127SOL    HW222281   2.562   0.133   4.865
 7128SOL     OW22282   4.488   3.708   0.292
 7128SOL    HW122283   4.586   3.727   0.306
 7128SOL    HW222284   4.456   3.645   0.362
 7129SOL     OW22285   6.779   1.961   0.650
 7129SOL    HW122286   6.876   1.986   0.645
 7129SOL    HW222287   6.768   1.864   0.632
 7130SOL     OW22288   3.319   6.823   3.379
 7130SOL    HW122289   3.345   6.868   3.464
 7130SOL    HW222290   3.278   6.733   3.400
 7131SOL     OW22291   2.407   1.268   2.534
 7131SOL    HW122292   2.478   1.215   2.580
 7131SOL    HW222293   2.351   1.315   2.603
 7132SOL     OW22294   5.737   5.219   2.280
 7132SOL    HW122295   5.654   5.271   2.299
 7132SOL    HW222296   5.713   5.127   2.251
 7133SOL     OW22297   3.596   6.650   2.162
 7133SOL    HW122298   3.534   6.725   2.185
 7133SOL    HW222299   3.604   6.588   2.239
 7134SOL     OW22300   6.240   4.658   6.133
 7134SOL    HW122301   6.204   4.750   6.150
 7134SOL    HW222302   6.326   4.665   6.082
 7135SOL     OW22303   2.676   5.797   6.879
 7135SOL    HW122304   2.733   5.726   6.838
 7135SOL    HW222305   2.611   5.755   6.942
 7136SOL     OW22306   1.188   3.173   2.572
 7136SOL    HW122307   1.241   3.138   2.649
 7136SOL    HW222308   1.249   3.206   2.501
 7137SOL     OW22309   1.368   6.923   2.006
 7137SOL    HW122310   1.330   6.833   2.029
 7137SOL    HW222311   1.334   6.991   2.070
 7138SOL     OW22312   6.620   4.165   1.043
 7138SOL    HW122313   6.609   4.148   0.945
 7138SOL    HW222314   6.643   4.079   1.089
 7139SOL     OW22315   5.961   5.894   0.964
 7139SOL    HW122316   5.875   5.874   1.012
 7139SOL    HW222317   5.945   5.964   0.895
 7140SOL     OW22318   5.883   3.971   0.637
 7140SOL    HW122319   5.887   3.996   0.734
 7140SOL    HW222320   5.946   3.896   0.619
 7141SOL     OW22321   2.189   2.541   0.556
 7141SOL    HW122322   2.203   2.632   0.594
 7141SOL    HW222323   2.265   2.481   0.584
 7142SOL     OW22324   3.932   6.063   6.086
 7142SOL    HW122325   3.955   6.140   6.026
 7142SOL    HW222326   3.973   5.979   6.051
 7143SOL     OW22327   2.666   3.555   5.636
 7143SOL    HW122328   2.638   3.573   5.542
 7143SOL    HW222329   2.718   3.632   5.671
 7144SOL     OW22330   5.922   1.831   6.197
 7144SOL    HW122331   5.827   1.803   6.186
 7144SOL    HW222332   5.979   1.750   6.212
 7145SOL     OW22333   0.190   3.571   6.726
 7145SOL    HW122334   0.147   3.632   6.793
 7145SOL    HW222335   0.209   3.483   6.769
 7146SOL     OW22336   0.199   1.601   4.361
 7146SOL    HW122337   0.179   1.698   4.352
 7146SOL    HW222338   0.268   1.587   4.432
 7147SOL     OW22339   6.934   0.488   6.880
 7147SOL    HW122340   6.879   0.563   6.916
 7147SOL    HW222341   6.960   0.508   6.785
 7148SOL     OW22342   5.488   6.453   0.127
 7148SOL    HW122343   5.432   6.535   0.129
 7148SOL    HW222344   5.570   6.470   0.073
 7149SOL     OW22345   6.926   3.793   0.235
 7149SOL    HW122346   6.898   3.753   0.147
 7149SOL    HW222347   6.922   3.722   0.306
 7150SOL     OW22348   2.240   2.225   6.998
 7150SOL    HW122349   2.284   2.196   6.913
 7150SOL    HW222350   2.310   2.251   0.038
 7151SOL     OW22351   6.055   2.359   0.003
 7151SOL    HW122352   6.108   2.384   6.949
 7151SOL    HW222353   5.970   2.315   7.001
 7152SOL     OW22354   5.981   0.427   4.509
 7152SOL    HW122355   6.056   0.367   4.538
 7152SOL    HW222356   5.899   0.404   4.561
 7153SOL     OW22357   4.994   5.971   0.004
 7153SOL    HW122358   4.943   6.052   0.035
 7153SOL    HW222359   5.037   5.990   6.943
 7154SOL     OW22360   5.174   6.219   2.433
 7154SOL    HW122361   5.097   6.264   2.386
 7154SOL    HW222362   5.260   6.254   2.396
 7155SOL     OW22363   1.298   6.872   1.360
 7155SOL    HW122364   1.231   6.886   1.434
 7155SOL    HW222365   1.251   6.875   1.272
 7156SOL     OW22366   0.292   3.621   5.467
 7156SOL    HW122367   0.270   3.681   5.544
 7156SOL    HW222368   0.223   3.633   5.396
 7157SOL     OW22369   7.020   4.155   5.758
 7157SOL    HW122370   6.979   4.077   5.712
 7157SOL    HW222371   0.093   4.149   5.753
 7158SOL     OW22372   5.039   6.886   3.710
 7158SOL    HW122373   5.130   6.862   3.676
 7158SOL    HW222374   5.017   6.979   3.679
 7159SOL     OW22375   0.962   6.438   3.515
 7159SOL    HW122376   1.054   6.414   3.545
 7159SOL    HW222377   0.935   6.380   3.438
 7160SOL     OW22378   5.861   6.187   2.092
 7160SOL    HW122379   5.805   6.120   2.140
 7160SOL    HW222380   5.805   6.267   2.069
 7161SOL     OW22381   3.885   2.609   1.403
 7161SOL    HW122382   3.864   2.689   1.347
 7161SOL    HW222383   3.880   2.634   1.500
 7162SOL     OW22384   0.525   6.591   0.097
 7162SOL    HW122385   0.487   6.547   0.179
 7162SOL    HW222386   0.530   6.525   0.023
 7163SOL     OW22387   6.912   5.562   0.593
 7163SOL    HW122388   6.829   5.517   0.626
 7163SOL    HW222389   6.983   5.559   0.663
 7164SOL     OW22390   1.108   6.436   6.611
 7164SOL    HW122391   1.059   6.413   6.528
 7164SOL    HW222392   1.080   6.375   6.685
 7165SOL     OW22393   4.506   3.253   6.026
 7165SOL    HW122394   4.585   3.215   6.073
 7165SOL    HW222395   4.478   3.338   6.071
 7166SOL     OW22396   0.047   6.802   5.540
 7166SOL    HW122397   0.054   6.735   5.614
 7166SOL    HW222398   0.042   6.894   5.579
 7167SOL     OW22399   0.887   3.953   5.845
 7167SOL    HW122400   0.883   4.006   5.760
 7167SOL    HW222401   0.966   3.982   5.899
 7168SOL     OW22402   6.675   0.664   2.125
 7168SOL    HW122403   6.667   0.568   2.099
 7168SOL    HW222404   6.707   0.671   2.219
 7169SOL     OW22405   2.032   4.968   5.096
 7169SOL    HW122406   2.041   5.067   5.093
 7169SOL    HW222407   2.039   4.936   5.190
 7170SOL     OW22408   4.251   2.399   1.643
 7170SOL    HW122409   4.253   2.492   1.605
 7170SOL    HW222410   4.264   2.404   1.742
 7171SOL     OW22411   0.321   6.332   1.852
 7171SOL    HW122412   0.387   6.344   1.927
 7171SOL    HW222413   0.335   6.404   1.784
 7172SOL     OW22414   1.431   2.367   3.244
 7172SOL    HW122415   1.439   2.267   3.252
 7172SOL    HW222416   1.414   2.392   3.149
 7173SOL     OW22417   3.575   5.370   4.406
 7173SOL    HW122418   3.588   5.341   4.311
 7173SOL    HW222419   3.504   5.315   4.449
 7174SOL     OW22420   6.528   3.972   2.690
 7174SOL    HW122421   6.620   4.009   2.694
 7174SOL    HW222422   6.531   3.873   2.703
 7175SOL     OW22423   5.820   2.711   6.074
 7175SOL    HW122424   5.776   2.798   6.093
 7175SOL    HW222425   5.753   2.646   6.040
 7176SOL     OW22426   6.127   2.009   6.194
 7176SOL    HW122427   6.214   1.969   6.224
 7176SOL    HW222428   6.055   1.939   6.199
 7177SOL     OW22429   0.869   5.164   3.333
 7177SOL    HW122430   0.819   5.079   3.315
 7177SOL    HW222431   0.955   5.164   3.281
 7178SOL     OW22432   0.372   5.956   5.590
 7178SOL    HW122433   0.402   5.897   5.515
 7178SOL    HW222434   0.303   5.909   5.644
 7179SOL     OW22435   5.358   4.626   5.388
 7179SOL    HW122436   5.431   4.694   5.399
 7179SOL    HW222437   5.375   4.573   5.304
 7180SOL     OW22438   6.456   1.903   2.796
 7180SOL    HW122439   6.510   1.820   2.810
 7180SOL    HW222440   6.513   1.972   2.753
 7181SOL     OW22441   4.037   0.593   0.361
 7181SOL    HW122442   4.104   0.585   0.287
 7181SOL    HW222443   3.986   0.678   0.352
 7182SOL     OW22444   1.992   0.476   2.809
 7182SOL    HW122445   1.928   0.535   2.859
 7182SOL    HW222446   2.039   0.530   2.739
 7183SOL     OW22447   1.847   0.029   0.805
 7183SOL    HW122448   1.824   0.092   0.879
 7183SOL    HW222449   1.764   0.006   0.754
 7184SOL     OW22450   0.005   1.703   3.725
 7184SOL    HW122451   6.966   1.708   3.650
 7184SOL    HW222452   0.097   1.723   3.690
 7185SOL     OW22453   3.633   0.299   3.943
 7185SOL    HW122454   3.553   0.242   3.925
 7185SOL    HW222455   3.715   0.242   3.942
 7186SOL     OW22456   6.497   2.868   0.888
 7186SOL    HW122457   6.566   2.831   0.949
 7186SOL    HW222458   6.408   2.828   0.910
 7187SOL     OW22459   2.955   3.767   3.672
 7187SOL    HW122460   2.939   3.768   3.771
 7187SOL    HW222461   3.020   3.840   3.648
 7188SOL     OW22462   4.448   5.430   6.753
 7188SOL    HW122463   4.487   5.501   6.811
 7188SOL    HW222464   4.360   5.401   6.790
 7189SOL     OW22465   6.910   1.680   6.088
 7189SOL    HW122466   6.882   1.710   5.997
 7189SOL    HW222467   6.844   1.712   6.156
 7190SOL     OW22468   5.314   5.605   0.572
 7190SOL    HW122469   5.371   5.530   0.605
 7190SOL    HW222470   5.355   5.644   0.490
 7191SOL     OW22471   0.264   5.160   2.473
 7191SOL    HW122472   0.298   5.094   2.540
 7191SOL    HW222473   0.187   5.119   2.423
 7192SOL     OW22474   3.441   4.888   5.722
 7192SOL    HW122475   3.432   4.874   5.624
 7192SOL    HW222476   3.353   4.873   5.767
 7193SOL     OW22477   4.010   1.346   4.517
 7193SOL    HW122478   3.991   1.262   4.466
 7193SOL    HW222479   3.974   1.338   4.610
 7194SOL     OW22480   3.685   2.691   5.338
 7194SOL    HW122481   3.612   2.736   5.389
 7194SOL    HW222482   3.691   2.595   5.365
 7195SOL     OW22483   6.705   4.107   5.215
 7195SOL    HW122484   6.615   4.134   5.181
 7195SOL    HW222485   6.704   4.009   5.237
 7196SOL     OW22486   3.040   3.618   1.280
 7196SOL    HW122487   2.964   3.644   1.220
 7196SOL    HW222488   3.006   3.602   1.373
 7197SOL     OW22489   3.390   4.735   6.549
 7197SOL    HW122490   3.446   4.814   6.521
 7197SOL    HW222491   3.346   4.755   6.636
 7198SOL     OW22492   1.641   6.226   2.043
 7198SOL    HW122493   1.705   6.155   2.017
 7198SOL    HW222494   1.682   6.316   2.028
 7199SOL     OW22495   6.038   1.285   3.999
 7199SOL    HW122496   6.064   1.201   4.047
 7199SOL    HW222497   6.033   1.266   3.901
 7200SOL     OW22498   0.555   4.340   6.193
 7200SOL    HW122499   0.541   4.285   6.275
 7200SOL    HW222500   0.651   4.337   6.167
 7201SOL     OW22501   5.765   5.517   4.751
 7201SOL    HW122502   5.835   5.571   4.798
 7201SOL    HW222503   5.716   5.576   4.687
 7202SOL     OW22504   3.811   6.441   5.923
 7202SOL    HW122505   3.893   6.392   5.892
 7202SOL    HW222506   3.806   6.438   6.023
 7203SOL     OW22507   1.225   1.801   1.004
 7203SOL    HW122508   1.267   1.870   1.063
 7203SOL    HW222509   1.244   1.823   0.909
 7204SOL     OW22510   5.081   0.678   2.595
 7204SOL    HW122511   5.097   0.580   2.588
 7204SOL    HW222512   5.143   0.727   2.533
 7205SOL     OW22513   3.805   1.143   4.159
 7205SOL    HW122514   3.865   1.223   4.158
 7205SOL    HW222515   3.727   1.160   4.220
 7206SOL     OW22516   1.714   2.733   6.633
 7206SOL    HW122517   1.813   2.729   6.641
 7206SOL    HW222518   1.676   2.785   6.710
 7207SOL     OW22519   1.647   2.394   3.694
 7207SOL    HW122520   1.740   2.405   3.730
 7207SOL    HW222521   1.652   2.371   3.596
 7208SOL     OW22522   3.446   0.515   3.482
 7208SOL    HW122523   3.455   0.499   3.580
 7208SOL    HW222524   3.349   0.523   3.458
 7209SOL     OW22525   4.624   1.419   3.157
 7209SOL    HW122526   4.550   1.456   3.213
 7209SOL    HW222527   4.670   1.346   3.208
 7210SOL     OW22528   3.347   1.015   4.955
 7210SOL    HW122529   3.395   1.083   4.900
 7210SOL    HW222530   3.352   1.040   5.052
 7211SOL     OW22531   5.195   5.890   6.174
 7211SOL    HW122532   5.183   5.966   6.238
 7211SOL    HW222533   5.106   5.852   6.150
 7212SOL     OW22534   0.170   6.020   4.507
 7212SOL    HW122535   0.106   6.019   4.430
 7212SOL    HW222536   0.213   5.930   4.515
 7213SOL     OW22537   5.729   2.969   0.457
 7213SOL    HW122538   5.671   2.893   0.487
 7213SOL    HW222539   5.822   2.935   0.440
 7214SOL     OW22540   5.738   1.375   5.848
 7214SOL    HW122541   5.815   1.435   5.868
 7214SOL    HW222542   5.669   1.425   5.796
 7215SOL     OW22543   6.556   1.613   3.132
 7215SOL    HW122544   6.646   1.570   3.119
 7215SOL    HW222545   6.485   1.552   3.097
 7216SOL     OW22546   5.649   6.262   3.979
 7216SOL    HW122547   5.566   6.213   3.952
 7216SOL    HW222548   5.728   6.222   3.932
 7217SOL     OW22549   1.386   3.352   2.941
 7217SOL    HW122550   1.462   3.295   2.972
 7217SOL    HW222551   1.418   3.418   2.873
 7218SOL     OW22552   0.165   2.645   6.118
 7218SOL    HW122553   0.141   2.593   6.036
 7218SOL    HW222554   0.119   2.604   6.197
 7219SOL     OW22555   3.076   5.616   1.706
 7219SOL    HW122556   2.981   5.607   1.674
 7219SOL    HW222557   3.135   5.639   1.628
 7220SOL     OW22558   0.521   3.818   4.355
 7220SOL    HW122559   0.481   3.907   4.378
 7220SOL    HW222560   0.600   3.801   4.413
 7221SOL     OW22561   5.201   4.961   3.910
 7221SOL    HW122562   5.289   4.965   3.863
 7221SOL    HW222563   5.159   5.052   3.909
 7222SOL     OW22564   5.853   5.134   3.723
 7222SOL    HW122565   5.898   5.220   3.748
 7222SOL    HW222566   5.803   5.145   3.638
 7223SOL     OW22567   6.171   5.189   1.630
 7223SOL    HW122568   6.123   5.269   1.595
 7223SOL    HW222569   6.136   5.165   1.721
 7224SOL     OW22570   6.125   2.741   3.397
 7224SOL    HW122571   6.072   2.824   3.380
 7224SOL    HW222572   6.194   2.730   3.324
 7225SOL     OW22573   1.545   5.181   0.750
 7225SOL    HW122574   1.544   5.082   0.766
 7225SOL    HW222575   1.456   5.220   0.776
 7226SOL     OW22576   6.634   6.853   0.361
 7226SOL    HW122577   6.646   6.853   0.262
 7226SOL    HW222578   6.712   6.896   0.405
 7227SOL     OW22579   1.976   0.380   1.686
 7227SOL    HW122580   1.950   0.284   1.699
 7227SOL    HW222581   1.908   0.425   1.629
 7228SOL     OW22582   6.485   3.906   3.545
 7228SOL    HW122583   6.523   3.817   3.519
 7228SOL    HW222584   6.404   3.925   3.490
 7229SOL     OW22585   5.516   6.450   5.349
 7229SOL    HW122586   5.577   6.425   5.425
 7229SOL    HW222587   5.482   6.366   5.305
 7230SOL     OW22588   3.025   4.888   6.841
 7230SOL    HW122589   3.007   4.841   6.928
 7230SOL    HW222590   2.940   4.893   6.788
 7231SOL     OW22591   3.822   2.748   7.009
 7231SOL    HW122592   3.864   2.804   6.938
 7231SOL    HW222593   3.891   2.688   0.023
 7232SOL     OW22594   4.198   5.439   3.372
 7232SOL    HW122595   4.119   5.382   3.349
 7232SOL    HW222596   4.273   5.381   3.404
 7233SOL     OW22597   0.543   1.615   6.884
 7233SOL    HW122598   0.620   1.553   6.868
 7233SOL    HW222599   0.571   1.688   6.946
 7234SOL     OW22600   5.344   6.075   3.874
 7234SOL    HW122601   5.252   6.113   3.880
 7234SOL    HW222602   5.339   5.975   3.874
 7235SOL     OW22603   0.021   0.006   0.985
 7235SOL    HW122604   0.092   0.073   1.007
 7235SOL    HW222605   7.005   7.001   1.070
 7236SOL     OW22606   0.702   4.232   2.835
 7236SOL    HW122607   0.683   4.136   2.858
 7236SOL    HW222608   0.731   4.281   2.917
 7237SOL     OW22609   4.655   1.149   6.443
 7237SOL    HW122610   4.618   1.222   6.384
 7237SOL    HW222611   4.715   1.189   6.511
 7238SOL     OW22612   4.777   3.178   0.039
 7238SOL    HW122613   4.812   3.233   0.115
 7238SOL    HW222614   4.783   3.231   6.981
 7239SOL     OW22615   6.294   2.585   2.769
 7239SOL    HW122616   6.379   2.579   2.822
 7239SOL    HW222617   6.248   2.671   2.788
 7240SOL     OW22618   0.400   1.758   1.187
 7240SOL    HW122619   0.385   1.722   1.095
 7240SOL    HW222620   0.314   1.757   1.238
 7241SOL     OW22621   2.361   0.205   3.158
 7241SOL    HW122622   2.315   0.282   3.113
 7241SOL    HW222623   2.348   0.122   3.105
 7242SOL     OW22624   6.798   3.497   5.731
 7242SOL    HW122625   6.856   3.420   5.704
 7242SOL    HW222626   6.814   3.519   5.827
 7243SOL     OW22627   6.671   4.489   6.350
 7243SOL    HW122628   6.728   4.480   6.432
 7243SOL    HW222629   6.721   4.452   6.272
 7244SOL     OW22630   0.119   6.015   0.567
 7244SOL    HW122631   0.025   5.989   0.545
 7244SOL    HW222632   0.174   5.933   0.580
 7245SOL     OW22633   2.105   2.395   6.646
 7245SOL    HW122634   2.201   2.418   6.630
 7245SOL    HW222635   2.050   2.427   6.569
 7246SOL     OW22636   4.721   6.969   4.647
 7246SOL    HW122637   4.719   6.960   4.746
 7246SOL    HW222638   4.722   0.039   4.622
 7247SOL     OW22639   3.474   4.174   5.183
 7247SOL    HW122640   3.571   4.168   5.204
 7247SOL    HW222641   3.431   4.244   5.240
 7248SOL     OW22642   2.524   2.467   5.212
 7248SOL    HW122643   2.597   2.432   5.154
 7248SOL    HW222644   2.557   2.543   5.267
 7249SOL     OW22645   3.810   5.761   3.187
 7249SOL    HW122646   3.818   5.852   3.229
 7249SOL    HW222647   3.728   5.716   3.220
 7250SOL     OW22648   4.794   4.930   5.241
 7250SOL    HW122649   4.857   4.957   5.169
 7250SOL    HW222650   4.838   4.942   5.330
 7251SOL     OW22651   6.958   5.733   3.844
 7251SOL    HW122652   0.010   5.781   3.883
 7251SOL    HW222653   6.929   5.778   3.760
 7252SOL     OW22654   3.778   3.963   1.879
 7252SOL    HW122655   3.755   3.869   1.855
 7252SOL    HW222656   3.695   4.017   1.887
 7253SOL     OW22657   1.223   5.038   5.927
 7253SOL    HW122658   1.285   5.002   5.858
 7253SOL    HW222659   1.163   5.107   5.886
 7254SOL     OW22660   0.375   4.078   4.058
 7254SOL    HW122661   0.454   4.018   4.043
 7254SOL    HW222662   0.291   4.028   4.042
 7255SOL     OW22663   4.844   4.095   0.654
 7255SOL    HW122664   4.846   4.144   0.741
 7255SOL    HW222665   4.929   4.111   0.605
 7256SOL     OW22666   3.197   0.127   3.761
 7256SOL    HW122667   3.203   0.150   3.858
 7256SOL    HW222668   3.207   0.210   3.706
 7257SOL     OW22669   1.149   1.161   4.706
 7257SOL    HW122670   1.149   1.217   4.789
 7257SOL    HW222671   1.244   1.147   4.676
 7258SOL     OW22672   0.354   1.675   3.087
 7258SOL    HW122673   0.275   1.614   3.084
 7258SOL    HW222674   0.350   1.739   3.010
 7259SOL     OW22675   1.215   3.538   2.003
 7259SOL    HW122676   1.187   3.546   1.908
 7259SOL    HW222677   1.182   3.618   2.054
 7260SOL     OW22678   5.853   2.780   0.925
 7260SOL    HW122679   5.786   2.849   0.952
 7260SOL    HW222680   5.806   2.696   0.897
 7261SOL     OW22681   0.435   4.512   6.965
 7261SOL    HW122682   0.378   4.520   0.019
 7261SOL    HW222683   0.445   4.415   6.940
 7262SOL     OW22684   3.127   0.385   5.033
 7262SOL    HW122685   3.047   0.359   5.087
 7262SOL    HW222686   3.117   0.480   5.003
 7263SOL     OW22687   6.852   4.897   6.034
 7263SOL    HW122688   6.821   4.878   5.940
 7263SOL    HW222689   6.951   4.883   6.039
 7264SOL     OW22690   4.693   2.218   1.184
 7264SOL    HW122691   4.745   2.178   1.259
 7264SOL    HW222692   4.671   2.313   1.205
 7265SOL     OW22693   3.348   6.852   5.385
 7265SOL    HW122694   3.375   6.910   5.462
 7265SOL    HW222695   3.330   6.760   5.419
 7266SOL     OW22696   6.881   0.837   2.747
 7266SOL    HW122697   6.900   0.912   2.811
 7266SOL    HW222698   6.819   0.772   2.790
 7267SOL     OW22699   6.589   3.603   5.375
 7267SOL    HW122700   6.494   3.573   5.384
 7267SOL    HW222701   6.638   3.541   5.314
 7268SOL     OW22702   5.326   6.272   4.744
 7268SOL    HW122703   5.254   6.311   4.687
 7268SOL    HW222704   5.344   6.178   4.716
 7269SOL     OW22705   2.445   5.563   4.624
 7269SOL    HW122706   2.506   5.512   4.685
 7269SOL    HW222707   2.356   5.574   4.667
 7270SOL     OW22708   0.155   1.892   4.347
 7270SOL    HW122709   0.104   1.977   4.340
 7270SOL    HW222710   0.241   1.909   4.396
 7271SOL     OW22711   0.850   5.445   3.022
 7271SOL    HW122712   0.889   5.461   3.112
 7271SOL    HW222713   0.914   5.390   2.967
 7272SOL     OW22714   6.571   3.893   2.101
 7272SOL    HW122715   6.498   3.873   2.036
 7272SOL    HW222716   6.530   3.918   2.190
 7273SOL     OW22717   0.410   1.527   4.798
 7273SOL    HW122718   0.342   1.495   4.864
 7273SOL    HW222719   0.491   1.468   4.802
 7274SOL     OW22720   0.167   5.688   0.424
 7274SOL    HW122721   0.209   5.615   0.371
 7274SOL    HW222722   0.068   5.690   0.406
 7275SOL     OW22723   0.126   5.575   3.343
 7275SOL    HW122724   0.178   5.528   3.271
 7275SOL    HW222725   0.116   5.514   3.421
 7276SOL     OW22726   4.961   6.384   3.690
 7276SOL    HW122727   4.967   6.473   3.735
 7276SOL    HW222728   5.005   6.388   3.600
 7277SOL     OW22729   5.207   0.894   6.735
 7277SOL    HW122730   5.234   0.826   6.667
 7277SOL    HW222731   5.182   0.847   6.820
 7278SOL     OW22732   3.835   3.075   1.856
 7278SOL    HW122733   3.782   3.159   1.839
 7278SOL    HW222734   3.922   3.099   1.900
 7279SOL     OW22735   3.643   6.114   5.977
 7279SOL    HW122736   3.620   6.183   5.908
 7279SOL    HW222737   3.742   6.106   5.984
 7280SOL     OW22738   4.318   6.808   5.704
 7280SOL    HW122739   4.386   6.873   5.670
 7280SOL    HW222740   4.337   6.718   5.666
 7281SOL     OW22741   5.666   0.989   6.154
 7281SOL    HW122742   5.567   0.978   6.148
 7281SOL    HW222743   5.688   1.085   6.169
 7282SOL     OW22744   5.949   6.034   3.392
 7282SOL    HW122745   5.949   5.939   3.361
 7282SOL    HW222746   5.863   6.078   3.366
 7283SOL     OW22747   2.431   1.508   2.883
 7283SOL    HW122748   2.521   1.466   2.888
 7283SOL    HW222749   2.368   1.447   2.834
 7284SOL     OW22750   1.163   0.957   4.179
 7284SOL    HW122751   1.126   0.948   4.086
 7284SOL    HW222752   1.127   1.040   4.221
 7285SOL     OW22753   6.314   5.012   1.849
 7285SOL    HW122754   6.281   4.977   1.937
 7285SOL    HW222755   6.315   5.112   1.852
 7286SOL     OW22756   1.523   3.483   0.006
 7286SOL    HW122757   1.618   3.500   7.006
 7286SOL    HW222758   1.517   3.394   0.051
 7287SOL     OW22759   6.323   2.226   6.213
 7287SOL    HW122760   6.312   2.135   6.255
 7287SOL    HW222761   6.262   2.233   6.135
 7288SOL     OW22762   2.736   0.613   6.726
 7288SOL    HW122763   2.770   0.641   6.816
 7288SOL    HW222764   2.755   0.685   6.659
 7289SOL     OW22765   4.475   0.925   3.096
 7289SOL    HW122766   4.404   0.868   3.053
 7289SOL    HW222767   4.558   0.870   3.108
 7290SOL     OW22768   2.341   6.088   4.442
 7290SOL    HW122769   2.365   6.181   4.469
 7290SOL    HW222770   2.416   6.026   4.463
 7291SOL     OW22771   3.807   4.664   1.461
 7291SOL    HW122772   3.805   4.574   1.418
 7291SOL    HW222773   3.729   4.674   1.522
 7292SOL     OW22774   4.140   0.236   5.288
 7292SOL    HW122775   4.044   0.225   5.265
 7292SOL    HW222776   4.156   0.330   5.319
 7293SOL     OW22777   2.731   0.987   5.857
 7293SOL    HW122778   2.741   0.993   5.956
 7293SOL    HW222779   2.801   0.926   5.820
 7294SOL     OW22780   6.254   4.946   6.851
 7294SOL    HW122781   6.316   4.972   6.777
 7294SOL    HW222782   6.161   4.937   6.815
 7295SOL     OW22783   4.019   6.374   1.538
 7295SOL    HW122784   4.001   6.417   1.450
 7295SOL    HW222785   3.954   6.406   1.606
 7296SOL     OW22786   4.315   5.576   0.549
 7296SOL    HW122787   4.380   5.512   0.591
 7296SOL    HW222788   4.244   5.599   0.616
 7297SOL     OW22789   4.543   6.845   2.138
 7297SOL    HW122790   4.466   6.906   2.153
 7297SOL    HW222791   4.627   6.898   2.129
 7298SOL     OW22792   5.461   2.446   4.639
 7298SOL    HW122793   5.397   2.461   4.715
 7298SOL    HW222794   5.417   2.472   4.553
 7299SOL     OW22795   5.318   3.297   0.342
 7299SOL    HW122796   5.247   3.366   0.353
 7299SOL    HW222797   5.284   3.208   0.373
 7300SOL     OW22798   4.062   5.273   0.866
 7300SOL    HW122799   4.004   5.354   0.874
 7300SOL    HW222800   4.108   5.274   0.777
 7301SOL     OW22801   6.210   1.677   6.924
 7301SOL    HW122802   6.150   1.599   6.941
 7301SOL    HW222803   6.163   1.743   6.866
 7302SOL     OW22804   0.192   1.814   6.537
 7302SOL    HW122805   0.233   1.780   6.622
 7302SOL    HW222806   0.242   1.778   6.459
 7303SOL     OW22807   5.284   6.831   1.814
 7303SOL    HW122808   5.293   6.892   1.892
 7303SOL    HW222809   5.240   6.746   1.842
 7304SOL     OW22810   4.071   3.272   4.097
 7304SOL    HW122811   4.009   3.228   4.162
 7304SOL    HW222812   4.083   3.214   4.017
 7305SOL     OW22813   5.695   2.840   6.724
 7305SOL    HW122814   5.698   2.744   6.696
 7305SOL    HW222815   5.788   2.872   6.743
 7306SOL     OW22816   4.442   4.616   1.578
 7306SOL    HW122817   4.529   4.582   1.541
 7306SOL    HW222818   4.393   4.541   1.623
 7307SOL     OW22819   3.721   6.831   1.769
 7307SOL    HW122820   3.637   6.869   1.732
 7307SOL    HW222821   3.760   6.894   1.836
 7308SOL     OW22822   5.313   0.478   3.845
 7308SOL    HW122823   5.367   0.547   3.797
 7308SOL    HW222824   5.216   0.496   3.831
 7309SOL     OW22825   4.680   4.388   6.840
 7309SOL    HW122826   4.777   4.389   6.816
 7309SOL    HW222827   4.626   4.358   6.761
 7310SOL     OW22828   1.991   5.615   1.746
 7310SOL    HW122829   2.086   5.641   1.766
 7310SOL    HW222830   1.981   5.598   1.648
 7311SOL     OW22831   3.251   2.152   1.975
 7311SOL    HW122832   3.188   2.157   2.052
 7311SOL    HW222833   3.343   2.132   2.008
 7312SOL     OW22834   0.405   2.658   6.651
 7312SOL    HW122835   0.429   2.575   6.701
 7312SOL    HW222836   0.396   2.734   6.715
 7313SOL     OW22837   4.367   2.391   5.984
 7313SOL    HW122838   4.417   2.342   6.056
 7313SOL    HW222839   4.274   2.354   5.977
 7314SOL     OW22840   0.763   1.945   4.369
 7314SOL    HW122841   0.721   1.988   4.449
 7314SOL    HW222842   0.845   1.895   4.397
 7315SOL     OW22843   6.638   1.496   6.454
 7315SOL    HW122844   6.724   1.529   6.492
 7315SOL    HW222845   6.657   1.434   6.377
 7316SOL     OW22846   4.113   3.627   3.373
 7316SOL    HW122847   4.061   3.612   3.290
 7316SOL    HW222848   4.076   3.706   3.423
 7317SOL     OW22849   3.462   0.583   4.314
 7317SOL    HW122850   3.462   0.669   4.262
 7317SOL    HW222851   3.538   0.526   4.283
 7318SOL     OW22852   2.334   0.518   1.412
 7318SOL    HW122853   2.279   0.537   1.331
 7318SOL    HW222854   2.424   0.484   1.385
 7319SOL     OW22855   0.042   4.013   6.119
 7319SOL    HW122856   0.014   4.099   6.077
 7319SOL    HW222857   7.013   3.996   6.200
 7320SOL     OW22858   0.180   1.411   2.059
 7320SOL    HW122859   0.115   1.436   1.988
 7320SOL    HW222860   0.264   1.464   2.048
 7321SOL     OW22861   4.301   1.437   4.143
 7321SOL    HW122862   4.247   1.476   4.218
 7321SOL    HW222863   4.378   1.497   4.122
 7322SOL     OW22864   0.869   2.655   1.132
 7322SOL    HW122865   0.874   2.658   1.232
 7322SOL    HW222866   0.918   2.575   1.098
 7323SOL     OW22867   2.472   4.696   3.150
 7323SOL    HW122868   2.517   4.692   3.239
 7323SOL    HW222869   2.382   4.737   3.161
 7324SOL     OW22870   5.048   5.842   2.774
 7324SOL    HW122871   5.029   5.900   2.695
 7324SOL    HW222872   5.146   5.825   2.780
 7325SOL     OW22873   3.009   6.520   6.989
 7325SOL    HW122874   3.004   6.429   0.003
 7325SOL    HW222875   3.004   6.589   0.034
 7326SOL     OW22876   2.691   1.102   4.007
 7326SOL    HW122877   2.708   1.179   3.945
 7326SOL    HW222878   2.610   1.122   4.063
 7327SOL     OW22879   1.796   3.492   5.807
 7327SOL    HW122880   1.754   3.428   5.743
 7327SOL    HW222881   1.875   3.448   5.850
 7328SOL     OW22882   2.079   6.666   0.133
 7328SOL    HW122883   1.984   6.663   0.103
 7328SOL    HW222884   2.116   6.573   0.135
 7329SOL     OW22885   4.818   3.858   1.970
 7329SOL    HW122886   4.763   3.905   1.902
 7329SOL    HW222887   4.867   3.781   1.927
 7330SOL     OW22888   3.819   2.675   0.996
 7330SOL    HW122889   3.804   2.601   1.061
 7330SOL    HW222890   3.736   2.730   0.989
 7331SOL     OW22891   6.123   1.566   1.522
 7331SOL    HW122892   6.181   1.490   1.551
 7331SOL    HW222893   6.119   1.569   1.422
 7332SOL     OW22894   4.499   6.985   0.425
 7332SOL    HW122895   4.424   6.960   0.485
 7332SOL    HW222896   4.566   6.911   0.422
 7333SOL     OW22897   0.327   4.526   2.239
 7333SOL    HW122898   0.389   4.605   2.239
 7333SOL    HW222899   0.247   4.548   2.184
 7334SOL     OW22900   2.728   0.207   3.422
 7334SOL    HW122901   2.759   0.272   3.492
 7334SOL    HW222902   2.792   0.129   3.418
 7335SOL     OW22903   1.835   3.307   3.489
 7335SOL    HW122904   1.820   3.222   3.439
 7335SOL    HW222905   1.895   3.367   3.436
 7336SOL     OW22906   1.362   6.013   4.803
 7336SOL    HW122907   1.330   6.086   4.862
 7336SOL    HW222908   1.395   6.051   4.717
 7337SOL     OW22909   5.095   1.775   1.403
 7337SOL    HW122910   5.003   1.743   1.426
 7337SOL    HW222911   5.093   1.822   1.315
 7338SOL     OW22912   0.591   3.773   0.441
 7338SOL    HW122913   0.630   3.684   0.416
 7338SOL    HW222914   0.509   3.790   0.386
 7339SOL     OW22915   1.793   5.210   5.357
 7339SOL    HW122916   1.740   5.130   5.327
 7339SOL    HW222917   1.884   5.207   5.315
 7340SOL     OW22918   3.552   0.075   6.518
 7340SOL    HW122919   3.597   7.013   6.506
 7340SOL    HW222920   3.616   0.148   6.497
 7341SOL     OW22921   6.019   2.517   0.230
 7341SOL    HW122922   5.999   2.612   0.206
 7341SOL    HW222923   6.030   2.463   0.147
 7342SOL     OW22924   0.434   6.040   1.544
 7342SOL    HW122925   0.481   6.042   1.456
 7342SOL    HW222926   0.430   5.946   1.578
 7343SOL     OW22927   6.617   3.098   0.869
 7343SOL    HW122928   6.565   3.014   0.856
 7343SOL    HW222929   6.634   3.141   0.780
 7344SOL     OW22930   2.473   0.821   5.806
 7344SOL    HW122931   2.463   0.828   5.706
 7344SOL    HW222932   2.559   0.863   5.833
 7345SOL     OW22933   4.004   6.050   6.717
 7345SOL    HW122934   3.989   6.132   6.772
 7345SOL    HW222935   3.918   6.018   6.679
 7346SOL     OW22936   4.504   4.865   2.109
 7346SOL    HW122937   4.564   4.941   2.083
 7346SOL    HW222938   4.550   4.808   2.176
 7347SOL     OW22939   4.610   0.606   6.029
 7347SOL    HW122940   4.659   0.690   6.005
 7347SOL    HW222941   4.676   0.536   6.058
 7348SOL     OW22942   0.348   6.165   0.153
 7348SOL    HW122943   0.342   6.079   0.204
 7348SOL    HW222944   0.424   6.160   0.088
 7349SOL     OW22945   4.675   1.244   1.170
 7349SOL    HW122946   4.578   1.260   1.148
 7349SOL    HW222947   4.690   1.145   1.177
 7350SOL     OW22948   3.654   1.131   5.357
 7350SOL    HW122949   3.649   1.182   5.442
 7350SOL    HW222950   3.687   1.190   5.284
 7351SOL     OW22951   2.340   5.111   4.683
 7351SOL    HW122952   2.322   5.137   4.777
 7351SOL    HW222953   2.287   5.169   4.621
 7352SOL     OW22954   6.398   2.359   4.273
 7352SOL    HW122955   6.309   2.403   4.279
 7352SOL    HW222956   6.401   2.280   4.334
 7353SOL     OW22957   0.224   1.962   6.078
 7353SOL    HW122958   0.289   2.035   6.097
 7353SOL    HW222959   0.251   1.880   6.128
 7354SOL     OW22960   0.630   1.966   2.662
 7354SOL    HW122961   0.650   1.880   2.708
 7354SOL    HW222962   0.601   2.034   2.728
 7355SOL     OW22963   4.052   1.679   0.825
 7355SOL    HW122964   4.088   1.767   0.794
 7355SOL    HW222965   4.052   1.615   0.748
 7356SOL     OW22966   3.839   4.362   6.136
 7356SOL    HW122967   3.904   4.295   6.100
 7356SOL    HW222968   3.758   4.365   6.077
 7357SOL     OW22969   4.470   0.014   1.813
 7357SOL    HW122970   4.453   6.943   1.806
 7357SOL    HW222971   4.420   0.051   1.891
 7358SOL     OW22972   4.205   0.336   2.606
 7358SOL    HW122973   4.234   0.400   2.535
 7358SOL    HW222974   4.268   0.259   2.609
 7359SOL     OW22975   3.101   6.684   2.359
 7359SOL    HW122976   3.196   6.691   2.391
 7359SOL    HW222977   3.092   6.603   2.301
 7360SOL     OW22978   3.078   4.445   6.086
 7360SOL    HW122979   3.162   4.400   6.057
 7360SOL    HW222980   3.058   4.420   6.181
 7361SOL     OW22981   6.494   0.698   3.697
 7361SOL    HW122982   6.423   0.649   3.645
 7361SOL    HW222983   6.570   0.636   3.716
 7362SOL     OW22984   3.423   5.515   0.608
 7362SOL    HW122985   3.391   5.426   0.641
 7362SOL    HW222986   3.408   5.584   0.679
 7363SOL     OW22987   4.295   1.005   1.199
 7363SOL    HW122988   4.213   1.062   1.209
 7363SOL    HW222989   4.371   1.062   1.169
 7364SOL     OW22990   5.685   5.617   1.609
 7364SOL    HW122991   5.727   5.566   1.534
 7364SOL    HW222992   5.726   5.708   1.614
 7365SOL     OW22993   4.884   3.755   2.229
 7365SOL    HW122994   4.910   3.672   2.181
 7365SOL    HW222995   4.867   3.828   2.163
 7366SOL     OW22996   2.335   6.168   3.459
 7366SOL    HW122997   2.321   6.072   3.438
 7366SOL    HW222998   2.249   6.218   3.448
 7367SOL     OW22999   4.651   1.125   0.617
 7367SOL    HW123000   4.675   1.101   0.523
 7367SOL    HW223001   4.733   1.117   0.675
 7368SOL     OW23002   3.148   4.011   2.547
 7368SOL    HW123003   3.172   4.064   2.466
 7368SOL    HW223004   3.072   3.950   2.526
 7369SOL     OW23005   5.167   3.744   6.838
 7369SOL    HW123006   5.258   3.751   6.879
 7369SOL    HW223007   5.155   3.816   6.770
 7370SOL     OW23008   2.672   0.389   4.011
 7370SOL    HW123009   2.707   0.460   4.072
 7370SOL    HW223010   2.580   0.413   3.980
 7371SOL     OW23011   3.698   0.448   3.209
 7371SOL    HW123012   3.624   0.389   3.243
 7371SOL    HW223013   3.662   0.538   3.186
 7372SOL     OW23014   4.299   1.862   5.268
 7372SOL    HW123015   4.377   1.819   5.314
 7372SOL    HW223016   4.268   1.940   5.322
 7373SOL     OW23017   6.648   2.693   4.594
 7373SOL    HW123018   6.574   2.734   4.646
 7373SOL    HW223019   6.644   2.725   4.499
 7374SOL     OW23020   6.863   3.294   6.304
 7374SOL    HW123021   6.856   3.262   6.398
 7374SOL    HW223022   6.907   3.223   6.248
 7375SOL     OW23023   2.781   1.577   1.660
 7375SOL    HW123024   2.869   1.537   1.687
 7375SOL    HW223025   2.793   1.674   1.642
 7376SOL     OW23026   6.375   5.436   0.702
 7376SOL    HW123027   6.350   5.342   0.677
 7376SOL    HW223028   6.350   5.498   0.627
 7377SOL     OW23029   2.828   5.617   0.858
 7377SOL    HW123030   2.862   5.537   0.906
 7377SOL    HW223031   2.889   5.695   0.876
 7378SOL     OW23032   2.362   5.126   5.451
 7378SOL    HW123033   2.318   5.041   5.480
 7378SOL    HW223034   2.417   5.109   5.369
 7379SOL     OW23035   5.078   2.366   3.164
 7379SOL    HW123036   5.114   2.272   3.167
 7379SOL    HW223037   5.130   2.423   3.228
 7380SOL     OW23038   5.310   3.675   1.463
 7380SOL    HW123039   5.393   3.719   1.499
 7380SOL    HW223040   5.236   3.683   1.530
 7381SOL     OW23041   3.950   0.277   1.243
 7381SOL    HW123042   3.963   0.376   1.234
 7381SOL    HW223043   3.886   0.259   1.318
 7382SOL     OW23044   0.690   2.758   0.128
 7382SOL    HW123045   0.785   2.764   0.158
 7382SOL    HW223046   0.649   2.673   0.161
 7383SOL     OW23047   2.475   6.819   1.019
 7383SOL    HW123048   2.412   6.897   1.017
 7383SOL    HW223049   2.432   6.743   1.068
 7384SOL     OW23050   6.911   0.608   6.621
 7384SOL    HW123051   6.913   0.525   6.565
 7384SOL    HW223052   6.984   0.669   6.591
 7385SOL     OW23053   6.528   4.328   2.791
 7385SOL    HW123054   6.483   4.240   2.805
 7385SOL    HW223055   6.564   4.332   2.698
 7386SOL     OW23056   5.929   4.013   0.893
 7386SOL    HW123057   5.966   3.940   0.950
 7386SOL    HW223058   5.996   4.087   0.886
 7387SOL     OW23059   0.255   5.487   3.728
 7387SOL    HW123060   0.327   5.474   3.659
 7387SOL    HW223061   0.246   5.584   3.750
 7388SOL     OW23062   2.175   4.699   3.175
 7388SOL    HW123063   2.197   4.606   3.203
 7388SOL    HW223064   2.093   4.730   3.224
 7389SOL     OW23065   0.429   2.585   0.839
 7389SOL    HW123066   0.331   2.605   0.838
 7389SOL    HW223067   0.465   2.600   0.932
 7390SOL     OW23068   4.287   2.059   4.538
 7390SOL    HW123069   4.325   2.068   4.630
 7390SOL    HW223070   4.247   2.146   4.510
 7391SOL     OW23071   3.023   3.973   2.077
 7391SOL    HW123072   3.072   4.008   2.158
 7391SOL    HW223073   2.931   4.013   2.075
 7392SOL     OW23074   3.601   6.496   0.436
 7392SOL    HW123075   3.668   6.431   0.471
 7392SOL    HW223076   3.515   6.487   0.486
 7393SOL     OW23077   4.193   5.628   3.146
 7393SOL    HW123078   4.191   5.544   3.201
 7393SOL    HW223079   4.226   5.704   3.202
 7394SOL     OW23080   1.431   1.306   6.788
 7394SOL    HW123081   1.411   1.324   6.691
 7394SOL    HW223082   1.384   1.373   6.844
 7395SOL     OW23083   3.352   5.633   0.848
 7395SOL    HW123084   3.278   5.654   0.912
 7395SOL    HW223085   3.420   5.575   0.893
 7396SOL     OW23086   1.191   4.876   2.333
 7396SOL    HW123087   1.177   4.846   2.427
 7396SOL    HW223088   1.216   4.797   2.276
 7397SOL     OW23089   6.047   5.052   5.213
 7397SOL    HW123090   5.976   5.071   5.145
 7397SOL    HW223091   6.114   5.126   5.214
 7398SOL     OW23092   2.873   5.798   2.199
 7398SOL    HW123093   2.917   5.708   2.201
 7398SOL    HW223094   2.918   5.860   2.263
 7399SOL     OW23095   6.597   2.286   5.816
 7399SOL    HW123096   6.537   2.206   5.812
 7399SOL    HW223097   6.636   2.293   5.908
 7400SOL     OW23098   4.264   3.180   5.486
 7400SOL    HW123099   4.201   3.104   5.500
 7400SOL    HW223100   4.224   3.246   5.423
 7401SOL     OW23101   3.040   2.189   4.744
 7401SOL    HW123102   3.052   2.093   4.771
 7401SOL    HW223103   3.063   2.248   4.821
 7402SOL     OW23104   4.100   4.875   4.661
 7402SOL    HW123105   4.173   4.815   4.626
 7402SOL    HW223106   4.140   4.961   4.691
 7403SOL     OW23107   2.057   5.206   4.080
 7403SOL    HW123108   2.022   5.193   3.988
 7403SOL    HW223109   2.061   5.118   4.128
 7404SOL     OW23110   2.035   2.959   1.328
 7404SOL    HW123111   2.131   2.935   1.341
 7404SOL    HW223112   1.980   2.876   1.325
 7405SOL     OW23113   3.033   6.749   5.472
 7405SOL    HW123114   2.986   6.789   5.550
 7405SOL    HW223115   3.029   6.649   5.479
 7406SOL     OW23116   0.739   2.923   4.815
 7406SOL    HW123117   0.672   2.995   4.796
 7406SOL    HW223118   0.742   2.859   4.738
 7407SOL     OW23119   1.308   6.290   4.347
 7407SOL    HW123120   1.377   6.302   4.418
 7407SOL    HW223121   1.217   6.287   4.388
 7408SOL     OW23122   4.309   4.840   5.600
 7408SOL    HW123123   4.354   4.907   5.658
 7408SOL    HW223124   4.324   4.864   5.504
 7409SOL     OW23125   5.732   4.945   1.161
 7409SOL    HW123126   5.689   5.035   1.171
 7409SOL    HW223127   5.751   4.927   1.064
 7410SOL     OW23128   6.208   1.103   0.060
 7410SOL    HW123129   6.151   1.157   0.121
 7410SOL    HW223130   6.153   1.067   7.011
 7411SOL     OW23131   3.513   1.871   5.704
 7411SOL    HW123132   3.483   1.849   5.797
 7411SOL    HW223133   3.548   1.789   5.660
 7412SOL     OW23134   4.593   6.524   6.820
 7412SOL    HW123135   4.551   6.437   6.794
 7412SOL    HW223136   4.537   6.600   6.788
 7413SOL     OW23137   4.751   1.020   3.622
 7413SOL    HW123138   4.668   0.990   3.668
 7413SOL    HW223139   4.733   1.104   3.571
 7414SOL     OW23140   3.144   0.871   4.818
 7414SOL    HW123141   3.200   0.830   4.746
 7414SOL    HW223142   3.199   0.934   4.872
 7415SOL     OW23143   4.169   0.806   5.663
 7415SOL    HW123144   4.205   0.851   5.581
 7415SOL    HW223145   4.090   0.857   5.697
 7416SOL     OW23146   7.000   0.498   1.908
 7416SOL    HW123147   6.989   0.589   1.946
 7416SOL    HW223148   0.069   0.484   1.881
 7417SOL     OW23149   0.221   0.828   1.628
 7417SOL    HW123150   0.137   0.866   1.667
 7417SOL    HW223151   0.232   0.862   1.534
 7418SOL     OW23152   2.035   3.658   6.062
 7418SOL    HW123153   1.959   3.596   6.083
 7418SOL    HW223154   2.097   3.661   6.140
 7419SOL     OW23155   6.958   2.739   4.587
 7419SOL    HW123156   6.922   2.662   4.640
 7419SOL    HW223157   6.907   2.747   4.501
 7420SOL     OW23158   6.376   6.667   0.163
 7420SOL    HW123159   6.430   6.747   0.139
 7420SOL    HW223160   6.281   6.681   0.136
 7421SOL     OW23161   6.961   4.076   0.882
 7421SOL    HW123162   6.924   4.134   0.954
 7421SOL    HW223163   7.008   4.133   0.814
 7422SOL     OW23164   6.836   3.240   1.858
 7422SOL    HW123165   6.882   3.154   1.835
 7422SOL    HW223166   6.737   3.225   1.863
 7423SOL     OW23167   4.107   2.308   5.974
 7423SOL    HW123168   4.032   2.369   6.002
 7423SOL    HW223169   4.073   2.214   5.971
 7424SOL     OW23170   1.089   1.894   4.443
 7424SOL    HW123171   1.166   1.930   4.495
 7424SOL    HW223172   1.121   1.863   4.354
 7425SOL     OW23173   5.722   0.735   0.722
 7425SOL    HW123174   5.648   0.763   0.661
 7425SOL    HW223175   5.767   0.816   0.758
 7426SOL     OW23176   3.693   3.875   5.662
 7426SOL    HW123177   3.771   3.920   5.617
 7426SOL    HW223178   3.711   3.777   5.670
 7427SOL     OW23179   2.937   0.561   1.398
 7427SOL    HW123180   2.984   0.536   1.484
 7427SOL    HW223181   2.871   0.634   1.416
 7428SOL     OW23182   1.175   6.844   5.451
 7428SOL    HW123183   1.148   6.878   5.361
 7428SOL    HW223184   1.131   6.756   5.468
 7429SOL     OW23185   0.480   0.247   2.237
 7429SOL    HW123186   0.523   0.317   2.180
 7429SOL    HW223187   0.421   0.189   2.180
 7430SOL     OW23188   6.535   3.359   2.495
 7430SOL    HW123189   6.488   3.433   2.542
 7430SOL    HW223190   6.634   3.369   2.507
 7431SOL     OW23191   1.091   2.589   4.609
 7431SOL    HW123192   1.073   2.616   4.514
 7431SOL    HW223193   1.041   2.649   4.671
 7432SOL     OW23194   1.310   1.104   2.773
 7432SOL    HW123195   1.339   1.197   2.754
 7432SOL    HW223196   1.283   1.059   2.688
 7433SOL     OW23197   3.809   0.076   6.246
 7433SOL    HW123198   3.773   0.123   6.326
 7433SOL    HW223199   3.843   0.143   6.180
 7434SOL     OW23200   3.652   6.952   3.213
 7434SOL    HW123201   3.622   6.903   3.131
 7434SOL    HW223202   3.641   6.892   3.292
 7435SOL     OW23203   4.678   4.554   3.124
 7435SOL    HW123204   4.589   4.546   3.169
 7435SOL    HW223205   4.726   4.635   3.157
 7436SOL     OW23206   4.864   2.768   6.299
 7436SOL    HW123207   4.822   2.736   6.384
 7436SOL    HW223208   4.943   2.825   6.320
 7437SOL     OW23209   3.752   0.513   1.425
 7437SOL    HW123210   3.770   0.415   1.416
 7437SOL    HW223211   3.775   0.543   1.518
 7438SOL     OW23212   1.577   0.833   6.231
 7438SOL    HW123213   1.671   0.866   6.236
 7438SOL    HW223214   1.564   0.783   6.145
 7439SOL     OW23215   1.340   4.463   5.899
 7439SOL    HW123216   1.251   4.494   5.933
 7439SOL    HW223217   1.406   4.537   5.907
 7440SOL     OW23218   6.387   2.494   4.799
 7440SOL    HW123219   6.479   2.458   4.787
 7440SOL    HW223220   6.327   2.420   4.830
 7441SOL     OW23221   4.996   6.991   0.577
 7441SOL    HW123222   5.000   6.893   0.560
 7441SOL    HW223223   4.986   7.008   0.675
 7442SOL     OW23224   0.079   1.078   6.080
 7442SOL    HW123225   0.110   0.989   6.045
 7442SOL    HW223226   0.131   1.101   6.163
 7443SOL     OW23227   0.227   6.660   0.425
 7443SOL    HW123228   0.283   6.729   0.470
 7443SOL    HW223229   0.285   6.584   0.394
 7444SOL     OW23230   0.838   6.330   6.656
 7444SOL    HW123231   0.882   6.276   6.728
 7444SOL    HW223232   0.873   6.424   6.660
 7445SOL     OW23233   3.923   6.094   2.115
 7445SOL    HW123234   3.938   6.125   2.021
 7445SOL    HW223235   3.953   6.164   2.179
 7446SOL     OW23236   6.201   5.039   0.399
 7446SOL    HW123237   6.256   4.962   0.430
 7446SOL    HW223238   6.115   5.005   0.360
 7447SOL     OW23239   0.040   5.578   0.817
 7447SOL    HW123240   0.096   5.504   0.854
 7447SOL    HW223241   6.979   5.580   0.865
 7448SOL     OW23242   4.714   5.126   6.984
 7448SOL    HW123243   4.685   5.031   6.976
 7448SOL    HW223244   4.754   5.156   6.897
 7449SOL     OW23245   6.327   3.727   6.109
 7449SOL    HW123246   6.339   3.686   6.199
 7449SOL    HW223247   6.399   3.694   6.047
 7450SOL     OW23248   5.181   3.554   0.306
 7450SOL    HW123249   5.115   3.511   0.244
 7450SOL    HW223250   5.209   3.642   0.269
 7451SOL     OW23251   4.483   5.478   2.812
 7451SOL    HW123252   4.434   5.545   2.868
 7451SOL    HW223253   4.564   5.521   2.772
 7452SOL     OW23254   6.602   6.261   0.248
 7452SOL    HW123255   6.631   6.346   0.204
 7452SOL    HW223256   6.670   6.190   0.232
 7453SOL     OW23257   4.424   4.918   6.371
 7453SOL    HW123258   4.335   4.910   6.326
 7453SOL    HW223259   4.491   4.861   6.323
 7454SOL     OW23260   4.095   1.818   1.152
 7454SOL    HW123261   4.068   1.895   1.210
 7454SOL    HW223262   4.025   1.803   1.082
 7455SOL     OW23263   6.669   0.578   2.640
 7455SOL    HW123264   6.676   0.479   2.629
 7455SOL    HW223265   6.661   0.600   2.737
 7456SOL     OW23266   2.708   0.664   4.998
 7456SOL    HW123267   2.783   0.700   5.053
 7456SOL    HW223268   2.724   0.684   4.901
 7457SOL     OW23269   1.327   1.934   2.856
 7457SOL    HW123270   1.248   1.874   2.864
 7457SOL    HW223271   1.391   1.914   2.930
 7458SOL     OW23272   6.878   5.927   4.943
 7458SOL    HW123273   6.929   5.969   4.869
 7458SOL    HW223274   6.786   5.967   4.947
 7459SOL     OW23275   5.308   6.493   3.080
 7459SOL    HW123276   5.396   6.531   3.050
 7459SOL    HW223277   5.324   6.427   3.154
 7460SOL     OW23278   0.596   0.803   1.244
 7460SOL    HW123279   0.580   0.877   1.309
 7460SOL    HW223280   0.609   0.717   1.294
 7461SOL     OW23281   1.565   4.680   5.786
 7461SOL    HW123282   1.596   4.742   5.714
 7461SOL    HW223283   1.603   4.589   5.772
 7462SOL     OW23284   1.896   4.586   6.788
 7462SOL    HW123285   1.809   4.567   6.834
 7462SOL    HW223286   1.968   4.530   6.829
 7463SOL     OW23287   4.718   4.758   0.664
 7463SOL    HW123288   4.762   4.789   0.580
 7463SOL    HW223289   4.641   4.818   0.686
 7464SOL     OW23290   5.660   5.651   5.054
 7464SOL    HW123291   5.603   5.718   5.006
 7464SOL    HW223292   5.629   5.559   5.030
 7465SOL     OW23293   1.152   3.620   6.560
 7465SOL    HW123294   1.218   3.547   6.578
 7465SOL    HW223295   1.153   3.642   6.462
 7466SOL     OW23296   0.609   0.426   5.907
 7466SOL    HW123297   0.580   0.473   5.990
 7466SOL    HW223298   0.534   0.425   5.841
 7467SOL     OW23299   1.500   4.060   3.965
 7467SOL    HW123300   1.400   4.067   3.961
 7467SOL    HW223301   1.528   3.967   3.944
 7468SOL     OW23302   5.917   2.737   4.743
 7468SOL    HW123303   5.905   2.827   4.701
 7468SOL    HW223304   5.839   2.679   4.719
 7469SOL     OW23305   6.676   1.714   0.024
 7469SOL    HW123306   6.740   1.776   0.070
 7469SOL    HW223307   6.609   1.768   6.999
 7470SOL     OW23308   4.886   3.258   3.903
 7470SOL    HW123309   4.830   3.311   3.966
 7470SOL    HW223310   4.881   3.161   3.926
 7471SOL     OW23311   3.245   0.068   6.221
 7471SOL    HW123312   3.217   6.999   6.226
 7471SOL    HW223313   3.210   0.108   6.137
 7472SOL     OW23314   0.183   0.471   5.194
 7472SOL    HW123315   0.282   0.455   5.187
 7472SOL    HW223316   0.166   0.567   5.214
 7473SOL     OW23317   4.824   0.210   3.674
 7473SOL    HW123318   4.778   0.267   3.606
 7473SOL    HW223319   4.811   0.250   3.765
 7474SOL     OW23320   6.051   2.134   2.391
 7474SOL    HW123321   5.980   2.140   2.462
 7474SOL    HW223322   6.130   2.187   2.419
 7475SOL     OW23323   5.119   3.135   1.109
 7475SOL    HW123324   5.187   3.203   1.081
 7475SOL    HW223325   5.151   3.043   1.087
 7476SOL     OW23326   2.708   1.442   2.342
 7476SOL    HW123327   2.744   1.350   2.354
 7476SOL    HW223328   2.692   1.460   2.245
 7477SOL     OW23329   1.984   3.340   5.935
 7477SOL    HW123330   1.985   3.242   5.911
 7477SOL    HW223331   2.075   3.378   5.919
 7478SOL     OW23332   1.111   2.941   0.152
 7478SOL    HW123333   1.159   2.899   0.075
 7478SOL    HW223334   1.033   2.883   0.179
 7479SOL     OW23335   4.912   2.420   2.338
 7479SOL    HW123336   4.919   2.480   2.258
 7479SOL    HW223337   4.994   2.364   2.345
 7480SOL     OW23338   3.960   6.442   2.077
 7480SOL    HW123339   3.896   6.491   2.017
 7480SOL    HW223340   4.020   6.384   2.022
 7481SOL     OW23341   0.721   4.276   6.904
 7481SOL    HW123342   0.705   4.208   6.975
 7481SOL    HW223343   0.801   4.331   6.928
 7482SOL     OW23344   3.843   1.631   4.735
 7482SOL    HW123345   3.885   1.701   4.794
 7482SOL    HW223346   3.889   1.630   4.646
 7483SOL     OW23347   6.074   1.339   5.318
 7483SOL    HW123348   5.981   1.321   5.348
 7483SOL    HW223349   6.110   1.259   5.270
 7484SOL     OW23350   2.290   7.017   5.033
 7484SOL    HW123351   2.359   0.002   4.962
 7484SOL    HW223352   2.311   0.049   5.111
 7485SOL     OW23353   3.855   0.089   6.803
 7485SOL    HW123354   3.769   0.137   6.819
 7485SOL    HW223355   3.912   0.144   6.742
 7486SOL     OW23356   4.061   6.114   1.075
 7486SOL    HW123357   3.995   6.083   1.007
 7486SOL    HW223358   4.153   6.108   1.036
 7487SOL     OW23359   3.484   6.134   4.490
 7487SOL    HW123360   3.499   6.233   4.490
 7487SOL    HW223361   3.410   6.112   4.552
 7488SOL     OW23362   2.128   5.854   3.199
 7488SOL    HW123363   2.165   5.864   3.107
 7488SOL    HW223364   2.045   5.798   3.196
 7489SOL     OW23365   5.257   3.776   5.698
 7489SOL    HW123366   5.268   3.762   5.796
 7489SOL    HW223367   5.199   3.856   5.682
 7490SOL     OW23368   2.159   2.020   1.498
 7490SOL    HW123369   2.090   1.961   1.456
 7490SOL    HW223370   2.173   1.993   1.593
 7491SOL     OW23371   4.215   3.886   5.935
 7491SOL    HW123372   4.226   3.972   5.885
 7491SOL    HW223373   4.185   3.906   6.029
 7492SOL     OW23374   1.654   1.666   3.145
 7492SOL    HW123375   1.754   1.661   3.154
 7492SOL    HW223376   1.626   1.613   3.066
 7493SOL     OW23377   5.720   4.382   4.796
 7493SOL    HW123378   5.637   4.372   4.851
 7493SOL    HW223379   5.790   4.319   4.829
 7494SOL     OW23380   5.811   1.680   2.372
 7494SOL    HW123381   5.714   1.702   2.374
 7494SOL    HW223382   5.847   1.693   2.280
 7495SOL     OW23383   1.537   3.561   4.242
 7495SOL    HW123384   1.560   3.491   4.175
 7495SOL    HW223385   1.588   3.544   4.326
 7496SOL     OW23386   5.908   3.070   3.677
 7496SOL    HW123387   5.973   3.139   3.648
 7496SOL    HW223388   5.816   3.109   3.679
 7497SOL     OW23389   6.158   0.680   1.122
 7497SOL    HW123390   6.093   0.752   1.096
 7497SOL    HW223391   6.144   0.655   1.218
 7498SOL     OW23392   2.311   6.044   2.693
 7498SOL    HW123393   2.369   5.992   2.631
 7498SOL    HW223394   2.232   6.080   2.643
 7499SOL     OW23395   3.071   1.022   2.782
 7499SOL    HW123396   3.055   0.956   2.708
 7499SOL    HW223397   3.161   1.064   2.770
 7500SOL     OW23398   3.532   1.533   5.104
 7500SOL    HW123399   3.497   1.548   5.011
 7500SOL    HW223400   3.467   1.476   5.154
 7501SOL     OW23401   5.746   1.785   4.909
 7501SOL    HW123402   5.752   1.883   4.927
 7501SOL    HW223403   5.833   1.741   4.931
 7502SOL     OW23404   3.805   1.085   4.475
 7502SOL    HW123405   3.730   1.133   4.429
 7502SOL    HW223406   3.769   1.004   4.521
 7503SOL     OW23407   1.157   5.792   0.911
 7503SOL    HW123408   1.200   5.821   0.996
 7503SOL    HW223409   1.104   5.708   0.927
 7504SOL     OW23410   6.057   6.082   4.955
 7504SOL    HW123411   6.156   6.071   4.954
 7504SOL    HW223412   6.030   6.133   5.037
 7505SOL     OW23413   0.614   6.800   6.654
 7505SOL    HW123414   0.618   6.806   6.754
 7505SOL    HW223415   0.523   6.769   6.627
 7506SOL     OW23416   3.528   2.019   4.516
 7506SOL    HW123417   3.461   1.952   4.547
 7506SOL    HW223418   3.597   2.033   4.587
 7507SOL     OW23419   6.805   3.629   6.028
 7507SOL    HW123420   6.863   3.605   6.106
 7507SOL    HW223421   6.806   3.728   6.014
 7508SOL     OW23422   4.084   6.402   0.192
 7508SOL    HW123423   4.004   6.357   0.153
 7508SOL    HW223424   4.118   6.349   0.270
 7509SOL     OW23425   5.631   4.209   3.115
 7509SOL    HW123426   5.618   4.241   3.021
 7509SOL    HW223427   5.646   4.287   3.175
 7510SOL     OW23428   3.832   4.432   1.331
 7510SOL    HW123429   3.850   4.341   1.367
 7510SOL    HW223430   3.796   4.425   1.238
 7511SOL     OW23431   4.480   6.348   4.636
 7511SOL    HW123432   4.544   6.291   4.584
 7511SOL    HW223433   4.497   6.444   4.616
 7512SOL     OW23434   3.688   5.396   1.175
 7512SOL    HW123435   3.749   5.476   1.177
 7512SOL    HW223436   3.618   5.410   1.105
 7513SOL     OW23437   7.013   0.595   2.621
 7513SOL    HW123438   0.020   0.614   2.529
 7513SOL    HW223439   0.004   0.673   2.680
 7514SOL     OW23440   0.018   0.457   0.238
 7514SOL    HW123441   0.032   0.420   0.146
 7514SOL    HW223442   6.956   0.504   0.242
 7515SOL     OW23443   6.925   5.565   4.699
 7515SOL    HW123444   6.959   5.631   4.767
 7515SOL    HW223445   6.932   5.473   4.736
 7516SOL     OW23446   2.431   6.004   4.164
 7516SOL    HW123447   2.362   5.934   4.184
 7516SOL    HW223448   2.421   6.081   4.226
 7517SOL     OW23449   0.512   2.610   0.441
 7517SOL    HW123450   0.482   2.569   0.355
 7517SOL    HW223451   0.437   2.663   0.481
 7518SOL     OW23452   3.948   2.104   4.889
 7518SOL    HW123453   4.022   2.158   4.850
 7518SOL    HW223454   3.887   2.073   4.816
 7519SOL     OW23455   3.048   6.813   4.898
 7519SOL    HW123456   3.027   6.826   4.801
 7519SOL    HW223457   3.101   6.728   4.909
 7520SOL     OW23458   1.746   0.413   0.721
 7520SOL    HW123459   1.819   0.389   0.657
 7520SOL    HW223460   1.672   0.458   0.670
 7521SOL     OW23461   4.771   1.700   5.640
 7521SOL    HW123462   4.804   1.658   5.556
 7521SOL    HW223463   4.833   1.774   5.667
 7522SOL     OW23464   1.637   6.711   3.917
 7522SOL    HW123465   1.735   6.697   3.904
 7522SOL    HW223466   1.611   6.680   4.008
 7523SOL     OW23467   5.315   1.810   6.920
 7523SOL    HW123468   5.405   1.849   6.938
 7523SOL    HW223469   5.305   1.725   6.973
 7524SOL     OW23470   6.995   4.119   5.117
 7524SOL    HW123471   7.024   4.141   5.210
 7524SOL    HW223472   6.896   4.130   5.110
 7525SOL     OW23473   2.518   4.544   5.670
 7525SOL    HW123474   2.464   4.467   5.636
 7525SOL    HW223475   2.599   4.509   5.717
 7526SOL     OW23476   0.743   3.664   1.233
 7526SOL    HW123477   0.755   3.755   1.194
 7526SOL    HW223478   0.832   3.628   1.261
 7527SOL     OW23479   2.936   5.093   2.635
 7527SOL    HW123480   2.924   5.069   2.732
 7527SOL    HW223481   2.895   5.182   2.617
 7528SOL     OW23482   6.723   2.666   6.955
 7528SOL    HW123483   6.754   2.609   0.004
 7528SOL    HW223484   6.799   2.680   6.890
 7529SOL     OW23485   5.961   2.530   5.076
 7529SOL    HW123486   5.991   2.509   4.983
 7529SOL    HW223487   6.029   2.586   5.121
 7530SOL     OW23488   2.019   2.514   3.418
 7530SOL    HW123489   1.935   2.532   3.469
 7530SOL    HW223490   2.007   2.432   3.362
 7531SOL     OW23491   4.592   1.762   4.029
 7531SOL    HW123492   4.550   1.783   3.940
 7531SOL    HW223493   4.530   1.787   4.102
 7532SOL     OW23494   4.365   4.465   6.260
 7532SOL    HW123495   4.319   4.503   6.180
 7532SOL    HW223496   4.349   4.524   6.339
 7533SOL     OW23497   4.218   4.409   0.408
 7533SOL    HW123498   4.154   4.432   0.482
 7533SOL    HW223499   4.302   4.372   0.447
 7534SOL     OW23500   4.134   6.482   5.062
 7534SOL    HW123501   4.234   6.488   5.061
 7534SOL    HW223502   4.102   6.438   4.978
 7535SOL     OW23503   0.163   6.746   4.882
 7535SOL    HW123504   0.123   6.736   4.973
 7535SOL    HW223505   0.093   6.730   4.812
 7536SOL     OW23506   5.571   6.989   2.950
 7536SOL    HW123507   5.576   0.060   2.926
 7536SOL    HW223508   5.657   6.962   2.994
 7537SOL     OW23509   2.582   0.186   1.863
 7537SOL    HW123510   2.517   0.112   1.844
 7537SOL    HW223511   2.633   0.208   1.779
 7538SOL     OW23512   0.857   4.677   0.120
 7538SOL    HW123513   0.843   4.627   0.034
 7538SOL    HW223514   0.794   4.641   0.189
 7539SOL     OW23515   6.196   0.081   4.934
 7539SOL    HW123516   6.289   0.074   4.896
 7539SOL    HW223517   6.131   0.042   4.869
 7540SOL     OW23518   4.925   3.812   3.873
 7540SOL    HW123519   4.919   3.714   3.850
 7540SOL    HW223520   4.887   3.827   3.964
 7541SOL     OW23521   1.798   4.056   0.102
 7541SOL    HW123522   1.738   3.976   0.106
 7541SOL    HW223523   1.783   4.104   0.016
 7542SOL     OW23524   6.352   6.224   4.767
 7542SOL    HW123525   6.279   6.275   4.723
 7542SOL    HW223526   6.422   6.288   4.801
 7543SOL     OW23527   1.950   0.260   6.850
 7543SOL    HW123528   1.880   0.190   6.851
 7543SOL    HW223529   2.038   0.219   6.826
 7544SOL     OW23530   6.778   2.017   5.692
 7544SOL    HW123531   6.875   2.002   5.708
 7544SOL    HW223532   6.755   2.112   5.711
 7545SOL     OW23533   1.282   5.759   4.896
 7545SOL    HW123534   1.233   5.700   4.832
 7545SOL    HW223535   1.312   5.842   4.849
 7546SOL     OW23536   2.280   3.213   1.737
 7546SOL    HW123537   2.321   3.288   1.788
 7546SOL    HW223538   2.345   3.138   1.730
 7547SOL     OW23539   4.113   0.647   2.085
 7547SOL    HW123540   4.025   0.695   2.080
 7547SOL    HW223541   4.126   0.593   2.002
 7548SOL     OW23542   2.651   2.155   6.055
 7548SOL    HW123543   2.601   2.229   6.100
 7548SOL    HW223544   2.606   2.132   5.969
 7549SOL     OW23545   5.168   0.382   5.614
 7549SOL    HW123546   5.193   0.300   5.666
 7549SOL    HW223547   5.088   0.425   5.656
 7550SOL     OW23548   3.183   6.328   4.694
 7550SOL    HW123549   3.220   6.235   4.692
 7550SOL    HW223550   3.236   6.385   4.631
 7551SOL     OW23551   5.964   3.060   0.010
 7551SOL    HW123552   5.880   3.057   0.065
 7551SOL    HW223553   6.014   3.143   0.031
 7552SOL     OW23554   2.896   6.529   4.558
 7552SOL    HW123555   2.901   6.543   4.657
 7552SOL    HW223556   2.959   6.456   4.532
 7553SOL     OW23557   6.325   0.094   5.752
 7553SOL    HW123558   6.423   0.074   5.741
 7553SOL    HW223559   6.301   0.175   5.699
 7554SOL     OW23560   4.756   1.723   2.060
 7554SOL    HW123561   4.728   1.778   2.139
 7554SOL    HW223562   4.682   1.663   2.033
 7555SOL     OW23563   4.517   5.818   4.381
 7555SOL    HW123564   4.612   5.814   4.350
 7555SOL    HW223565   4.455   5.808   4.303
 7556SOL     OW23566   0.761   5.766   0.669
 7556SOL    HW123567   0.756   5.744   0.571
 7556SOL    HW223568   0.749   5.864   0.682
 7557SOL     OW23569   4.265   5.899   0.337
 7557SOL    HW123570   4.206   5.940   0.268
 7557SOL    HW223571   4.250   5.801   0.340
 7558SOL     OW23572   1.624   1.651   4.178
 7558SOL    HW123573   1.715   1.644   4.137
 7558SOL    HW223574   1.565   1.579   4.141
 7559SOL     OW23575   1.423   6.685   4.852
 7559SOL    HW123576   1.408   6.667   4.949
 7559SOL    HW223577   1.430   6.599   4.802
 7560SOL     OW23578   0.302   0.948   5.377
 7560SOL    HW123579   0.323   1.032   5.327
 7560SOL    HW223580   0.326   0.960   5.473
 7561SOL     OW23581   5.440   1.264   5.876
 7561SOL    HW123582   5.472   1.320   5.800
 7561SOL    HW223583   5.344   1.285   5.895
 7562SOL     OW23584   1.560   5.672   3.621
 7562SOL    HW123585   1.492   5.679   3.548
 7562SOL    HW223586   1.649   5.647   3.583
 7563SOL     OW23587   3.258   6.180   3.262
 7563SOL    HW123588   3.165   6.202   3.234
 7563SOL    HW223589   3.283   6.236   3.342
 7564SOL     OW23590   5.984   3.765   6.423
 7564SOL    HW123591   6.058   3.734   6.484
 7564SOL    HW223592   5.977   3.702   6.346
 7565SOL     OW23593   6.494   3.434   5.751
 7565SOL    HW123594   6.547   3.397   5.675
 7565SOL    HW223595   6.451   3.360   5.802
 7566SOL     OW23596   5.123   4.044   1.276
 7566SOL    HW123597   5.026   4.029   1.292
 7566SOL    HW223598   5.165   4.079   1.360
 7567SOL     OW23599   1.531   0.411   3.064
 7567SOL    HW123600   1.585   0.444   3.141
 7567SOL    HW223601   1.438   0.447   3.071
 7568SOL     OW23602   0.155   4.454   1.577
 7568SOL    HW123603   0.252   4.446   1.551
 7568SOL    HW223604   0.107   4.509   1.509
 7569SOL     OW23605   4.484   4.012   1.366
 7569SOL    HW123606   4.464   4.085   1.432
 7569SOL    HW223607   4.487   4.051   1.274
 7570SOL     OW23608   1.031   2.391   2.052
 7570SOL    HW123609   0.977   2.308   2.037
 7570SOL    HW223610   1.061   2.427   1.964
 7571SOL     OW23611   5.250   1.656   3.460
 7571SOL    HW123612   5.287   1.573   3.502
 7571SOL    HW223613   5.163   1.634   3.415
 7572SOL     OW23614   4.542   6.851   2.520
 7572SOL    HW123615   4.450   6.830   2.487
 7572SOL    HW223616   4.573   6.937   2.481
 7573SOL     OW23617   3.346   0.411   6.078
 7573SOL    HW123618   3.383   0.334   6.129
 7573SOL    HW223619   3.351   0.494   6.134
 7574SOL     OW23620   0.778   3.559   2.700
 7574SOL    HW123621   0.843   3.633   2.714
 7574SOL    HW223622   0.756   3.517   2.788
 7575SOL     OW23623   6.823   7.011   6.999
 7575SOL    HW123624   6.792   0.037   6.920
 7575SOL    HW223625   6.756   6.941   7.021
 7576SOL     OW23626   4.955   2.967   6.829
 7576SOL    HW123627   5.044   3.010   6.812
 7576SOL    HW223628   4.886   3.038   6.842
 7577SOL     OW23629   6.966   0.468   5.434
 7577SOL    HW123630   7.000   0.547   5.485
 7577SOL    HW223631   6.924   0.499   5.349
 7578SOL     OW23632   6.160   5.868   2.184
 7578SOL    HW123633   6.117   5.780   2.168
 7578SOL    HW223634   6.209   5.867   2.271
 7579SOL     OW23635   1.104   1.683   6.654
 7579SOL    HW123636   1.188   1.669   6.706
 7579SOL    HW223637   1.112   1.765   6.598
 7580SOL     OW23638   2.152   4.813   2.162
 7580SOL    HW123639   2.212   4.797   2.083
 7580SOL    HW223640   2.206   4.852   2.237
 7581SOL     OW23641   0.509   0.209   0.880
 7581SOL    HW123642   0.595   0.240   0.841
 7581SOL    HW223643   0.433   0.246   0.827
 7582SOL     OW23644   1.274   0.633   5.542
 7582SOL    HW123645   1.291   0.709   5.479
 7582SOL    HW223646   1.350   0.568   5.538
 7583SOL     OW23647   5.671   3.662   2.588
 7583SOL    HW123648   5.591   3.636   2.535
 7583SOL    HW223649   5.709   3.581   2.632
 7584SOL     OW23650   0.230   1.025   3.509
 7584SOL    HW123651   0.257   0.962   3.582
 7584SOL    HW223652   0.210   0.974   3.426
 7585SOL     OW23653   0.773   1.159   6.045
 7585SOL    HW123654   0.768   1.087   5.976
 7585SOL    HW223655   0.806   1.121   6.132
 7586SOL     OW23656   2.312   6.614   4.116
 7586SOL    HW123657   2.344   6.709   4.111
 7586SOL    HW223658   2.343   6.564   4.035
 7587SOL     OW23659   5.786   0.286   2.007
 7587SOL    HW123660   5.794   0.240   2.096
 7587SOL    HW223661   5.786   0.385   2.021
 7588SOL     OW23662   2.090   3.665   4.800
 7588SOL    HW123663   2.104   3.685   4.703
 7588SOL    HW223664   2.138   3.580   4.824
 7589SOL     OW23665   6.525   6.900   2.597
 7589SOL    HW123666   6.554   6.850   2.679
 7589SOL    HW223667   6.441   6.952   2.618
 7590SOL     OW23668   5.682   0.951   6.472
 7590SOL    HW123669   5.596   0.976   6.518
 7590SOL    HW223670   5.715   1.028   6.418
 7591SOL     OW23671   3.885   3.644   5.141
 7591SOL    HW123672   3.873   3.561   5.195
 7591SOL    HW223673   3.800   3.668   5.095
 7592SOL     OW23674   6.905   0.261   3.068
 7592SOL    HW123675   6.974   0.268   2.997
 7592SOL    HW223676   6.925   0.327   3.141
 7593SOL     OW23677   6.623   2.148   6.343
 7593SOL    HW123678   6.589   2.222   6.285
 7593SOL    HW223679   6.581   2.155   6.434
 7594SOL     OW23680   6.753   4.438   5.554
 7594SOL    HW123681   6.821   4.477   5.492
 7594SOL    HW223682   6.735   4.343   5.529
 7595SOL     OW23683   0.319   3.809   0.329
 7595SOL    HW123684   0.280   3.727   0.288
 7595SOL    HW223685   0.249   3.881   0.331
 7596SOL     OW23686   3.390   2.016   0.047
 7596SOL    HW123687   3.444   1.934   0.067
 7596SOL    HW223688   3.364   2.060   0.133
 7597SOL     OW23689   2.226   4.586   0.112
 7597SOL    HW123690   2.231   4.575   0.013
 7597SOL    HW223691   2.314   4.564   0.153
 7598SOL     OW23692   4.983   0.894   2.309
 7598SOL    HW123693   4.980   0.981   2.261
 7598SOL    HW223694   4.926   0.899   2.391
 7599SOL     OW23695   2.790   3.096   0.260
 7599SOL    HW123696   2.798   3.134   0.167
 7599SOL    HW223697   2.836   3.157   0.324
 7600SOL     OW23698   0.172   6.799   4.452
 7600SOL    HW123699   0.183   6.869   4.382
 7600SOL    HW223700   0.257   6.747   4.462
 7601SOL     OW23701   2.927   5.853   0.976
 7601SOL    HW123702   2.993   5.908   0.925
 7601SOL    HW223703   2.856   5.912   1.014
 7602SOL     OW23704   6.905   0.957   1.349
 7602SOL    HW123705   6.973   0.883   1.349
 7602SOL    HW223706   6.826   0.929   1.405
 7603SOL     OW23707   4.207   1.319   6.517
 7603SOL    HW123708   4.125   1.275   6.481
 7603SOL    HW223709   4.182   1.406   6.559
 7604SOL     OW23710   2.574   1.759   5.562
 7604SOL    HW123711   2.631   1.835   5.594
 7604SOL    HW223712   2.623   1.708   5.492
 7605SOL     OW23713   2.740   6.266   6.385
 7605SOL    HW123714   2.835   6.244   6.367
 7605SOL    HW223715   2.731   6.301   6.479
 7606SOL     OW23716   6.183   0.936   3.653
 7606SOL    HW123717   6.087   0.937   3.625
 7606SOL    HW223718   6.194   0.880   3.735
 7607SOL     OW23719   2.084   5.650   5.309
 7607SOL    HW123720   2.154   5.629   5.241
 7607SOL    HW223721   2.072   5.749   5.314
 7608SOL     OW23722   0.901   2.489   6.685
 7608SOL    HW123723   0.826   2.506   6.621
 7608SOL    HW223724   0.971   2.559   6.674
 7609SOL     OW23725   3.376   0.310   4.946
 7609SOL    HW123726   3.291   0.350   4.982
 7609SOL    HW223727   3.354   0.253   4.867
 7610SOL     OW23728   4.317   6.212   5.014
 7610SOL    HW123729   4.413   6.187   5.000
 7610SOL    HW223730   4.280   6.163   5.092
 7611SOL     OW23731   4.401   2.180   0.427
 7611SOL    HW123732   4.320   2.225   0.389
 7611SOL    HW223733   4.424   2.223   0.515
 7612SOL     OW23734   4.927   3.137   2.240
 7612SOL    HW123735   4.865   3.121   2.163
 7612SOL    HW223736   4.905   3.225   2.283
 7613SOL     OW23737   0.060   0.801   6.472
 7613SOL    HW123738   0.017   0.862   6.538
 7613SOL    HW223739   7.024   0.783   6.396
 7614SOL     OW23740   6.028   5.202   6.730
 7614SOL    HW123741   6.057   5.144   6.654
 7614SOL    HW223742   5.967   5.151   6.790
 7615SOL     OW23743   4.900   3.501   6.287
 7615SOL    HW123744   4.806   3.488   6.258
 7615SOL    HW223745   4.931   3.592   6.259
 7616SOL     OW23746   6.432   6.645   2.020
 7616SOL    HW123747   6.516   6.590   2.020
 7616SOL    HW223748   6.449   6.731   2.067
 7617SOL     OW23749   5.203   4.922   2.992
 7617SOL    HW123750   5.243   4.954   3.077
 7617SOL    HW223751   5.138   4.848   3.011
 7618SOL     OW23752   2.413   2.281   0.178
 7618SOL    HW123753   2.383   2.326   0.263
 7618SOL    HW223754   2.509   2.304   0.161
 7619SOL     OW23755   0.452   0.621   4.500
 7619SOL    HW123756   0.517   0.562   4.453
 7619SOL    HW223757   0.359   0.591   4.480
 7620SOL     OW23758   3.255   4.219   0.576
 7620SOL    HW123759   3.201   4.135   0.567
 7620SOL    HW223760   3.193   4.296   0.590
 7621SOL     OW23761   5.783   4.896   0.878
 7621SOL    HW123762   5.818   4.987   0.855
 7621SOL    HW223763   5.845   4.827   0.842
 7622SOL     OW23764   2.226   3.823   0.764
 7622SOL    HW123765   2.244   3.782   0.854
 7622SOL    HW223766   2.271   3.768   0.693
 7623SOL     OW23767   5.279   5.394   3.374
 7623SOL    HW123768   5.181   5.383   3.359
 7623SOL    HW223769   5.329   5.379   3.289
 7624SOL     OW23770   6.736   2.860   2.995
 7624SOL    HW123771   6.753   2.954   2.967
 7624SOL    HW223772   6.771   2.846   3.088
 7625SOL     OW23773   5.205   0.399   2.031
 7625SOL    HW123774   5.107   0.412   2.019
 7625SOL    HW223775   5.226   0.384   2.127
 7626SOL     OW23776   4.705   6.121   0.691
 7626SOL    HW123777   4.673   6.198   0.636
 7626SOL    HW223778   4.638   6.047   0.687
 7627SOL     OW23779   4.453   2.461   5.475
 7627SOL    HW123780   4.411   2.548   5.447
 7627SOL    HW223781   4.451   2.454   5.575
 7628SOL     OW23782   3.807   2.904   0.583
 7628SOL    HW123783   3.784   3.000   0.591
 7628SOL    HW223784   3.724   2.848   0.593
 7629SOL     OW23785   5.775   2.767   3.841
 7629SOL    HW123786   5.748   2.672   3.823
 7629SOL    HW223787   5.872   2.779   3.822
 7630SOL     OW23788   1.728   5.868   3.746
 7630SOL    HW123789   1.639   5.860   3.701
 7630SOL    HW223790   1.800   5.836   3.685
 7631SOL     OW23791   1.368   1.269   6.520
 7631SOL    HW123792   1.330   1.301   6.433
 7631SOL    HW223793   1.317   1.189   6.551
 7632SOL     OW23794   4.248   5.424   1.103
 7632SOL    HW123795   4.269   5.344   1.048
 7632SOL    HW223796   4.250   5.399   1.200
 7633SOL     OW23797   5.448   0.622   2.015
 7633SOL    HW123798   5.387   0.543   2.007
 7633SOL    HW223799   5.403   0.704   1.981
 7634SOL     OW23800   0.837   2.037   0.019
 7634SOL    HW123801   0.818   2.122   6.995
 7634SOL    HW223802   0.834   2.056   0.117
 7635SOL     OW23803   1.855   3.068   6.261
 7635SOL    HW123804   1.916   3.026   6.194
 7635SOL    HW223805   1.839   3.164   6.236
 7636SOL     OW23806   6.984   3.030   3.518
 7636SOL    HW123807   6.993   3.104   3.584
 7636SOL    HW223808   0.035   2.968   3.527
 7637SOL     OW23809   1.832   4.299   4.553
 7637SOL    HW123810   1.831   4.201   4.576
 7637SOL    HW223811   1.767   4.347   4.613
 7638SOL     OW23812   0.137   6.818   0.814
 7638SOL    HW123813   0.134   6.906   0.862
 7638SOL    HW223814   0.048   6.800   0.772
 7639SOL     OW23815   2.158   6.212   0.310
 7639SOL    HW123816   2.255   6.217   0.284
 7639SOL    HW223817   2.150   6.182   0.405
 7640SOL     OW23818   3.444   0.668   0.646
 7640SOL    HW123819   3.389   0.597   0.602
 7640SOL    HW223820   3.385   0.733   0.692
 7641SOL     OW23821   6.223   4.169   5.362
 7641SOL    HW123822   6.155   4.125   5.420
 7641SOL    HW223823   6.265   4.245   5.412
 7642SOL     OW23824   5.239   0.799   3.927
 7642SOL    HW123825   5.156   0.743   3.926
 7642SOL    HW223826   5.254   0.835   4.019
 7643SOL     OW23827   5.296   2.138   4.074
 7643SOL    HW123828   5.215   2.152   4.018
 7643SOL    HW223829   5.307   2.041   4.096
 7644SOL     OW23830   5.563   4.024   0.301
 7644SOL    HW123831   5.479   3.978   0.273
 7644SOL    HW223832   5.592   3.991   0.391
 7645SOL     OW23833   5.970   4.411   6.529
 7645SOL    HW123834   5.888   4.364   6.498
 7645SOL    HW223835   6.036   4.416   6.454
 7646SOL     OW23836   6.133   1.402   3.128
 7646SOL    HW123837   6.127   1.447   3.039
 7646SOL    HW223838   6.082   1.316   3.125
 7647SOL     OW23839   6.934   1.786   4.212
 7647SOL    HW123840   6.939   1.765   4.310
 7647SOL    HW223841   6.895   1.877   4.199
 7648SOL     OW23842   1.818   2.558   0.800
 7648SOL    HW123843   1.845   2.621   0.728
 7648SOL    HW223844   1.814   2.607   0.887
 7649SOL     OW23845   4.364   0.768   0.524
 7649SOL    HW123846   4.454   0.736   0.552
 7649SOL    HW223847   4.295   0.698   0.544
 7650SOL     OW23848   3.577   2.735   0.126
 7650SOL    HW123849   3.538   2.809   0.072
 7650SOL    HW223850   3.676   2.731   0.111
 7651SOL     OW23851   3.788   5.462   5.977
 7651SOL    HW123852   3.791   5.423   5.885
 7651SOL    HW223853   3.693   5.480   6.002
 7652SOL     OW23854   0.777   0.992   4.788
 7652SOL    HW123855   0.698   1.051   4.805
 7652SOL    HW223856   0.747   0.898   4.773
 7653SOL     OW23857   2.000   6.536   6.037
 7653SOL    HW123858   2.028   6.459   6.094
 7653SOL    HW223859   2.082   6.587   6.007
 7654SOL     OW23860   0.092   2.309   6.275
 7654SOL    HW123861   0.049   2.398   6.291
 7654SOL    HW223862   0.040   2.259   6.205
 7655SOL     OW23863   2.713   1.356   5.884
 7655SOL    HW123864   2.689   1.423   5.955
 7655SOL    HW223865   2.761   1.279   5.926
 7656SOL     OW23866   6.269   3.525   6.999
 7656SOL    HW123867   6.317   3.499   0.056
 7656SOL    HW223868   6.171   3.509   7.010
 7657SOL     OW23869   0.795   4.302   4.881
 7657SOL    HW123870   0.836   4.351   4.958
 7657SOL    HW223871   0.803   4.203   4.895
 7658SOL     OW23872   2.554   0.110   0.855
 7658SOL    HW123873   2.533   0.030   0.912
 7658SOL    HW223874   2.539   0.087   0.759
 7659SOL     OW23875   5.541   4.258   5.084
 7659SOL    HW123876   5.610   4.205   5.134
 7659SOL    HW223877   5.528   4.346   5.130
 7660SOL     OW23878   0.218   6.153   4.961
 7660SOL    HW123879   0.226   6.122   4.866
 7660SOL    HW223880   0.269   6.091   5.020
 7661SOL     OW23881   1.862   0.203   4.794
 7661SOL    HW123882   1.795   0.231   4.862
 7661SOL    HW223883   1.816   0.162   4.716
 7662SOL     OW23884   6.679   6.452   2.035
 7662SOL    HW123885   6.664   6.356   2.011
 7662SOL    HW223886   6.632   6.473   2.121
 7663SOL     OW23887   1.494   6.030   3.506
 7663SOL    HW123888   1.590   6.060   3.512
 7663SOL    HW223889   1.449   6.043   3.594
 7664SOL     OW23890   5.255   2.533   3.321
 7664SOL    HW123891   5.246   2.589   3.403
 7664SOL    HW223892   5.351   2.522   3.297
 7665SOL     OW23893   1.972   6.472   5.234
 7665SOL    HW123894   1.926   6.558   5.211
 7665SOL    HW223895   2.070   6.488   5.241
 7666SOL     OW23896   6.392   4.708   3.997
 7666SOL    HW123897   6.368   4.755   3.912
 7666SOL    HW223898   6.325   4.637   4.017
 7667SOL     OW23899   4.783   5.520   1.444
 7667SOL    HW123900   4.713   5.535   1.514
 7667SOL    HW223901   4.770   5.587   1.371
 7668SOL     OW23902   1.993   5.242   0.692
 7668SOL    HW123903   2.059   5.221   0.764
 7668SOL    HW223904   1.904   5.263   0.733
 7669SOL     OW23905   4.413   2.380   6.751
 7669SOL    HW123906   4.329   2.327   6.737
 7669SOL    HW223907   4.393   2.460   6.807
 7670SOL     OW23908   1.242   1.028   1.190
 7670SOL    HW123909   1.208   1.071   1.106
 7670SOL    HW223910   1.170   1.032   1.260
 7671SOL     OW23911   3.753   1.084   1.907
 7671SOL    HW123912   3.710   1.052   1.992
 7671SOL    HW223913   3.852   1.085   1.919
 7672SOL     OW23914   5.775   2.887   3.106
 7672SOL    HW123915   5.738   2.843   3.188
 7672SOL    HW223916   5.850   2.832   3.070
 7673SOL     OW23917   2.249   6.161   5.375
 7673SOL    HW123918   2.281   6.232   5.312
 7673SOL    HW223919   2.221   6.203   5.461
 7674SOL     OW23920   4.046   5.720   3.755
 7674SOL    HW123921   3.957   5.704   3.711
 7674SOL    HW223922   4.118   5.715   3.687
 7675SOL     OW23923   3.798   6.768   2.859
 7675SOL    HW123924   3.789   6.686   2.803
 7675SOL    HW223925   3.894   6.783   2.882
 7676SOL     OW23926   3.351   3.236   4.080
 7676SOL    HW123927   3.290   3.164   4.112
 7676SOL    HW223928   3.313   3.325   4.106
 7677SOL     OW23929   0.347   6.870   0.606
 7677SOL    HW123930   0.283   6.860   0.682
 7677SOL    HW223931   0.349   6.966   0.576
 7678SOL     OW23932   3.375   1.013   5.255
 7678SOL    HW123933   3.461   1.049   5.292
 7678SOL    HW223934   3.299   1.042   5.313
 7679SOL     OW23935   3.299   5.452   4.238
 7679SOL    HW123936   3.317   5.550   4.234
 7679SOL    HW223937   3.209   5.436   4.278
 7680SOL     OW23938   1.395   5.802   4.082
 7680SOL    HW123939   1.374   5.706   4.062
 7680SOL    HW223940   1.357   5.826   4.171
 7681SOL     OW23941   1.999   2.227   5.606
 7681SOL    HW123942   2.037   2.143   5.566
 7681SOL    HW223943   1.909   2.245   5.566
 7682SOL     OW23944   2.845   6.838   1.660
 7682SOL    HW123945   2.865   6.776   1.584
 7682SOL    HW223946   2.929   6.882   1.691
 7683SOL     OW23947   1.488   4.520   4.118
 7683SOL    HW123948   1.492   4.593   4.050
 7683SOL    HW223949   1.532   4.551   4.203
 7684SOL     OW23950   4.746   3.535   1.508
 7684SOL    HW123951   4.652   3.567   1.494
 7684SOL    HW223952   4.760   3.515   1.605
 7685SOL     OW23953   1.917   0.146   6.561
 7685SOL    HW123954   2.002   0.183   6.599
 7685SOL    HW223955   1.939   0.075   6.494
 7686SOL     OW23956   6.433   1.280   4.951
 7686SOL    HW123957   6.396   1.190   4.928
 7686SOL    HW223958   6.513   1.298   4.895
 7687SOL     OW23959   6.067   3.553   5.337
 7687SOL    HW123960   6.068   3.648   5.370
 7687SOL    HW223961   6.025   3.495   5.407
 7688SOL     OW23962   6.812   3.211   1.039
 7688SOL    HW123963   6.739   3.163   0.989
 7688SOL    HW223964   6.782   3.228   1.133
 7689SOL     OW23965   5.359   6.718   3.284
 7689SOL    HW123966   5.353   6.666   3.199
 7689SOL    HW223967   5.396   6.809   3.266
 7690SOL     OW23968   6.457   3.874   2.394
 7690SOL    HW123969   6.385   3.919   2.340
 7690SOL    HW223970   6.418   3.795   2.441
 7691SOL     OW23971   4.804   2.612   3.724
 7691SOL    HW123972   4.795   2.559   3.640
 7691SOL    HW223973   4.836   2.553   3.798
 7692SOL     OW23974   1.646   6.221   2.331
 7692SOL    HW123975   1.627   6.216   2.233
 7692SOL    HW223976   1.730   6.171   2.351
 7693SOL     OW23977   2.342   2.363   0.928
 7693SOL    HW123978   2.356   2.445   0.983
 7693SOL    HW223979   2.386   2.373   0.839
 7694SOL     OW23980   4.693   2.487   1.595
 7694SOL    HW123981   4.717   2.490   1.692
 7694SOL    HW223982   4.740   2.410   1.551
 7695SOL     OW23983   5.353   6.631   4.179
 7695SOL    HW123984   5.432   6.580   4.145
 7695SOL    HW223985   5.384   6.703   4.241
 7696SOL     OW23986   2.276   1.064   5.502
 7696SOL    HW123987   2.238   1.057   5.410
 7696SOL    HW223988   2.212   1.112   5.562
 7697SOL     OW23989   5.823   6.522   3.505
 7697SOL    HW123990   5.896   6.502   3.438
 7697SOL    HW223991   5.736   6.530   3.457
 7698SOL     OW23992   5.890   1.963   1.465
 7698SOL    HW123993   5.909   1.916   1.551
 7698SOL    HW223994   5.795   1.949   1.439
 7699SOL     OW23995   3.833   5.706   6.108
 7699SOL    HW123996   3.825   5.651   6.191
 7699SOL    HW223997   3.843   5.645   6.029
 7700SOL     OW23998   5.663   4.366   1.441
 7700SOL    HW123999   5.691   4.443   1.499
 7700SOL    HW224000   5.603   4.399   1.369
 7701SOL     OW24001   3.239   1.963   6.086
 7701SOL    HW124002   3.263   1.985   6.181
 7701SOL    HW224003   3.185   1.879   6.083
 7702SOL     OW24004   5.897   6.589   5.735
 7702SOL    HW124005   5.877   6.652   5.660
 7702SOL    HW224006   5.928   6.640   5.815
 7703SOL     OW24007   0.122   6.277   0.231
 7703SOL    HW124008   0.158   6.260   0.322
 7703SOL    HW224009   0.179   6.231   0.163
 7704SOL     OW24010   2.111   2.358   4.588
 7704SOL    HW124011   2.191   2.356   4.648
 7704SOL    HW224012   2.070   2.449   4.590
 7705SOL     OW24013   1.067   4.137   0.369
 7705SOL    HW124014   1.122   4.203   0.421
 7705SOL    HW224015   0.989   4.184   0.329
 7706SOL     OW24016   3.452   3.561   2.301
 7706SOL    HW124017   3.539   3.522   2.330
 7706SOL    HW224018   3.441   3.651   2.343
 7707SOL     OW24019   6.486   5.549   5.301
 7707SOL    HW124020   6.562   5.484   5.311
 7707SOL    HW224021   6.515   5.626   5.245
 7708SOL     OW24022   0.779   0.280   3.233
 7708SOL    HW124023   0.770   0.249   3.139
 7708SOL    HW224024   0.862   0.335   3.243
 7709SOL     OW24025   6.633   4.699   1.055
 7709SOL    HW124026   6.547   4.673   1.098
 7709SOL    HW224027   6.646   4.647   0.971
 7710SOL     OW24028   5.995   4.035   3.433
 7710SOL    HW124029   5.987   4.052   3.531
 7710SOL    HW224030   5.904   4.021   3.394
 7711SOL     OW24031   1.033   4.692   3.322
 7711SOL    HW124032   1.030   4.731   3.414
 7711SOL    HW224033   1.054   4.595   3.327
 7712SOL     OW24034   1.062   4.202   4.700
 7712SOL    HW124035   0.977   4.250   4.721
 7712SOL    HW224036   1.132   4.268   4.671
 7713SOL     OW24037   0.514   5.483   0.541
 7713SOL    HW124038   0.506   5.582   0.550
 7713SOL    HW224039   0.480   5.440   0.625
 7714SOL     OW24040   5.729   1.233   4.751
 7714SOL    HW124041   5.658   1.228   4.821
 7714SOL    HW224042   5.734   1.145   4.703
 7715SOL     OW24043   4.069   3.580   6.474
 7715SOL    HW124044   4.120   3.599   6.390
 7715SOL    HW224045   4.117   3.621   6.552
 7716SOL     OW24046   1.968   0.776   6.911
 7716SOL    HW124047   1.962   0.676   6.915
 7716SOL    HW224048   1.962   0.813   7.003
 7717SOL     OW24049   1.018   2.131   6.347
 7717SOL    HW124050   1.065   2.136   6.259
 7717SOL    HW224051   1.066   2.066   6.407
 7718SOL     OW24052   0.683   3.681   3.783
 7718SOL    HW124053   0.597   3.667   3.833
 7718SOL    HW224054   0.683   3.771   3.740
 7719SOL     OW24055   2.225   6.803   5.197
 7719SOL    HW124056   2.230   6.892   5.153
 7719SOL    HW224057   2.286   6.802   5.276
 7720SOL     OW24058   4.236   0.609   6.442
 7720SOL    HW124059   4.169   0.642   6.508
 7720SOL    HW224060   4.283   0.687   6.400
 7721SOL     OW24061   5.259   5.970   2.485
 7721SOL    HW124062   5.349   5.957   2.446
 7721SOL    HW224063   5.219   6.056   2.452
 7722SOL     OW24064   0.378   6.471   4.634
 7722SOL    HW124065   0.478   6.469   4.634
 7722SOL    HW224066   0.343   6.404   4.568
 7723SOL     OW24067   3.574   4.892   6.260
 7723SOL    HW124068   3.618   4.855   6.178
 7723SOL    HW224069   3.520   4.972   6.236
 7724SOL     OW24070   1.277   4.094   6.682
 7724SOL    HW124071   1.276   4.051   6.592
 7724SOL    HW224072   1.370   4.124   6.704
 7725SOL     OW24073   5.518   3.105   4.990
 7725SOL    HW124074   5.467   3.134   4.909
 7725SOL    HW224075   5.544   3.009   4.981
 7726SOL     OW24076   1.635   2.855   0.763
 7726SOL    HW124077   1.560   2.826   0.823
 7726SOL    HW224078   1.609   2.840   0.668
 7727SOL     OW24079   6.096   7.013   3.144
 7727SOL    HW124080   6.090   6.914   3.131
 7727SOL    HW224081   6.132   0.005   3.236
 7728SOL     OW24082   1.890   3.197   5.616
 7728SOL    HW124083   1.879   3.119   5.555
 7728SOL    HW224084   1.812   3.259   5.606
 7729SOL     OW24085   0.369   0.541   2.737
 7729SOL    HW124086   0.379   0.638   2.717
 7729SOL    HW224087   0.273   0.522   2.760
 7730SOL     OW24088   5.614   3.315   6.355
 7730SOL    HW124089   5.518   3.312   6.379
 7730SOL    HW224090   5.657   3.228   6.375
 7731SOL     OW24091   0.178   0.849   5.942
 7731SOL    HW124092   0.267   0.893   5.929
 7731SOL    HW224093   0.159   0.788   5.865
 7732SOL     OW24094   3.622   1.263   0.732
 7732SOL    HW124095   3.718   1.254   0.757
 7732SOL    HW224096   3.578   1.329   0.793
 7733SOL     OW24097   5.845   6.052   1.486
 7733SOL    HW124098   5.813   6.116   1.416
 7733SOL    HW224099   5.876   6.104   1.565
 7734SOL     OW24100   3.418   4.116   3.751
 7734SOL    HW124101   3.383   4.188   3.811
 7734SOL    HW224102   3.483   4.059   3.802
 7735SOL     OW24103   1.062   5.520   1.243
 7735SOL    HW124104   1.003   5.442   1.222
 7735SOL    HW224105   1.095   5.512   1.337
 7736SOL     OW24106   2.264   1.460   0.921
 7736SOL    HW124107   2.234   1.541   0.972
 7736SOL    HW224108   2.193   1.390   0.926
 7737SOL     OW24109   4.724   4.523   6.137
 7737SOL    HW124110   4.638   4.505   6.184
 7737SOL    HW224111   4.762   4.437   6.102
 7738SOL     OW24112   1.862   0.785   5.428
 7738SOL    HW124113   1.894   0.873   5.463
 7738SOL    HW224114   1.879   0.714   5.497
 7739SOL     OW24115   0.985   2.762   6.647
 7739SOL    HW124116   1.077   2.791   6.673
 7739SOL    HW224117   0.978   2.756   6.547
 7740SOL     OW24118   1.994   0.390   3.886
 7740SOL    HW124119   1.945   0.359   3.805
 7740SOL    HW224120   1.971   0.486   3.903
 7741SOL     OW24121   6.168   4.429   6.260
 7741SOL    HW124122   6.137   4.360   6.195
 7741SOL    HW224123   6.193   4.513   6.211
 7742SOL     OW24124   4.479   2.453   3.665
 7742SOL    HW124125   4.458   2.418   3.574
 7742SOL    HW224126   4.540   2.532   3.658
 7743SOL     OW24127   3.301   0.998   6.358
 7743SOL    HW124128   3.211   1.014   6.318
 7743SOL    HW224129   3.298   0.920   6.420
 7744SOL     OW24130   0.005   6.013   4.728
 7744SOL    HW124131   6.949   5.964   4.700
 7744SOL    HW224132   0.073   6.006   4.656
 7745SOL     OW24133   3.065   0.294   0.560
 7745SOL    HW124134   3.064   0.198   0.588
 7745SOL    HW224135   3.001   0.346   0.616
 7746SOL     OW24136   6.926   6.185   1.398
 7746SOL    HW124137   6.881   6.248   1.461
 7746SOL    HW224138   6.924   6.223   1.306
 7747SOL     OW24139   6.813   6.149   0.508
 7747SOL    HW124140   6.837   6.189   0.596
 7747SOL    HW224141   6.725   6.101   0.517
 7748SOL     OW24142   4.196   1.380   5.962
 7748SOL    HW124143   4.258   1.330   6.023
 7748SOL    HW224144   4.178   1.325   5.881
 7749SOL     OW24145   3.063   3.823   3.022
 7749SOL    HW124146   2.975   3.776   3.017
 7749SOL    HW224147   3.084   3.863   2.932
 7750SOL     OW24148   5.743   3.835   5.437
 7750SOL    HW124149   5.841   3.815   5.441
 7750SOL    HW224150   5.694   3.757   5.400
 7751SOL     OW24151   0.337   1.614   4.135
 7751SOL    HW124152   0.281   1.623   4.217
 7751SOL    HW224153   0.403   1.540   4.148
 7752SOL     OW24154   5.378   4.334   6.317
 7752SOL    HW124155   5.293   4.349   6.267
 7752SOL    HW224156   5.443   4.285   6.259
 7753SOL     OW24157   2.084   1.183   4.838
 7753SOL    HW124158   2.124   1.205   4.749
 7753SOL    HW224159   2.156   1.180   4.907
 7754SOL     OW24160   6.899   1.165   0.404
 7754SOL    HW124161   6.950   1.135   0.324
 7754SOL    HW224162   6.951   1.145   0.487
 7755SOL     OW24163   1.350   6.268   5.605
 7755SOL    HW124164   1.403   6.336   5.656
 7755SOL    HW224165   1.336   6.187   5.663
 7756SOL     OW24166   3.364   6.709   2.833
 7756SOL    HW124167   3.298   6.784   2.832
 7756SOL    HW224168   3.321   6.627   2.796
 7757SOL     OW24169   3.676   1.904   5.190
 7757SOL    HW124170   3.680   1.930   5.286
 7757SOL    HW224171   3.746   1.835   5.171
 7758SOL     OW24172   2.622   1.154   6.538
 7758SOL    HW124173   2.683   1.152   6.617
 7758SOL    HW224174   2.535   1.196   6.564
 7759SOL     OW24175   2.221   0.040   4.548
 7759SOL    HW124176   2.136   7.015   4.556
 7759SOL    HW224177   2.223   0.113   4.615
 7760SOL     OW24178   5.429   1.716   2.819
 7760SOL    HW124179   5.487   1.796   2.804
 7760SOL    HW224180   5.483   1.633   2.806
 7761SOL     OW24181   4.652   0.808   6.797
 7761SOL    HW124182   4.620   0.884   6.741
 7761SOL    HW224183   4.575   0.768   6.847
 7762SOL     OW24184   2.001   1.810   0.978
 7762SOL    HW124185   1.965   1.903   0.972
 7762SOL    HW224186   1.955   1.751   0.911
 7763SOL     OW24187   2.041   3.088   1.100
 7763SOL    HW124188   2.047   3.185   1.123
 7763SOL    HW224189   2.030   3.034   1.183
 7764SOL     OW24190   3.648   3.788   2.145
 7764SOL    HW124191   3.708   3.836   2.209
 7764SOL    HW224192   3.697   3.710   2.105
 7765SOL     OW24193   0.413   1.567   1.989
 7765SOL    HW124194   0.375   1.624   1.916
 7765SOL    HW224195   0.479   1.620   2.042
 7766SOL     OW24196   6.616   3.513   0.149
 7766SOL    HW124197   6.637   3.611   0.154
 7766SOL    HW224198   6.536   3.493   0.206
 7767SOL     OW24199   6.083   3.913   4.987
 7767SOL    HW124200   6.138   3.837   5.021
 7767SOL    HW224201   6.123   3.948   4.903
 7768SOL     OW24202   4.451   5.128   1.416
 7768SOL    HW124203   4.472   5.033   1.392
 7768SOL    HW224204   4.520   5.188   1.375
 7769SOL     OW24205   4.857   1.589   3.730
 7769SOL    HW124206   4.934   1.526   3.727
 7769SOL    HW224207   4.779   1.545   3.775
 7770SOL     OW24208   2.593   6.264   0.884
 7770SOL    HW124209   2.608   6.186   0.945
 7770SOL    HW224210   2.497   6.269   0.860
 7771SOL     OW24211   2.747   0.630   4.394
 7771SOL    HW124212   2.795   0.562   4.450
 7771SOL    HW224213   2.658   0.650   4.435
 7772SOL     OW24214   5.407   0.655   6.367
 7772SOL    HW124215   5.455   0.724   6.420
 7772SOL    HW224216   5.406   0.682   6.271
 7773SOL     OW24217   4.393   4.694   6.023
 7773SOL    HW124218   4.417   4.619   5.961
 7773SOL    HW224219   4.293   4.697   6.035
 7774SOL     OW24220   4.414   1.001   0.691
 7774SOL    HW124221   4.372   0.930   0.634
 7774SOL    HW224222   4.472   1.059   0.635
 7775SOL     OW24223   0.764   6.689   1.499
 7775SOL    HW124224   0.829   6.765   1.500
 7775SOL    HW224225   0.716   6.688   1.412
 7776SOL     OW24226   2.757   4.089   1.065
 7776SOL    HW124227   2.830   4.069   1.000
 7776SOL    HW224228   2.668   4.071   1.022
 7777SOL     OW24229   0.123   0.777   6.836
 7777SOL    HW124230   0.121   0.677   6.828
 7777SOL    HW224231   0.105   0.818   6.746
 7778SOL     OW24232   5.322   2.343   2.913
 7778SOL    HW124233   5.251   2.400   2.871
 7778SOL    HW224234   5.289   2.249   2.920
 7779SOL     OW24235   4.378   2.948   0.162
 7779SOL    HW124236   4.431   3.033   0.161
 7779SOL    HW224237   4.302   2.955   0.097
 7780SOL     OW24238   1.838   0.640   4.058
 7780SOL    HW124239   1.908   0.711   4.069
 7780SOL    HW224240   1.821   0.595   4.145
 7781SOL     OW24241   2.560   4.170   5.558
 7781SOL    HW124242   2.528   4.185   5.464
 7781SOL    HW224243   2.635   4.233   5.578
 7782SOL     OW24244   4.766   4.691   6.676
 7782SOL    HW124245   4.854   4.656   6.706
 7782SOL    HW224246   4.779   4.777   6.627
 7783SOL     OW24247   3.453   6.263   6.685
 7783SOL    HW124248   3.411   6.309   6.763
 7783SOL    HW224249   3.540   6.222   6.714
 7784SOL     OW24250   6.643   3.248   0.167
 7784SOL    HW124251   6.658   3.347   0.171
 7784SOL    HW224252   6.553   3.226   0.205
 7785SOL     OW24253   1.654   6.387   6.316
 7785SOL    HW124254   1.652   6.456   6.245
 7785SOL    HW224255   1.561   6.355   6.334
 7786SOL     OW24256   3.963   3.778   5.356
 7786SOL    HW124257   3.919   3.723   5.286
 7786SOL    HW224258   4.063   3.770   5.347
 7787SOL     OW24259   3.136   2.084   5.189
 7787SOL    HW124260   3.140   2.164   5.128
 7787SOL    HW224261   3.165   2.112   5.281
 7788SOL     OW24262   6.773   2.297   1.384
 7788SOL    HW124263   6.852   2.305   1.445
 7788SOL    HW224264   6.697   2.256   1.434
 7789SOL     OW24265   0.733   0.394   1.767
 7789SOL    HW124266   0.819   0.439   1.743
 7789SOL    HW224267   0.699   0.344   1.688
 7790SOL     OW24268   0.203   3.740   3.065
 7790SOL    HW124269   0.252   3.694   3.140
 7790SOL    HW224270   0.269   3.792   3.010
 7791SOL     OW24271   6.967   5.781   5.976
 7791SOL    HW124272   6.888   5.843   5.975
 7791SOL    HW224273   6.936   5.688   5.995
 7792SOL     OW24274   1.683   6.010   6.573
 7792SOL    HW124275   1.668   5.947   6.650
 7792SOL    HW224276   1.595   6.047   6.542
 7793SOL     OW24277   2.351   0.137   6.406
 7793SOL    HW124278   2.320   0.174   6.319
 7793SOL    HW224279   2.332   0.203   6.479
 7794SOL     OW24280   5.426   4.863   2.380
 7794SOL    HW124281   5.389   4.927   2.448
 7794SOL    HW224282   5.353   4.836   2.317
 7795SOL     OW24283   2.472   4.116   6.409
 7795SOL    HW124284   2.446   4.202   6.365
 7795SOL    HW224285   2.497   4.133   6.504
 7796SOL     OW24286   3.985   3.944   3.731
 7796SOL    HW124287   4.016   3.934   3.637
 7796SOL    HW224288   3.901   3.998   3.733
 7797SOL     OW24289   1.730   6.071   3.973
 7797SOL    HW124290   1.634   6.098   3.962
 7797SOL    HW224291   1.751   5.996   3.911
 7798SOL     OW24292   5.015   5.299   5.787
 7798SOL    HW124293   5.077   5.372   5.759
 7798SOL    HW224294   4.921   5.329   5.775
 7799SOL     OW24295   5.948   5.985   1.244
 7799SOL    HW124296   5.884   6.040   1.297
 7799SOL    HW224297   5.979   6.037   1.164
 7800SOL     OW24298   0.908   6.274   2.614
 7800SOL    HW124299   0.814   6.293   2.641
 7800SOL    HW224300   0.915   6.272   2.514
 7801SOL     OW24301   4.189   2.080   5.388
 7801SOL    HW124302   4.094   2.097   5.413
 7801SOL    HW224303   4.248   2.102   5.466
 7802SOL     OW24304   6.009   2.179   6.646
 7802SOL    HW124305   6.051   2.251   6.701
 7802SOL    HW224306   6.050   2.178   6.555
 7803SOL     OW24307   3.290   3.076   6.873
 7803SOL    HW124308   3.224   3.012   6.834
 7803SOL    HW224309   3.344   3.118   6.799
 7804SOL     OW24310   5.011   1.029   5.662
 7804SOL    HW124311   4.960   0.943   5.671
 7804SOL    HW224312   5.022   1.070   5.753
 7805SOL     OW24313   5.206   3.043   1.838
 7805SOL    HW124314   5.139   3.116   1.822
 7805SOL    HW224315   5.283   3.080   1.891
 7806SOL     OW24316   5.348   2.473   0.306
 7806SOL    HW124317   5.272   2.462   0.241
 7806SOL    HW224318   5.425   2.518   0.259
 7807SOL     OW24319   0.914   4.793   6.689
 7807SOL    HW124320   0.966   4.864   6.737
 7807SOL    HW224321   0.919   4.809   6.590
 7808SOL     OW24322   0.023   1.726   5.031
 7808SOL    HW124323   7.000   1.777   5.101
 7808SOL    HW224324   0.118   1.714   5.059
 7809SOL     OW24325   1.066   5.735   5.849
 7809SOL    HW124326   1.152   5.686   5.860
 7809SOL    HW224327   0.991   5.679   5.885
 7810SOL     OW24328   2.974   1.451   7.019
 7810SOL    HW124329   3.067   1.427   0.018
 7810SOL    HW224330   2.965   1.551   7.014
 7811SOL     OW24331   6.280   4.358   4.998
 7811SOL    HW124332   6.354   4.307   5.042
 7811SOL    HW224333   6.201   4.361   5.059
 7812SOL     OW24334   1.088   1.874   3.802
 7812SOL    HW124335   1.135   1.951   3.844
 7812SOL    HW224336   0.992   1.875   3.827
 7813SOL     OW24337   5.750   1.312   1.524
 7813SOL    HW124338   5.689   1.234   1.534
 7813SOL    HW224339   5.696   1.394   1.502
 7814SOL     OW24340   1.740   3.126   3.797
 7814SOL    HW124341   1.794   3.065   3.740
 7814SOL    HW224342   1.645   3.093   3.802
 7815SOL     OW24343   6.955   2.031   5.411
 7815SOL    HW124344   6.884   2.097   5.434
 7815SOL    HW224345   0.013   2.080   5.391
 7816SOL     OW24346   6.872   4.067   4.557
 7816SOL    HW124347   6.868   3.967   4.549
 7816SOL    HW224348   6.791   4.106   4.513
 7817SOL     OW24349   5.787   2.693   5.767
 7817SOL    HW124350   5.695   2.710   5.803
 7817SOL    HW224351   5.823   2.608   5.805
 7818SOL     OW24352   6.374   2.857   3.552
 7818SOL    HW124353   6.311   2.808   3.491
 7818SOL    HW224354   6.335   2.861   3.644
 7819SOL     OW24355   1.710   1.346   0.654
 7819SOL    HW124356   1.761   1.369   0.737
 7819SOL    HW224357   1.767   1.365   0.574
 7820SOL     OW24358   2.679   6.750   5.389
 7820SOL    HW124359   2.716   6.659   5.408
 7820SOL    HW224360   2.753   6.817   5.391
 7821SOL     OW24361   2.851   5.998   1.293
 7821SOL    HW124362   2.794   6.004   1.375
 7821SOL    HW224363   2.860   6.089   1.252
 7822SOL     OW24364   0.669   6.265   4.923
 7822SOL    HW124365   0.637   6.185   4.872
 7822SOL    HW224366   0.744   6.239   4.983
 7823SOL     OW24367   2.230   3.492   5.925
 7823SOL    HW124368   2.296   3.523   5.856
 7823SOL    HW224369   2.184   3.571   5.965
 7824SOL     OW24370   1.234   3.658   5.376
 7824SOL    HW124371   1.286   3.608   5.308
 7824SOL    HW224372   1.165   3.715   5.331
 7825SOL     OW24373   2.000   0.905   0.115
 7825SOL    HW124374   2.056   0.988   0.118
 7825SOL    HW224375   1.988   0.870   0.208
 7826SOL     OW24376   0.670   4.401   5.809
 7826SOL    HW124377   0.641   4.322   5.863
 7826SOL    HW224378   0.591   4.460   5.790
 7827SOL     OW24379   5.942   4.753   3.434
 7827SOL    HW124380   5.980   4.664   3.458
 7827SOL    HW224381   5.956   4.817   3.509
 7828SOL     OW24382   1.104   5.921   5.613
 7828SOL    HW124383   1.166   5.870   5.553
 7828SOL    HW224384   1.071   5.861   5.686
 7829SOL     OW24385   4.182   4.980   1.187
 7829SOL    HW124386   4.157   4.891   1.150
 7829SOL    HW224387   4.200   4.972   1.285
 7830SOL     OW24388   1.187   5.650   3.936
 7830SOL    HW124389   1.142   5.614   4.017
 7830SOL    HW224390   1.230   5.575   3.885
 7831SOL     OW24391   1.548   0.078   6.557
 7831SOL    HW124392   1.560   0.071   6.656
 7831SOL    HW224393   1.585   0.165   6.525
 7832SOL     OW24394   0.174   0.831   4.999
 7832SOL    HW124395   0.161   0.930   4.996
 7832SOL    HW224396   0.173   0.800   5.094
 7833SOL     OW24397   1.022   0.240   2.528
 7833SOL    HW124398   0.988   0.288   2.610
 7833SOL    HW224399   1.113   0.203   2.547
 7834SOL     OW24400   0.937   3.478   4.796
 7834SOL    HW124401   0.852   3.513   4.835
 7834SOL    HW224402   0.967   3.398   4.848
 7835SOL     OW24403   2.855   3.064   5.708
 7835SOL    HW124404   2.810   2.977   5.685
 7835SOL    HW224405   2.908   3.096   5.629
 7836SOL     OW24406   3.074   3.552   4.895
 7836SOL    HW124407   3.140   3.531   4.823
 7836SOL    HW224408   2.989   3.503   4.877
 7837SOL     OW24409   0.508   5.787   0.488
 7837SOL    HW124410   0.471   5.878   0.502
 7837SOL    HW224411   0.593   5.793   0.436
 7838SOL     OW24412   3.825   4.521   0.841
 7838SOL    HW124413   3.847   4.611   0.879
 7838SOL    HW224414   3.873   4.450   0.894
 7839SOL     OW24415   6.217   3.906   4.379
 7839SOL    HW124416   6.186   3.844   4.451
 7839SOL    HW224417   6.140   3.926   4.318
 7840SOL     OW24418   2.479   2.401   3.439
 7840SOL    HW124419   2.449   2.496   3.428
 7840SOL    HW224420   2.555   2.397   3.503
 7841SOL     OW24421   3.850   2.466   6.374
 7841SOL    HW124422   3.931   2.412   6.351
 7841SOL    HW224423   3.782   2.456   6.301
 7842SOL     OW24424   0.870   0.271   0.958
 7842SOL    HW124425   0.917   0.197   0.909
 7842SOL    HW224426   0.799   0.232   1.016
 7843SOL     OW24427   6.619   5.790   2.226
 7843SOL    HW124428   6.638   5.699   2.186
 7843SOL    HW224429   6.671   5.800   2.311
 7844SOL     OW24430   2.789   6.574   2.203
 7844SOL    HW124431   2.824   6.628   2.126
 7844SOL    HW224432   2.830   6.606   2.288
 7845SOL     OW24433   6.934   2.995   2.175
 7845SOL    HW124434   6.989   2.958   2.249
 7845SOL    HW224435   6.850   2.941   2.165
 7846SOL     OW24436   0.323   2.125   0.399
 7846SOL    HW124437   0.353   2.098   0.491
 7846SOL    HW224438   0.402   2.153   0.345
 7847SOL     OW24439   5.929   3.394   5.513
 7847SOL    HW124440   5.966   3.302   5.521
 7847SOL    HW224441   5.849   3.403   5.573
 7848SOL     OW24442   5.034   5.121   0.099
 7848SOL    HW124443   4.960   5.163   0.152
 7848SOL    HW224444   5.118   5.173   0.112
 7849SOL     OW24445   4.802   5.709   6.604
 7849SOL    HW124446   4.713   5.754   6.598
 7849SOL    HW224447   4.805   5.651   6.686
 7850SOL     OW24448   6.987   1.093   3.545
 7850SOL    HW124449   0.057   1.074   3.525
 7850SOL    HW224450   6.964   1.054   3.634
 7851SOL     OW24451   1.145   3.892   0.497
 7851SOL    HW124452   1.101   3.840   0.424
 7851SOL    HW224453   1.132   3.990   0.480
 7852SOL     OW24454   1.295   3.266   5.600
 7852SOL    HW124455   1.295   3.186   5.540
 7852SOL    HW224456   1.205   3.275   5.643
 7853SOL     OW24457   4.311   2.940   1.691
 7853SOL    HW124458   4.262   2.854   1.677
 7853SOL    HW224459   4.399   2.936   1.643
 7854SOL     OW24460   4.156   1.255   1.692
 7854SOL    HW124461   4.219   1.227   1.619
 7854SOL    HW224462   4.149   1.355   1.694
 7855SOL     OW24463   5.354   5.875   3.291
 7855SOL    HW124464   5.399   5.932   3.360
 7855SOL    HW224465   5.287   5.929   3.241
 7856SOL     OW24466   2.180   6.194   6.346
 7856SOL    HW124467   2.124   6.144   6.412
 7856SOL    HW224468   2.276   6.167   6.355
 7857SOL     OW24469   6.974   4.725   0.414
 7857SOL    HW124470   6.875   4.716   0.409
 7857SOL    HW224471   7.016   4.648   0.364
 7858SOL     OW24472   0.448   4.225   6.916
 7858SOL    HW124473   0.410   4.154   6.856
 7858SOL    HW224474   0.547   4.229   6.903
 7859SOL     OW24475   4.761   2.248   1.486
 7859SOL    HW124476   4.808   2.174   1.438
 7859SOL    HW224477   4.700   2.209   1.555
 7860SOL     OW24478   2.691   1.448   2.899
 7860SOL    HW124479   2.744   1.401   2.969
 7860SOL    HW224480   2.701   1.402   2.812
 7861SOL     OW24481   1.881   5.478   0.365
 7861SOL    HW124482   1.934   5.557   0.397
 7861SOL    HW224483   1.788   5.484   0.399
 7862SOL     OW24484   0.813   0.579   6.852
 7862SOL    HW124485   0.904   0.543   6.829
 7862SOL    HW224486   0.769   0.519   6.919
 7863SOL     OW24487   0.782   5.188   3.948
 7863SOL    HW124488   0.800   5.147   4.037
 7863SOL    HW224489   0.685   5.178   3.925
 7864SOL     OW24490   3.113   5.779   4.983
 7864SOL    HW124491   3.176   5.819   5.050
 7864SOL    HW224492   3.029   5.832   4.981
 7865SOL     OW24493   6.121   5.529   4.058
 7865SOL    HW124494   6.220   5.532   4.069
 7865SOL    HW224495   6.096   5.572   3.971
 7866SOL     OW24496   1.049   1.355   5.343
 7866SOL    HW124497   1.109   1.425   5.305
 7866SOL    HW224498   1.046   1.364   5.443
 7867SOL     OW24499   4.562   6.135   2.025
 7867SOL    HW124500   4.520   6.131   2.116
 7867SOL    HW224501   4.628   6.211   2.022
 7868SOL     OW24502   3.842   5.962   1.639
 7868SOL    HW124503   3.851   5.933   1.543
 7868SOL    HW224504   3.934   5.978   1.677
 7869SOL     OW24505   5.576   4.854   0.084
 7869SOL    HW124506   5.620   4.886   0.168
 7869SOL    HW224507   5.611   4.907   0.007
 7870SOL     OW24508   6.796   0.837   3.155
 7870SOL    HW124509   6.844   0.778   3.219
 7870SOL    HW224510   6.705   0.857   3.190
 7871SOL     OW24511   5.065   0.454   0.650
 7871SOL    HW124512   4.996   0.475   0.720
 7871SOL    HW224513   5.019   0.439   0.562
 7872SOL     OW24514   6.246   5.298   3.678
 7872SOL    HW124515   6.277   5.298   3.773
 7872SOL    HW224516   6.303   5.361   3.625
 7873SOL     OW24517   5.107   2.462   6.508
 7873SOL    HW124518   5.017   2.424   6.487
 7873SOL    HW224519   5.103   2.510   6.596
 7874SOL     OW24520   6.304   2.207   1.034
 7874SOL    HW124521   6.379   2.141   1.045
 7874SOL    HW224522   6.275   2.208   0.938
 7875SOL     OW24523   6.656   5.011   0.186
 7875SOL    HW124524   6.602   5.074   0.129
 7875SOL    HW224525   6.676   4.928   0.134
 7876SOL     OW24526   1.192   6.575   2.817
 7876SOL    HW124527   1.216   6.478   2.811
 7876SOL    HW224528   1.256   6.628   2.761
 7877SOL     OW24529   1.285   2.900   1.834
 7877SOL    HW124530   1.266   2.848   1.752
 7877SOL    HW224531   1.201   2.911   1.887
 7878SOL     OW24532   3.934   0.823   2.551
 7878SOL    HW124533   4.027   0.788   2.559
 7878SOL    HW224534   3.933   0.899   2.486
 7879SOL     OW24535   2.395   6.031   1.745
 7879SOL    HW124536   2.311   5.976   1.754
 7879SOL    HW224537   2.419   6.039   1.648
 7880SOL     OW24538   1.520   4.733   2.908
 7880SOL    HW124539   1.564   4.654   2.864
 7880SOL    HW224540   1.574   4.815   2.889
 7881SOL     OW24541   4.655   2.665   3.104
 7881SOL    HW124542   4.648   2.704   3.012
 7881SOL    HW224543   4.716   2.586   3.102
 7882SOL     OW24544   0.243   2.697   0.176
 7882SOL    HW124545   0.147   2.677   0.196
 7882SOL    HW224546   0.301   2.628   0.219
 7883SOL     OW24547   0.367   0.306   4.429
 7883SOL    HW124548   0.324   0.359   4.502
 7883SOL    HW224549   0.358   0.208   4.449
 7884SOL     OW24550   1.158   2.759   4.146
 7884SOL    HW124551   1.144   2.714   4.058
 7884SOL    HW224552   1.225   2.833   4.136
 7885SOL     OW24553   6.244   6.411   0.407
 7885SOL    HW124554   6.271   6.324   0.366
 7885SOL    HW224555   6.278   6.486   0.350
 7886SOL     OW24556   4.876   3.303   0.259
 7886SOL    HW124557   4.862   3.337   0.352
 7886SOL    HW224558   4.931   3.370   0.208
 7887SOL     OW24559   4.193   1.751   6.415
 7887SOL    HW124560   4.171   1.676   6.478
 7887SOL    HW224561   4.118   1.762   6.349
 7888SOL     OW24562   4.272   6.235   4.278
 7888SOL    HW124563   4.344   6.227   4.346
 7888SOL    HW224564   4.243   6.143   4.250
 7889SOL     OW24565   6.038   4.520   3.487
 7889SOL    HW124566   6.057   4.470   3.403
 7889SOL    HW224567   6.121   4.567   3.517
 7890SOL     OW24568   2.129   4.380   3.250
 7890SOL    HW124569   2.065   4.418   3.317
 7890SOL    HW224570   2.217   4.362   3.294
 7891SOL     OW24571   6.983   4.368   2.469
 7891SOL    HW124572   6.996   4.419   2.554
 7891SOL    HW224573   6.952   4.275   2.489
 7892SOL     OW24574   2.430   2.563   4.528
 7892SOL    HW124575   2.468   2.506   4.455
 7892SOL    HW224576   2.415   2.656   4.494
 7893SOL     OW24577   5.052   6.210   1.519
 7893SOL    HW124578   5.120   6.214   1.446
 7893SOL    HW224579   5.041   6.301   1.559
 7894SOL     OW24580   2.852   0.089   0.938
 7894SOL    HW124581   2.763   0.048   0.956
 7894SOL    HW224582   2.883   0.139   1.018
 7895SOL     OW24583   1.086   1.591   4.849
 7895SOL    HW124584   1.064   1.524   4.920
 7895SOL    HW224585   1.002   1.615   4.799
 7896SOL     OW24586   3.937   1.823   0.496
 7896SOL    HW124587   3.870   1.784   0.434
 7896SOL    HW224588   3.972   1.909   0.459
 7897SOL     OW24589   3.109   3.969   0.536
 7897SOL    HW124590   3.192   3.918   0.513
 7897SOL    HW224591   3.084   3.950   0.631
 7898SOL     OW24592   5.392   1.077   4.434
 7898SOL    HW124593   5.460   1.003   4.430
 7898SOL    HW224594   5.307   1.042   4.472
 7899SOL     OW24595   4.710   0.801   1.822
 7899SOL    HW124596   4.741   0.772   1.913
 7899SOL    HW224597   4.730   0.898   1.810
 7900SOL     OW24598   0.625   5.746   1.265
 7900SOL    HW124599   0.604   5.831   1.314
 7900SOL    HW224600   0.701   5.763   1.201
 7901SOL     OW24601   5.429   4.995   1.525
 7901SOL    HW124602   5.512   4.939   1.528
 7901SOL    HW224603   5.403   5.011   1.430
 7902SOL     OW24604   4.526   5.153   6.283
 7902SOL    HW124605   4.505   5.060   6.316
 7902SOL    HW224606   4.442   5.206   6.277
 7903SOL     OW24607   1.484   2.247   2.075
 7903SOL    HW124608   1.384   2.240   2.079
 7903SOL    HW224609   1.522   2.163   2.037
 7904SOL     OW24610   5.550   1.706   3.454
 7904SOL    HW124611   5.457   1.672   3.465
 7904SOL    HW224612   5.611   1.657   3.517
 7905SOL     OW24613   2.864   2.390   1.642
 7905SOL    HW124614   2.789   2.328   1.664
 7905SOL    HW224615   2.902   2.426   1.727
 7906SOL     OW24616   1.765   3.966   6.636
 7906SOL    HW124617   1.690   3.970   6.702
 7906SOL    HW224618   1.792   3.871   6.621
 7907SOL     OW24619   0.535   3.015   3.173
 7907SOL    HW124620   0.631   3.009   3.145
 7907SOL    HW224621   0.477   3.006   3.092
 7908SOL     OW24622   1.079   0.699   3.158
 7908SOL    HW124623   1.115   0.778   3.207
 7908SOL    HW224624   1.001   0.726   3.101
 7909SOL     OW24625   3.651   5.567   5.248
 7909SOL    HW124626   3.691   5.507   5.179
 7909SOL    HW224627   3.552   5.570   5.235
 7910SOL     OW24628   6.503   3.003   5.741
 7910SOL    HW124629   6.547   3.065   5.805
 7910SOL    HW224630   6.438   2.945   5.789
 7911SOL     OW24631   6.843   6.189   6.886
 7911SOL    HW124632   6.898   6.127   6.830
 7911SOL    HW224633   6.899   6.268   6.913
 7912SOL     OW24634   6.509   4.955   5.306
 7912SOL    HW124635   6.557   4.922   5.224
 7912SOL    HW224636   6.576   4.983   5.374
 7913SOL     OW24637   1.956   6.078   6.470
 7913SOL    HW124638   1.909   6.026   6.540
 7913SOL    HW224639   1.962   6.024   6.386
 7914SOL     OW24640   5.992   4.289   1.163
 7914SOL    HW124641   6.025   4.300   1.257
 7914SOL    HW224642   5.893   4.301   1.161
 7915SOL     OW24643   3.185   0.996   3.062
 7915SOL    HW124644   3.127   1.075   3.043
 7915SOL    HW224645   3.132   0.912   3.050
 7916SOL     OW24646   3.469   3.306   5.467
 7916SOL    HW124647   3.408   3.232   5.496
 7916SOL    HW224648   3.507   3.283   5.377
 7917SOL     OW24649   3.774   4.123   3.754
 7917SOL    HW124650   3.841   4.191   3.785
 7917SOL    HW224651   3.696   4.122   3.817
 7918SOL     OW24652   6.218   2.120   1.861
 7918SOL    HW124653   6.155   2.122   1.784
 7918SOL    HW224654   6.182   2.060   1.933
 7919SOL     OW24655   5.643   3.397   2.659
 7919SOL    HW124656   5.657   3.410   2.757
 7919SOL    HW224657   5.701   3.322   2.626
 7920SOL     OW24658   0.246   6.392   0.689
 7920SOL    HW124659   0.339   6.400   0.725
 7920SOL    HW224660   0.189   6.465   0.725
 7921SOL     OW24661   3.440   5.061   1.943
 7921SOL    HW124662   3.341   5.049   1.940
 7921SOL    HW224663   3.485   4.972   1.945
 7922SOL     OW24664   1.264   4.100   4.358
 7922SOL    HW124665   1.333   4.030   4.376
 7922SOL    HW224666   1.192   4.094   4.427
 7923SOL     OW24667   1.763   3.327   2.033
 7923SOL    HW124668   1.826   3.250   2.033
 7923SOL    HW224669   1.687   3.308   2.095
 7924SOL     OW24670   2.724   2.116   3.731
 7924SOL    HW124671   2.738   2.213   3.752
 7924SOL    HW224672   2.767   2.094   3.644
 7925SOL     OW24673   1.296   1.851   0.468
 7925SOL    HW124674   1.248   1.931   0.503
 7925SOL    HW224675   1.390   1.875   0.446
 7926SOL     OW24676   3.526   0.646   1.715
 7926SOL    HW124677   3.436   0.679   1.742
 7926SOL    HW224678   3.518   0.552   1.681
 7927SOL     OW24679   4.633   4.903   4.462
 7927SOL    HW124680   4.544   4.920   4.419
 7927SOL    HW224681   4.626   4.824   4.522
 7928SOL     OW24682   1.157   4.217   1.511
 7928SOL    HW124683   1.097   4.275   1.565
 7928SOL    HW224684   1.107   4.135   1.483
 7929SOL     OW24685   3.680   3.631   4.931
 7929SOL    HW124686   3.585   3.613   4.957
 7929SOL    HW224687   3.720   3.549   4.890
 7930SOL     OW24688   3.405   0.109   1.867
 7930SOL    HW124689   3.501   0.130   1.880
 7930SOL    HW224690   3.349   0.187   1.896
 7931SOL     OW24691   2.315   3.034   5.400
 7931SOL    HW124692   2.382   3.031   5.326
 7931SOL    HW224693   2.362   3.024   5.488
 7932SOL     OW24694   2.713   1.935   0.943
 7932SOL    HW124695   2.625   1.895   0.916
 7932SOL    HW224696   2.775   1.935   0.865
 7933SOL     OW24697   1.646   1.077   5.949
 7933SOL    HW124698   1.609   1.035   5.866
 7933SOL    HW224699   1.727   1.027   5.979
 7934SOL     OW24700   4.133   2.368   5.688
 7934SOL    HW124701   4.119   2.330   5.779
 7934SOL    HW224702   4.159   2.465   5.697
 7935SOL     OW24703   4.650   5.134   2.469
 7935SOL    HW124704   4.563   5.182   2.470
 7935SOL    HW224705   4.700   5.156   2.385
 7936SOL     OW24706   4.231   6.085   1.901
 7936SOL    HW124707   4.283   6.053   1.821
 7936SOL    HW224708   4.243   6.020   1.976
 7937SOL     OW24709   5.638   1.922   6.455
 7937SOL    HW124710   5.678   1.967   6.375
 7937SOL    HW224711   5.595   1.991   6.514
 7938SOL     OW24712   6.387   4.296   4.336
 7938SOL    HW124713   6.302   4.245   4.351
 7938SOL    HW224714   6.374   4.391   4.363
 7939SOL     OW24715   5.921   5.586   4.236
 7939SOL    HW124716   5.984   5.572   4.159
 7939SOL    HW224717   5.928   5.510   4.299
 7940SOL     OW24718   2.259   5.820   0.289
 7940SOL    HW124719   2.290   5.884   0.360
 7940SOL    HW224720   2.295   5.848   0.200
 7941SOL     OW24721   0.954   0.512   1.652
 7941SOL    HW124722   1.020   0.572   1.698
 7941SOL    HW224723   0.956   0.530   1.554
 7942SOL     OW24724   0.670   6.693   1.240
 7942SOL    HW124725   0.571   6.683   1.230
 7942SOL    HW224726   0.716   6.624   1.185
 7943SOL     OW24727   6.326   2.733   6.431
 7943SOL    HW124728   6.411   2.751   6.479
 7943SOL    HW224729   6.340   2.743   6.332
 7944SOL     OW24730   6.326   3.831   1.939
 7944SOL    HW124731   6.321   3.785   1.851
 7944SOL    HW224732   6.266   3.911   1.938
 7945SOL     OW24733   6.138   6.443   0.091
 7945SOL    HW124734   6.155   6.516   0.025
 7945SOL    HW224735   6.040   6.431   0.103
 7946SOL     OW24736   1.825   1.247   5.423
 7946SOL    HW124737   1.760   1.258   5.348
 7946SOL    HW224738   1.811   1.319   5.491
 7947SOL     OW24739   3.249   5.218   6.504
 7947SOL    HW124740   3.186   5.236   6.581
 7947SOL    HW224741   3.334   5.180   6.539
 7948SOL     OW24742   1.443   4.281   4.464
 7948SOL    HW124743   1.371   4.234   4.414
 7948SOL    HW224744   1.515   4.309   4.401
 7949SOL     OW24745   0.247   3.658   4.373
 7949SOL    HW124746   0.191   3.712   4.436
 7949SOL    HW224747   0.344   3.676   4.391
 7950SOL     OW24748   3.041   5.773   2.977
 7950SOL    HW124749   2.958   5.721   2.994
 7950SOL    HW224750   3.019   5.854   2.922
 7951SOL     OW24751   2.328   3.878   0.357
 7951SOL    HW124752   2.247   3.871   0.415
 7951SOL    HW224753   2.397   3.812   0.387
 7952SOL     OW24754   6.213   3.602   0.612
 7952SOL    HW124755   6.203   3.558   0.701
 7952SOL    HW224756   6.307   3.594   0.581
 7953SOL     OW24757   1.988   4.266   1.494
 7953SOL    HW124758   1.913   4.295   1.434
 7953SOL    HW224759   1.997   4.167   1.489
 7954SOL     OW24760   5.986   5.365   3.817
 7954SOL    HW124761   5.950   5.455   3.840
 7954SOL    HW224762   6.073   5.374   3.769
 7955SOL     OW24763   1.432   6.076   6.448
 7955SOL    HW124764   1.459   6.065   6.352
 7955SOL    HW224765   1.411   6.172   6.466
 7956SOL     OW24766   5.312   6.264   3.462
 7956SOL    HW124767   5.362   6.271   3.375
 7956SOL    HW224768   5.224   6.311   3.453
 7957SOL     OW24769   0.754   3.096   1.508
 7957SOL    HW124770   0.676   3.149   1.541
 7957SOL    HW224771   0.811   3.153   1.450
 7958SOL     OW24772   1.922   5.601   3.222
 7958SOL    HW124773   1.973   5.572   3.141
 7958SOL    HW224774   1.838   5.647   3.195
 7959SOL     OW24775   4.562   4.083   0.881
 7959SOL    HW124776   4.645   4.135   0.862
 7959SOL    HW224777   4.577   3.987   0.860
 7960SOL     OW24778   1.735   2.139   1.382
 7960SOL    HW124779   1.707   2.230   1.414
 7960SOL    HW224780   1.777   2.147   1.292
 7961SOL     OW24781   1.353   6.525   0.262
 7961SOL    HW124782   1.273   6.562   0.310
 7961SOL    HW224783   1.432   6.526   0.324
 7962SOL     OW24784   1.145   6.926   2.446
 7962SOL    HW124785   1.078   6.894   2.379
 7962SOL    HW224786   1.098   6.969   2.523
 7963SOL     OW24787   0.242   6.308   6.386
 7963SOL    HW124788   0.198   6.297   6.297
 7963SOL    HW224789   0.327   6.256   6.389
 7964SOL     OW24790   6.250   5.054   3.548
 7964SOL    HW124791   6.190   4.980   3.576
 7964SOL    HW224792   6.229   5.136   3.602
 7965SOL     OW24793   3.537   1.971   1.331
 7965SOL    HW124794   3.500   2.036   1.397
 7965SOL    HW224795   3.466   1.906   1.304
 7966SOL     OW24796   0.175   1.313   4.049
 7966SOL    HW124797   0.191   1.375   3.973
 7966SOL    HW224798   0.090   1.263   4.034
 7967SOL     OW24799   1.919   0.099   4.293
 7967SOL    HW124800   1.890   0.019   4.240
 7967SOL    HW224801   1.872   0.180   4.258
 7968SOL     OW24802   2.317   1.504   6.950
 7968SOL    HW124803   2.235   1.456   6.919
 7968SOL    HW224804   2.303   1.537   0.017
 7969SOL     OW24805   4.116   2.077   3.526
 7969SOL    HW124806   4.167   2.083   3.612
 7969SOL    HW224807   4.033   2.022   3.540
 7970SOL     OW24808   0.491   4.706   2.993
 7970SOL    HW124809   0.464   4.802   2.999
 7970SOL    HW224810   0.576   4.698   2.940
 7971SOL     OW24811   3.809   1.880   3.134
 7971SOL    HW124812   3.791   1.933   3.052
 7971SOL    HW224813   3.734   1.892   3.199
 7972SOL     OW24814   5.070   5.257   1.108
 7972SOL    HW124815   5.119   5.292   1.187
 7972SOL    HW224816   4.978   5.296   1.105
 7973SOL     OW24817   5.942   1.906   3.190
 7973SOL    HW124818   5.923   1.963   3.270
 7973SOL    HW224819   5.861   1.903   3.132
 7974SOL     OW24820   4.346   6.426   4.846
 7974SOL    HW124821   4.321   6.352   4.909
 7974SOL    HW224822   4.384   6.387   4.763
 7975SOL     OW24823   1.921   0.980   2.133
 7975SOL    HW124824   1.882   1.051   2.074
 7975SOL    HW224825   1.906   0.891   2.092
 7976SOL     OW24826   0.106   6.350   6.129
 7976SOL    HW124827   0.095   6.444   6.099
 7976SOL    HW224828   0.102   6.289   6.050
 7977SOL     OW24829   5.571   6.260   1.535
 7977SOL    HW124830   5.593   6.352   1.569
 7977SOL    HW224831   5.648   6.224   1.484
 7978SOL     OW24832   3.410   1.386   6.057
 7978SOL    HW124833   3.347   1.321   6.015
 7978SOL    HW224834   3.415   1.469   6.002
 7979SOL     OW24835   4.596   5.593   4.479
 7979SOL    HW124836   4.558   5.521   4.422
 7979SOL    HW224837   4.564   5.682   4.446
 7980SOL     OW24838   2.617   0.952   1.191
 7980SOL    HW124839   2.542   0.911   1.243
 7980SOL    HW224840   2.583   0.982   1.101
 7981SOL     OW24841   0.556   6.592   2.822
 7981SOL    HW124842   0.633   6.599   2.759
 7981SOL    HW224843   0.589   6.599   2.916
 7982SOL     OW24844   0.158   2.452   1.368
 7982SOL    HW124845   0.112   2.374   1.410
 7982SOL    HW224846   0.257   2.444   1.383
 7983SOL     OW24847   5.386   2.107   1.426
 7983SOL    HW124848   5.311   2.080   1.486
 7983SOL    HW224849   5.376   2.204   1.402
 7984SOL     OW24850   5.753   1.049   6.800
 7984SOL    HW124851   5.809   0.973   6.834
 7984SOL    HW224852   5.658   1.034   6.826
 7985SOL     OW24853   0.329   1.743   0.898
 7985SOL    HW124854   0.282   1.831   0.888
 7985SOL    HW224855   0.424   1.753   0.871
 7986SOL     OW24856   4.869   3.939   0.356
 7986SOL    HW124857   4.934   3.869   0.384
 7986SOL    HW224858   4.911   4.029   0.365
 7987SOL     OW24859   1.244   4.139   5.519
 7987SOL    HW124860   1.222   4.171   5.427
 7987SOL    HW224861   1.245   4.040   5.522
 7988SOL     OW24862   2.306   1.156   5.012
 7988SOL    HW124863   2.354   1.224   5.068
 7988SOL    HW224864   2.373   1.106   4.957
 7989SOL     OW24865   2.560   3.404   0.089
 7989SOL    HW124866   2.555   3.363   0.180
 7989SOL    HW224867   2.649   3.447   0.076
 7990SOL     OW24868   2.217   3.011   4.574
 7990SOL    HW124869   2.278   2.958   4.633
 7990SOL    HW224870   2.194   3.097   4.619
 7991SOL     OW24871   2.469   2.955   5.892
 7991SOL    HW124872   2.531   3.033   5.897
 7991SOL    HW224873   2.513   2.880   5.843
 7992SOL     OW24874   2.698   1.391   6.978
 7992SOL    HW124875   2.649   1.435   6.903
 7992SOL    HW224876   2.795   1.415   6.973
 7993SOL     OW24877   3.484   5.519   6.326
 7993SOL    HW124878   3.548   5.445   6.348
 7993SOL    HW224879   3.467   5.573   6.409
 7994SOL     OW24880   5.784   0.275   4.657
 7994SOL    HW124881   5.728   0.340   4.605
 7994SOL    HW224882   5.799   0.193   4.602
 7995SOL     OW24883   4.105   5.338   2.236
 7995SOL    HW124884   4.036   5.405   2.207
 7995SOL    HW224885   4.070   5.245   2.221
 7996SOL     OW24886   4.550   2.048   5.401
 7996SOL    HW124887   4.504   2.114   5.342
 7996SOL    HW224888   4.618   2.095   5.457
 7997SOL     OW24889   5.145   3.416   1.012
 7997SOL    HW124890   5.085   3.337   1.010
 7997SOL    HW224891   5.112   3.485   0.948
 7998SOL     OW24892   6.735   5.588   0.216
 7998SOL    HW124893   6.646   5.633   0.229
 7998SOL    HW224894   6.737   5.542   0.128
 7999SOL     OW24895   3.137   2.190   5.948
 7999SOL    HW124896   3.223   2.241   5.953
 7999SOL    HW224897   3.157   2.095   5.924
 8000SOL     OW24898   5.407   0.334   5.196
 8000SOL    HW124899   5.415   0.325   5.097
 8000SOL    HW224900   5.360   0.253   5.232
 8001SOL     OW24901   3.070   4.541   1.219
 8001SOL    HW124902   3.005   4.483   1.170
 8001SOL    HW224903   3.141   4.484   1.261
 8002SOL     OW24904   4.324   2.191   5.606
 8002SOL    HW124905   4.402   2.238   5.565
 8002SOL    HW224906   4.270   2.255   5.660
 8003SOL     OW24907   5.068   5.737   3.309
 8003SOL    HW124908   5.122   5.814   3.343
 8003SOL    HW224909   5.107   5.704   3.223
 8004SOL     OW24910   1.796   5.095   3.537
 8004SOL    HW124911   1.789   5.016   3.477
 8004SOL    HW224912   1.891   5.107   3.567
 8005SOL     OW24913   2.565   0.804   2.380
 8005SOL    HW124914   2.552   0.756   2.293
 8005SOL    HW224915   2.475   0.827   2.419
 8006SOL     OW24916   5.092   5.591   3.039
 8006SOL    HW124917   5.018   5.649   3.004
 8006SOL    HW224918   5.072   5.495   3.018
 8007SOL     OW24919   0.836   1.310   3.351
 8007SOL    HW124920   0.789   1.327   3.438
 8007SOL    HW224921   0.860   1.397   3.308
 8008SOL     OW24922   6.535   4.923   0.890
 8008SOL    HW124923   6.576   4.857   0.953
 8008SOL    HW224924   6.489   4.874   0.816
 8009SOL     OW24925   6.656   6.226   3.253
 8009SOL    HW124926   6.602   6.168   3.314
 8009SOL    HW224927   6.595   6.283   3.199
 8010SOL     OW24928   2.059   1.680   6.065
 8010SOL    HW124929   2.038   1.774   6.039
 8010SOL    HW224930   2.139   1.678   6.124
 8011SOL     OW24931   2.047   3.189   0.460
 8011SOL    HW124932   1.958   3.193   0.414
 8011SOL    HW224933   2.063   3.096   0.494
 8012SOL     OW24934   1.822   5.478   3.458
 8012SOL    HW124935   1.881   5.514   3.386
 8012SOL    HW224936   1.878   5.438   3.531
 8013SOL     OW24937   6.342   5.782   4.006
 8013SOL    HW124938   6.264   5.830   3.968
 8013SOL    HW224939   6.416   5.779   3.939
 8014SOL     OW24940   2.380   0.430   6.043
 8014SOL    HW124941   2.320   0.488   5.989
 8014SOL    HW224942   2.463   0.408   5.991
 8015SOL     OW24943   2.153   1.012   0.868
 8015SOL    HW124944   2.133   0.946   0.796
 8015SOL    HW224945   2.250   1.009   0.890
 8016SOL     OW24946   4.660   5.223   1.797
 8016SOL    HW124947   4.746   5.273   1.790
 8016SOL    HW224948   4.596   5.257   1.729
 8017SOL     OW24949   6.258   3.075   4.530
 8017SOL    HW124950   6.179   3.038   4.481
 8017SOL    HW224951   6.232   3.161   4.575
 8018SOL     OW24952   4.970   3.259   3.448
 8018SOL    HW124953   5.022   3.236   3.366
 8018SOL    HW224954   4.889   3.201   3.454
 8019SOL     OW24955   3.883   5.067   1.403
 8019SOL    HW124956   3.959   5.131   1.393
 8019SOL    HW224957   3.797   5.117   1.403
 8020SOL     OW24958   5.965   6.365   6.695
 8020SOL    HW124959   5.982   6.459   6.723
 8020SOL    HW224960   5.871   6.357   6.660
 8021SOL     OW24961   6.470   1.356   2.765
 8021SOL    HW124962   6.379   1.316   2.758
 8021SOL    HW224963   6.499   1.357   2.860
 8022SOL     OW24964   6.025   4.783   3.930
 8022SOL    HW124965   6.101   4.815   3.987
 8022SOL    HW224966   5.994   4.694   3.963
 8023SOL     OW24967   6.915   5.382   3.368
 8023SOL    HW124968   6.961   5.392   3.457
 8023SOL    HW224969   6.834   5.440   3.366
 8024SOL     OW24970   4.907   6.009   3.852
 8024SOL    HW124971   4.919   5.972   3.760
 8024SOL    HW224972   4.814   5.989   3.884
 8025SOL     OW24973   2.356   6.065   7.010
 8025SOL    HW124974   2.312   5.992   6.958
 8025SOL    HW224975   2.299   6.089   0.062
 8026SOL     OW24976   3.012   2.256   0.219
 8026SOL    HW124977   2.912   2.250   0.216
 8026SOL    HW224978   3.045   2.297   0.134
 8027SOL     OW24979   4.297   3.464   5.795
 8027SOL    HW124980   4.259   3.375   5.817
 8027SOL    HW224981   4.395   3.465   5.815
 8028SOL     OW24982   6.044   4.622   1.483
 8028SOL    HW124983   6.092   4.703   1.451
 8028SOL    HW224984   6.070   4.544   1.426
 8029SOL     OW24985   3.293   4.310   6.023
 8029SOL    HW124986   3.341   4.278   5.941
 8029SOL    HW224987   3.345   4.285   6.104
 8030SOL     OW24988   0.579   3.878   2.021
 8030SOL    HW124989   0.664   3.872   2.072
 8030SOL    HW224990   0.521   3.799   2.043
 8031SOL     OW24991   3.879   6.044   0.504
 8031SOL    HW124992   3.811   6.060   0.432
 8031SOL    HW224993   3.835   6.053   0.594
 8032SOL     OW24994   4.424   3.415   5.321
 8032SOL    HW124995   4.494   3.389   5.388
 8032SOL    HW224996   4.424   3.514   5.309
 8033SOL     OW24997   5.550   1.228   2.557
 8033SOL    HW124998   5.641   1.192   2.535
 8033SOL    HW224999   5.521   1.290   2.485
 8034SOL     OW25000   6.853   2.500   5.928
 8034SOL    HW125001   6.796   2.455   5.997
 8034SOL    HW225002   6.797   2.564   5.876
 8035SOL     OW25003   6.045   5.902   6.797
 8035SOL    HW125004   6.030   5.988   6.749
 8035SOL    HW225005   6.003   5.827   6.745
 8036SOL     OW25006   0.980   3.340   1.535
 8036SOL    HW125007   0.905   3.355   1.599
 8036SOL    HW225008   0.943   3.330   1.442
 8037SOL     OW25009   1.649   3.136   1.424
 8037SOL    HW125010   1.575   3.193   1.389
 8037SOL    HW225011   1.736   3.184   1.414
 8038SOL     OW25012   5.722   0.596   3.727
 8038SOL    HW125013   5.752   0.540   3.804
 8038SOL    HW225014   5.623   0.610   3.733
 8039SOL     OW25015   2.267   5.654   3.641
 8039SOL    HW125016   2.314   5.663   3.553
 8039SOL    HW225017   2.324   5.600   3.703
 8040SOL     OW25018   6.255   6.277   5.943
 8040SOL    HW125019   6.230   6.279   6.040
 8040SOL    HW225020   6.196   6.339   5.892
 8041SOL     OW25021   3.303   2.868   0.885
 8041SOL    HW125022   3.265   2.814   0.810
 8041SOL    HW225023   3.375   2.816   0.931
 8042SOL     OW25024   1.585   4.799   0.140
 8042SOL    HW125025   1.531   4.749   0.208
 8042SOL    HW225026   1.679   4.765   0.141
 8043SOL     OW25027   3.170   0.677   1.240
 8043SOL    HW125028   3.253   0.622   1.229
 8043SOL    HW225029   3.107   0.630   1.302
 8044SOL     OW25030   3.068   2.629   1.009
 8044SOL    HW125031   3.021   2.549   1.047
 8044SOL    HW225032   3.042   2.710   1.062
 8045SOL     OW25033   5.543   2.648   4.228
 8045SOL    HW125034   5.582   2.584   4.162
 8045SOL    HW225035   5.568   2.741   4.202
 8046SOL     OW25036   6.339   5.166   5.265
 8046SOL    HW125037   6.325   5.208   5.354
 8046SOL    HW225038   6.417   5.103   5.270
 8047SOL     OW25039   3.089   6.712   4.201
 8047SOL    HW125040   3.101   6.783   4.271
 8047SOL    HW225041   3.103   6.752   4.111
 8048SOL     OW25042   5.290   0.131   5.409
 8048SOL    HW125043   5.376   0.091   5.442
 8048SOL    HW225044   5.273   0.217   5.457
 8049SOL     OW25045   2.560   6.397   6.224
 8049SOL    HW125046   2.619   6.366   6.298
 8049SOL    HW225047   2.484   6.450   6.261
 8050SOL     OW25048   0.475   3.446   1.627
 8050SOL    HW125049   0.461   3.507   1.549
 8050SOL    HW225050   0.421   3.362   1.614
 8051SOL     OW25051   2.204   2.379   4.013
 8051SOL    HW125052   2.198   2.377   4.112
 8051SOL    HW225053   2.172   2.468   3.979
 8052SOL     OW25054   4.328   1.125   2.991
 8052SOL    HW125055   4.251   1.124   3.056
 8052SOL    HW225056   4.404   1.072   3.029
 8053SOL     OW25057   4.633   3.395   1.175
 8053SOL    HW125058   4.598   3.478   1.219
 8053SOL    HW225059   4.655   3.327   1.245
 8054SOL     OW25060   4.893   6.531   4.850
 8054SOL    HW125061   4.819   6.541   4.783
 8054SOL    HW225062   4.977   6.571   4.813
 8055SOL     OW25063   1.452   0.235   4.908
 8055SOL    HW125064   1.450   0.202   4.814
 8055SOL    HW225065   1.392   0.314   4.917
 8056SOL     OW25066   4.849   1.249   2.704
 8056SOL    HW125067   4.797   1.331   2.727
 8056SOL    HW225068   4.901   1.219   2.785
 8057SOL     OW25069   2.842   6.996   3.332
 8057SOL    HW125070   2.911   6.960   3.394
 8057SOL    HW225071   2.884   0.036   3.270
 8058SOL     OW25072   2.058   0.659   3.470
 8058SOL    HW125073   1.965   0.687   3.490
 8058SOL    HW225074   2.098   0.721   3.402
 8059SOL     OW25075   2.080   1.295   3.601
 8059SOL    HW125076   2.033   1.269   3.517
 8059SOL    HW225077   2.033   1.256   3.680
 8060SOL     OW25078   1.439   2.592   5.119
 8060SOL    HW125079   1.373   2.588   5.195
 8060SOL    HW225080   1.400   2.645   5.044
 8061SOL     OW25081   4.991   6.593   2.459
 8061SOL    HW125082   5.075   6.646   2.458
 8061SOL    HW225083   4.921   6.641   2.512
 8062SOL     OW25084   1.718   1.621   1.620
 8062SOL    HW125085   1.636   1.590   1.669
 8062SOL    HW225086   1.694   1.640   1.525
 8063SOL     OW25087   3.109   2.015   5.580
 8063SOL    HW125088   3.082   1.965   5.663
 8063SOL    HW225089   3.133   2.109   5.604
 8064SOL     OW25090   5.409   1.900   6.047
 8064SOL    HW125091   5.399   1.953   5.962
 8064SOL    HW225092   5.501   1.861   6.050
 8065SOL     OW25093   4.351   0.426   6.608
 8065SOL    HW125094   4.448   0.449   6.600
 8065SOL    HW225095   4.296   0.496   6.563
 8066SOL     OW25096   0.257   0.404   1.870
 8066SOL    HW125097   0.297   0.354   1.793
 8066SOL    HW225098   0.317   0.481   1.895
 8067SOL     OW25099   4.447   1.636   2.763
 8067SOL    HW125100   4.434   1.637   2.663
 8067SOL    HW225101   4.422   1.546   2.799
 8068SOL     OW25102   6.267   3.984   3.400
 8068SOL    HW125103   6.299   4.056   3.338
 8068SOL    HW225104   6.174   4.005   3.431
 8069SOL     OW25105   6.670   5.490   2.262
 8069SOL    HW125106   6.641   5.452   2.175
 8069SOL    HW225107   6.765   5.466   2.280
 8070SOL     OW25108   3.889   0.980   3.071
 8070SOL    HW125109   3.848   0.889   3.077
 8070SOL    HW225110   3.903   1.004   2.975
 8071SOL     OW25111   6.185   4.586   6.753
 8071SOL    HW125112   6.107   4.526   6.773
 8071SOL    HW225113   6.193   4.599   6.654
 8072SOL     OW25114   2.928   0.186   3.173
 8072SOL    HW125115   2.886   0.277   3.166
 8072SOL    HW225116   2.936   0.146   3.082
 8073SOL     OW25117   5.429   0.156   6.445
 8073SOL    HW125118   5.484   0.214   6.504
 8073SOL    HW225119   5.486   0.085   6.405
 8074SOL     OW25120   2.981   4.594   0.262
 8074SOL    HW125121   2.920   4.516   0.247
 8074SOL    HW225122   3.067   4.578   0.214
 8075SOL     OW25123   6.685   1.708   4.076
 8075SOL    HW125124   6.766   1.706   4.135
 8075SOL    HW225125   6.684   1.794   4.024
 8076SOL     OW25126   4.679   2.454   6.722
 8076SOL    HW125127   4.590   2.412   6.707
 8076SOL    HW225128   4.677   2.506   6.808
 8077SOL     OW25129   0.553   0.874   6.793
 8077SOL    HW125130   0.478   0.895   6.856
 8077SOL    HW225131   0.519   0.874   6.699
 8078SOL     OW25132   6.483   4.252   1.281
 8078SOL    HW125133   6.444   4.172   1.327
 8078SOL    HW225134   6.525   4.223   1.195
 8079SOL     OW25135   1.385   3.280   0.777
 8079SOL    HW125136   1.410   3.361   0.830
 8079SOL    HW225137   1.467   3.226   0.757
 8080SOL     OW25138   3.421   4.992   6.926
 8080SOL    HW125139   3.394   5.066   6.987
 8080SOL    HW225140   3.511   4.958   6.954
 8081SOL     OW25141   4.935   2.357   4.347
 8081SOL    HW125142   4.836   2.360   4.355
 8081SOL    HW225143   4.961   2.375   4.252
 8082SOL     OW25144   6.820   3.846   4.996
 8082SOL    HW125145   6.890   3.774   4.999
 8082SOL    HW225146   6.780   3.856   5.087
 8083SOL     OW25147   6.646   2.141   5.246
 8083SOL    HW125148   6.647   2.187   5.335
 8083SOL    HW225149   6.553   2.114   5.224
 8084SOL     OW25150   5.903   6.935   6.775
 8084SOL    HW125151   5.996   6.929   6.739
 8084SOL    HW225152   5.845   6.980   6.708
 8085SOL     OW25153   4.941   2.588   2.080
 8085SOL    HW125154   5.040   2.588   2.088
 8085SOL    HW225155   4.904   2.670   2.123
 8086SOL     OW25156   2.868   5.230   0.114
 8086SOL    HW125157   2.818   5.317   0.116
 8086SOL    HW225158   2.945   5.235   0.177
 8087SOL     OW25159   1.864   4.122   1.200
 8087SOL    HW125160   1.778   4.113   1.150
 8087SOL    HW225161   1.920   4.193   1.157
 8088SOL     OW25162   4.334   0.724   2.949
 8088SOL    HW125163   4.263   0.670   2.902
 8088SOL    HW225164   4.387   0.664   3.009
 8089SOL     OW25165   6.807   2.295   0.298
 8089SOL    HW125166   6.817   2.355   0.219
 8089SOL    HW225167   6.897   2.262   0.326
 8090SOL     OW25168   5.400   1.206   4.978
 8090SOL    HW125169   5.371   1.301   4.990
 8090SOL    HW225170   5.320   1.146   4.983
 8091SOL     OW25171   1.701   3.508   4.474
 8091SOL    HW125172   1.682   3.487   4.570
 8091SOL    HW225173   1.780   3.570   4.468
 8092SOL     OW25174   6.078   2.137   4.098
 8092SOL    HW125175   6.063   2.111   4.003
 8092SOL    HW225176   6.171   2.171   4.109
 8093SOL     OW25177   5.958   4.691   0.958
 8093SOL    HW125178   5.952   4.738   1.046
 8093SOL    HW225179   6.054   4.676   0.935
 8094SOL     OW25180   0.920   3.364   4.552
 8094SOL    HW125181   0.872   3.426   4.489
 8094SOL    HW225182   0.927   3.408   4.641
 8095SOL     OW25183   6.490   3.040   5.021
 8095SOL    HW125184   6.528   2.955   4.985
 8095SOL    HW225185   6.443   3.022   5.107
 8096SOL     OW25186   4.059   0.256   0.967
 8096SOL    HW125187   3.966   0.270   0.934
 8096SOL    HW225188   4.057   0.241   1.066
 8097SOL     OW25189   4.861   2.266   3.880
 8097SOL    HW125190   4.869   2.359   3.917
 8097SOL    HW225191   4.767   2.233   3.893
 8098SOL     OW25192   2.249   2.133   3.895
 8098SOL    HW125193   2.348   2.129   3.904
 8098SOL    HW225194   2.218   2.227   3.908
 8099SOL     OW25195   4.263   6.834   4.012
 8099SOL    HW125196   4.185   6.783   3.976
 8099SOL    HW225197   4.263   6.926   3.974
 8100SOL     OW25198   6.352   6.651   1.479
 8100SOL    HW125199   6.270   6.669   1.534
 8100SOL    HW225200   6.327   6.650   1.382
 8101SOL     OW25201   1.276   4.612   2.852
 8101SOL    HW125202   1.344   4.680   2.878
 8101SOL    HW225203   1.278   4.600   2.752
 8102SOL     OW25204   6.368   0.229   5.461
 8102SOL    HW125205   6.331   0.190   5.377
 8102SOL    HW225206   6.441   0.294   5.439
 8103SOL     OW25207   2.783   2.154   2.357
 8103SOL    HW125208   2.827   2.222   2.417
 8103SOL    HW225209   2.763   2.197   2.268
 8104SOL     OW25210   2.572   0.539   5.706
 8104SOL    HW125211   2.524   0.621   5.738
 8104SOL    HW225212   2.641   0.513   5.773
 8105SOL     OW25213   2.360   2.722   2.768
 8105SOL    HW125214   2.447   2.763   2.740
 8105SOL    HW225215   2.376   2.656   2.842
 8106SOL     OW25216   0.596   4.591   6.743
 8106SOL    HW125217   0.691   4.579   6.771
 8106SOL    HW225218   0.536   4.564   6.819
 8107SOL     OW25219   0.622   5.268   6.329
 8107SOL    HW125220   0.684   5.296   6.256
 8107SOL    HW225221   0.662   5.292   6.417
 8108SOL     OW25222   1.691   1.986   6.353
 8108SOL    HW125223   1.744   2.006   6.270
 8108SOL    HW225224   1.752   1.955   6.425
 8109SOL     OW25225   0.164   5.463   4.845
 8109SOL    HW125226   0.101   5.385   4.848
 8109SOL    HW225227   0.119   5.543   4.884
 8110SOL     OW25228   1.165   5.003   0.282
 8110SOL    HW125229   1.152   4.909   0.314
 8110SOL    HW225230   1.086   5.058   0.308
 8111SOL     OW25231   3.414   6.689   4.170
 8111SOL    HW125232   3.353   6.704   4.248
 8111SOL    HW225233   3.431   6.591   4.159
 8112SOL     OW25234   3.829   1.953   4.395
 8112SOL    HW125235   3.866   1.961   4.302
 8112SOL    HW225236   3.853   2.035   4.448
 8113SOL     OW25237   2.922   2.427   6.365
 8113SOL    HW125238   2.997   2.480   6.326
 8113SOL    HW225239   2.919   2.443   6.464
 8114SOL     OW25240   2.414   3.560   1.404
 8114SOL    HW125241   2.474   3.527   1.330
 8114SOL    HW225242   2.412   3.660   1.403
 8115SOL     OW25243   4.052   2.887   1.378
 8115SOL    HW125244   4.145   2.920   1.367
 8115SOL    HW225245   3.995   2.920   1.302
 8116SOL     OW25246   5.971   2.352   5.719
 8116SOL    HW125247   6.045   2.290   5.690
 8116SOL    HW225248   5.915   2.376   5.640
 8117SOL     OW25249   3.181   2.999   5.311
 8117SOL    HW125250   3.124   2.932   5.357
 8117SOL    HW225251   3.167   3.089   5.353
 8118SOL     OW25252   0.890   2.309   4.090
 8118SOL    HW125253   0.815   2.253   4.125
 8118SOL    HW225254   0.952   2.332   4.165
 8119SOL     OW25255   1.113   0.019   2.133
 8119SOL    HW125256   1.066   6.978   2.190
 8119SOL    HW225257   1.096   0.110   2.171
 8120SOL     OW25258   4.653   4.411   2.160
 8120SOL    HW125259   4.582   4.453   2.216
 8120SOL    HW225260   4.611   4.356   2.088
 8121SOL     OW25261   6.903   6.091   3.448
 8121SOL    HW125262   6.983   6.102   3.389
 8121SOL    HW225263   6.821   6.082   3.393
 8122SOL     OW25264   0.292   4.651   1.312
 8122SOL    HW125265   0.237   4.688   1.387
 8122SOL    HW225266   0.378   4.702   1.305
 8123SOL     OW25267   1.413   4.978   5.736
 8123SOL    HW125268   1.410   4.963   5.638
 8123SOL    HW225269   1.508   4.977   5.768
 8124SOL     OW25270   1.108   6.221   2.418
 8124SOL    HW125271   1.168   6.167   2.359
 8124SOL    HW225272   1.037   6.264   2.363
 8125SOL     OW25273   4.550   5.504   3.814
 8125SOL    HW125274   4.573   5.440   3.887
 8125SOL    HW225275   4.455   5.533   3.824
 8126SOL     OW25276   6.970   4.098   1.725
 8126SOL    HW125277   7.013   4.059   1.643
 8126SOL    HW225278   6.983   4.197   1.726
 8127SOL     OW25279   4.386   5.203   0.101
 8127SOL    HW125280   4.336   5.280   0.062
 8127SOL    HW225281   4.435   5.232   0.183
 8128SOL     OW25282   3.667   2.314   5.650
 8128SOL    HW125283   3.709   2.391   5.697
 8128SOL    HW225284   3.730   2.279   5.581
 8129SOL     OW25285   5.180   5.357   6.577
 8129SOL    HW125286   5.085   5.325   6.570
 8129SOL    HW225287   5.225   5.311   6.653
 8130SOL     OW25288   0.685   0.170   6.041
 8130SOL    HW125289   0.660   0.260   6.007
 8130SOL    HW225290   0.610   0.133   6.097
 8131SOL     OW25291   2.710   1.437   1.408
 8131SOL    HW125292   2.774   1.483   1.470
 8131SOL    HW225293   2.620   1.480   1.415
 8132SOL     OW25294   5.398   5.073   3.177
 8132SOL    HW125295   5.412   5.165   3.140
 8132SOL    HW225296   5.485   5.023   3.175
 8133SOL     OW25297   0.499   5.430   2.690
 8133SOL    HW125298   0.566   5.408   2.619
 8133SOL    HW225299   0.413   5.384   2.669
 8134SOL     OW25300   3.436   2.908   1.329
 8134SOL    HW125301   3.512   2.906   1.395
 8134SOL    HW225302   3.356   2.950   1.373
 8135SOL     OW25303   4.229   6.025   2.404
 8135SOL    HW125304   4.228   5.992   2.309
 8135SOL    HW225305   4.292   5.969   2.458
 8136SOL     OW25306   2.789   5.715   1.231
 8136SOL    HW125307   2.819   5.807   1.206
 8136SOL    HW225308   2.689   5.713   1.235
 8137SOL     OW25309   3.561   4.179   5.573
 8137SOL    HW125310   3.642   4.144   5.620
 8137SOL    HW225311   3.542   4.123   5.492
 8138SOL     OW25312   4.375   0.835   4.146
 8138SOL    HW125313   4.300   0.808   4.207
 8138SOL    HW225314   4.337   0.871   4.060
 8139SOL     OW25315   2.277   3.099   6.019
 8139SOL    HW125316   2.230   3.153   5.949
 8139SOL    HW225317   2.348   3.043   5.975
 8140SOL     OW25318   5.244   1.543   1.487
 8140SOL    HW125319   5.273   1.496   1.404
 8140SOL    HW225320   5.203   1.631   1.461
 8141SOL     OW25321   5.772   2.041   4.970
 8141SOL    HW125322   5.678   2.068   4.951
 8141SOL    HW225323   5.815   2.109   5.030
 8142SOL     OW25324   4.015   5.665   0.493
 8142SOL    HW125325   4.074   5.616   0.429
 8142SOL    HW225326   4.039   5.640   0.586
 8143SOL     OW25327   5.275   5.058   0.328
 8143SOL    HW125328   5.281   4.981   0.264
 8143SOL    HW225329   5.210   5.035   0.401
 8144SOL     OW25330   1.512   5.550   6.425
 8144SOL    HW125331   1.502   5.645   6.456
 8144SOL    HW225332   1.596   5.542   6.371
 8145SOL     OW25333   5.334   5.138   5.659
 8145SOL    HW125334   5.344   5.225   5.611
 8145SOL    HW225335   5.239   5.106   5.651
 8146SOL     OW25336   0.073   5.967   5.731
 8146SOL    HW125337   7.004   5.964   5.759
 8146SOL    HW225338   0.121   5.887   5.768
 8147SOL     OW25339   2.451   6.366   4.465
 8147SOL    HW125340   2.492   6.457   4.464
 8147SOL    HW225341   2.394   6.356   4.547
 8148SOL     OW25342   4.482   4.887   0.407
 8148SOL    HW125343   4.449   4.890   0.313
 8148SOL    HW225344   4.467   4.795   0.445
 8149SOL     OW25345   1.533   6.654   4.448
 8149SOL    HW125346   1.517   6.638   4.545
 8149SOL    HW225347   1.540   6.753   4.431
 8150SOL     OW25348   0.699   3.812   0.679
 8150SOL    HW125349   0.638   3.812   0.601
 8150SOL    HW225350   0.718   3.906   0.707
 8151SOL     OW25351   6.187   4.306   2.822
 8151SOL    HW125352   6.145   4.227   2.776
 8151SOL    HW225353   6.248   4.275   2.894
 8152SOL     OW25354   4.952   2.192   4.548
 8152SOL    HW125355   4.957   2.254   4.469
 8152SOL    HW225356   4.881   2.123   4.532
 8153SOL     OW25357   6.954   1.071   0.963
 8153SOL    HW125358   6.907   0.986   0.986
 8153SOL    HW225359   6.984   1.068   0.867
 8154SOL     OW25360   6.838   0.303   4.906
 8154SOL    HW125361   6.895   0.385   4.912
 8154SOL    HW225362   6.882   0.236   4.846
 8155SOL     OW25363   1.359   4.602   4.708
 8155SOL    HW125364   1.373   4.672   4.637
 8155SOL    HW225365   1.438   4.602   4.770
 8156SOL     OW25366   0.828   3.834   0.009
 8156SOL    HW125367   0.839   3.830   6.937
 8156SOL    HW225368   0.918   3.825   0.053
 8157SOL     OW25369   6.230   4.738   5.547
 8157SOL    HW125370   6.189   4.671   5.609
 8157SOL    HW225371   6.215   4.710   5.452
 8158SOL     OW25372   7.018   5.216   5.731
 8158SOL    HW125373   0.069   5.238   5.673
 8158SOL    HW225374   6.938   5.267   5.701
 8159SOL     OW25375   2.276   5.750   4.354
 8159SOL    HW125376   2.319   5.826   4.403
 8159SOL    HW225377   2.339   5.716   4.284
 8160SOL     OW25378   4.885   3.159   3.073
 8160SOL    HW125379   4.840   3.075   3.104
 8160SOL    HW225380   4.930   3.142   2.986
 8161SOL     OW25381   0.163   1.726   1.300
 8161SOL    HW125382   0.118   1.809   1.268
 8161SOL    HW225383   0.097   1.651   1.303
 8162SOL     OW25384   6.385   6.174   6.242
 8162SOL    HW125385   6.428   6.217   6.322
 8162SOL    HW225386   6.395   6.075   6.247
 8163SOL     OW25387   3.363   5.741   5.831
 8163SOL    HW125388   3.368   5.651   5.788
 8163SOL    HW225389   3.375   5.732   5.930
 8164SOL     OW25390   5.573   1.983   0.489
 8164SOL    HW125391   5.561   2.059   0.425
 8164SOL    HW225392   5.513   1.996   0.568
 8165SOL     OW25393   1.507   2.524   5.564
 8165SOL    HW125394   1.426   2.541   5.508
 8165SOL    HW225395   1.540   2.610   5.602
 8166SOL     OW25396   3.210   2.017   3.403
 8166SOL    HW125397   3.184   2.043   3.310
 8166SOL    HW225398   3.157   1.938   3.432
 8167SOL     OW25399   1.848   1.910   2.338
 8167SOL    HW125400   1.935   1.861   2.337
 8167SOL    HW225401   1.774   1.845   2.356
 8168SOL     OW25402   1.046   5.940   2.837
 8168SOL    HW125403   1.059   5.967   2.741
 8168SOL    HW225404   0.982   6.003   2.880
 8169SOL     OW25405   5.081   5.007   6.860
 8169SOL    HW125406   5.045   5.031   6.950
 8169SOL    HW225407   5.045   5.071   6.792
 8170SOL     OW25408   0.113   4.929   3.219
 8170SOL    HW125409   0.130   5.027   3.204
 8170SOL    HW225410   0.094   4.885   3.131
 8171SOL     OW25411   0.934   1.333   1.904
 8171SOL    HW125412   0.914   1.356   1.999
 8171SOL    HW225413   0.982   1.410   1.861
 8172SOL     OW25414   1.395   4.717   0.342
 8172SOL    HW125415   1.345   4.662   0.274
 8172SOL    HW225416   1.334   4.737   0.419
 8173SOL     OW25417   5.293   0.520   1.046
 8173SOL    HW125418   5.267   0.461   0.970
 8173SOL    HW225419   5.225   0.512   1.119
 8174SOL     OW25420   3.090   6.133   3.872
 8174SOL    HW125421   3.074   6.074   3.951
 8174SOL    HW225422   3.033   6.103   3.796
 8175SOL     OW25423   1.563   2.610   6.447
 8175SOL    HW125424   1.630   2.644   6.513
 8175SOL    HW225425   1.610   2.576   6.366
 8176SOL     OW25426   1.923   4.584   0.160
 8176SOL    HW125427   2.018   4.616   0.157
 8176SOL    HW225428   1.893   4.580   0.255
 8177SOL     OW25429   3.661   1.367   1.946
 8177SOL    HW125430   3.705   1.308   2.015
 8177SOL    HW225431   3.696   1.343   1.855
 8178SOL     OW25432   2.253   6.482   0.998
 8178SOL    HW125433   2.221   6.401   1.048
 8178SOL    HW225434   2.196   6.495   0.917
 8179SOL     OW25435   6.634   6.338   4.722
 8179SOL    HW125436   6.626   6.308   4.627
 8179SOL    HW225437   6.711   6.290   4.765
 8180SOL     OW25438   3.190   4.913   0.605
 8180SOL    HW125439   3.265   4.932   0.668
 8180SOL    HW225440   3.112   4.876   0.655
 8181SOL     OW25441   6.056   1.020   6.467
 8181SOL    HW125442   6.042   0.921   6.464
 8181SOL    HW225443   6.049   1.057   6.374
 8182SOL     OW25444   3.280   3.694   2.809
 8182SOL    HW125445   3.360   3.700   2.869
 8182SOL    HW225446   3.229   3.611   2.829
 8183SOL     OW25447   0.417   0.650   5.021
 8183SOL    HW125448   0.455   0.718   5.084
 8183SOL    HW225449   0.323   0.674   4.998
 8184SOL     OW25450   6.562   5.473   4.708
 8184SOL    HW125451   6.530   5.423   4.788
 8184SOL    HW225452   6.594   5.563   4.735
 8185SOL     OW25453   6.756   6.406   4.186
 8185SOL    HW125454   6.794   6.326   4.233
 8185SOL    HW225455   6.830   6.472   4.170
 8186SOL     OW25456   0.572   6.376   6.590
 8186SOL    HW125457   0.527   6.453   6.546
 8186SOL    HW225458   0.667   6.399   6.609
 8187SOL     OW25459   1.005   6.704   4.475
 8187SOL    HW125460   1.023   6.667   4.567
 8187SOL    HW225461   1.068   6.663   4.410
 8188SOL     OW25462   1.616   2.648   2.533
 8188SOL    HW125463   1.677   2.608   2.464
 8188SOL    HW225464   1.588   2.739   2.504
 8189SOL     OW25465   6.582   5.303   3.732
 8189SOL    HW125466   6.576   5.219   3.677
 8189SOL    HW225467   6.510   5.302   3.801
 8190SOL     OW25468   5.414   3.561   2.453
 8190SOL    HW125469   5.351   3.638   2.444
 8190SOL    HW225470   5.362   3.476   2.460
 8191SOL     OW25471   4.493   4.917   0.734
 8191SOL    HW125472   4.485   4.917   0.634
 8191SOL    HW225473   4.410   4.878   0.773
 8192SOL     OW25474   6.612   5.775   2.613
 8192SOL    HW125475   6.576   5.682   2.615
 8192SOL    HW225476   6.574   5.827   2.690
 8193SOL     OW25477   1.061   5.174   4.804
 8193SOL    HW125478   1.000   5.208   4.875
 8193SOL    HW225479   1.134   5.120   4.846
 8194SOL     OW25480   5.916   6.530   1.639
 8194SOL    HW125481   5.896   6.555   1.734
 8194SOL    HW225482   6.002   6.573   1.611
 8195SOL     OW25483   6.083   6.701   3.178
 8195SOL    HW125484   6.182   6.713   3.188
 8195SOL    HW225485   6.038   6.731   3.262
 8196SOL     OW25486   5.526   0.206   2.853
 8196SOL    HW125487   5.577   0.292   2.844
 8196SOL    HW225488   5.428   0.226   2.852
 8197SOL     OW25489   3.836   0.694   3.551
 8197SOL    HW125490   3.803   0.682   3.645
 8197SOL    HW225491   3.867   0.788   3.539
 8198SOL     OW25492   2.085   5.320   0.047
 8198SOL    HW125493   2.019   5.249   0.022
 8198SOL    HW225494   2.158   5.281   0.103
 8199SOL     OW25495   5.957   2.757   0.121
 8199SOL    HW125496   5.884   2.819   0.093
 8199SOL    HW225497   6.043   2.784   0.078
 8200SOL     OW25498   6.000   4.929   0.218
 8200SOL    HW125499   6.083   4.943   0.166
 8200SOL    HW225500   5.987   4.831   0.235
 8201SOL     OW25501   5.093   1.429   5.845
 8201SOL    HW125502   5.012   1.485   5.864
 8201SOL    HW225503   5.139   1.406   5.931
 8202SOL     OW25504   0.076   6.209   2.396
 8202SOL    HW125505   0.043   6.302   2.415
 8202SOL    HW225506   0.112   6.169   2.480
 8203SOL     OW25507   0.722   3.217   0.163
 8203SOL    HW125508   0.751   3.163   0.242
 8203SOL    HW225509   0.632   3.186   0.133
 8204SOL     OW25510   1.112   3.566   0.110
 8204SOL    HW125511   1.172   3.567   0.189
 8204SOL    HW225512   1.078   3.658   0.092
 8205SOL     OW25513   0.059   4.303   6.068
 8205SOL    HW125514   0.105   4.301   6.157
 8205SOL    HW225515   0.127   4.296   5.995
 8206SOL     OW25516   3.527   1.718   0.817
 8206SOL    HW125517   3.526   1.622   0.847
 8206SOL    HW225518   3.503   1.777   0.894
 8207SOL     OW25519   3.625   3.183   3.659
 8207SOL    HW125520   3.701   3.242   3.685
 8207SOL    HW225521   3.553   3.189   3.727
 8208SOL     OW25522   4.020   0.084   5.613
 8208SOL    HW125523   3.960   0.151   5.571
 8208SOL    HW225524   4.033   0.006   5.552
 8209SOL     OW25525   4.934   3.531   3.730
 8209SOL    HW125526   4.908   3.545   3.635
 8209SOL    HW225527   4.862   3.480   3.778
 8210SOL     OW25528   1.348   1.966   5.930
 8210SOL    HW125529   1.336   2.043   5.993
 8210SOL    HW225530   1.440   1.969   5.891
 8211SOL     OW25531   4.227   4.528   1.051
 8211SOL    HW125532   4.255   4.473   0.972
 8211SOL    HW225533   4.308   4.574   1.089
 8212SOL     OW25534   2.175   3.898   2.431
 8212SOL    HW125535   2.085   3.857   2.433
 8212SOL    HW225536   2.204   3.913   2.337
 8213SOL     OW25537   6.740   4.056   0.619
 8213SOL    HW125538   6.749   4.144   0.574
 8213SOL    HW225539   6.680   4.065   0.699
 8214SOL     OW25540   4.988   2.871   3.476
 8214SOL    HW125541   5.027   2.900   3.389
 8214SOL    HW225542   4.889   2.885   3.475
 8215SOL     OW25543   2.979   4.325   1.410
 8215SOL    HW125544   2.975   4.387   1.488
 8215SOL    HW225545   2.894   4.274   1.404
 8216SOL     OW25546   5.436   2.954   5.299
 8216SOL    HW125547   5.362   2.981   5.238
 8216SOL    HW225548   5.423   2.859   5.327
 8217SOL     OW25549   2.283   5.955   6.639
 8217SOL    HW125550   2.377   5.920   6.639
 8217SOL    HW225551   2.220   5.881   6.615
 8218SOL     OW25552   4.254   1.438   0.124
 8218SOL    HW125553   4.347   1.406   0.107
 8218SOL    HW225554   4.194   1.360   0.143
 8219SOL     OW25555   5.604   3.250   0.075
 8219SOL    HW125556   5.508   3.278   0.077
 8219SOL    HW225557   5.635   3.242   7.007
 8220SOL     OW25558   3.960   3.394   1.450
 8220SOL    HW125559   4.037   3.336   1.473
 8220SOL    HW225560   3.875   3.353   1.485
 8221SOL     OW25561   5.342   3.647   3.973
 8221SOL    HW125562   5.440   3.632   3.957
 8221SOL    HW225563   5.320   3.743   3.956
 8222SOL     OW25564   5.954   1.717   2.934
 8222SOL    HW125565   5.901   1.765   2.864
 8222SOL    HW225566   5.982   1.782   3.004
 8223SOL     OW25567   1.071   3.316   6.828
 8223SOL    HW125568   1.136   3.384   6.862
 8223SOL    HW225569   0.979   3.336   6.864
 8224SOL     OW25570   1.201   3.491   2.635
 8224SOL    HW125571   1.144   3.409   2.636
 8224SOL    HW225572   1.271   3.482   2.564
 8225SOL     OW25573   5.184   0.188   1.136
 8225SOL    HW125574   5.252   0.215   1.069
 8225SOL    HW225575   5.103   0.245   1.126
 8226SOL     OW25576   4.248   0.560   0.004
 8226SOL    HW125577   4.262   0.531   0.098
 8226SOL    HW225578   4.241   0.480   6.971
 8227SOL     OW25579   5.968   4.816   3.173
 8227SOL    HW125580   5.964   4.770   3.261
 8227SOL    HW225581   6.059   4.856   3.160
 8228SOL     OW25582   6.775   1.268   3.505
 8228SOL    HW125583   6.849   1.204   3.526
 8228SOL    HW225584   6.702   1.258   3.572
 8229SOL     OW25585   6.016   4.858   6.731
 8229SOL    HW125586   5.945   4.905   6.677
 8229SOL    HW225587   5.978   4.774   6.770
 8230SOL     OW25588   4.681   0.002   3.104
 8230SOL    HW125589   4.605   0.065   3.089
 8230SOL    HW225590   4.753   0.050   3.155
 8231SOL     OW25591   3.346   5.516   1.468
 8231SOL    HW125592   3.274   5.503   1.401
 8231SOL    HW225593   3.337   5.447   1.540
 8232SOL     OW25594   2.901   1.818   0.240
 8232SOL    HW125595   2.900   1.845   0.336
 8232SOL    HW225596   2.818   1.766   0.219
 8233SOL     OW25597   0.744   5.866   6.278
 8233SOL    HW125598   0.760   5.894   6.183
 8233SOL    HW225599   0.824   5.817   6.313
 8234SOL     OW25600   1.487   3.003   6.597
 8234SOL    HW125601   1.415   3.065   6.566
 8234SOL    HW225602   1.551   2.985   6.523
 8235SOL     OW25603   4.586   2.584   6.944
 8235SOL    HW125604   4.604   2.493   6.981
 8235SOL    HW225605   4.562   2.646   7.019
 8236SOL     OW25606   6.471   2.116   2.088
 8236SOL    HW125607   6.537   2.143   2.017
 8236SOL    HW225608   6.518   2.067   2.161
 8237SOL     OW25609   3.902   6.238   5.361
 8237SOL    HW125610   3.864   6.328   5.380
 8237SOL    HW225611   4.000   6.239   5.382
 8238SOL     OW25612   0.509   1.495   5.106
 8238SOL    HW125613   0.585   1.499   5.041
 8238SOL    HW225614   0.479   1.400   5.116
 8239SOL     OW25615   5.180   1.293   6.045
 8239SOL    HW125616   5.263   1.273   6.097
 8239SOL    HW225617   5.100   1.279   6.103
 8240SOL     OW25618   3.009   3.145   2.686
 8240SOL    HW125619   3.051   3.119   2.773
 8240SOL    HW225620   2.979   3.241   2.691
 8241SOL     OW25621   3.576   5.978   1.306
 8241SOL    HW125622   3.610   5.955   1.397
 8241SOL    HW225623   3.484   6.016   1.314
 8242SOL     OW25624   1.976   4.550   4.627
 8242SOL    HW125625   1.926   4.464   4.636
 8242SOL    HW225626   2.036   4.562   4.707
 8243SOL     OW25627   6.987   4.116   4.136
 8243SOL    HW125628   6.893   4.083   4.145
 8243SOL    HW225629   0.022   4.038   4.119
 8244SOL     OW25630   3.407   5.794   5.396
 8244SOL    HW125631   3.383   5.849   5.476
 8244SOL    HW225632   3.425   5.854   5.318
 8245SOL     OW25633   4.491   4.182   1.139
 8245SOL    HW125634   4.493   4.167   1.041
 8245SOL    HW225635   4.537   4.268   1.161
 8246SOL     OW25636   6.073   2.873   5.411
 8246SOL    HW125637   6.149   2.901   5.469
 8246SOL    HW225638   5.988   2.874   5.464
 8247SOL     OW25639   0.845   5.992   0.084
 8247SOL    HW125640   0.922   6.054   0.068
 8247SOL    HW225641   0.875   5.897   0.070
 8248SOL     OW25642   6.518   3.734   3.250
 8248SOL    HW125643   6.590   3.803   3.263
 8248SOL    HW225644   6.503   3.686   3.337
 8249SOL     OW25645   0.974   5.537   3.286
 8249SOL    HW125646   1.056   5.586   3.257
 8249SOL    HW225647   0.997   5.478   3.364
 8250SOL     OW25648   3.153   2.984   2.513
 8250SOL    HW125649   3.136   3.041   2.593
 8250SOL    HW225650   3.100   2.899   2.520
 8251SOL     OW25651   5.799   0.793   4.258
 8251SOL    HW125652   5.880   0.848   4.279
 8251SOL    HW225653   5.760   0.825   4.171
 8252SOL     OW25654   1.193   3.791   4.330
 8252SOL    HW125655   1.172   3.854   4.256
 8252SOL    HW225656   1.156   3.827   4.416
 8253SOL     OW25657   2.828   3.258   6.159
 8253SOL    HW125658   2.783   3.169   6.164
 8253SOL    HW225659   2.759   3.331   6.161
 8254SOL     OW25660   4.771   4.578   2.605
 8254SOL    HW125661   4.811   4.571   2.513
 8254SOL    HW225662   4.685   4.628   2.599
 8255SOL     OW25663   4.781   5.495   3.622
 8255SOL    HW125664   4.870   5.461   3.651
 8255SOL    HW225665   4.721   5.503   3.702
 8256SOL     OW25666   5.509   1.867   3.240
 8256SOL    HW125667   5.579   1.853   3.170
 8256SOL    HW225668   5.541   1.831   3.327
 8257SOL     OW25669   6.286   4.463   4.112
 8257SOL    HW125670   6.384   4.452   4.095
 8257SOL    HW225671   6.237   4.384   4.074
 8258SOL     OW25672   5.348   2.299   0.952
 8258SOL    HW125673   5.412   2.330   1.023
 8258SOL    HW225674   5.265   2.263   0.996
 8259SOL     OW25675   4.690   0.717   1.347
 8259SOL    HW125676   4.670   0.686   1.440
 8259SOL    HW225677   4.677   0.641   1.284
 8260SOL     OW25678   3.827   5.193   6.005
 8260SOL    HW125679   3.746   5.144   5.974
 8260SOL    HW225680   3.813   5.291   5.994
 8261SOL     OW25681   4.847   1.673   1.359
 8261SOL    HW125682   4.847   1.617   1.276
 8261SOL    HW225683   4.768   1.735   1.357
 8262SOL     OW25684   6.256   2.545   2.127
 8262SOL    HW125685   6.304   2.466   2.166
 8262SOL    HW225686   6.157   2.532   2.137
 8263SOL     OW25687   6.267   2.223   0.106
 8263SOL    HW125688   6.286   2.180   0.194
 8263SOL    HW225689   6.177   2.266   0.109
 8264SOL     OW25690   1.225   4.225   2.037
 8264SOL    HW125691   1.235   4.128   2.060
 8264SOL    HW225692   1.218   4.235   1.938
 8265SOL     OW25693   2.055   0.616   2.576
 8265SOL    HW125694   2.142   0.579   2.546
 8265SOL    HW225695   1.980   0.571   2.528
 8266SOL     OW25696   2.655   0.878   2.794
 8266SOL    HW125697   2.692   0.927   2.715
 8266SOL    HW225698   2.592   0.807   2.762
 8267SOL     OW25699   6.853   2.740   1.524
 8267SOL    HW125700   6.768   2.690   1.537
 8267SOL    HW225701   6.929   2.676   1.517
 8268SOL     OW25702   1.736   4.493   7.016
 8268SOL    HW125703   1.784   4.556   0.049
 8268SOL    HW225704   1.677   4.433   0.043
 8269SOL     OW25705   5.821   2.260   6.913
 8269SOL    HW125706   5.768   2.182   6.880
 8269SOL    HW225707   5.766   2.343   6.907
 8270SOL     OW25708   1.803   6.195   4.397
 8270SOL    HW125709   1.851   6.237   4.320
 8270SOL    HW225710   1.789   6.098   4.378
 8271SOL     OW25711   0.419   2.086   3.013
 8271SOL    HW125712   0.387   2.181   3.011
 8271SOL    HW225713   0.431   2.057   3.108
 8272SOL     OW25714   3.843   1.648   4.112
 8272SOL    HW125715   3.792   1.595   4.180
 8272SOL    HW225716   3.928   1.681   4.153
 8273SOL     OW25717   2.026   6.482   0.752
 8273SOL    HW125718   1.972   6.479   0.837
 8273SOL    HW225719   1.967   6.508   0.676
 8274SOL     OW25720   5.277   3.744   3.609
 8274SOL    HW125721   5.294   3.839   3.632
 8274SOL    HW225722   5.186   3.735   3.568
 8275SOL     OW25723   6.485   2.384   7.007
 8275SOL    HW125724   6.477   2.373   6.908
 8275SOL    HW225725   6.424   2.319   0.025
 8276SOL     OW25726   1.502   1.633   3.369
 8276SOL    HW125727   1.570   1.648   3.297
 8276SOL    HW225728   1.411   1.625   3.328
 8277SOL     OW25729   6.997   1.080   0.662
 8277SOL    HW125730   0.041   1.145   0.689
 8277SOL    HW225731   0.011   0.988   0.655
 8278SOL     OW25732   0.903   2.674   0.695
 8278SOL    HW125733   0.925   2.576   0.694
 8278SOL    HW225734   0.806   2.687   0.714
 8279SOL     OW25735   0.291   6.410   4.026
 8279SOL    HW125736   0.342   6.416   3.940
 8279SOL    HW225737   0.201   6.370   4.009
 8280SOL     OW25738   3.473   2.656   6.318
 8280SOL    HW125739   3.419   2.689   6.396
 8280SOL    HW225740   3.477   2.727   6.248
 8281SOL     OW25741   3.955   5.105   1.899
 8281SOL    HW125742   3.863   5.116   1.937
 8281SOL    HW225743   3.951   5.051   1.816
 8282SOL     OW25744   6.948   3.137   6.102
 8282SOL    HW125745   6.901   3.088   6.029
 8282SOL    HW225746   0.005   3.177   6.065
 8283SOL     OW25747   2.143   2.292   5.838
 8283SOL    HW125748   2.082   2.244   5.774
 8283SOL    HW225749   2.107   2.383   5.858
 8284SOL     OW25750   6.485   4.782   1.811
 8284SOL    HW125751   6.444   4.710   1.867
 8284SOL    HW225752   6.422   4.860   1.806
 8285SOL     OW25753   3.394   2.906   3.869
 8285SOL    HW125754   3.478   2.913   3.923
 8285SOL    HW225755   3.417   2.910   3.772
 8286SOL     OW25756   0.454   2.507   0.209
 8286SOL    HW125757   0.389   2.435   0.185
 8286SOL    HW225758   0.521   2.518   0.135
 8287SOL     OW25759   1.456   0.142   4.664
 8287SOL    HW125760   1.529   0.187   4.613
 8287SOL    HW225761   1.369   0.154   4.616
 8288SOL     OW25762   2.599   1.143   3.109
 8288SOL    HW125763   2.541   1.134   3.190
 8288SOL    HW225764   2.664   1.067   3.106
 8289SOL     OW25765   0.862   6.459   0.185
 8289SOL    HW125766   0.828   6.464   0.091
 8289SOL    HW225767   0.861   6.550   0.226
 8290SOL     OW25768   6.228   2.021   1.456
 8290SOL    HW125769   6.184   2.076   1.527
 8290SOL    HW225770   6.299   2.075   1.410
 8291SOL     OW25771   4.210   0.510   1.871
 8291SOL    HW125772   4.273   0.445   1.828
 8291SOL    HW225773   4.193   0.586   1.808
 8292SOL     OW25774   2.643   0.700   6.315
 8292SOL    HW125775   2.702   0.619   6.323
 8292SOL    HW225776   2.550   0.671   6.292
 8293SOL     OW25777   6.014   5.389   5.632
 8293SOL    HW125778   5.946   5.381   5.705
 8293SOL    HW225779   5.984   5.337   5.553
 8294SOL     OW25780   6.277   2.892   0.327
 8294SOL    HW125781   6.324   2.813   0.367
 8294SOL    HW225782   6.280   2.885   0.227
 8295SOL     OW25783   5.378   2.154   6.112
 8295SOL    HW125784   5.450   2.223   6.114
 8295SOL    HW225785   5.419   2.063   6.114
 8296SOL     OW25786   0.688   5.231   5.301
 8296SOL    HW125787   0.721   5.318   5.264
 8296SOL    HW225788   0.634   5.184   5.232
 8297SOL     OW25789   1.056   3.619   3.832
 8297SOL    HW125790   1.053   3.592   3.928
 8297SOL    HW225791   0.987   3.568   3.781
 8298SOL     OW25792   4.437   2.328   2.858
 8298SOL    HW125793   4.502   2.398   2.828
 8298SOL    HW225794   4.359   2.326   2.796
 8299SOL     OW25795   6.012   1.296   1.455
 8299SOL    HW125796   6.041   1.305   1.360
 8299SOL    HW225797   5.912   1.306   1.460
 8300SOL     OW25798   1.036   5.520   2.508
 8300SOL    HW125799   1.007   5.450   2.574
 8300SOL    HW225800   1.102   5.581   2.552
 8301SOL     OW25801   3.545   0.719   5.931
 8301SOL    HW125802   3.470   0.665   5.893
 8301SOL    HW225803   3.632   0.684   5.898
 8302SOL     OW25804   6.967   5.509   6.683
 8302SOL    HW125805   6.967   5.461   6.771
 8302SOL    HW225806   0.027   5.495   6.637
 8303SOL     OW25807   7.024   0.580   0.780
 8303SOL    HW125808   0.048   0.506   0.734
 8303SOL    HW225809   6.951   0.612   0.720
 8304SOL     OW25810   0.006   3.400   0.230
 8304SOL    HW125811   6.973   3.465   0.277
 8304SOL    HW225812   0.086   3.381   0.287
 8305SOL     OW25813   3.118   5.393   2.383
 8305SOL    HW125814   3.149   5.301   2.408
 8305SOL    HW225815   3.198   5.449   2.360
 8306SOL     OW25816   2.324   1.572   3.476
 8306SOL    HW125817   2.258   1.616   3.536
 8306SOL    HW225818   2.385   1.642   3.438
 8307SOL     OW25819   3.572   6.617   1.005
 8307SOL    HW125820   3.594   6.619   0.907
 8307SOL    HW225821   3.480   6.582   1.018
 8308SOL     OW25822   2.850   0.602   1.974
 8308SOL    HW125823   2.754   0.630   1.968
 8308SOL    HW225824   2.857   0.505   1.952
 8309SOL     OW25825   5.731   6.356   2.503
 8309SOL    HW125826   5.751   6.259   2.490
 8309SOL    HW225827   5.807   6.411   2.467
 8310SOL     OW25828   6.427   4.781   6.573
 8310SOL    HW125829   6.412   4.879   6.585
 8310SOL    HW225830   6.342   4.738   6.543
 8311SOL     OW25831   6.537   1.127   6.202
 8311SOL    HW125832   6.587   1.214   6.206
 8311SOL    HW225833   6.598   1.056   6.168
 8312SOL     OW25834   4.680   5.864   1.424
 8312SOL    HW125835   4.705   5.770   1.448
 8312SOL    HW225836   4.610   5.897   1.488
 8313SOL     OW25837   4.088   1.936   2.954
 8313SOL    HW125838   4.106   1.918   3.051
 8313SOL    HW225839   4.100   1.852   2.902
 8314SOL     OW25840   6.745   6.931   4.417
 8314SOL    HW125841   6.828   6.921   4.472
 8314SOL    HW225842   6.690   7.007   4.453
 8315SOL     OW25843   5.612   4.292   0.236
 8315SOL    HW125844   5.629   4.340   0.322
 8315SOL    HW225845   5.598   4.195   0.255
 8316SOL     OW25846   2.918   5.205   6.176
 8316SOL    HW125847   2.937   5.116   6.218
 8316SOL    HW225848   2.892   5.270   6.248
 8317SOL     OW25849   2.380   4.876   1.726
 8317SOL    HW125850   2.430   4.958   1.702
 8317SOL    HW225851   2.431   4.795   1.696
 8318SOL     OW25852   3.267   1.052   5.944
 8318SOL    HW125853   3.229   0.960   5.950
 8318SOL    HW225854   3.356   1.054   5.990
 8319SOL     OW25855   2.492   0.643   5.174
 8319SOL    HW125856   2.447   0.732   5.184
 8319SOL    HW225857   2.566   0.650   5.107
 8320SOL     OW25858   3.375   4.902   0.988
 8320SOL    HW125859   3.340   4.954   1.066
 8320SOL    HW225860   3.336   4.810   0.989
 8321SOL     OW25861   6.480   1.401   1.769
 8321SOL    HW125862   6.553   1.379   1.835
 8321SOL    HW225863   6.521   1.442   1.688
 8322SOL     OW25864   5.471   6.107   0.393
 8322SOL    HW125865   5.504   6.201   0.381
 8322SOL    HW225866   5.542   6.043   0.363
 8323SOL     OW25867   1.331   0.798   1.560
 8323SOL    HW125868   1.305   0.701   1.558
 8323SOL    HW225869   1.363   0.821   1.652
 8324SOL     OW25870   6.742   0.691   2.923
 8324SOL    HW125871   6.761   0.598   2.892
 8324SOL    HW225872   6.786   0.707   3.012
 8325SOL     OW25873   3.463   3.629   5.124
 8325SOL    HW125874   3.524   3.615   5.202
 8325SOL    HW225875   3.376   3.583   5.142
 8326SOL     OW25876   4.529   2.734   5.652
 8326SOL    HW125877   4.528   2.641   5.690
 8326SOL    HW225878   4.512   2.800   5.725
 8327SOL     OW25879   4.898   2.127   5.817
 8327SOL    HW125880   4.912   2.140   5.915
 8327SOL    HW225881   4.932   2.037   5.789
 8328SOL     OW25882   1.909   2.322   3.809
 8328SOL    HW125883   1.944   2.415   3.818
 8328SOL    HW225884   1.970   2.268   3.751
 8329SOL     OW25885   1.077   4.174   4.962
 8329SOL    HW125886   1.161   4.221   4.988
 8329SOL    HW225887   1.075   4.161   4.863
 8330SOL     OW25888   2.778   0.051   6.528
 8330SOL    HW125889   2.878   0.046   6.520
 8330SOL    HW225890   2.743   0.122   6.466
 8331SOL     OW25891   2.087   0.147   0.692
 8331SOL    HW125892   2.095   0.144   0.592
 8331SOL    HW225893   1.997   0.112   0.719
 8332SOL     OW25894   4.968   6.317   3.169
 8332SOL    HW125895   5.004   6.258   3.098
 8332SOL    HW225896   4.911   6.389   3.128
 8333SOL     OW25897   2.131   4.608   5.403
 8333SOL    HW125898   2.200   4.669   5.443
 8333SOL    HW225899   2.138   4.610   5.303
 8334SOL     OW25900   6.554   0.133   3.101
 8334SOL    HW125901   6.495   0.058   3.071
 8334SOL    HW225902   6.637   0.095   3.141
 8335SOL     OW25903   6.538   5.810   5.201
 8335SOL    HW125904   6.496   5.845   5.117
 8335SOL    HW225905   6.502   5.860   5.279
 8336SOL     OW25906   1.740   1.615   2.454
 8336SOL    HW125907   1.658   1.669   2.472
 8336SOL    HW225908   1.789   1.600   2.540
 8337SOL     OW25909   6.291   6.560   2.905
 8337SOL    HW125910   6.295   6.548   3.004
 8337SOL    HW225911   6.373   6.609   2.874
 8338SOL     OW25912   2.736   5.724   0.630
 8338SOL    HW125913   2.785   5.808   0.609
 8338SOL    HW225914   2.751   5.699   0.725
 8339SOL     OW25915   5.351   0.793   3.020
 8339SOL    HW125916   5.292   0.817   2.943
 8339SOL    HW225917   5.297   0.744   3.089
 8340SOL     OW25918   5.097   3.915   2.074
 8340SOL    HW125919   5.025   3.846   2.074
 8340SOL    HW225920   5.114   3.946   1.981
 8341SOL     OW25921   1.760   0.535   0.193
 8341SOL    HW125922   1.715   0.617   0.228
 8341SOL    HW225923   1.741   0.526   0.095
 8342SOL     OW25924   5.445   6.852   0.968
 8342SOL    HW125925   5.460   6.908   0.886
 8342SOL    HW225926   5.349   6.861   0.997
 8343SOL     OW25927   6.923   4.395   4.755
 8343SOL    HW125928   6.883   4.323   4.812
 8343SOL    HW225929   6.862   4.412   4.677
 8344SOL     OW25930   3.854   6.933   4.808
 8344SOL    HW125931   3.906   6.948   4.723
 8344SOL    HW225932   3.845   6.835   4.825
 8345SOL     OW25933   5.677   1.575   3.194
 8345SOL    HW125934   5.592   1.597   3.243
 8345SOL    HW225935   5.655   1.550   3.100
 8346SOL     OW25936   3.804   5.299   1.636
 8346SOL    HW125937   3.759   5.211   1.651
 8346SOL    HW225938   3.739   5.364   1.596
 8347SOL     OW25939   2.951   5.217   4.138
 8347SOL    HW125940   3.027   5.204   4.202
 8347SOL    HW225941   2.944   5.137   4.078
 8348SOL     OW25942   2.099   0.175   0.404
 8348SOL    HW125943   2.133   0.081   0.394
 8348SOL    HW225944   2.080   0.213   0.313
 8349SOL     OW25945   6.194   4.796   2.785
 8349SOL    HW125946   6.184   4.709   2.736
 8349SOL    HW225947   6.104   4.827   2.816
 8350SOL     OW25948   6.630   0.626   4.720
 8350SOL    HW125949   6.540   0.667   4.703
 8350SOL    HW225950   6.674   0.606   4.633
 8351SOL     OW25951   2.107   6.777   2.428
 8351SOL    HW125952   2.032   6.715   2.449
 8351SOL    HW225953   2.079   6.841   2.357
 8352SOL     OW25954   5.521   6.237   2.040
 8352SOL    HW125955   5.423   6.229   2.019
 8352SOL    HW225956   5.542   6.332   2.064
 8353SOL     OW25957   2.389   3.813   1.435
 8353SOL    HW125958   2.437   3.813   1.523
 8353SOL    HW225959   2.430   3.882   1.376
 8354SOL     OW25960   3.053   0.030   0.617
 8354SOL    HW125961   3.052   0.046   0.716
 8354SOL    HW225962   3.141   7.020   0.589
 8355SOL     OW25963   2.363   1.917   0.641
 8355SOL    HW125964   2.318   1.828   0.651
 8355SOL    HW225965   2.378   1.958   0.731
 8356SOL     OW25966   2.760   4.888   0.622
 8356SOL    HW125967   2.810   4.822   0.566
 8356SOL    HW225968   2.732   4.845   0.708
 8357SOL     OW25969   3.363   6.752   2.402
 8357SOL    HW125970   3.415   6.666   2.409
 8357SOL    HW225971   3.401   6.807   2.328
 8358SOL     OW25972   3.171   1.649   5.291
 8358SOL    HW125973   3.096   1.635   5.356
 8358SOL    HW225974   3.241   1.707   5.333
 8359SOL     OW25975   3.957   4.935   4.146
 8359SOL    HW125976   4.033   4.994   4.171
 8359SOL    HW225977   3.914   4.968   4.062
 8360SOL     OW25978   4.373   0.648   3.260
 8360SOL    HW125979   4.298   0.709   3.233
 8360SOL    HW225980   4.339   0.578   3.323
 8361SOL     OW25981   1.297   0.551   3.050
 8361SOL    HW125982   1.281   0.526   2.954
 8361SOL    HW225983   1.215   0.594   3.088
 8362SOL     OW25984   3.536   3.228   0.643
 8362SOL    HW125985   3.507   3.134   0.662
 8362SOL    HW225986   3.633   3.230   0.621
 8363SOL     OW25987   0.127   2.785   1.894
 8363SOL    HW125988   0.127   2.771   1.795
 8363SOL    HW225989   0.208   2.743   1.933
 8364SOL     OW25990   6.690   4.891   5.092
 8364SOL    HW125991   6.761   4.830   5.129
 8364SOL    HW225992   6.731   4.979   5.069
 8365SOL     OW25993   2.013   3.952   6.065
 8365SOL    HW125994   2.028   3.854   6.054
 8365SOL    HW225995   2.039   3.999   5.981
 8366SOL     OW25996   2.041   6.823   1.377
 8366SOL    HW125997   1.998   6.788   1.460
 8366SOL    HW225998   2.042   6.923   1.379
 8367SOL     OW25999   5.041   5.635   3.579
 8367SOL    HW126000   5.048   5.540   3.608
 8367SOL    HW226001   5.036   5.640   3.479
 8368SOL     OW26002   2.979   5.288   5.935
 8368SOL    HW126003   2.902   5.346   5.905
 8368SOL    HW226004   2.969   5.266   6.032
 8369SOL     OW26005   1.425   1.768   1.965
 8369SOL    HW126006   1.426   1.715   2.050
 8369SOL    HW226007   1.449   1.708   1.888
 8370SOL     OW26008   2.310   1.109   0.493
 8370SOL    HW126009   2.389   1.091   0.550
 8370SOL    HW226010   2.227   1.107   0.549
 8371SOL     OW26011   1.615   2.567   0.106
 8371SOL    HW126012   1.522   2.603   0.105
 8371SOL    HW226013   1.617   2.479   0.058
 8372SOL     OW26014   5.928   0.851   6.906
 8372SOL    HW126015   5.904   0.821   6.999
 8372SOL    HW226016   5.996   0.788   6.867
 8373SOL     OW26017   1.941   6.684   3.552
 8373SOL    HW126018   1.878   6.732   3.612
 8373SOL    HW226019   2.006   6.631   3.606
 8374SOL     OW26020   6.836   1.775   5.838
 8374SOL    HW126021   6.831   1.871   5.812
 8374SOL    HW226022   6.786   1.720   5.772
 8375SOL     OW26023   4.086   0.530   6.233
 8375SOL    HW126024   4.124   0.441   6.210
 8375SOL    HW226025   4.149   0.579   6.294
 8376SOL     OW26026   4.836   0.334   3.942
 8376SOL    HW126027   4.785   0.420   3.938
 8376SOL    HW226028   4.829   0.296   4.034
 8377SOL     OW26029   4.209   4.664   0.249
 8377SOL    HW126030   4.126   4.699   0.291
 8377SOL    HW226031   4.243   4.587   0.302
 8378SOL     OW26032   5.155   3.442   3.267
 8378SOL    HW126033   5.210   3.456   3.350
 8378SOL    HW226034   5.169   3.349   3.233
 8379SOL     OW26035   5.131   2.919   2.907
 8379SOL    HW126036   5.159   2.874   2.991
 8379SOL    HW226037   5.206   2.974   2.871
 8380SOL     OW26038   5.629   1.118   4.136
 8380SOL    HW126039   5.654   1.070   4.052
 8380SOL    HW226040   5.563   1.190   4.114
 8381SOL     OW26041   2.117   4.703   4.990
 8381SOL    HW126042   2.170   4.657   5.061
 8381SOL    HW226043   2.091   4.794   5.021
 8382SOL     OW26044   0.570   4.256   1.366
 8382SOL    HW126045   0.513   4.218   1.293
 8382SOL    HW226046   0.636   4.188   1.396
 8383SOL     OW26047   3.485   1.404   5.564
 8383SOL    HW126048   3.485   1.496   5.525
 8383SOL    HW226049   3.393   1.366   5.561
 8384SOL     OW26050   0.463   0.405   1.403
 8384SOL    HW126051   0.386   0.452   1.447
 8384SOL    HW226052   0.428   0.327   1.351
 8385SOL     OW26053   4.284   2.227   1.439
 8385SOL    HW126054   4.239   2.248   1.352
 8385SOL    HW226055   4.269   2.303   1.503
 8386SOL     OW26056   0.252   2.252   1.727
 8386SOL    HW126057   0.219   2.270   1.634
 8386SOL    HW226058   0.340   2.206   1.723
 8387SOL     OW26059   0.625   2.187   2.815
 8387SOL    HW126060   0.569   2.159   2.893
 8387SOL    HW226061   0.718   2.206   2.847
 8388SOL     OW26062   1.382   6.826   2.934
 8388SOL    HW126063   1.303   6.767   2.916
 8388SOL    HW226064   1.464   6.785   2.895
 8389SOL     OW26065   6.882   2.594   3.916
 8389SOL    HW126066   6.911   2.555   3.828
 8389SOL    HW226067   6.792   2.635   3.905
 8390SOL     OW26068   6.441   2.450   6.755
 8390SOL    HW126069   6.493   2.439   6.671
 8390SOL    HW226070   6.444   2.546   6.783
 8391SOL     OW26071   6.154   0.816   0.767
 8391SOL    HW126072   6.246   0.826   0.804
 8391SOL    HW226073   6.140   0.721   0.737
 8392SOL     OW26074   3.434   2.910   4.476
 8392SOL    HW126075   3.529   2.940   4.477
 8392SOL    HW226076   3.431   2.810   4.464
 8393SOL     OW26077   5.761   0.550   0.517
 8393SOL    HW126078   5.682   0.525   0.461
 8393SOL    HW226079   5.729   0.586   0.605
 8394SOL     OW26080   4.916   3.454   3.142
 8394SOL    HW126081   4.894   3.362   3.109
 8394SOL    HW226082   4.995   3.450   3.203
 8395SOL     OW26083   1.868   1.344   6.076
 8395SOL    HW126084   1.771   1.352   6.058
 8395SOL    HW226085   1.920   1.377   5.998
 8396SOL     OW26086   5.177   5.024   4.334
 8396SOL    HW126087   5.162   5.058   4.241
 8396SOL    HW226088   5.276   5.023   4.353
 8397SOL     OW26089   5.697   6.556   2.813
 8397SOL    HW126090   5.764   6.536   2.884
 8397SOL    HW226091   5.713   6.497   2.734
 8398SOL     OW26092   5.649   1.795   6.044
 8398SOL    HW126093   5.631   1.702   6.012
 8398SOL    HW226094   5.664   1.855   5.966
 8399SOL     OW26095   0.647   4.023   3.047
 8399SOL    HW126096   0.737   4.003   3.085
 8399SOL    HW226097   0.587   4.056   3.121
 8400SOL     OW26098   1.232   0.716   4.237
 8400SOL    HW126099   1.208   0.812   4.221
 8400SOL    HW226100   1.243   0.700   4.335
 8401SOL     OW26101   1.468   0.214   6.169
 8401SOL    HW126102   1.529   0.155   6.116
 8401SOL    HW226103   1.522   0.266   6.236
 8402SOL     OW26104   3.086   1.076   5.719
 8402SOL    HW126105   3.143   1.076   5.801
 8402SOL    HW226106   3.052   0.983   5.702
 8403SOL     OW26107   5.765   4.479   6.279
 8403SOL    HW126108   5.675   4.523   6.278
 8403SOL    HW226109   5.756   4.387   6.317
 8404SOL     OW26110   1.601   1.046   0.195
 8404SOL    HW126111   1.598   1.099   0.110
 8404SOL    HW226112   1.686   1.066   0.243
 8405SOL     OW26113   3.475   6.296   5.784
 8405SOL    HW126114   3.442   6.368   5.845
 8405SOL    HW226115   3.420   6.294   5.701
 8406SOL     OW26116   6.345   0.926   6.126
 8406SOL    HW126117   6.372   0.905   6.220
 8406SOL    HW226118   6.372   1.020   6.105
 8407SOL     OW26119   5.125   0.565   5.327
 8407SOL    HW126120   5.089   0.521   5.409
 8407SOL    HW226121   5.120   0.502   5.250
 8408SOL     OW26122   3.386   2.238   1.201
 8408SOL    HW126123   3.421   2.262   1.292
 8408SOL    HW226124   3.326   2.158   1.208
 8409SOL     OW26125   4.882   2.894   1.890
 8409SOL    HW126126   4.829   2.966   1.934
 8409SOL    HW226127   4.821   2.818   1.866
 8410SOL     OW26128   6.509   2.125   1.451
 8410SOL    HW126129   6.528   2.054   1.383
 8410SOL    HW226130   6.472   2.084   1.533
 8411SOL     OW26131   0.639   5.284   1.543
 8411SOL    HW126132   0.696   5.354   1.501
 8411SOL    HW226133   0.685   5.248   1.624
 8412SOL     OW26134   2.406   2.206   6.776
 8412SOL    HW126135   2.460   2.190   6.859
 8412SOL    HW226136   2.463   2.254   6.709
 8413SOL     OW26137   3.933   5.776   4.950
 8413SOL    HW126138   4.014   5.834   4.963
 8413SOL    HW226139   3.961   5.680   4.944
 8414SOL     OW26140   1.538   0.247   1.083
 8414SOL    HW126141   1.635   0.222   1.091
 8414SOL    HW226142   1.528   0.320   1.015
 8415SOL     OW26143   3.588   1.372   6.390
 8415SOL    HW126144   3.672   1.424   6.400
 8415SOL    HW226145   3.513   1.434   6.365
 8416SOL     OW26146   0.123   2.194   5.321
 8416SOL    HW126147   0.157   2.145   5.241
 8416SOL    HW226148   0.104   2.289   5.297
 8417SOL     OW26149   1.616   3.296   5.922
 8417SOL    HW126150   1.677   3.307   6.001
 8417SOL    HW226151   1.636   3.368   5.855
 8418SOL     OW26152   6.763   6.398   2.898
 8418SOL    HW126153   6.820   6.427   2.822
 8418SOL    HW226154   6.667   6.398   2.870
 8419SOL     OW26155   3.940   1.304   3.907
 8419SOL    HW126156   3.975   1.299   4.000
 8419SOL    HW226157   4.002   1.358   3.850
 8420SOL     OW26158   4.005   1.309   2.495
 8420SOL    HW126159   4.005   1.313   2.595
 8420SOL    HW226160   3.925   1.357   2.459
 8421SOL     OW26161   5.111   0.154   6.715
 8421SOL    HW126162   5.047   0.111   6.651
 8421SOL    HW226163   5.198   0.103   6.714
 8422SOL     OW26164   5.238   1.231   4.292
 8422SOL    HW126165   5.288   1.178   4.360
 8422SOL    HW226166   5.161   1.177   4.258
 8423SOL     OW26167   6.483   5.616   0.032
 8423SOL    HW126168   6.554   5.686   0.034
 8423SOL    HW226169   6.402   5.649   0.082
 8424SOL     OW26170   2.386   0.165   5.246
 8424SOL    HW126171   2.392   0.257   5.209
 8424SOL    HW226172   2.393   0.168   5.346
 8425SOL     OW26173   3.092   2.887   1.906
 8425SOL    HW126174   3.021   2.952   1.876
 8425SOL    HW226175   3.079   2.800   1.859
 8426SOL     OW26176   3.371   3.402   2.115
 8426SOL    HW126177   3.406   3.463   2.187
 8426SOL    HW226178   3.442   3.337   2.089
 8427SOL     OW26179   3.841   4.041   2.583
 8427SOL    HW126180   3.918   3.996   2.537
 8427SOL    HW226181   3.837   4.012   2.678
 8428SOL     OW26182   4.721   1.564   1.567
 8428SOL    HW126183   4.776   1.598   1.490
 8428SOL    HW226184   4.781   1.520   1.634
 8429SOL     OW26185   3.499   5.944   5.126
 8429SOL    HW126186   3.542   5.891   5.052
 8429SOL    HW226187   3.568   5.997   5.174
 8430SOL     OW26188   5.081   6.333   5.886
 8430SOL    HW126189   5.013   6.285   5.942
 8430SOL    HW226190   5.132   6.267   5.832
 8431SOL     OW26191   2.705   3.054   6.262
 8431SOL    HW126192   2.755   3.001   6.330
 8431SOL    HW226193   2.607   3.054   6.284
 8432SOL     OW26194   6.576   5.239   5.727
 8432SOL    HW126195   6.653   5.199   5.777
 8432SOL    HW226196   6.503   5.260   5.791
 8433SOL     OW26197   4.607   1.993   0.464
 8433SOL    HW126198   4.547   2.073   0.451
 8433SOL    HW226199   4.598   1.932   0.385
 8434SOL     OW26200   3.149   6.260   4.342
 8434SOL    HW126201   3.190   6.174   4.312
 8434SOL    HW226202   3.078   6.240   4.410
 8435SOL     OW26203   6.223   1.202   3.682
 8435SOL    HW126204   6.222   1.105   3.660
 8435SOL    HW226205   6.269   1.216   3.770
 8436SOL     OW26206   2.268   4.886   2.404
 8436SOL    HW126207   2.217   4.937   2.474
 8436SOL    HW226208   2.365   4.911   2.409
 8437SOL     OW26209   1.819   5.489   0.095
 8437SOL    HW126210   1.867   5.477   0.181
 8437SOL    HW226211   1.873   5.451   0.020
 8438SOL     OW26212   0.876   4.350   2.122
 8438SOL    HW126213   0.843   4.368   2.215
 8438SOL    HW226214   0.957   4.405   2.104
 8439SOL     OW26215   5.640   4.786   2.832
 8439SOL    HW126216   5.715   4.725   2.856
 8439SOL    HW226217   5.591   4.749   2.753
 8440SOL     OW26218   2.217   1.910   3.029
 8440SOL    HW126219   2.221   1.882   3.124
 8440SOL    HW226220   2.280   1.986   3.013
 8441SOL     OW26221   0.632   3.024   6.181
 8441SOL    HW126222   0.659   3.001   6.275
 8441SOL    HW226223   0.547   2.978   6.159
 8442SOL     OW26224   3.225   2.454   6.306
 8442SOL    HW126225   3.209   2.478   6.210
 8442SOL    HW226226   3.307   2.501   6.339
 8443SOL     OW26227   2.176   3.873   3.206
 8443SOL    HW126228   2.155   3.960   3.250
 8443SOL    HW226229   2.185   3.886   3.108
 8444SOL     OW26230   5.405   6.213   5.224
 8444SOL    HW126231   5.482   6.178   5.278
 8444SOL    HW226232   5.361   6.138   5.175
 8445SOL     OW26233   5.179   6.489   6.392
 8445SOL    HW126234   5.128   6.546   6.456
 8445SOL    HW226235   5.190   6.539   6.306
 8446SOL     OW26236   6.475   6.062   4.241
 8446SOL    HW126237   6.488   5.963   4.228
 8446SOL    HW226238   6.474   6.107   4.152
 8447SOL     OW26239   3.829   2.023   3.789
 8447SOL    HW126240   3.849   2.028   3.691
 8447SOL    HW226241   3.821   1.927   3.816
 8448SOL     OW26242   3.207   6.943   2.505
 8448SOL    HW126243   3.251   6.855   2.490
 8448SOL    HW226244   3.257   6.993   2.577
 8449SOL     OW26245   0.198   2.327   3.892
 8449SOL    HW126246   0.218   2.303   3.987
 8449SOL    HW226247   0.276   2.302   3.835
 8450SOL     OW26248   6.649   1.249   0.164
 8450SOL    HW126249   6.620   1.232   0.258
 8450SOL    HW226250   6.740   1.290   0.164
 8451SOL     OW26251   4.411   2.885   0.449
 8451SOL    HW126252   4.405   2.920   0.355
 8451SOL    HW226253   4.319   2.864   0.483
 8452SOL     OW26254   4.932   0.853   5.992
 8452SOL    HW126255   5.020   0.812   5.967
 8452SOL    HW226256   4.893   0.804   6.070
 8453SOL     OW26257   0.067   0.829   0.065
 8453SOL    HW126258   0.108   0.810   7.002
 8453SOL    HW226259   0.133   0.877   0.122
 8454SOL     OW26260   6.355   6.184   0.280
 8454SOL    HW126261   6.444   6.229   0.269
 8454SOL    HW226262   6.339   6.123   0.203
 8455SOL     OW26263   6.653   0.988   2.934
 8455SOL    HW126264   6.679   0.893   2.918
 8455SOL    HW226265   6.564   1.006   2.891
 8456SOL     OW26266   6.313   0.583   1.826
 8456SOL    HW126267   6.402   0.539   1.817
 8456SOL    HW226268   6.317   0.650   1.901
 8457SOL     OW26269   6.371   6.550   4.913
 8457SOL    HW126270   6.273   6.556   4.933
 8457SOL    HW226271   6.416   6.498   4.986
 8458SOL     OW26272   1.621   6.285   0.790
 8458SOL    HW126273   1.567   6.352   0.841
 8458SOL    HW226274   1.564   6.206   0.767
 8459SOL     OW26275   1.181   6.065   4.058
 8459SOL    HW126276   1.252   5.996   4.071
 8459SOL    HW226277   1.223   6.156   4.057
 8460SOL     OW26278   4.105   3.688   3.786
 8460SOL    HW126279   4.117   3.649   3.877
 8460SOL    HW226280   4.080   3.785   3.794
 8461SOL     OW26281   6.567   3.326   4.020
 8461SOL    HW126282   6.655   3.345   4.064
 8461SOL    HW226283   6.560   3.227   4.002
 8462SOL     OW26284   2.696   2.308   2.146
 8462SOL    HW126285   2.782   2.329   2.099
 8462SOL    HW226286   2.622   2.361   2.105
 8463SOL     OW26287   6.314   0.281   1.650
 8463SOL    HW126288   6.271   0.300   1.562
 8463SOL    HW226289   6.414   0.275   1.638
 8464SOL     OW26290   6.872   1.143   4.884
 8464SOL    HW126291   6.815   1.076   4.932
 8464SOL    HW226292   6.957   1.099   4.854
 8465SOL     OW26293   2.203   0.634   0.180
 8465SOL    HW126294   2.265   0.607   0.253
 8465SOL    HW226295   2.255   0.656   0.097
 8466SOL     OW26296   1.022   0.113   3.812
 8466SOL    HW126297   0.937   0.166   3.804
 8466SOL    HW226298   1.013   0.048   3.887
 8467SOL     OW26299   3.537   5.000   1.267
 8467SOL    HW126300   3.560   5.062   1.192
 8467SOL    HW226301   3.579   5.033   1.352
 8468SOL     OW26302   4.805   2.655   0.149
 8468SOL    HW126303   4.713   2.694   0.143
 8468SOL    HW226304   4.803   2.574   0.208
 8469SOL     OW26305   5.299   1.954   4.913
 8469SOL    HW126306   5.271   1.906   4.830
 8469SOL    HW226307   5.218   1.981   4.965
 8470SOL     OW26308   1.650   3.115   0.038
 8470SOL    HW126309   1.707   3.188   0.001
 8470SOL    HW226310   1.577   3.093   7.000
 8471SOL     OW26311   3.778   1.731   5.705
 8471SOL    HW126312   3.827   1.645   5.721
 8471SOL    HW226313   3.785   1.789   5.786
 8472SOL     OW26314   1.479   5.671   2.507
 8472SOL    HW126315   1.437   5.621   2.431
 8472SOL    HW226316   1.519   5.756   2.473
 8473SOL     OW26317   6.637   5.868   6.572
 8473SOL    HW126318   6.672   5.808   6.500
 8473SOL    HW226319   6.629   5.816   6.658
 8474SOL     OW26320   4.232   6.087   7.018
 8474SOL    HW126321   4.296   6.058   6.946
 8474SOL    HW226322   4.197   6.178   6.997
 8475SOL     OW26323   5.078   1.502   2.719
 8475SOL    HW126324   5.031   1.526   2.634
 8475SOL    HW226325   5.032   1.546   2.796
 8476SOL     OW26326   4.875   0.751   2.770
 8476SOL    HW126327   4.941   0.717   2.703
 8476SOL    HW226328   4.818   0.675   2.802
 8477SOL     OW26329   2.604   1.223   3.535
 8477SOL    HW126330   2.533   1.290   3.556
 8477SOL    HW226331   2.669   1.263   3.470
 8478SOL     OW26332   1.313   2.054   6.345
 8478SOL    HW126333   1.343   2.112   6.421
 8478SOL    HW226334   1.299   2.110   6.263
 8479SOL     OW26335   5.591   6.846   1.846
 8479SOL    HW126336   5.496   6.852   1.813
 8479SOL    HW226337   5.640   6.929   1.821
 8480SOL     OW26338   2.433   0.653   2.177
 8480SOL    HW126339   2.343   0.697   2.170
 8480SOL    HW226340   2.425   0.570   2.233
 8481SOL     OW26341   3.899   7.019   5.863
 8481SOL    HW126342   3.943   0.032   5.782
 8481SOL    HW226343   3.825   6.958   5.834
 8482SOL     OW26344   6.172   0.949   1.524
 8482SOL    HW126345   6.155   1.028   1.583
 8482SOL    HW226346   6.132   0.867   1.564
 8483SOL     OW26347   4.712   6.221   1.483
 8483SOL    HW126348   4.688   6.297   1.423
 8483SOL    HW226349   4.629   6.180   1.520
 8484SOL     OW26350   6.982   4.630   6.135
 8484SOL    HW126351   6.912   4.654   6.068
 8484SOL    HW226352   0.016   4.560   6.097
 8485SOL     OW26353   2.036   3.223   6.515
 8485SOL    HW126354   1.969   3.149   6.517
 8485SOL    HW226355   2.078   3.228   6.424
 8486SOL     OW26356   4.487   0.176   1.566
 8486SOL    HW126357   4.411   0.111   1.558
 8486SOL    HW226358   4.502   0.219   1.477
 8487SOL     OW26359   4.715   0.524   1.096
 8487SOL    HW126360   4.738   0.518   0.999
 8487SOL    HW226361   4.715   0.433   1.136
 8488SOL     OW26362   0.366   4.719   6.377
 8488SOL    HW126363   0.430   4.794   6.395
 8488SOL    HW226364   0.395   4.638   6.428
 8489SOL     OW26365   3.224   0.156   3.225
 8489SOL    HW126366   3.226   0.056   3.234
 8489SOL    HW226367   3.132   0.189   3.244
 8490SOL     OW26368   3.992   5.113   2.166
 8490SOL    HW126369   3.970   5.024   2.205
 8490SOL    HW226370   3.988   5.108   2.066
 8491SOL     OW26371   6.628   0.585   0.855
 8491SOL    HW126372   6.543   0.589   0.907
 8491SOL    HW226373   6.692   0.654   0.890
 8492SOL     OW26374   6.145   4.196   4.425
 8492SOL    HW126375   6.182   4.111   4.388
 8492SOL    HW226376   6.045   4.193   4.419
 8493SOL     OW26377   4.484   3.160   0.850
 8493SOL    HW126378   4.543   3.096   0.802
 8493SOL    HW226379   4.390   3.126   0.850
 8494SOL     OW26380   3.441   6.147   6.441
 8494SOL    HW126381   3.518   6.083   6.445
 8494SOL    HW226382   3.445   6.210   6.518
 8495SOL     OW26383   0.327   3.710   6.070
 8495SOL    HW126384   0.420   3.677   6.053
 8495SOL    HW226385   0.328   3.809   6.084
 8496SOL     OW26386   1.317   1.696   4.676
 8496SOL    HW126387   1.366   1.612   4.653
 8496SOL    HW226388   1.238   1.674   4.732
 8497SOL     OW26389   5.354   3.224   4.775
 8497SOL    HW126390   5.301   3.155   4.726
 8497SOL    HW226391   5.429   3.256   4.717
 8498SOL     OW26392   6.313   1.083   2.361
 8498SOL    HW126393   6.273   1.017   2.424
 8498SOL    HW226394   6.242   1.118   2.299
 8499SOL     OW26395   0.112   4.232   0.726
 8499SOL    HW126396   0.084   4.324   0.753
 8499SOL    HW226397   0.203   4.236   0.684
 8500SOL     OW26398   1.608   1.010   5.141
 8500SOL    HW126399   1.679   0.973   5.081
 8500SOL    HW226400   1.518   0.994   5.101
 8501SOL     OW26401   3.311   3.053   6.384
 8501SOL    HW126402   3.279   3.124   6.320
 8501SOL    HW226403   3.375   2.992   6.337
 8502SOL     OW26404   0.428   6.466   1.287
 8502SOL    HW126405   0.453   6.404   1.212
 8502SOL    HW226406   0.450   6.423   1.375
 8503SOL     OW26407   4.135   5.895   3.329
 8503SOL    HW126408   4.050   5.925   3.287
 8503SOL    HW226409   4.179   5.973   3.374
 8504SOL     OW26410   1.723   4.896   2.860
 8504SOL    HW126411   1.682   4.984   2.835
 8504SOL    HW226412   1.822   4.902   2.848
 8505SOL     OW26413   4.372   2.037   2.519
 8505SOL    HW126414   4.305   1.989   2.462
 8505SOL    HW226415   4.325   2.076   2.599
 8506SOL     OW26416   0.760   5.124   0.536
 8506SOL    HW126417   0.763   5.024   0.532
 8506SOL    HW226418   0.805   5.156   0.619
 8507SOL     OW26419   2.658   6.875   4.327
 8507SOL    HW126420   2.705   6.882   4.415
 8507SOL    HW226421   2.714   6.821   4.264
 8508SOL     OW26422   0.987   3.617   6.211
 8508SOL    HW126423   1.039   3.541   6.250
 8508SOL    HW226424   0.975   3.602   6.113
 8509SOL     OW26425   6.810   2.789   4.362
 8509SOL    HW126426   6.830   2.703   4.316
 8509SOL    HW226427   6.816   2.865   4.297
 8510SOL     OW26428   5.505   6.496   3.399
 8510SOL    HW126429   5.512   6.418   3.337
 8510SOL    HW226430   5.449   6.567   3.356
 8511SOL     OW26431   6.374   4.789   0.664
 8511SOL    HW126432   6.277   4.789   0.640
 8511SOL    HW226433   6.421   4.862   0.614
 8512SOL     OW26434   3.993   2.852   0.802
 8512SOL    HW126435   3.930   2.803   0.863
 8512SOL    HW226436   3.942   2.894   0.727
 8513SOL     OW26437   0.386   3.513   1.124
 8513SOL    HW126438   0.367   3.608   1.098
 8513SOL    HW226439   0.367   3.453   1.046
 8514SOL     OW26440   2.283   2.752   5.075
 8514SOL    HW126441   2.343   2.821   5.114
 8514SOL    HW226442   2.336   2.669   5.055
 8515SOL     OW26443   3.119   1.695   0.142
 8515SOL    HW126444   3.028   1.731   0.166
 8515SOL    HW226445   3.186   1.727   0.208
 8516SOL     OW26446   7.021   3.723   5.532
 8516SOL    HW126447   0.013   3.779   5.451
 8516SOL    HW226448   6.925   3.734   5.558
 8517SOL     OW26449   1.352   2.585   5.807
 8517SOL    HW126450   1.399   2.514   5.754
 8517SOL    HW226451   1.361   2.564   5.905
 8518SOL     OW26452   5.763   5.021   0.224
 8518SOL    HW126453   5.748   5.105   0.172
 8518SOL    HW226454   5.859   4.993   0.216
 8519SOL     OW26455   1.589   3.978   1.504
 8519SOL    HW126456   1.642   3.918   1.563
 8519SOL    HW226457   1.613   3.961   1.408
 8520SOL     OW26458   2.921   3.859   6.618
 8520SOL    HW126459   2.977   3.913   6.681
 8520SOL    HW226460   2.919   3.764   6.649
 8521SOL     OW26461   2.161   0.298   4.678
 8521SOL    HW126462   2.073   0.271   4.717
 8521SOL    HW226463   2.206   0.363   4.740
 8522SOL     OW26464   0.248   0.589   0.297
 8522SOL    HW126465   0.153   0.563   0.276
 8522SOL    HW226466   0.293   0.619   0.214
 8523SOL     OW26467   4.055   2.219   1.719
 8523SOL    HW126468   4.071   2.243   1.815
 8523SOL    HW226469   4.132   2.251   1.664
 8524SOL     OW26470   2.373   6.158   4.867
 8524SOL    HW126471   2.305   6.120   4.930
 8524SOL    HW226472   2.462   6.117   4.886
 8525SOL     OW26473   6.436   2.479   3.407
 8525SOL    HW126474   6.408   2.398   3.355
 8525SOL    HW226475   6.357   2.516   3.456
 8526SOL     OW26476   0.621   4.853   6.467
 8526SOL    HW126477   0.570   4.903   6.396
 8526SOL    HW226478   0.719   4.868   6.454
 8527SOL     OW26479   1.319   0.932   6.524
 8527SOL    HW126480   1.389   0.971   6.584
 8527SOL    HW226481   1.334   0.964   6.430
 8528SOL     OW26482   5.796   6.731   0.322
 8528SOL    HW126483   5.847   6.712   0.238
 8528SOL    HW226484   5.834   6.812   0.366
 8529SOL     OW26485   1.077   6.698   6.817
 8529SOL    HW126486   1.027   6.784   6.820
 8529SOL    HW226487   1.144   6.700   6.743
 8530SOL     OW26488   3.599   3.987   2.847
 8530SOL    HW126489   3.618   3.932   2.928
 8530SOL    HW226490   3.682   4.035   2.819
 8531SOL     OW26491   6.347   5.728   3.401
 8531SOL    HW126492   6.336   5.811   3.457
 8531SOL    HW226493   6.430   5.736   3.346
 8532SOL     OW26494   3.530   5.347   0.346
 8532SOL    HW126495   3.507   5.386   0.436
 8532SOL    HW226496   3.629   5.336   0.339
 8533SOL     OW26497   2.378   5.921   5.511
 8533SOL    HW126498   2.308   5.891   5.576
 8533SOL    HW226499   2.351   6.009   5.471
 8534SOL     OW26500   2.148   3.219   1.966
 8534SOL    HW126501   2.179   3.314   1.969
 8534SOL    HW226502   2.185   3.175   1.884
 8535SOL     OW26503   6.190   6.443   1.882
 8535SOL    HW126504   6.290   6.433   1.878
 8535SOL    HW226505   6.148   6.388   1.810
 8536SOL     OW26506   2.722   0.694   4.113
 8536SOL    HW126507   2.645   0.724   4.056
 8536SOL    HW226508   2.706   0.721   4.208
 8537SOL     OW26509   5.823   1.109   3.325
 8537SOL    HW126510   5.734   1.107   3.280
 8537SOL    HW226511   5.855   1.203   3.333
 8538SOL     OW26512   0.574   2.528   6.970
 8538SOL    HW126513   0.628   2.603   6.931
 8538SOL    HW226514   0.490   2.516   6.917
 8539SOL     OW26515   5.686   3.682   1.977
 8539SOL    HW126516   5.641   3.619   2.039
 8539SOL    HW226517   5.671   3.653   1.882
 8540SOL     OW26518   4.312   0.223   1.275
 8540SOL    HW126519   4.297   0.322   1.280
 8540SOL    HW226520   4.349   0.200   1.185
 8541SOL     OW26521   1.112   3.209   3.196
 8541SOL    HW126522   1.189   3.235   3.255
 8541SOL    HW226523   1.141   3.212   3.100
 8542SOL     OW26524   2.649   5.020   6.349
 8542SOL    HW126525   2.694   5.071   6.422
 8542SOL    HW226526   2.706   4.942   6.323
 8543SOL     OW26527   3.860   1.624   6.697
 8543SOL    HW126528   3.823   1.560   6.765
 8543SOL    HW226529   3.854   1.717   6.733
 8544SOL     OW26530   6.104   2.747   4.477
 8544SOL    HW126531   6.103   2.842   4.446
 8544SOL    HW226532   6.035   2.735   4.549
 8545SOL     OW26533   4.489   7.015   5.650
 8545SOL    HW126534   4.413   0.050   5.631
 8545SOL    HW226535   4.567   0.011   5.592
 8546SOL     OW26536   4.721   1.804   5.938
 8546SOL    HW126537   4.679   1.822   5.849
 8546SOL    HW226538   4.809   1.758   5.924
 8547SOL     OW26539   1.409   4.748   2.063
 8547SOL    HW126540   1.440   4.839   2.035
 8547SOL    HW226541   1.487   4.687   2.072
 8548SOL     OW26542   6.263   2.352   5.701
 8548SOL    HW126543   6.233   2.306   5.617
 8548SOL    HW226544   6.247   2.450   5.693
 8549SOL     OW26545   4.938   2.544   4.562
 8549SOL    HW126546   4.838   2.537   4.560
 8549SOL    HW226547   4.977   2.484   4.492
 8550SOL     OW26548   2.062   5.052   5.393
 8550SOL    HW126549   2.086   5.048   5.490
 8550SOL    HW226550   2.088   5.141   5.356
 8551SOL     OW26551   3.020   5.485   0.655
 8551SOL    HW126552   3.059   5.431   0.730
 8551SOL    HW226553   2.937   5.532   0.687
 8552SOL     OW26554   2.972   6.887   3.532
 8552SOL    HW126555   2.956   6.926   3.623
 8552SOL    HW226556   3.070   6.870   3.521
 8553SOL     OW26557   6.235   5.721   0.133
 8553SOL    HW126558   6.166   5.742   0.203
 8553SOL    HW226559   6.203   5.646   0.076
 8554SOL     OW26560   5.648   3.992   6.940
 8554SOL    HW126561   5.712   3.991   7.017
 8554SOL    HW226562   5.693   3.953   6.859
 8555SOL     OW26563   2.118   6.474   4.247
 8555SOL    HW126564   2.201   6.521   4.217
 8555SOL    HW226565   2.044   6.541   4.257
 8556SOL     OW26566   5.567   0.309   5.811
 8556SOL    HW126567   5.643   0.354   5.765
 8556SOL    HW226568   5.515   0.255   5.744
 8557SOL     OW26569   6.763   1.735   1.205
 8557SOL    HW126570   6.744   1.648   1.249
 8557SOL    HW226571   6.792   1.720   1.110
 8558SOL     OW26572   1.755   4.439   2.434
 8558SOL    HW126573   1.847   4.459   2.401
 8558SOL    HW226574   1.705   4.525   2.446
 8559SOL     OW26575   1.470   1.337   4.988
 8559SOL    HW126576   1.538   1.402   4.954
 8559SOL    HW226577   1.460   1.348   5.086
 8560SOL     OW26578   6.379   3.166   0.203
 8560SOL    HW126579   6.284   3.134   0.197
 8560SOL    HW226580   6.439   3.087   0.216
 8561SOL     OW26581   5.248   5.811   5.916
 8561SOL    HW126582   5.239   5.837   6.012
 8561SOL    HW226583   5.172   5.850   5.863
 8562SOL     OW26584   4.090   1.158   4.994
 8562SOL    HW126585   4.069   1.062   4.976
 8562SOL    HW226586   4.122   1.201   4.909
 8563SOL     OW26587   2.263   2.563   5.959
 8563SOL    HW126588   2.169   2.540   5.933
 8563SOL    HW226589   2.294   2.502   6.032
 8564SOL     OW26590   0.658   5.266   4.612
 8564SOL    HW126591   0.683   5.294   4.704
 8564SOL    HW226592   0.584   5.198   4.616
 8565SOL     OW26593   3.983   0.981   1.286
 8565SOL    HW126594   3.998   0.957   1.190
 8565SOL    HW226595   3.986   1.080   1.296
 8566SOL     OW26596   1.690   4.616   4.286
 8566SOL    HW126597   1.785   4.636   4.308
 8566SOL    HW226598   1.632   4.692   4.317
 8567SOL     OW26599   5.373   6.550   6.613
 8567SOL    HW126600   5.298   6.584   6.670
 8567SOL    HW226601   5.335   6.511   6.529
 8568SOL     OW26602   5.149   6.319   0.441
 8568SOL    HW126603   5.058   6.358   0.455
 8568SOL    HW226604   5.218   6.384   0.473
 8569SOL     OW26605   2.357   0.890   5.139
 8569SOL    HW126606   2.431   0.955   5.122
 8569SOL    HW226607   2.307   0.873   5.055
 8570SOL     OW26608   6.749   4.147   5.916
 8570SOL    HW126609   6.672   4.203   5.886
 8570SOL    HW226610   6.822   4.149   5.847
 8571SOL     OW26611   0.856   4.598   6.883
 8571SOL    HW126612   0.936   4.540   6.891
 8571SOL    HW226613   0.871   4.668   6.813
 8572SOL     OW26614   2.683   4.520   6.667
 8572SOL    HW126615   2.765   4.481   6.626
 8572SOL    HW226616   2.628   4.566   6.598
 8573SOL     OW26617   2.680   5.324   4.099
 8573SOL    HW126618   2.658   5.353   4.192
 8573SOL    HW226619   2.749   5.252   4.101
 8574SOL     OW26620   0.988   4.333   4.383
 8574SOL    HW126621   1.055   4.350   4.456
 8574SOL    HW226622   0.896   4.338   4.421
 8575SOL     OW26623   2.670   3.133   5.880
 8575SOL    HW126624   2.728   3.127   5.799
 8575SOL    HW226625   2.622   3.221   5.880
 8576SOL     OW26626   1.998   0.529   0.316
 8576SOL    HW126627   2.037   0.596   0.252
 8576SOL    HW226628   1.900   0.517   0.295
 8577SOL     OW26629   6.306   5.692   4.668
 8577SOL    HW126630   6.333   5.602   4.632
 8577SOL    HW226631   6.339   5.763   4.607
 8578SOL     OW26632   4.643   0.595   4.468
 8578SOL    HW126633   4.612   0.569   4.559
 8578SOL    HW226634   4.729   0.547   4.448
 8579SOL     OW26635   7.025   4.519   2.702
 8579SOL    HW126636   0.081   4.558   2.741
 8579SOL    HW226637   6.954   4.589   2.697
 8580SOL     OW26638   1.437   6.055   5.775
 8580SOL    HW126639   1.516   6.107   5.807
 8580SOL    HW226640   1.396   6.006   5.852
 8581SOL     OW26641   3.331   3.495   0.097
 8581SOL    HW126642   3.369   3.557   0.028
 8581SOL    HW226643   3.268   3.546   0.155
 8582SOL     OW26644   2.611   5.933   0.193
 8582SOL    HW126645   2.708   5.925   0.168
 8582SOL    HW226646   2.567   6.000   0.133
 8583SOL     OW26647   5.932   0.037   4.116
 8583SOL    HW126648   5.990   6.994   4.075
 8583SOL    HW226649   5.858   7.020   4.168
 8584SOL     OW26650   0.628   5.555   6.083
 8584SOL    HW126651   0.582   5.606   6.011
 8584SOL    HW226652   0.637   5.459   6.056
 8585SOL     OW26653   1.304   0.944   0.758
 8585SOL    HW126654   1.350   0.877   0.817
 8585SOL    HW226655   1.264   0.897   0.680
 8586SOL     OW26656   3.749   5.221   2.930
 8586SOL    HW126657   3.825   5.225   2.865
 8586SOL    HW226658   3.727   5.125   2.949
 8587SOL     OW26659   0.190   1.183   0.760
 8587SOL    HW126660   0.236   1.096   0.742
 8587SOL    HW226661   0.240   1.233   0.830
 8588SOL     OW26662   4.261   3.440   6.851
 8588SOL    HW126663   4.264   3.510   6.781
 8588SOL    HW226664   4.179   3.452   6.908
 8589SOL     OW26665   3.817   1.067   3.905
 8589SOL    HW126666   3.860   1.155   3.884
 8589SOL    HW226667   3.774   1.071   3.995
 8590SOL     OW26668   5.220   3.737   6.016
 8590SOL    HW126669   5.297   3.789   6.053
 8590SOL    HW226670   5.217   3.647   6.059
 8591SOL     OW26671   0.195   2.883   0.681
 8591SOL    HW126672   0.274   2.882   0.620
 8591SOL    HW226673   0.209   2.815   0.753
 8592SOL     OW26674   6.904   5.845   0.515
 8592SOL    HW126675   6.910   5.747   0.534
 8592SOL    HW226676   6.824   5.883   0.562
 8593SOL     OW26677   1.141   4.952   4.071
 8593SOL    HW126678   1.151   5.051   4.081
 8593SOL    HW226679   1.146   4.909   4.161
 8594SOL     OW26680   3.849   3.695   2.562
 8594SOL    HW126681   3.752   3.720   2.564
 8594SOL    HW226682   3.897   3.757   2.500
 8595SOL     OW26683   1.127   2.501   2.515
 8595SOL    HW126684   1.112   2.593   2.480
 8595SOL    HW226685   1.223   2.477   2.505
 8596SOL     OW26686   6.779   4.042   2.763
 8596SOL    HW126687   6.833   4.083   2.837
 8596SOL    HW226688   6.820   3.955   2.737
 8597SOL     OW26689   2.234   1.695   0.999
 8597SOL    HW126690   2.262   1.722   1.091
 8597SOL    HW226691   2.146   1.739   0.977
 8598SOL     OW26692   6.200   2.982   1.980
 8598SOL    HW126693   6.183   2.893   1.937
 8598SOL    HW226694   6.238   2.969   2.071
 8599SOL     OW26695   0.441   2.177   0.983
 8599SOL    HW126696   0.498   2.203   1.061
 8599SOL    HW226697   0.444   2.250   0.914
 8600SOL     OW26698   0.350   2.985   6.091
 8600SOL    HW126699   0.307   2.952   6.007
 8600SOL    HW226700   0.348   2.913   6.160
 8601SOL     OW26701   0.822   7.021   4.473
 8601SOL    HW126702   0.862   0.052   4.545
 8601SOL    HW226703   0.871   6.934   4.470
 8602SOL     OW26704   1.005   6.598   2.015
 8602SOL    HW126705   0.983   6.660   1.940
 8602SOL    HW226706   0.926   6.541   2.036
 8603SOL     OW26707   5.004   4.089   2.301
 8603SOL    HW126708   5.086   4.127   2.342
 8603SOL    HW226709   5.021   4.068   2.204
 8604SOL     OW26710   6.460   2.459   3.916
 8604SOL    HW126711   6.361   2.472   3.914
 8604SOL    HW226712   6.482   2.367   3.881
 8605SOL     OW26713   1.995   5.155   1.339
 8605SOL    HW126714   1.965   5.083   1.277
 8605SOL    HW226715   2.067   5.120   1.399
 8606SOL     OW26716   4.131   5.319   4.937
 8606SOL    HW126717   4.061   5.274   4.991
 8606SOL    HW226718   4.096   5.407   4.904
 8607SOL     OW26719   3.040   6.839   0.846
 8607SOL    HW126720   3.001   6.791   0.768
 8607SOL    HW226721   2.969   6.893   0.890
 8608SOL     OW26722   5.946   6.423   3.913
 8608SOL    HW126723   5.879   6.483   3.870
 8608SOL    HW226724   5.904   6.334   3.930
 8609SOL     OW26725   5.323   6.581   5.488
 8609SOL    HW126726   5.390   6.516   5.452
 8609SOL    HW226727   5.236   6.534   5.504
 8610SOL     OW26728   0.239   0.199   4.842
 8610SOL    HW126729   0.261   0.102   4.836
 8610SOL    HW226730   0.296   0.241   4.912
 8611SOL     OW26731   1.784   1.570   2.739
 8611SOL    HW126732   1.739   1.482   2.731
 8611SOL    HW226733   1.718   1.639   2.771
 8612SOL     OW26734   5.171   3.201   4.491
 8612SOL    HW126735   5.204   3.109   4.471
 8612SOL    HW226736   5.248   3.265   4.494
 8613SOL     OW26737   1.535   0.933   1.132
 8613SOL    HW126738   1.449   0.984   1.127
 8613SOL    HW226739   1.555   0.910   1.227
 8614SOL     OW26740   1.434   2.818   3.740
 8614SOL    HW126741   1.344   2.778   3.722
 8614SOL    HW226742   1.495   2.748   3.778
 8615SOL     OW26743   4.149   2.004   6.512
 8615SOL    HW126744   4.076   2.049   6.460
 8615SOL    HW226745   4.159   1.910   6.480
 8616SOL     OW26746   0.384   3.127   0.850
 8616SOL    HW126747   0.352   3.107   0.757
 8616SOL    HW226748   0.461   3.190   0.847
 8617SOL     OW26749   6.494   3.630   0.505
 8617SOL    HW126750   6.532   3.542   0.476
 8617SOL    HW226751   6.546   3.664   0.583
 8618SOL     OW26752   2.827   0.996   3.226
 8618SOL    HW126753   2.848   0.967   3.133
 8618SOL    HW226754   2.911   1.005   3.279
 8619SOL     OW26755   3.799   5.723   0.776
 8619SOL    HW126756   3.776   5.706   0.680
 8619SOL    HW226757   3.732   5.786   0.816
 8620SOL     OW26758   5.498   5.530   4.204
 8620SOL    HW126759   5.544   5.498   4.287
 8620SOL    HW226760   5.564   5.539   4.130
 8621SOL     OW26761   5.027   1.390   3.753
 8621SOL    HW126762   5.067   1.302   3.726
 8621SOL    HW226763   5.093   1.441   3.807
 8622SOL     OW26764   5.076   5.045   5.711
 8622SOL    HW126765   5.051   5.140   5.730
 8622SOL    HW226766   5.078   4.994   5.797
 8623SOL     OW26767   5.782   1.422   3.949
 8623SOL    HW126768   5.759   1.389   3.857
 8623SOL    HW226769   5.866   1.378   3.980
 8624SOL     OW26770   6.950   2.963   3.222
 8624SOL    HW126771   6.971   2.990   3.316
 8624SOL    HW226772   7.006   3.016   3.158
 8625SOL     OW26773   3.188   1.486   6.718
 8625SOL    HW126774   3.244   1.502   6.637
 8625SOL    HW226775   3.174   1.387   6.730
 8626SOL     OW26776   3.264   3.716   1.765
 8626SOL    HW126777   3.336   3.785   1.760
 8626SOL    HW226778   3.177   3.761   1.785
 8627SOL     OW26779   2.954   0.505   6.202
 8627SOL    HW126780   2.994   0.592   6.228
 8627SOL    HW226781   2.891   0.474   6.274
 8628SOL     OW26782   6.151   0.670   1.580
 8628SOL    HW126783   6.167   0.608   1.503
 8628SOL    HW226784   6.203   0.638   1.659
 8629SOL     OW26785   1.377   6.272   3.701
 8629SOL    HW126786   1.410   6.365   3.716
 8629SOL    HW226787   1.311   6.272   3.625
 8630SOL     OW26788   5.440   5.029   4.332
 8630SOL    HW126789   5.506   5.066   4.398
 8630SOL    HW226790   5.486   5.010   4.246
 8631SOL     OW26791   3.882   0.057   3.100
 8631SOL    HW126792   3.885   0.156   3.087
 8631SOL    HW226793   3.787   0.026   3.102
 8632SOL     OW26794   2.287   0.739   2.901
 8632SOL    HW126795   2.242   0.695   2.978
 8632SOL    HW226796   2.336   0.820   2.932
 8633SOL     OW26797   6.074   6.458   2.781
 8633SOL    HW126798   6.151   6.504   2.824
 8633SOL    HW226799   5.990   6.476   2.832
 8634SOL     OW26800   4.824   6.684   1.123
 8634SOL    HW126801   4.895   6.754   1.124
 8634SOL    HW226802   4.755   6.708   1.056
 8635SOL     OW26803   6.055   3.834   5.351
 8635SOL    HW126804   6.089   3.868   5.439
 8635SOL    HW226805   6.067   3.906   5.282
 8636SOL     OW26806   5.599   4.782   1.536
 8636SOL    HW126807   5.670   4.716   1.561
 8636SOL    HW226808   5.510   4.748   1.566
 8637SOL     OW26809   0.243   0.806   1.941
 8637SOL    HW126810   0.220   0.774   1.849
 8637SOL    HW226811   0.315   0.875   1.934
 8638SOL     OW26812   6.244   4.714   0.912
 8638SOL    HW126813   6.286   4.723   0.822
 8638SOL    HW226814   6.281   4.783   0.973
 8639SOL     OW26815   5.647   2.468   4.029
 8639SOL    HW126816   5.590   2.396   4.068
 8639SOL    HW226817   5.633   2.472   3.930
 8640SOL     OW26818   5.302   5.679   1.029
 8640SOL    HW126819   5.245   5.673   0.947
 8640SOL    HW226820   5.394   5.709   1.005
 8641SOL     OW26821   5.120   5.217   3.951
 8641SOL    HW126822   5.196   5.276   3.980
 8641SOL    HW226823   5.040   5.273   3.931
 8642SOL     OW26824   4.603   0.929   0.882
 8642SOL    HW126825   4.529   0.976   0.833
 8642SOL    HW226826   4.685   0.986   0.879
 8643SOL     OW26827   5.046   0.153   0.367
 8643SOL    HW126828   4.982   0.204   0.310
 8643SOL    HW226829   4.996   0.092   0.429
 8644SOL     OW26830   6.336   2.751   5.619
 8644SOL    HW126831   6.368   2.845   5.631
 8644SOL    HW226832   6.252   2.737   5.671
 8645SOL     OW26833   6.230   3.504   2.367
 8645SOL    HW126834   6.259   3.576   2.429
 8645SOL    HW226835   6.292   3.426   2.374
 8646SOL     OW26836   4.464   6.086   0.318
 8646SOL    HW126837   4.503   6.070   0.227
 8646SOL    HW226838   4.377   6.036   0.325
 8647SOL     OW26839   4.896   4.852   1.955
 8647SOL    HW126840   4.931   4.883   1.867
 8647SOL    HW226841   4.850   4.764   1.943
 8648SOL     OW26842   6.534   0.861   4.419
 8648SOL    HW126843   6.622   0.855   4.372
 8648SOL    HW226844   6.497   0.770   4.433
 8649SOL     OW26845   6.822   3.228   5.450
 8649SOL    HW126846   6.846   3.313   5.402
 8649SOL    HW226847   6.861   3.230   5.542
 8650SOL     OW26848   0.301   5.416   1.917
 8650SOL    HW126849   0.292   5.515   1.913
 8650SOL    HW226850   0.212   5.375   1.938
 8651SOL     OW26851   4.835   3.077   1.077
 8651SOL    HW126852   4.921   3.119   1.107
 8651SOL    HW226853   4.793   3.134   1.006
 8652SOL     OW26854   0.995   3.040   4.799
 8652SOL    HW126855   1.040   3.018   4.712
 8652SOL    HW226856   0.914   2.982   4.810
 8653SOL     OW26857   5.443   3.838   6.212
 8653SOL    HW126858   5.492   3.807   6.131
 8653SOL    HW226859   5.417   3.759   6.268
 8654SOL     OW26860   2.104   4.580   1.867
 8654SOL    HW126861   2.124   4.568   1.964
 8654SOL    HW226862   2.086   4.490   1.826
 8655SOL     OW26863   5.110   6.562   2.925
 8655SOL    HW126864   5.043   6.567   2.999
 8655SOL    HW226865   5.192   6.515   2.958
 8656SOL     OW26866   6.880   2.041   2.051
 8656SOL    HW126867   6.855   2.092   2.134
 8656SOL    HW226868   6.965   2.080   2.013
 8657SOL     OW26869   2.511   5.503   0.787
 8657SOL    HW126870   2.454   5.486   0.867
 8657SOL    HW226871   2.596   5.547   0.815
 8658SOL     OW26872   0.857   6.533   5.606
 8658SOL    HW126873   0.800   6.610   5.579
 8658SOL    HW226874   0.811   6.447   5.581
 8659SOL     OW26875   3.715   6.901   3.862
 8659SOL    HW126876   3.744   6.943   3.949
 8659SOL    HW226877   3.742   6.960   3.786
 8660SOL     OW26878   5.058   4.358   6.981
 8660SOL    HW126879   4.994   4.282   6.990
 8660SOL    HW226880   5.149   4.323   6.960
 8661SOL     OW26881   6.328   2.531   2.520
 8661SOL    HW126882   6.303   2.615   2.471
 8661SOL    HW226883   6.324   2.548   2.619
 8662SOL     OW26884   0.258   0.991   0.177
 8662SOL    HW126885   0.209   1.017   0.260
 8662SOL    HW226886   0.356   1.002   0.190
 8663SOL     OW26887   2.883   5.644   6.724
 8663SOL    HW126888   2.838   5.702   6.657
 8663SOL    HW226889   2.839   5.554   6.726
 8664SOL     OW26890   4.778   4.183   1.427
 8664SOL    HW126891   4.771   4.119   1.351
 8664SOL    HW226892   4.687   4.216   1.451
 8665SOL     OW26893   5.532   5.384   3.613
 8665SOL    HW126894   5.563   5.465   3.664
 8665SOL    HW226895   5.579   5.380   3.525
 8666SOL     OW26896   6.959   5.015   4.658
 8666SOL    HW126897   6.929   4.986   4.567
 8666SOL    HW226898   6.958   4.937   4.720
 8667SOL     OW26899   5.234   2.948   3.291
 8667SOL    HW126900   5.182   3.031   3.271
 8667SOL    HW226901   5.217   2.880   3.220
 8668SOL     OW26902   3.204   0.574   4.637
 8668SOL    HW126903   3.258   0.659   4.642
 8668SOL    HW226904   3.206   0.539   4.544
 8669SOL     OW26905   3.497   6.658   6.775
 8669SOL    HW126906   3.417   6.622   6.726
 8669SOL    HW226907   3.535   6.586   6.834
 8670SOL     OW26908   3.935   5.197   2.740
 8670SOL    HW126909   3.950   5.284   2.692
 8670SOL    HW226910   3.991   5.126   2.698
 8671SOL     OW26911   6.039   4.859   1.146
 8671SOL    HW126912   6.137   4.875   1.134
 8671SOL    HW226913   6.008   4.903   1.230
 8672SOL     OW26914   3.984   5.532   4.818
 8672SOL    HW126915   4.024   5.533   4.727
 8672SOL    HW226916   3.886   5.551   4.813
 8673SOL     OW26917   5.072   2.256   7.020
 8673SOL    HW126918   5.087   2.160   7.000
 8673SOL    HW226919   4.988   2.287   6.976
 8674SOL     OW26920   6.641   6.991   2.377
 8674SOL    HW126921   6.610   6.959   2.466
 8674SOL    HW226922   6.741   6.987   2.373
 8675SOL     OW26923   2.817   2.105   1.868
 8675SOL    HW126924   2.845   2.188   1.917
 8675SOL    HW226925   2.718   2.093   1.876
 8676SOL     OW26926   5.364   1.487   3.780
 8676SOL    HW126927   5.411   1.481   3.869
 8676SOL    HW226928   5.354   1.583   3.754
 8677SOL     OW26929   2.303   4.126   5.417
 8677SOL    HW126930   2.233   4.057   5.438
 8677SOL    HW226931   2.359   4.093   5.341
 8678SOL     OW26932   1.272   1.674   6.017
 8678SOL    HW126933   1.300   1.768   5.996
 8678SOL    HW226934   1.325   1.610   5.961
 8679SOL     OW26935   6.153   2.267   4.888
 8679SOL    HW126936   6.119   2.358   4.866
 8679SOL    HW226937   6.138   2.248   4.985
 8680SOL     OW26938   0.725   3.114   5.935
 8680SOL    HW126939   0.681   3.101   6.023
 8680SOL    HW226940   0.660   3.093   5.862
 8681SOL     OW26941   3.925   3.888   1.526
 8681SOL    HW126942   3.969   3.805   1.489
 8681SOL    HW226943   3.954   3.902   1.620
 8682SOL     OW26944   1.702   5.503   2.587
 8682SOL    HW126945   1.613   5.544   2.610
 8682SOL    HW226946   1.711   5.499   2.487
 8683SOL     OW26947   4.365   3.547   6.427
 8683SOL    HW126948   4.318   3.562   6.514
 8683SOL    HW226949   4.459   3.517   6.444
 8684SOL     OW26950   6.395   2.177   3.815
 8684SOL    HW126951   6.442   2.181   3.727
 8684SOL    HW226952   6.406   2.086   3.855
 8685SOL     OW26953   0.548   2.378   5.493
 8685SOL    HW126954   0.581   2.394   5.586
 8685SOL    HW226955   0.495   2.292   5.491
 8686SOL     OW26956   6.040   0.908   4.677
 8686SOL    HW126957   6.076   0.826   4.721
 8686SOL    HW226958   5.940   0.909   4.685
 8687SOL     OW26959   3.420   1.399   2.696
 8687SOL    HW126960   3.413   1.465   2.770
 8687SOL    HW226961   3.450   1.445   2.613
 8688SOL     OW26962   0.078   6.450   1.829
 8688SOL    HW126963   0.001   6.407   1.877
 8688SOL    HW226964   0.163   6.405   1.855
 8689SOL     OW26965   4.736   4.629   1.916
 8689SOL    HW126966   4.740   4.553   1.852
 8689SOL    HW226967   4.668   4.695   1.886
 8690SOL     OW26968   1.440   0.511   1.945
 8690SOL    HW126969   1.480   0.586   1.891
 8690SOL    HW226970   1.447   0.532   2.042
 8691SOL     OW26971   5.406   1.056   6.487
 8691SOL    HW126972   5.440   1.141   6.527
 8691SOL    HW226973   5.318   1.032   6.530
 8692SOL     OW26974   1.655   1.487   3.536
 8692SOL    HW126975   1.598   1.538   3.472
 8692SOL    HW226976   1.600   1.418   3.583
 8693SOL     OW26977   5.283   2.706   6.430
 8693SOL    HW126978   5.225   2.627   6.451
 8693SOL    HW226979   5.226   2.779   6.393
 8694SOL     OW26980   3.166   0.816   5.981
 8694SOL    HW126981   3.164   0.773   6.071
 8694SOL    HW226982   3.085   0.787   5.929
 8695SOL     OW26983   4.182   3.510   4.794
 8695SOL    HW126984   4.123   3.521   4.713
 8695SOL    HW226985   4.274   3.543   4.772
 8696SOL     OW26986   2.290   5.272   6.687
 8696SOL    HW126987   2.372   5.317   6.653
 8696SOL    HW226988   2.212   5.296   6.629
 8697SOL     OW26989   5.241   5.515   6.919
 8697SOL    HW126990   5.219   5.445   6.851
 8697SOL    HW226991   5.158   5.565   6.943
 8698SOL     OW26992   6.086   5.973   5.667
 8698SOL    HW126993   6.109   6.001   5.574
 8698SOL    HW226994   6.079   5.874   5.672
 8699SOL     OW26995   2.491   1.316   4.209
 8699SOL    HW126996   2.456   1.351   4.123
 8699SOL    HW226997   2.493   1.390   4.277
 8700SOL     OW26998   2.724   0.434   5.958
 8700SOL    HW126999   2.820   0.422   5.984
 8700SOL    HW227000   2.685   0.345   5.933
 8701SOL     OW27001   1.018   0.435   3.183
 8701SOL    HW127002   0.972   0.424   3.095
 8701SOL    HW227003   1.047   0.530   3.193
 8702SOL     OW27004   4.257   0.322   6.164
 8702SOL    HW127005   4.268   0.243   6.104
 8702SOL    HW227006   4.246   0.291   6.258
 8703SOL     OW27007   1.385   4.108   1.399
 8703SOL    HW127008   1.462   4.056   1.436
 8703SOL    HW227009   1.330   4.145   1.475
 8704SOL     OW27010   0.917   4.547   2.571
 8704SOL    HW127011   0.966   4.500   2.498
 8704SOL    HW227012   0.842   4.489   2.603
 8705SOL     OW27013   4.174   6.504   4.577
 8705SOL    HW127014   4.213   6.481   4.666
 8705SOL    HW227015   4.229   6.463   4.504
 8706SOL     OW27016   5.337   0.028   6.692
 8706SOL    HW127017   5.346   0.047   6.594
 8706SOL    HW227018   5.427   0.016   6.732
 8707SOL     OW27019   3.867   1.595   5.474
 8707SOL    HW127020   3.859   1.628   5.380
 8707SOL    HW227021   3.804   1.647   5.533
 8708SOL     OW27022   3.418   1.685   1.265
 8708SOL    HW127023   3.329   1.694   1.309
 8708SOL    HW227024   3.490   1.689   1.334
 8709SOL     OW27025   5.354   3.455   6.559
 8709SOL    HW127026   5.307   3.469   6.647
 8709SOL    HW227027   5.379   3.358   6.550
 8710SOL     OW27028   6.438   3.727   4.114
 8710SOL    HW127029   6.487   3.751   4.197
 8710SOL    HW227030   6.348   3.771   4.115
 8711SOL     OW27031   2.298   1.502   4.085
 8711SOL    HW127032   2.269   1.533   4.176
 8711SOL    HW227033   2.363   1.568   4.047
 8712SOL     OW27034   2.938   0.128   6.780
 8712SOL    HW127035   3.004   0.071   6.829
 8712SOL    HW227036   2.947   0.113   6.682
 8713SOL     OW27037   5.868   5.260   3.241
 8713SOL    HW127038   5.840   5.213   3.324
 8713SOL    HW227039   5.959   5.301   3.254
 8714SOL     OW27040   1.961   1.010   3.659
 8714SOL    HW127041   1.987   0.996   3.755
 8714SOL    HW227042   2.043   1.007   3.602
 8715SOL     OW27043   5.240   0.156   2.845
 8715SOL    HW127044   5.210   0.106   2.764
 8715SOL    HW227045   5.208   0.251   2.839
 8716SOL     OW27046   1.241   1.024   2.340
 8716SOL    HW127047   1.189   1.006   2.424
 8716SOL    HW227048   1.252   0.938   2.289
 8717SOL     OW27049   4.664   3.885   0.561
 8717SOL    HW127050   4.701   3.941   0.635
 8717SOL    HW227051   4.700   3.917   0.473
 8718SOL     OW27052   6.931   2.858   6.237
 8718SOL    HW127053   6.956   2.946   6.197
 8718SOL    HW227054   6.832   2.846   6.231
 8719SOL     OW27055   6.686   0.801   5.468
 8719SOL    HW127056   6.682   0.810   5.567
 8719SOL    HW227057   6.765   0.852   5.433
 8720SOL     OW27058   5.026   3.298   5.611
 8720SOL    HW127059   5.000   3.315   5.516
 8720SOL    HW227060   5.098   3.363   5.638
 8721SOL     OW27061   7.012   0.523   4.942
 8721SOL    HW127062   0.058   0.507   5.009
 8721SOL    HW227063   0.016   0.592   4.876
 8722SOL     OW27064   3.956   2.461   0.266
 8722SOL    HW127065   3.984   2.436   0.173
 8722SOL    HW227066   3.960   2.561   0.276
 8723SOL     OW27067   0.204   5.754   0.700
 8723SOL    HW127068   0.159   5.683   0.754
 8723SOL    HW227069   0.231   5.717   0.611
 8724SOL     OW27070   4.413   6.027   6.298
 8724SOL    HW127071   4.399   6.047   6.395
 8724SOL    HW227072   4.348   6.079   6.243
 8725SOL     OW27073   2.372   6.713   0.062
 8725SOL    HW127074   2.392   6.774   0.139
 8725SOL    HW227075   2.273   6.704   0.051
 8726SOL     OW27076   0.395   6.456   0.318
 8726SOL    HW127077   0.482   6.419   0.351
 8726SOL    HW227078   0.331   6.380   0.303
 8727SOL     OW27079   5.326   6.509   1.513
 8727SOL    HW127080   5.238   6.474   1.546
 8727SOL    HW227081   5.388   6.432   1.498
 8728SOL     OW27082   2.474   5.720   5.353
 8728SOL    HW127083   2.456   5.806   5.401
 8728SOL    HW227084   2.434   5.644   5.404
 8729SOL     OW27085   4.784   5.800   4.769
 8729SOL    HW127086   4.714   5.761   4.829
 8729SOL    HW227087   4.757   5.892   4.741
 8730SOL     OW27088   6.031   6.499   1.147
 8730SOL    HW127089   5.964   6.507   1.221
 8730SOL    HW227090   6.058   6.403   1.137
 8731SOL     OW27091   0.860   2.086   3.490
 8731SOL    HW127092   0.799   2.085   3.569
 8731SOL    HW227093   0.947   2.042   3.515
 8732SOL     OW27094   6.647   6.411   2.531
 8732SOL    HW127095   6.653   6.323   2.485
 8732SOL    HW227096   6.733   6.431   2.577
 8733SOL     OW27097   6.507   0.103   0.384
 8733SOL    HW127098   6.485   0.092   0.481
 8733SOL    HW227099   6.599   0.069   0.366
 8734SOL     OW27100   5.988   6.955   0.920
 8734SOL    HW127101   6.003   6.863   0.955
 8734SOL    HW227102   6.066   7.013   0.945
 8735SOL     OW27103   0.311   3.157   5.720
 8735SOL    HW127104   0.395   3.212   5.732
 8735SOL    HW227105   0.245   3.209   5.667
 8736SOL     OW27106   0.473   5.229   5.839
 8736SOL    HW127107   0.435   5.186   5.758
 8736SOL    HW227108   0.573   5.227   5.834
 8737SOL     OW27109   3.890   5.787   6.923
 8737SOL    HW127110   3.920   5.801   7.018
 8737SOL    HW227111   3.922   5.863   6.866
 8738SOL     OW27112   0.956   3.765   5.034
 8738SOL    HW127113   0.958   3.807   5.124
 8738SOL    HW227114   1.050   3.748   5.002
 8739SOL     OW27115   1.478   3.114   5.176
 8739SOL    HW127116   1.524   3.043   5.123
 8739SOL    HW227117   1.402   3.151   5.123
 8740SOL     OW27118   1.023   5.896   0.486
 8740SOL    HW127119   0.928   5.892   0.456
 8740SOL    HW227120   1.084   5.875   0.409
 8741SOL     OW27121   1.426   3.144   1.793
 8741SOL    HW127122   1.402   3.052   1.823
 8741SOL    HW227123   1.356   3.178   1.730
 8742SOL     OW27124   4.578   4.985   1.670
 8742SOL    HW127125   4.623   5.047   1.735
 8742SOL    HW227126   4.643   4.959   1.599
 8743SOL     OW27127   3.429   5.683   2.558
 8743SOL    HW127128   3.394   5.667   2.466
 8743SOL    HW227129   3.463   5.598   2.596
 8744SOL     OW27130   2.620   3.637   5.368
 8744SOL    HW127131   2.691   3.583   5.323
 8744SOL    HW227132   2.650   3.732   5.375
 8745SOL     OW27133   5.293   1.837   5.398
 8745SOL    HW127134   5.222   1.907   5.408
 8745SOL    HW227135   5.295   1.779   5.479
 8746SOL     OW27136   5.210   3.435   4.891
 8746SOL    HW127137   5.117   3.411   4.922
 8746SOL    HW227138   5.242   3.365   4.827
 8747SOL     OW27139   1.136   1.868   4.168
 8747SOL    HW127140   1.069   1.801   4.138
 8747SOL    HW227141   1.227   1.839   4.140
 8748SOL     OW27142   2.882   1.476   6.688
 8748SOL    HW127143   2.979   1.490   6.708
 8748SOL    HW227144   2.869   1.464   6.590
 8749SOL     OW27145   4.235   0.928   3.913
 8749SOL    HW127146   4.218   0.887   3.824
 8749SOL    HW227147   4.254   1.025   3.902
 8750SOL     OW27148   2.217   6.525   4.887
 8750SOL    HW127149   2.228   6.470   4.970
 8750SOL    HW227150   2.208   6.621   4.912
 8751SOL     OW27151   1.512   5.998   2.664
 8751SOL    HW127152   1.490   6.095   2.666
 8751SOL    HW227153   1.534   5.971   2.570
 8752SOL     OW27154   2.227   0.873   6.665
 8752SOL    HW127155   2.212   0.910   6.756
 8752SOL    HW227156   2.172   0.790   6.654
 8753SOL     OW27157   5.165   2.404   4.933
 8753SOL    HW127158   5.172   2.501   4.908
 8753SOL    HW227159   5.077   2.387   4.977
 8754SOL     OW27160   1.633   0.935   5.403
 8754SOL    HW127161   1.634   0.960   5.306
 8754SOL    HW227162   1.710   0.874   5.422
 8755SOL     OW27163   2.111   2.587   0.853
 8755SOL    HW127164   2.197   2.636   0.868
 8755SOL    HW227165   2.083   2.597   0.758
 8756SOL     OW27166   3.288   5.069   5.014
 8756SOL    HW127167   3.333   4.985   5.043
 8756SOL    HW227168   3.242   5.111   5.092
 8757SOL     OW27169   3.231   5.471   3.293
 8757SOL    HW127170   3.300   5.400   3.301
 8757SOL    HW227171   3.246   5.525   3.210
 8758SOL     OW27172   4.804   6.949   2.190
 8758SOL    HW127173   4.793   7.007   2.110
 8758SOL    HW227174   4.895   6.908   2.190
 8759SOL     OW27175   5.224   0.219   5.833
 8759SOL    HW127176   5.274   0.133   5.834
 8759SOL    HW227177   5.272   0.286   5.890
 8760SOL     OW27178   1.760   2.712   3.553
 8760SOL    HW127179   1.693   2.662   3.497
 8760SOL    HW227180   1.737   2.702   3.649
 8761SOL     OW27181   5.017   5.895   1.608
 8761SOL    HW127182   5.085   5.831   1.573
 8761SOL    HW227183   5.050   5.936   1.693
 8762SOL     OW27184   2.285   5.031   1.362
 8762SOL    HW127185   2.371   5.016   1.312
 8762SOL    HW227186   2.234   4.945   1.365
 8763SOL     OW27187   6.980   5.769   6.879
 8763SOL    HW127188   6.973   5.755   6.780
 8763SOL    HW227189   0.014   5.701   6.918
 8764SOL     OW27190   2.621   2.279   6.576
 8764SOL    HW127191   2.652   2.307   6.666
 8764SOL    HW227192   2.698   2.241   6.525
 8765SOL     OW27193   5.784   0.203   4.946
 8765SOL    HW127194   5.863   0.240   4.995
 8765SOL    HW227195   5.795   0.220   4.848
 8766SOL     OW27196   2.437   4.383   2.879
 8766SOL    HW127197   2.436   4.393   2.780
 8766SOL    HW227198   2.507   4.444   2.918
 8767SOL     OW27199   3.986   0.619   5.497
 8767SOL    HW127200   4.020   0.525   5.501
 8767SOL    HW227201   4.045   0.678   5.552
 8768SOL     OW27202   1.000   4.487   1.008
 8768SOL    HW127203   1.050   4.401   1.002
 8768SOL    HW227204   0.905   4.472   0.981
 8769SOL     OW27205   1.700   0.296   6.614
 8769SOL    HW127206   1.731   0.388   6.638
 8769SOL    HW227207   1.778   0.236   6.604
 8770SOL     OW27208   6.098   2.287   3.415
 8770SOL    HW127209   6.182   2.262   3.367
 8770SOL    HW227210   6.024   2.227   3.387
 8771SOL     OW27211   2.963   3.263   4.705
 8771SOL    HW127212   2.899   3.222   4.640
 8771SOL    HW227213   3.051   3.277   4.661
 8772SOL     OW27214   0.190   0.247   6.682
 8772SOL    HW127215   0.147   0.163   6.715
 8772SOL    HW227216   0.282   0.255   6.720
 8773SOL     OW27217   2.879   1.637   3.259
 8773SOL    HW127218   2.788   1.602   3.238
 8773SOL    HW227219   2.891   1.727   3.216
 8774SOL     OW27220   1.509   1.503   0.795
 8774SOL    HW127221   1.572   1.438   0.752
 8774SOL    HW227222   1.425   1.508   0.741
 8775SOL     OW27223   6.345   6.232   3.855
 8775SOL    HW127224   6.434   6.235   3.901
 8775SOL    HW227225   6.306   6.141   3.864
 8776SOL     OW27226   3.248   3.127   5.885
 8776SOL    HW127227   3.170   3.165   5.934
 8776SOL    HW227228   3.307   3.202   5.852
 8777SOL     OW27229   6.072   5.548   2.975
 8777SOL    HW127230   6.076   5.580   3.070
 8777SOL    HW227231   5.978   5.554   2.941
 8778SOL     OW27232   1.210   3.146   2.919
 8778SOL    HW127233   1.251   3.237   2.925
 8778SOL    HW227234   1.280   3.079   2.895
 8779SOL     OW27235   1.874   4.760   0.979
 8779SOL    HW127236   1.951   4.791   0.924
 8779SOL    HW227237   1.824   4.839   1.014
 8780SOL     OW27238   2.209   6.060   5.049
 8780SOL    HW127239   2.260   6.000   5.111
 8780SOL    HW227240   2.117   6.074   5.086
 8781SOL     OW27241   0.501   2.806   2.640
 8781SOL    HW127242   0.439   2.858   2.581
 8781SOL    HW227243   0.465   2.714   2.654
 8782SOL     OW27244   5.285   0.909   4.179
 8782SOL    HW127245   5.198   0.959   4.178
 8782SOL    HW227246   5.356   0.966   4.219
 8783SOL     OW27247   6.127   2.503   6.492
 8783SOL    HW127248   6.052   2.543   6.439
 8783SOL    HW227249   6.212   2.552   6.473
 8784SOL     OW27250   5.212   3.930   6.329
 8784SOL    HW127251   5.188   3.968   6.239
 8784SOL    HW227252   5.311   3.920   6.336
 8785SOL     OW27253   5.530   4.093   6.180
 8785SOL    HW127254   5.624   4.079   6.211
 8785SOL    HW227255   5.475   4.013   6.205
 8786SOL     OW27256   2.107   5.351   6.512
 8786SOL    HW127257   2.151   5.380   6.427
 8786SOL    HW227258   2.050   5.425   6.548
 8787SOL     OW27259   1.346   2.481   6.886
 8787SOL    HW127260   1.331   2.489   6.788
 8787SOL    HW227261   1.439   2.450   6.904
 8788SOL     OW27262   1.498   1.657   5.080
 8788SOL    HW127263   1.501   1.577   5.140
 8788SOL    HW227264   1.408   1.700   5.087
 8789SOL     OW27265   6.754   1.808   0.355
 8789SOL    HW127266   6.757   1.714   0.320
 8789SOL    HW227267   6.754   1.807   0.455
 8790SOL     OW27268   4.377   1.018   0.401
 8790SOL    HW127269   4.356   1.011   0.304
 8790SOL    HW227270   4.363   0.929   0.445
 8791SOL     OW27271   6.350   6.078   5.798
 8791SOL    HW127272   6.276   6.029   5.753
 8791SOL    HW227273   6.314   6.157   5.847
 8792SOL     OW27274   5.868   6.699   2.473
 8792SOL    HW127275   5.930   6.622   2.454
 8792SOL    HW227276   5.877   6.767   2.401
 8793SOL     OW27277   0.979   5.304   2.676
 8793SOL    HW127278   1.033   5.223   2.653
 8793SOL    HW227279   1.000   5.334   2.769
 8794SOL     OW27280   2.399   6.567   1.825
 8794SOL    HW127281   2.484   6.620   1.826
 8794SOL    HW227282   2.322   6.627   1.846
 8795SOL     OW27283   3.954   0.025   4.562
 8795SOL    HW127284   3.883   6.990   4.528
 8795SOL    HW227285   4.003   0.065   4.485
 8796SOL     OW27286   3.917   1.703   4.465
 8796SOL    HW127287   4.011   1.736   4.465
 8796SOL    HW227288   3.856   1.778   4.438
 8797SOL     OW27289   6.642   5.430   0.438
 8797SOL    HW127290   6.619   5.502   0.504
 8797SOL    HW227291   6.680   5.472   0.356
 8798SOL     OW27292   3.501   3.520   5.704
 8798SOL    HW127293   3.505   3.436   5.756
 8798SOL    HW227294   3.590   3.536   5.660
 8799SOL     OW27295   4.189   0.980   2.269
 8799SOL    HW127296   4.218   1.034   2.190
 8799SOL    HW227297   4.239   0.893   2.271
 8800SOL     OW27298   4.258   3.725   0.802
 8800SOL    HW127299   4.251   3.824   0.810
 8800SOL    HW227300   4.264   3.685   0.894
 8801SOL     OW27301   3.090   0.159   5.630
 8801SOL    HW127302   3.106   0.256   5.646
 8801SOL    HW227303   3.121   0.135   5.538
 8802SOL     OW27304   1.389   6.793   0.779
 8802SOL    HW127305   1.302   6.748   0.794
 8802SOL    HW227306   1.425   6.828   0.866
 8803SOL     OW27307   3.488   6.087   2.436
 8803SOL    HW127308   3.428   6.151   2.485
 8803SOL    HW227309   3.540   6.135   2.366
 8804SOL     OW27310   3.601   0.771   1.434
 8804SOL    HW127311   3.579   0.772   1.532
 8804SOL    HW227312   3.653   0.688   1.412
 8805SOL     OW27313   6.817   0.787   3.976
 8805SOL    HW127314   6.723   0.758   3.990
 8805SOL    HW227315   6.876   0.707   3.965
 8806SOL     OW27316   1.595   5.263   6.258
 8806SOL    HW127317   1.663   5.336   6.263
 8806SOL    HW227318   1.634   5.185   6.208
 8807SOL     OW27319   1.330   5.202   6.160
 8807SOL    HW127320   1.305   5.132   6.095
 8807SOL    HW227321   1.407   5.171   6.216
 8808SOL     OW27322   5.594   2.736   1.163
 8808SOL    HW127323   5.496   2.739   1.183
 8808SOL    HW227324   5.639   2.812   1.210
 8809SOL     OW27325   5.771   4.391   0.060
 8809SOL    HW127326   5.733   4.482   0.042
 8809SOL    HW227327   5.712   4.343   0.125
 8810SOL     OW27328   5.515   1.661   4.337
 8810SOL    HW127329   5.426   1.702   4.315
 8810SOL    HW227330   5.501   1.584   4.399
 8811SOL     OW27331   0.621   0.687   3.332
 8811SOL    HW127332   0.579   0.604   3.295
 8811SOL    HW227333   0.590   0.701   3.426
 8812SOL     OW27334   2.540   0.528   0.120
 8812SOL    HW127335   2.575   0.510   0.212
 8812SOL    HW227336   2.453   0.479   0.108
 8813SOL     OW27337   0.655   5.495   1.327
 8813SOL    HW127338   0.648   5.592   1.303
 8813SOL    HW227339   0.564   5.453   1.321
 8814SOL     OW27340   6.078   6.946   6.148
 8814SOL    HW127341   6.172   6.912   6.144
 8814SOL    HW227342   6.079   0.017   6.168
 8815SOL     OW27343   6.204   4.936   3.150
 8815SOL    HW127344   6.267   4.876   3.100
 8815SOL    HW227345   6.254   4.984   3.222
 8816SOL     OW27346   0.465   5.593   2.174
 8816SOL    HW127347   0.457   5.565   2.269
 8816SOL    HW227348   0.451   5.514   2.114
 8817SOL     OW27349   1.829   4.039   4.906
 8817SOL    HW127350   1.916   4.000   4.937
 8817SOL    HW227351   1.767   3.965   4.881
 8818SOL     OW27352   0.050   4.982   5.409
 8818SOL    HW127353   0.104   4.911   5.363
 8818SOL    HW227354   0.006   5.040   5.340
 8819SOL     OW27355   0.406   1.564   4.509
 8819SOL    HW127356   0.446   1.473   4.499
 8819SOL    HW227357   0.415   1.593   4.605
 8820SOL     OW27358   1.671   2.494   3.392
 8820SOL    HW127359   1.603   2.455   3.329
 8820SOL    HW227360   1.752   2.435   3.395
 8821SOL     OW27361   1.271   6.338   0.101
 8821SOL    HW127362   1.319   6.393   0.170
 8821SOL    HW227363   1.329   6.329   0.020
 8822SOL     OW27364   1.559   1.863   3.494
 8822SOL    HW127365   1.536   1.768   3.470
 8822SOL    HW227366   1.479   1.907   3.534
 8823SOL     OW27367   2.807   5.646   0.349
 8823SOL    HW127368   2.903   5.619   0.344
 8823SOL    HW227369   2.790   5.696   0.433
 8824SOL     OW27370   5.037   4.123   1.540
 8824SOL    HW127371   5.077   4.158   1.624
 8824SOL    HW227372   4.952   4.172   1.520
 8825SOL     OW27373   2.129   2.019   6.477
 8825SOL    HW127374   2.045   1.969   6.494
 8825SOL    HW227375   2.198   1.992   6.544
 8826SOL     OW27376   5.764   7.014   1.176
 8826SOL    HW127377   5.782   0.051   1.101
 8826SOL    HW227378   5.671   0.000   1.209
 8827SOL     OW27379   0.113   1.080   4.250
 8827SOL    HW127380   0.025   1.105   4.210
 8827SOL    HW227381   0.176   1.158   4.245
 8828SOL     OW27382   1.324   5.419   2.685
 8828SOL    HW127383   1.259   5.489   2.655
 8828SOL    HW227384   1.327   5.416   2.785
 8829SOL     OW27385   0.145   0.551   1.267
 8829SOL    HW127386   0.229   0.598   1.294
 8829SOL    HW227387   0.140   0.547   1.167
 8830SOL     OW27388   1.209   1.671   1.457
 8830SOL    HW127389   1.179   1.688   1.363
 8830SOL    HW227390   1.147   1.608   1.502
 8831SOL     OW27391   0.186   0.234   1.014
 8831SOL    HW127392   0.166   0.332   1.025
 8831SOL    HW227393   0.223   0.218   0.922
 8832SOL     OW27394   6.413   0.789   1.440
 8832SOL    HW127395   6.398   0.698   1.478
 8832SOL    HW227396   6.335   0.848   1.462
 8833SOL     OW27397   6.819   5.526   0.927
 8833SOL    HW127398   6.723   5.523   0.900
 8833SOL    HW227399   6.826   5.526   1.027
 8834SOL     OW27400   6.640   4.446   4.960
 8834SOL    HW127401   6.596   4.461   5.048
 8834SOL    HW227402   6.652   4.534   4.913
 8835SOL     OW27403   1.164   2.051   0.600
 8835SOL    HW127404   1.238   2.118   0.609
 8835SOL    HW227405   1.081   2.098   0.570
 8836SOL     OW27406   4.904   2.101   1.306
 8836SOL    HW127407   4.871   2.013   1.272
 8836SOL    HW227408   4.999   2.114   1.279
 8837SOL     OW27409   0.786   2.912   2.332
 8837SOL    HW127410   0.696   2.937   2.368
 8837SOL    HW227411   0.816   2.982   2.267
 8838SOL     OW27412   1.679   6.455   3.130
 8838SOL    HW127413   1.657   6.417   3.220
 8838SOL    HW227414   1.714   6.548   3.141
 8839SOL     OW27415   5.664   5.142   5.264
 8839SOL    HW127416   5.567   5.133   5.288
 8839SOL    HW227417   5.707   5.211   5.321
 8840SOL     OW27418   4.562   0.573   2.101
 8840SOL    HW127419   4.595   0.481   2.078
 8840SOL    HW227420   4.580   0.634   2.024
 8841SOL     OW27421   4.221   0.334   2.907
 8841SOL    HW127422   4.184   0.304   2.996
 8841SOL    HW227423   4.175   0.284   2.834
 8842SOL     OW27424   1.429   1.645   2.217
 8842SOL    HW127425   1.508   1.703   2.238
 8842SOL    HW227426   1.439   1.557   2.264
 8843SOL     OW27427   0.192   2.565   3.708
 8843SOL    HW127428   0.174   2.472   3.740
 8843SOL    HW227429   0.286   2.571   3.674
 8844SOL     OW27430   5.903   1.827   6.978
 8844SOL    HW127431   5.847   1.755   6.937
 8844SOL    HW227432   5.956   1.874   6.906
 8845SOL     OW27433   5.376   2.919   0.085
 8845SOL    HW127434   5.383   2.995   0.149
 8845SOL    HW227435   5.285   2.878   0.093
 8846SOL     OW27436   3.105   4.887   4.365
 8846SOL    HW127437   3.190   4.863   4.411
 8846SOL    HW227438   3.035   4.909   4.433
 8847SOL     OW27439   2.042   1.943   3.806
 8847SOL    HW127440   2.100   1.864   3.784
 8847SOL    HW227441   2.090   2.003   3.870
 8848SOL     OW27442   0.422   1.221   4.046
 8848SOL    HW127443   0.484   1.291   4.082
 8848SOL    HW227444   0.328   1.251   4.055
 8849SOL     OW27445   2.686   6.534   1.927
 8849SOL    HW127446   2.659   6.628   1.908
 8849SOL    HW227447   2.653   6.508   2.018
 8850SOL     OW27448   3.671   1.829   0.359
 8850SOL    HW127449   3.691   1.927   0.363
 8850SOL    HW227450   3.587   1.810   0.410
 8851SOL     OW27451   2.259   3.962   1.097
 8851SOL    HW127452   2.197   3.884   1.100
 8851SOL    HW227453   2.218   4.035   1.041
 8852SOL     OW27454   0.936   2.706   4.814
 8852SOL    HW127455   0.930   2.764   4.895
 8852SOL    HW227456   0.844   2.694   4.775
 8853SOL     OW27457   5.309   0.379   1.791
 8853SOL    HW127458   5.251   0.391   1.872
 8853SOL    HW227459   5.307   0.284   1.761
 8854SOL     OW27460   6.853   2.977   4.884
 8854SOL    HW127461   6.760   3.008   4.863
 8854SOL    HW227462   6.918   3.024   4.825
 8855SOL     OW27463   5.018   4.934   1.323
 8855SOL    HW127464   5.078   5.013   1.332
 8855SOL    HW227465   4.933   4.962   1.279
 8856SOL     OW27466   6.362   0.966   5.027
 8856SOL    HW127467   6.343   0.885   4.971
 8856SOL    HW227468   6.414   0.938   5.108
 8857SOL     OW27469   6.795   2.507   0.119
 8857SOL    HW127470   6.711   2.533   0.167
 8857SOL    HW227471   6.872   2.561   0.153
 8858SOL     OW27472   0.573   5.147   5.043
 8858SOL    HW127473   0.507   5.182   4.976
 8858SOL    HW227474   0.524   5.094   5.112
 8859SOL     OW27475   0.515   6.192   3.720
 8859SOL    HW127476   0.517   6.250   3.639
 8859SOL    HW227477   0.507   6.249   3.802
 8860SOL     OW27478   0.146   2.535   3.287
 8860SOL    HW127479   0.217   2.502   3.350
 8860SOL    HW227480   0.165   2.501   3.195
 8861SOL     OW27481   3.607   2.872   1.066
 8861SOL    HW127482   3.568   2.905   1.152
 8861SOL    HW227483   3.556   2.911   0.990
 8862SOL     OW27484   4.503   4.877   4.802
 8862SOL    HW127485   4.509   4.939   4.880
 8862SOL    HW227486   4.446   4.799   4.826
 8863SOL     OW27487   1.804   3.567   2.119
 8863SOL    HW127488   1.789   3.479   2.073
 8863SOL    HW227489   1.721   3.595   2.166
 8864SOL     OW27490   6.982   2.240   4.736
 8864SOL    HW127491   6.939   2.221   4.824
 8864SOL    HW227492   6.914   2.274   4.671
 8865SOL     OW27493   2.658   1.325   0.741
 8865SOL    HW127494   2.655   1.356   0.836
 8865SOL    HW227495   2.741   1.271   0.727
 8866SOL     OW27496   6.089   1.170   2.215
 8866SOL    HW127497   6.052   1.082   2.245
 8866SOL    HW227498   6.087   1.175   2.115
 8867SOL     OW27499   5.789   2.011   4.409
 8867SOL    HW127500   5.693   2.038   4.399
 8867SOL    HW227501   5.826   1.985   4.320
 8868SOL     OW27502   0.394   2.882   3.984
 8868SOL    HW127503   0.445   2.843   3.907
 8868SOL    HW227504   0.346   2.810   4.033
 8869SOL     OW27505   3.416   0.321   3.218
 8869SOL    HW127506   3.381   0.393   3.158
 8869SOL    HW227507   3.347   0.250   3.229
 8870SOL     OW27508   1.014   1.034   1.341
 8870SOL    HW127509   0.931   0.996   1.300
 8870SOL    HW227510   1.009   1.134   1.340
 8871SOL     OW27511   6.799   6.625   0.242
 8871SOL    HW127512   6.814   6.578   0.329
 8871SOL    HW227513   6.888   6.648   0.201
 8872SOL     OW27514   6.348   5.429   3.447
 8872SOL    HW127515   6.372   5.526   3.459
 8872SOL    HW227516   6.421   5.383   3.397
 8873SOL     OW27517   1.929   1.791   3.177
 8873SOL    HW127518   1.854   1.817   3.237
 8873SOL    HW227519   2.017   1.808   3.222
 8874SOL     OW27520   2.358   6.096   0.750
 8874SOL    HW127521   2.300   6.101   0.831
 8874SOL    HW227522   2.338   6.013   0.699
 8875SOL     OW27523   6.841   2.567   4.223
 8875SOL    HW127524   6.811   2.481   4.262
 8875SOL    HW227525   6.886   2.550   4.135
 8876SOL     OW27526   5.185   0.159   0.635
 8876SOL    HW127527   5.158   0.255   0.629
 8876SOL    HW227528   5.130   0.104   0.572
 8877SOL     OW27529   0.948   4.573   1.845
 8877SOL    HW127530   1.002   4.574   1.761
 8877SOL    HW227531   0.863   4.523   1.829
 8878SOL     OW27532   4.869   3.937   2.468
 8878SOL    HW127533   4.836   3.869   2.403
 8878SOL    HW227534   4.925   4.004   2.421
 8879SOL     OW27535   6.305   4.618   3.547
 8879SOL    HW127536   6.322   4.622   3.448
 8879SOL    HW227537   6.386   4.584   3.594
 8880SOL     OW27538   4.079   1.559   2.681
 8880SOL    HW127539   4.161   1.589   2.634
 8880SOL    HW227540   4.094   1.563   2.780
 8881SOL     OW27541   3.948   6.216   2.851
 8881SOL    HW127542   4.033   6.173   2.881
 8881SOL    HW227543   3.875   6.192   2.915
 8882SOL     OW27544   3.901   1.208   6.982
 8882SOL    HW127545   3.858   1.293   7.010
 8882SOL    HW227546   3.862   1.178   6.895
 8883SOL     OW27547   0.572   6.800   3.097
 8883SOL    HW127548   0.473   6.787   3.098
 8883SOL    HW227549   0.595   6.867   3.026
 8884SOL     OW27550   4.447   1.715   6.068
 8884SOL    HW127551   4.378   1.743   6.001
 8884SOL    HW227552   4.538   1.741   6.035
 8885SOL     OW27553   4.863   5.453   0.826
 8885SOL    HW127554   4.928   5.398   0.775
 8885SOL    HW227555   4.867   5.429   0.923
 8886SOL     OW27556   4.388   6.652   0.963
 8886SOL    HW127557   4.321   6.706   0.911
 8886SOL    HW227558   4.475   6.701   0.966
 8887SOL     OW27559   4.184   0.718   2.514
 8887SOL    HW127560   4.218   0.698   2.422
 8887SOL    HW227561   4.256   0.765   2.566
 8888SOL     OW27562   4.002   1.887   2.238
 8888SOL    HW127563   3.952   1.801   2.229
 8888SOL    HW227564   3.963   1.955   2.175
 8889SOL     OW27565   1.713   4.462   6.581
 8889SOL    HW127566   1.793   4.521   6.591
 8889SOL    HW227567   1.739   4.367   6.598
 8890SOL     OW27568   2.230   5.799   6.933
 8890SOL    HW127569   2.158   5.747   6.978
 8890SOL    HW227570   2.309   5.740   6.917
 8891SOL     OW27571   5.314   3.690   4.979
 8891SOL    HW127572   5.360   3.701   5.067
 8891SOL    HW227573   5.285   3.595   4.968
 8892SOL     OW27574   2.593   4.919   5.848
 8892SOL    HW127575   2.647   4.970   5.915
 8892SOL    HW227576   2.504   4.896   5.887
 8893SOL     OW27577   0.458   4.729   5.152
 8893SOL    HW127578   0.394   4.662   5.189
 8893SOL    HW227579   0.548   4.687   5.141
 8894SOL     OW27580   6.010   2.323   2.009
 8894SOL    HW127581   5.977   2.363   1.923
 8894SOL    HW227582   6.041   2.230   1.992
 8895SOL     OW27583   0.607   3.238   2.072
 8895SOL    HW127584   0.529   3.175   2.078
 8895SOL    HW227585   0.584   3.323   2.119
 8896SOL     OW27586   0.775   0.612   3.806
 8896SOL    HW127587   0.790   0.705   3.841
 8896SOL    HW227588   0.683   0.605   3.769
 8897SOL     OW27589   1.212   4.559   3.935
 8897SOL    HW127590   1.160   4.565   4.021
 8897SOL    HW227591   1.256   4.469   3.929
 8898SOL     OW27592   6.319   4.918   2.104
 8898SOL    HW127593   6.274   4.909   2.193
 8898SOL    HW227594   6.354   4.828   2.076
 8899SOL     OW27595   1.591   4.661   2.444
 8899SOL    HW127596   1.606   4.715   2.362
 8899SOL    HW227597   1.643   4.700   2.520
 8900SOL     OW27598   4.682   1.958   5.020
 8900SOL    HW127599   4.738   2.036   4.991
 8900SOL    HW227600   4.700   1.937   5.116
 8901SOL     OW27601   0.738   5.278   5.786
 8901SOL    HW127602   0.726   5.228   5.700
 8901SOL    HW227603   0.788   5.362   5.769
 8902SOL     OW27604   1.473   3.744   6.542
 8902SOL    HW127605   1.522   3.658   6.556
 8902SOL    HW227606   1.375   3.729   6.550
 8903SOL     OW27607   0.610   1.083   3.755
 8903SOL    HW127608   0.535   1.034   3.799
 8903SOL    HW227609   0.574   1.143   3.684
 8904SOL     OW27610   5.793   0.806   2.102
 8904SOL    HW127611   5.719   0.871   2.087
 8904SOL    HW227612   5.802   0.787   2.200
 8905SOL     OW27613   1.732   4.962   1.532
 8905SOL    HW127614   1.787   4.919   1.461
 8905SOL    HW227615   1.667   5.026   1.490
 8906SOL     OW27616   6.890   1.608   6.514
 8906SOL    HW127617   6.950   1.542   6.466
 8906SOL    HW227618   6.879   1.689   6.457
 8907SOL     OW27619   2.792   3.048   5.308
 8907SOL    HW127620   2.700   3.039   5.272
 8907SOL    HW227621   2.829   3.139   5.285
 8908SOL     OW27622   1.978   6.495   5.516
 8908SOL    HW127623   1.952   6.464   5.425
 8908SOL    HW227624   1.919   6.453   5.584
 8909SOL     OW27625   2.051   6.235   1.847
 8909SOL    HW127626   2.151   6.236   1.857
 8909SOL    HW227627   2.011   6.299   1.912
 8910SOL     OW27628   1.255   1.115   3.838
 8910SOL    HW127629   1.335   1.069   3.800
 8910SOL    HW227630   1.183   1.049   3.856
 8911SOL     OW27631   5.145   2.703   4.523
 8911SOL    HW127632   5.072   2.641   4.552
 8911SOL    HW227633   5.215   2.651   4.474
 8912SOL     OW27634   3.737   3.668   3.516
 8912SOL    HW127635   3.822   3.720   3.511
 8912SOL    HW227636   3.660   3.728   3.498
 8913SOL     OW27637   4.838   5.791   0.421
 8913SOL    HW127638   4.749   5.796   0.467
 8913SOL    HW227639   4.825   5.804   0.322
 8914SOL     OW27640   5.389   4.752   4.912
 8914SOL    HW127641   5.342   4.817   4.972
 8914SOL    HW227642   5.324   4.712   4.848
 8915SOL     OW27643   2.644   1.515   3.186
 8915SOL    HW127644   2.626   1.459   3.105
 8915SOL    HW227645   2.579   1.590   3.190
 8916SOL     OW27646   6.296   6.657   2.472
 8916SOL    HW127647   6.386   6.699   2.459
 8916SOL    HW227648   6.251   6.644   2.384
 8917SOL     OW27649   5.619   2.787   7.017
 8917SOL    HW127650   5.539   2.827   0.035
 8917SOL    HW227651   5.618   2.810   6.920
 8918SOL     OW27652   1.711   3.445   2.967
 8918SOL    HW127653   1.661   3.380   2.911
 8918SOL    HW227654   1.809   3.435   2.950
 8919SOL     OW27655   0.386   2.350   3.012
 8919SOL    HW127656   0.470   2.361   2.960
 8919SOL    HW227657   0.327   2.430   2.999
 8920SOL     OW27658   1.898   1.978   0.342
 8920SOL    HW127659   1.832   1.950   0.272
 8920SOL    HW227660   1.913   2.076   0.337
 8921SOL     OW27661   2.060   1.753   2.317
 8921SOL    HW127662   2.069   1.676   2.381
 8921SOL    HW227663   2.129   1.744   2.245
 8922SOL     OW27664   3.770   5.637   3.683
 8922SOL    HW127665   3.824   5.658   3.602
 8922SOL    HW227666   3.713   5.557   3.665
 8923SOL     OW27667   2.744   2.381   3.816
 8923SOL    HW127668   2.822   2.375   3.879
 8923SOL    HW227669   2.660   2.398   3.868
 8924SOL     OW27670   6.224   4.972   4.552
 8924SOL    HW127671   6.173   5.003   4.471
 8924SOL    HW227672   6.282   4.895   4.527
 8925SOL     OW27673   0.793   6.301   4.028
 8925SOL    HW127674   0.761   6.237   4.097
 8925SOL    HW227675   0.877   6.346   4.060
 8926SOL     OW27676   5.913   2.591   6.794
 8926SOL    HW127677   5.996   2.535   6.799
 8926SOL    HW227678   5.936   2.682   6.761
 8927SOL     OW27679   1.273   1.363   6.281
 8927SOL    HW127680   1.226   1.336   6.197
 8927SOL    HW227681   1.333   1.441   6.262
 8928SOL     OW27682   6.578   6.181   5.122
 8928SOL    HW127683   6.662   6.157   5.170
 8928SOL    HW227684   6.509   6.208   5.189
 8929SOL     OW27685   0.661   1.049   3.266
 8929SOL    HW127686   0.693   0.966   3.312
 8929SOL    HW227687   0.703   1.129   3.309
 8930SOL     OW27688   2.540   5.268   2.349
 8930SOL    HW127689   2.591   5.185   2.330
 8930SOL    HW227690   2.603   5.346   2.352
 8931SOL     OW27691   4.878   3.666   0.072
 8931SOL    HW127692   4.878   3.755   0.027
 8931SOL    HW227693   4.836   3.675   0.163
 8932SOL     OW27694   0.858   3.106   2.164
 8932SOL    HW127695   0.895   3.199   2.174
 8932SOL    HW227696   0.765   3.112   2.128
 8933SOL     OW27697   4.954   2.547   5.527
 8933SOL    HW127698   4.876   2.552   5.465
 8933SOL    HW227699   4.929   2.587   5.615
 8934SOL     OW27700   2.939   5.991   2.392
 8934SOL    HW127701   2.947   5.959   2.487
 8934SOL    HW227702   2.860   6.051   2.384
 8935SOL     OW27703   0.510   5.755   6.744
 8935SOL    HW127704   0.532   5.805   6.660
 8935SOL    HW227705   0.476   5.819   6.813
 8936SOL     OW27706   4.455   3.445   0.014
 8936SOL    HW127707   4.527   3.476   6.979
 8936SOL    HW227708   4.374   3.422   6.988
 8937SOL     OW27709   0.623   1.933   6.716
 8937SOL    HW127710   0.589   1.859   6.657
 8937SOL    HW227711   0.561   2.011   6.710
 8938SOL     OW27712   5.198   5.366   1.875
 8938SOL    HW127713   5.276   5.316   1.915
 8938SOL    HW227714   5.126   5.301   1.850
 8939SOL     OW27715   6.378   1.602   4.724
 8939SOL    HW127716   6.472   1.624   4.749
 8939SOL    HW227717   6.348   1.664   4.651
 8940SOL     OW27718   5.294   6.784   1.539
 8940SOL    HW127719   5.301   6.686   1.523
 8940SOL    HW227720   5.274   6.801   1.635
 8941SOL     OW27721   4.318   1.603   0.385
 8941SOL    HW127722   4.324   1.690   0.435
 8941SOL    HW227723   4.286   1.621   0.292
 8942SOL     OW27724   0.907   1.949   5.591
 8942SOL    HW127725   0.973   1.976   5.520
 8942SOL    HW227726   0.956   1.920   5.673
 8943SOL     OW27727   4.932   3.062   0.373
 8943SOL    HW127728   4.925   3.159   0.348
 8943SOL    HW227729   4.924   3.006   0.291
 8944SOL     OW27730   4.510   5.466   0.693
 8944SOL    HW127731   4.551   5.377   0.675
 8944SOL    HW227732   4.580   5.530   0.725
 8945SOL     OW27733   2.282   0.424   3.755
 8945SOL    HW127734   2.195   0.460   3.786
 8945SOL    HW227735   2.357   0.478   3.793
 8946SOL     OW27736   3.746   0.066   5.445
 8946SOL    HW127737   3.770   6.996   5.443
 8946SOL    HW227738   3.696   0.086   5.530
 8947SOL     OW27739   2.899   3.367   5.716
 8947SOL    HW127740   2.955   3.342   5.638
 8947SOL    HW227741   2.823   3.425   5.686
 8948SOL     OW27742   5.298   5.460   3.814
 8948SOL    HW127743   5.223   5.410   3.771
 8948SOL    HW227744   5.375   5.466   3.751
 8949SOL     OW27745   1.388   5.550   6.100
 8949SOL    HW127746   1.324   5.506   6.164
 8949SOL    HW227747   1.472   5.496   6.096
 8950SOL     OW27748   5.133   2.584   5.295
 8950SOL    HW127749   5.083   2.560   5.379
 8950SOL    HW227750   5.073   2.638   5.235
 8951SOL     OW27751   2.618   1.201   5.502
 8951SOL    HW127752   2.599   1.234   5.409
 8951SOL    HW227753   2.541   1.147   5.535
 8952SOL     OW27754   5.094   6.697   3.393
 8952SOL    HW127755   5.105   6.741   3.483
 8952SOL    HW227756   5.172   6.720   3.335
 8953SOL     OW27757   1.218   5.589   6.526
 8953SOL    HW127758   1.292   5.656   6.526
 8953SOL    HW227759   1.220   5.537   6.440
 8954SOL     OW27760   2.746   6.673   5.928
 8954SOL    HW127761   2.792   6.641   6.012
 8954SOL    HW227762   2.661   6.622   5.916
 8955SOL     OW27763   0.407   3.164   4.017
 8955SOL    HW127764   0.369   3.072   4.016
 8955SOL    HW227765   0.361   3.218   4.087
 8956SOL     OW27766   1.632   0.372   3.805
 8956SOL    HW127767   1.607   0.467   3.787
 8956SOL    HW227768   1.721   0.353   3.762
 8957SOL     OW27769   3.304   5.705   1.870
 8957SOL    HW127770   3.338   5.784   1.819
 8957SOL    HW227771   3.204   5.702   1.866
 8958SOL     OW27772   2.854   0.317   4.729
 8958SOL    HW127773   2.937   0.302   4.784
 8958SOL    HW227774   2.815   0.228   4.705
 8959SOL     OW27775   3.197   5.714   6.469
 8959SOL    HW127776   3.136   5.635   6.473
 8959SOL    HW227777   3.161   5.781   6.404
 8960SOL     OW27778   4.211   5.686   1.060
 8960SOL    HW127779   4.124   5.719   1.098
 8960SOL    HW227780   4.223   5.589   1.082
 8961SOL     OW27781   0.341   2.931   4.634
 8961SOL    HW127782   0.349   2.861   4.563
 8961SOL    HW227783   0.389   3.014   4.605
 8962SOL     OW27784   4.473   0.669   3.748
 8962SOL    HW127785   4.504   0.651   3.655
 8962SOL    HW227786   4.389   0.617   3.766
 8963SOL     OW27787   1.285   0.696   4.516
 8963SOL    HW127788   1.380   0.726   4.522
 8963SOL    HW227789   1.268   0.625   4.584
 8964SOL     OW27790   1.148   2.261   3.611
 8964SOL    HW127791   1.218   2.331   3.616
 8964SOL    HW227792   1.132   2.222   3.702
 8965SOL     OW27793   1.421   4.717   1.518
 8965SOL    HW127794   1.482   4.728   1.597
 8965SOL    HW227795   1.375   4.628   1.524
 8966SOL     OW27796   3.283   2.192   4.557
 8966SOL    HW127797   3.245   2.137   4.631
 8966SOL    HW227798   3.379   2.167   4.543
 8967SOL     OW27799   5.319   6.510   0.490
 8967SOL    HW127800   5.332   6.609   0.479
 8967SOL    HW227801   5.401   6.462   0.461
 8968SOL     OW27802   6.183   4.473   3.786
 8968SOL    HW127803   6.191   4.514   3.695
 8968SOL    HW227804   6.229   4.531   3.853
 8969SOL     OW27805   6.410   0.138   3.967
 8969SOL    HW127806   6.384   0.234   3.978
 8969SOL    HW227807   6.484   0.131   3.900
 8970SOL     OW27808   3.293   3.024   1.771
 8970SOL    HW127809   3.333   3.108   1.810
 8970SOL    HW227810   3.220   2.991   1.830
 8971SOL     OW27811   2.873   6.747   2.874
 8971SOL    HW127812   2.827   6.790   2.796
 8971SOL    HW227813   2.831   6.658   2.893
 8972SOL     OW27814   5.452   0.003   5.903
 8972SOL    HW127815   5.518   0.067   5.942
 8972SOL    HW227816   5.500   6.964   5.845
 8973SOL     OW27817   1.625   4.409   6.333
 8973SOL    HW127818   1.642   4.467   6.252
 8973SOL    HW227819   1.613   4.467   6.413
 8974SOL     OW27820   1.010   2.676   4.381
 8974SOL    HW127821   0.913   2.667   4.361
 8974SOL    HW227822   1.058   2.710   4.300
 8975SOL     OW27823   3.508   0.877   6.673
 8975SOL    HW127824   3.542   0.783   6.668
 8975SOL    HW227825   3.573   0.939   6.631
 8976SOL     OW27826   1.337   6.362   4.088
 8976SOL    HW127827   1.337   6.331   4.183
 8976SOL    HW227828   1.421   6.334   4.043
 8977SOL     OW27829   6.169   2.162   0.506
 8977SOL    HW127830   6.130   2.244   0.548
 8977SOL    HW227831   6.096   2.109   0.462
 8978SOL     OW27832   5.581   3.984   2.690
 8978SOL    HW127833   5.596   3.899   2.741
 8978SOL    HW227834   5.653   3.994   2.621
 8979SOL     OW27835   0.584   4.958   4.823
 8979SOL    HW127836   0.630   5.006   4.898
 8979SOL    HW227837   0.614   4.863   4.820
 8980SOL     OW27838   3.123   3.029   3.855
 8980SOL    HW127839   3.134   3.036   3.755
 8980SOL    HW227840   3.194   2.969   3.892
 8981SOL     OW27841   3.205   2.601   5.396
 8981SOL    HW127842   3.105   2.611   5.404
 8981SOL    HW227843   3.226   2.536   5.323
 8982SOL     OW27844   2.557   4.638   6.914
 8982SOL    HW127845   2.604   4.595   6.838
 8982SOL    HW227846   2.622   4.694   6.966
 8983SOL     OW27847   4.768   4.273   0.872
 8983SOL    HW127848   4.758   4.340   0.798
 8983SOL    HW227849   4.831   4.308   0.941
 8984SOL     OW27850   1.431   6.328   2.470
 8984SOL    HW127851   1.461   6.424   2.474
 8984SOL    HW227852   1.504   6.272   2.432
 8985SOL     OW27853   3.019   3.166   6.577
 8985SOL    HW127854   2.997   3.234   6.506
 8985SOL    HW227855   3.068   3.090   6.536
 8986SOL     OW27856   2.083   5.995   2.181
 8986SOL    HW127857   2.063   5.902   2.211
 8986SOL    HW227858   2.160   5.993   2.117
 8987SOL     OW27859   5.366   6.449   2.384
 8987SOL    HW127860   5.269   6.445   2.358
 8987SOL    HW227861   5.394   6.544   2.391
 8988SOL     OW27862   0.311   4.217   5.157
 8988SOL    HW127863   0.378   4.240   5.087
 8988SOL    HW227864   0.355   4.219   5.247
 8989SOL     OW27865   1.882   2.441   0.099
 8989SOL    HW127866   1.898   2.446   0.001
 8989SOL    HW227867   1.803   2.499   0.123
 8990SOL     OW27868   0.341   4.523   4.253
 8990SOL    HW127869   0.280   4.446   4.237
 8990SOL    HW227870   0.288   4.602   4.285
 8991SOL     OW27871   1.146   2.227   4.834
 8991SOL    HW127872   1.177   2.132   4.822
 8991SOL    HW227873   1.209   2.274   4.895
 8992SOL     OW27874   6.216   1.457   1.831
 8992SOL    HW127875   6.312   1.432   1.815
 8992SOL    HW227876   6.208   1.557   1.835
 8993SOL     OW27877   4.642   2.787   0.934
 8993SOL    HW127878   4.609   2.693   0.944
 8993SOL    HW227879   4.601   2.844   1.004
 8994SOL     OW27880   2.111   5.719   2.235
 8994SOL    HW127881   2.152   5.669   2.159
 8994SOL    HW227882   2.045   5.660   2.282
 8995SOL     OW27883   0.830   0.568   0.939
 8995SOL    HW127884   0.842   0.469   0.945
 8995SOL    HW227885   0.913   0.613   0.972
 8996SOL     OW27886   4.309   5.945   5.969
 8996SOL    HW127887   4.399   5.926   6.007
 8996SOL    HW227888   4.240   5.895   6.022
 8997SOL     OW27889   5.513   6.532   4.750
 8997SOL    HW127890   5.526   6.458   4.684
 8997SOL    HW227891   5.567   6.612   4.722
 8998SOL     OW27892   0.137   4.094   5.363
 8998SOL    HW127893   0.176   4.038   5.436
 8998SOL    HW227894   0.209   4.122   5.300
 8999SOL     OW27895   4.221   6.170   6.564
 8999SOL    HW127896   4.133   6.149   6.607
 8999SOL    HW227897   4.205   6.200   6.470
 9000SOL     OW27898   1.389   3.694   1.165
 9000SOL    HW127899   1.358   3.632   1.237
 9000SOL    HW227900   1.315   3.710   1.100
 9001SOL     OW27901   2.186   5.257   0.930
 9001SOL    HW127902   2.109   5.280   0.990
 9001SOL    HW227903   2.225   5.169   0.959
 9002SOL     OW27904   6.545   6.612   6.254
 9002SOL    HW127905   6.460   6.661   6.236
 9002SOL    HW227906   6.605   6.667   6.312
 9003SOL     OW27907   4.838   6.463   0.766
 9003SOL    HW127908   4.770   6.415   0.821
 9003SOL    HW227909   4.929   6.449   0.805
 9004SOL     OW27910   6.278   4.323   1.971
 9004SOL    HW127911   6.373   4.353   1.959
 9004SOL    HW227912   6.248   4.346   2.064
 9005SOL     OW27913   4.832   1.158   5.039
 9005SOL    HW127914   4.865   1.064   5.029
 9005SOL    HW227915   4.905   1.215   5.077
 9006SOL     OW27916   3.748   6.312   6.770
 9006SOL    HW127917   3.712   6.404   6.788
 9006SOL    HW227918   3.802   6.313   6.686
 9007SOL     OW27919   0.065   0.308   3.519
 9007SOL    HW127920   7.025   0.312   3.444
 9007SOL    HW227921   0.115   0.395   3.522
 9008SOL     OW27922   6.888   4.961   1.908
 9008SOL    HW127923   6.841   5.043   1.939
 9008SOL    HW227924   6.987   4.976   1.912
 9009SOL     OW27925   3.094   6.476   2.191
 9009SOL    HW127926   3.128   6.388   2.224
 9009SOL    HW227927   3.038   6.462   2.109
 9010SOL     OW27928   2.329   4.576   4.576
 9010SOL    HW127929   2.381   4.660   4.594
 9010SOL    HW227930   2.273   4.554   4.656
 9011SOL     OW27931   2.439   1.549   2.183
 9011SOL    HW127932   2.535   1.564   2.159
 9011SOL    HW227933   2.426   1.452   2.205
 9012SOL     OW27934   2.430   6.209   0.281
 9012SOL    HW127935   2.443   6.205   0.380
 9012SOL    HW227936   2.479   6.289   0.245
 9013SOL     OW27937   2.271   0.584   4.544
 9013SOL    HW127938   2.202   0.551   4.479
 9013SOL    HW227939   2.264   0.532   4.629
 9014SOL     OW27940   5.625   3.191   3.035
 9014SOL    HW127941   5.629   3.102   2.990
 9014SOL    HW227942   5.715   3.212   3.075
 9015SOL     OW27943   3.915   6.348   6.552
 9015SOL    HW127944   3.841   6.405   6.515
 9015SOL    HW227945   3.959   6.298   6.477
 9016SOL     OW27946   4.960   5.120   6.038
 9016SOL    HW127947   4.991   5.191   5.974
 9016SOL    HW227948   4.927   5.164   6.122
 9017SOL     OW27949   3.120   0.490   5.729
 9017SOL    HW127950   3.088   0.452   5.816
 9017SOL    HW227951   3.049   0.549   5.690
 9018SOL     OW27952   2.778   5.341   0.432
 9018SOL    HW127953   2.777   5.431   0.388
 9018SOL    HW227954   2.848   5.284   0.389
 9019SOL     OW27955   0.102   4.448   5.110
 9019SOL    HW127956   0.180   4.390   5.134
 9019SOL    HW227957   0.018   4.393   5.111
 9020SOL     OW27958   5.280   5.773   3.619
 9020SOL    HW127959   5.212   5.705   3.590
 9020SOL    HW227960   5.263   5.859   3.572
 9021SOL     OW27961   6.947   1.747   4.490
 9021SOL    HW127962   0.003   1.741   4.546
 9021SOL    HW227963   6.904   1.836   4.505
 9022SOL     OW27964   4.923   3.034   6.468
 9022SOL    HW127965   4.874   3.091   6.534
 9022SOL    HW227966   4.867   3.020   6.387
 9023SOL     OW27967   0.224   4.441   1.162
 9023SOL    HW127968   0.269   4.489   1.238
 9023SOL    HW227969   0.237   4.492   1.077
 9024SOL     OW27970   1.994   4.474   6.420
 9024SOL    HW127971   1.967   4.430   6.335
 9024SOL    HW227972   2.051   4.411   6.473
 9025SOL     OW27973   0.511   6.361   2.071
 9025SOL    HW127974   0.565   6.281   2.044
 9025SOL    HW227975   0.438   6.333   2.133
 9026SOL     OW27976   5.994   1.718   6.559
 9026SOL    HW127977   5.922   1.732   6.491
 9026SOL    HW227978   6.008   1.620   6.573
 9027SOL     OW27979   0.081   4.108   2.738
 9027SOL    HW127980   0.003   4.094   2.677
 9027SOL    HW227981   0.058   4.177   2.806
 9028SOL     OW27982   2.727   4.810   7.017
 9028SOL    HW127983   2.823   4.807   0.019
 9028SOL    HW227984   2.683   4.891   0.029
 9029SOL     OW27985   4.012   6.346   4.845
 9029SOL    HW127986   3.973   6.260   4.876
 9029SOL    HW227987   3.946   6.395   4.788
 9030SOL     OW27988   3.032   2.140   2.147
 9030SOL    HW127989   2.995   2.144   2.239
 9030SOL    HW227990   2.987   2.208   2.089
 9031SOL     OW27991   5.179   6.593   4.798
 9031SOL    HW127992   5.196   6.671   4.858
 9031SOL    HW227993   5.266   6.549   4.775
 9032SOL     OW27994   4.957   2.832   1.151
 9032SOL    HW127995   4.905   2.917   1.140
 9032SOL    HW227996   4.898   2.754   1.134
 9033SOL     OW27997   0.685   5.966   2.690
 9033SOL    HW127998   0.623   5.893   2.719
 9033SOL    HW227999   0.689   5.969   2.590
 9034SOL     OW28000   4.445   6.840   5.038
 9034SOL    HW128001   4.371   6.902   5.065
 9034SOL    HW228002   4.447   6.834   4.938
 9035SOL     OW28003   2.170   5.853   5.686
 9035SOL    HW128004   2.220   5.870   5.771
 9035SOL    HW228005   2.104   5.927   5.670
 9036SOL     OW28006   0.197   5.009   4.630
 9036SOL    HW128007   0.098   5.018   4.617
 9036SOL    HW228008   0.216   4.931   4.689
 9037SOL     OW28009   6.805   1.080   2.523
 9037SOL    HW128010   6.722   1.047   2.477
 9037SOL    HW228011   6.867   1.003   2.539
 9038SOL     OW28012   3.197   4.020   5.649
 9038SOL    HW128013   3.218   4.024   5.551
 9038SOL    HW228014   3.118   4.077   5.668
 9039SOL     OW28015   4.802   6.480   6.135
 9039SOL    HW128016   4.836   6.427   6.212
 9039SOL    HW228017   4.838   6.573   6.140
 9040SOL     OW28018   2.685   2.329   1.227
 9040SOL    HW128019   2.692   2.428   1.238
 9040SOL    HW228020   2.618   2.293   1.291
 9041SOL     OW28021   6.870   2.520   3.657
 9041SOL    HW128022   6.903   2.427   3.643
 9041SOL    HW228023   6.771   2.518   3.673
 9042SOL     OW28024   6.875   5.157   6.641
 9042SOL    HW128025   6.865   5.075   6.585
 9042SOL    HW228026   6.963   5.156   6.688
 9043SOL     OW28027   2.977   2.848   1.538
 9043SOL    HW128028   3.045   2.914   1.504
 9043SOL    HW228029   3.022   2.783   1.599
 9044SOL     OW28030   2.251   1.646   0.186
 9044SOL    HW128031   2.208   1.722   0.233
 9044SOL    HW228032   2.291   1.583   0.253
 9045SOL     OW28033   3.512   0.404   4.591
 9045SOL    HW128034   3.601   0.444   4.614
 9045SOL    HW228035   3.445   0.477   4.577
 9046SOL     OW28036   4.224   3.569   1.785
 9046SOL    HW128037   4.149   3.503   1.774
 9046SOL    HW228038   4.187   3.654   1.821
 9047SOL     OW28039   0.542   4.098   5.691
 9047SOL    HW128040   0.595   4.143   5.762
 9047SOL    HW228041   0.552   3.999   5.700
 9048SOL     OW28042   0.994   2.999   5.275
 9048SOL    HW128043   1.033   3.091   5.268
 9048SOL    HW228044   0.903   3.004   5.315
 9049SOL     OW28045   0.385   6.536   4.912
 9049SOL    HW128046   0.329   6.614   4.885
 9049SOL    HW228047   0.398   6.475   4.833
 9050SOL     OW28048   1.095   3.947   6.835
 9050SOL    HW128049   1.051   3.912   6.752
 9050SOL    HW228050   1.169   4.009   6.809
 9051SOL     OW28051   1.604   0.743   1.903
 9051SOL    HW128052   1.680   0.723   1.965
 9051SOL    HW228053   1.584   0.841   1.905
 9052SOL     OW28054   1.929   2.503   6.869
 9052SOL    HW128055   1.934   2.602   6.874
 9052SOL    HW228056   1.985   2.470   6.792
 9053SOL     OW28057   0.457   1.217   0.442
 9053SOL    HW128058   0.481   1.255   0.532
 9053SOL    HW228059   0.509   1.264   0.371
 9054SOL     OW28060   1.252   5.065   3.447
 9054SOL    HW128061   1.313   5.001   3.400
 9054SOL    HW228062   1.292   5.091   3.534
 9055SOL     OW28063   1.017   3.048   6.851
 9055SOL    HW128064   0.934   3.033   6.906
 9055SOL    HW228065   1.032   3.147   6.842
 9056SOL     OW28066   5.036   1.012   4.178
 9056SOL    HW128067   4.989   1.100   4.189
 9056SOL    HW228068   4.983   0.955   4.115
 9057SOL     OW28069   4.953   1.009   3.782
 9057SOL    HW128070   4.905   0.969   3.860
 9057SOL    HW228071   4.888   1.022   3.707
 9058SOL     OW28072   1.363   6.655   5.946
 9058SOL    HW128073   1.305   6.673   6.026
 9058SOL    HW228074   1.307   6.652   5.864
 9059SOL     OW28075   2.346   2.191   3.506
 9059SOL    HW128076   2.394   2.271   3.470
 9059SOL    HW228077   2.274   2.164   3.443
 9060SOL     OW28078   5.975   2.083   5.570
 9060SOL    HW128079   5.919   2.080   5.653
 9060SOL    HW228080   5.924   2.043   5.494
 9061SOL     OW28081   2.674   4.641   4.161
 9061SOL    HW128082   2.597   4.578   4.173
 9061SOL    HW228083   2.718   4.656   4.250
 9062SOL     OW28084   1.394   6.468   1.273
 9062SOL    HW128085   1.342   6.523   1.208
 9062SOL    HW228086   1.465   6.525   1.316
 9063SOL     OW28087   2.668   1.504   2.065
 9063SOL    HW128088   2.677   1.588   2.011
 9063SOL    HW228089   2.709   1.428   2.015
 9064SOL     OW28090   4.130   3.753   0.521
 9064SOL    HW128091   4.173   3.739   0.610
 9064SOL    HW228092   4.179   3.823   0.470
 9065SOL     OW28093   3.006   1.262   0.482
 9065SOL    HW128094   3.004   1.203   0.563
 9065SOL    HW228095   3.042   1.352   0.508
 9066SOL     OW28096   5.338   6.846   0.374
 9066SOL    HW128097   5.332   6.944   0.356
 9066SOL    HW228098   5.249   6.804   0.359
 9067SOL     OW28099   0.062   0.722   2.136
 9067SOL    HW128100   0.105   0.683   2.217
 9067SOL    HW228101   0.133   0.764   2.078
 9068SOL     OW28102   0.068   6.659   5.775
 9068SOL    HW128103   7.016   6.695   5.825
 9068SOL    HW228104   0.151   6.672   5.829
 9069SOL     OW28105   1.183   2.820   5.544
 9069SOL    HW128106   1.161   2.756   5.618
 9069SOL    HW228107   1.104   2.878   5.526
 9070SOL     OW28108   1.608   4.391   4.681
 9070SOL    HW128109   1.535   4.336   4.638
 9070SOL    HW228110   1.573   4.433   4.764
 9071SOL     OW28111   4.919   5.507   0.165
 9071SOL    HW128112   5.015   5.526   0.143
 9071SOL    HW228113   4.873   5.594   0.185
 9072SOL     OW28114   5.511   4.492   1.214
 9072SOL    HW128115   5.505   4.591   1.201
 9072SOL    HW228116   5.421   4.451   1.204
 9073SOL     OW28117   1.701   6.859   1.169
 9073SOL    HW128118   1.770   6.930   1.155
 9073SOL    HW228119   1.746   6.774   1.197
 9074SOL     OW28120   0.890   1.069   0.765
 9074SOL    HW128121   0.913   1.046   0.671
 9074SOL    HW228122   0.815   1.011   0.796
 9075SOL     OW28123   6.199   0.101   1.000
 9075SOL    HW128124   6.228   0.177   0.943
 9075SOL    HW228125   6.245   0.017   0.970
 9076SOL     OW28126   1.691   2.369   5.983
 9076SOL    HW128127   1.636   2.445   5.949
 9076SOL    HW228128   1.633   2.288   5.994
 9077SOL     OW28129   5.490   5.815   2.053
 9077SOL    HW128130   5.583   5.814   2.090
 9077SOL    HW228131   5.491   5.777   1.961
 9078SOL     OW28132   4.979   2.924   4.905
 9078SOL    HW128133   4.899   2.960   4.857
 9078SOL    HW228134   5.062   2.952   4.857
 9079SOL     OW28135   1.163   0.678   5.797
 9079SOL    HW128136   1.199   0.652   5.707
 9079SOL    HW228137   1.073   0.721   5.786
 9080SOL     OW28138   4.389   1.392   0.798
 9080SOL    HW128139   4.373   1.295   0.816
 9080SOL    HW228140   4.486   1.406   0.778
 9081SOL     OW28141   5.853   5.889   3.911
 9081SOL    HW128142   5.760   5.855   3.895
 9081SOL    HW228143   5.862   5.915   4.007
 9082SOL     OW28144   1.673   0.213   1.947
 9082SOL    HW128145   1.622   0.281   1.896
 9082SOL    HW228146   1.618   0.181   2.024
 9083SOL     OW28147   3.991   4.790   3.079
 9083SOL    HW128148   4.054   4.860   3.046
 9083SOL    HW228149   3.953   4.740   3.001
 9084SOL     OW28150   3.486   3.806   2.459
 9084SOL    HW128151   3.528   3.851   2.381
 9084SOL    HW228152   3.469   3.873   2.531
 9085SOL     OW28153   1.947   1.659   0.729
 9085SOL    HW128154   1.912   1.669   0.636
 9085SOL    HW228155   2.045   1.644   0.726
 9086SOL     OW28156   6.669   3.925   1.152
 9086SOL    HW128157   6.739   3.871   1.104
 9086SOL    HW228158   6.598   3.864   1.186
 9087SOL     OW28159   4.917   4.501   2.062
 9087SOL    HW128160   4.835   4.537   2.017
 9087SOL    HW228161   4.940   4.412   2.024
 9088SOL     OW28162   6.142   4.551   2.149
 9088SOL    HW128163   6.142   4.636   2.202
 9088SOL    HW228164   6.082   4.484   2.193
 9089SOL     OW28165   5.435   0.646   5.816
 9089SOL    HW128166   5.407   0.549   5.811
 9089SOL    HW228167   5.533   0.651   5.834
 9090SOL     OW28168   6.957   2.327   4.030
 9090SOL    HW128169   0.021   2.314   4.071
 9090SOL    HW228170   6.963   2.396   3.957
 9091SOL     OW28171   4.431   2.746   6.200
 9091SOL    HW128172   4.401   2.708   6.287
 9091SOL    HW228173   4.507   2.809   6.215
 9092SOL     OW28174   0.001   3.808   5.892
 9092SOL    HW128175   6.939   3.821   5.847
 9092SOL    HW228176   0.011   3.874   5.966
 9093SOL     OW28177   2.922   6.211   4.460
 9093SOL    HW128178   2.866   6.202   4.378
 9093SOL    HW228179   2.939   6.120   4.499
 9094SOL     OW28180   1.528   4.225   0.363
 9094SOL    HW128181   1.515   4.297   0.431
 9094SOL    HW228182   1.499   4.138   0.401
 9095SOL     OW28183   0.640   0.578   6.424
 9095SOL    HW128184   0.594   0.651   6.373
 9095SOL    HW228185   0.738   0.596   6.427
 9096SOL     OW28186   6.620   4.808   4.140
 9096SOL    HW128187   6.638   4.901   4.108
 9096SOL    HW228188   6.555   4.764   4.078
 9097SOL     OW28189   0.502   3.968   1.337
 9097SOL    HW128190   0.573   4.018   1.387
 9097SOL    HW228191   0.423   3.954   1.397
 9098SOL     OW28192   1.828   5.646   4.275
 9098SOL    HW128193   1.893   5.579   4.241
 9098SOL    HW228194   1.780   5.689   4.199
 9099SOL     OW28195   1.679   0.694   6.471
 9099SOL    HW128196   1.778   0.680   6.467
 9099SOL    HW228197   1.648   0.739   6.387
 9100SOL     OW28198   1.650   5.359   4.571
 9100SOL    HW128199   1.698   5.445   4.556
 9100SOL    HW228200   1.699   5.285   4.525
 9101SOL     OW28201   5.844   2.410   1.364
 9101SOL    HW128202   5.887   2.323   1.341
 9101SOL    HW228203   5.874   2.480   1.300
 9102SOL     OW28204   3.647   1.421   3.320
 9102SOL    HW128205   3.573   1.364   3.354
 9102SOL    HW228206   3.729   1.366   3.306
 9103SOL     OW28207   5.589   1.105   1.549
 9103SOL    HW128208   5.583   1.017   1.502
 9103SOL    HW228209   5.559   1.094   1.644
 9104SOL     OW28210   5.093   2.924   5.649
 9104SOL    HW128211   5.060   2.851   5.708
 9104SOL    HW228212   5.063   2.908   5.555
 9105SOL     OW28213   2.685   0.562   0.364
 9105SOL    HW128214   2.773   0.528   0.331
 9105SOL    HW228215   2.668   0.527   0.456
 9106SOL     OW28216   2.580   2.602   6.047
 9106SOL    HW128217   2.678   2.587   6.054
 9106SOL    HW228218   2.559   2.650   5.961
 9107SOL     OW28219   4.067   0.533   1.171
 9107SOL    HW128220   4.127   0.611   1.190
 9107SOL    HW228221   4.015   0.551   1.087
 9108SOL     OW28222   5.908   6.931   5.026
 9108SOL    HW128223   5.887   0.002   5.017
 9108SOL    HW228224   6.002   6.921   5.057
 9109SOL     OW28225   5.410   3.606   2.942
 9109SOL    HW128226   5.363   3.626   3.027
 9109SOL    HW228227   5.376   3.665   2.869
 9110SOL     OW28228   0.706   6.137   1.961
 9110SOL    HW128229   0.775   6.183   1.905
 9110SOL    HW228230   0.750   6.074   2.024
 9111SOL     OW28231   4.953   3.663   5.517
 9111SOL    HW128232   4.900   3.589   5.559
 9111SOL    HW228233   4.917   3.681   5.425
 9112SOL     OW28234   0.570   4.680   1.507
 9112SOL    HW128235   0.517   4.599   1.482
 9112SOL    HW228236   0.564   4.749   1.434
 9113SOL     OW28237   5.274   6.883   4.874
 9113SOL    HW128238   5.346   6.898   4.942
 9113SOL    HW228239   5.185   6.883   4.919
 9114SOL     OW28240   6.946   1.311   6.119
 9114SOL    HW128241   7.007   1.240   6.085
 9114SOL    HW228242   6.993   1.399   6.121
 9115SOL     OW28243   5.089   3.651   4.714
 9115SOL    HW128244   5.065   3.612   4.803
 9115SOL    HW228245   5.153   3.590   4.667
 9116SOL     OW28246   0.483   5.228   3.142
 9116SOL    HW128247   0.473   5.281   3.058
 9116SOL    HW228248   0.539   5.280   3.207
 9117SOL     OW28249   1.726   6.700   6.940
 9117SOL    HW128250   1.647   6.693   7.000
 9117SOL    HW228251   1.709   6.769   6.869
 9118SOL     OW28252   0.728   4.956   0.917
 9118SOL    HW128253   0.658   4.884   0.928
 9118SOL    HW228254   0.689   5.031   0.864
 9119SOL     OW28255   3.645   2.235   0.815
 9119SOL    HW128256   3.558   2.285   0.812
 9119SOL    HW228257   3.628   2.141   0.846
 9120SOL     OW28258   6.969   4.773   4.799
 9120SOL    HW128259   6.884   4.721   4.799
 9120SOL    HW228260   0.019   4.713   4.821
 9121SOL     OW28261   4.406   1.460   5.498
 9121SOL    HW128262   4.324   1.495   5.454
 9121SOL    HW228263   4.484   1.468   5.435
 9122SOL     OW28264   0.370   1.609   2.322
 9122SOL    HW128265   0.282   1.569   2.297
 9122SOL    HW228266   0.375   1.703   2.287
 9123SOL     OW28267   1.105   6.519   4.730
 9123SOL    HW128268   1.196   6.477   4.722
 9123SOL    HW228269   1.108   6.589   4.801
 9124SOL     OW28270   2.442   5.269   6.968
 9124SOL    HW128271   2.487   5.340   6.914
 9124SOL    HW228272   2.399   5.203   6.906
 9125SOL     OW28273   4.726   7.007   1.728
 9125SOL    HW128274   4.631   7.022   1.755
 9125SOL    HW228275   4.736   6.914   1.693
 9126SOL     OW28276   3.526   5.862   6.752
 9126SOL    HW128277   3.523   5.797   6.828
 9126SOL    HW228278   3.569   5.947   6.782
 9127SOL     OW28279   6.257   3.974   6.507
 9127SOL    HW128280   6.233   4.060   6.552
 9127SOL    HW228281   6.232   3.979   6.410
 9128SOL     OW28282   5.163   3.131   6.793
 9128SOL    HW128283   5.230   3.064   6.760
 9128SOL    HW228284   5.150   3.202   6.724
 9129SOL     OW28285   0.695   2.033   1.402
 9129SOL    HW128286   0.740   2.118   1.373
 9129SOL    HW228287   0.760   1.958   1.395
 9130SOL     OW28288   3.578   4.021   6.623
 9130SOL    HW128289   3.661   4.068   6.593
 9130SOL    HW228290   3.500   4.081   6.610
 9131SOL     OW28291   6.462   3.118   1.253
 9131SOL    HW128292   6.372   3.076   1.253
 9131SOL    HW228293   6.478   3.163   1.165
 9132SOL     OW28294   0.824   4.806   3.914
 9132SOL    HW128295   0.840   4.836   4.008
 9132SOL    HW228296   0.887   4.854   3.853
 9133SOL     OW28297   5.562   6.370   0.398
 9133SOL    HW128298   5.556   6.413   0.308
 9133SOL    HW228299   5.620   6.425   0.458
 9134SOL     OW28300   4.600   3.964   6.432
 9134SOL    HW128301   4.629   3.887   6.375
 9134SOL    HW228302   4.670   3.983   6.500
 9135SOL     OW28303   6.808   4.871   2.308
 9135SOL    HW128304   6.762   4.950   2.348
 9135SOL    HW228305   6.745   4.793   2.306
 9136SOL     OW28306   6.978   5.356   0.351
 9136SOL    HW128307   6.980   5.456   0.357
 9136SOL    HW228308   0.020   5.317   0.412
 9137SOL     OW28309   5.901   5.482   6.718
 9137SOL    HW128310   5.939   5.464   6.627
 9137SOL    HW228311   5.936   5.413   6.782
 9138SOL     OW28312   1.888   4.121   5.511
 9138SOL    HW128313   1.791   4.119   5.537
 9138SOL    HW228314   1.896   4.125   5.412
 9139SOL     OW28315   0.628   6.977   1.299
 9139SOL    HW128316   0.540   6.952   1.341
 9139SOL    HW228317   0.682   6.895   1.283
 9140SOL     OW28318   0.356   4.216   2.661
 9140SOL    HW128319   0.296   4.137   2.670
 9140SOL    HW228320   0.325   4.272   2.584
 9141SOL     OW28321   6.887   5.537   4.001
 9141SOL    HW128322   6.964   5.503   4.056
 9141SOL    HW228323   6.921   5.605   3.936
 9142SOL     OW28324   2.034   5.658   2.963
 9142SOL    HW128325   2.038   5.744   2.914
 9142SOL    HW228326   1.981   5.591   2.909
 9143SOL     OW28327   5.247   3.339   2.548
 9143SOL    HW128328   5.159   3.340   2.596
 9143SOL    HW228329   5.317   3.299   2.607
 9144SOL     OW28330   2.616   4.741   5.366
 9144SOL    HW128331   2.606   4.780   5.457
 9144SOL    HW228332   2.687   4.670   5.368
 9145SOL     OW28333   2.732   5.574   6.211
 9145SOL    HW128334   2.810   5.564   6.149
 9145SOL    HW228335   2.718   5.671   6.232
 9146SOL     OW28336   5.134   1.028   4.503
 9146SOL    HW128337   5.161   1.029   4.600
 9146SOL    HW228338   5.058   1.091   4.490
 9147SOL     OW28339   4.037   6.830   6.588
 9147SOL    HW128340   3.967   6.898   6.611
 9147SOL    HW228341   4.010   6.782   6.505
 9148SOL     OW28342   3.124   6.313   1.641
 9148SOL    HW128343   3.099   6.227   1.685
 9148SOL    HW228344   3.150   6.380   1.711
 9149SOL     OW28345   1.140   3.929   2.030
 9149SOL    HW128346   1.078   4.004   2.053
 9149SOL    HW228347   1.130   3.856   2.097
 9150SOL     OW28348   4.002   3.350   0.241
 9150SOL    HW128349   4.042   3.270   0.286
 9150SOL    HW228350   4.041   3.433   0.280
 9151SOL     OW28351   2.373   4.798   3.498
 9151SOL    HW128352   2.433   4.835   3.569
 9151SOL    HW228353   2.312   4.871   3.465
 9152SOL     OW28354   1.591   5.103   2.602
 9152SOL    HW128355   1.651   5.166   2.651
 9152SOL    HW228356   1.599   5.117   2.503
 9153SOL     OW28357   0.585   3.084   1.099
 9153SOL    HW128358   0.494   3.086   1.142
 9153SOL    HW228359   0.626   3.175   1.104
 9154SOL     OW28360   4.271   5.552   2.273
 9154SOL    HW128361   4.239   5.460   2.253
 9154SOL    HW228362   4.192   5.612   2.288
 9155SOL     OW28363   0.051   0.285   2.076
 9155SOL    HW128364   0.135   0.250   2.033
 9155SOL    HW228365   0.001   0.341   2.010
 9156SOL     OW28366   6.852   4.763   5.292
 9156SOL    HW128367   6.906   4.681   5.273
 9156SOL    HW228368   6.884   4.805   5.377
 9157SOL     OW28369   2.387   4.827   4.671
 9157SOL    HW128370   2.407   4.807   4.767
 9157SOL    HW228371   2.380   4.926   4.659
 9158SOL     OW28372   6.883   2.534   3.375
 9158SOL    HW128373   6.864   2.535   3.474
 9158SOL    HW228374   6.982   2.527   3.361
 9159SOL     OW28375   1.647   0.478   3.323
 9159SOL    HW128376   1.703   0.398   3.347
 9159SOL    HW228377   1.577   0.491   3.393
 9160SOL     OW28378   7.024   3.267   6.996
 9160SOL    HW128379   0.003   3.308   0.060
 9160SOL    HW228380   6.999   3.170   7.004
 9161SOL     OW28381   6.118   3.287   3.413
 9161SOL    HW128382   6.162   3.229   3.344
 9161SOL    HW228383   6.020   3.291   3.395
 9162SOL     OW28384   5.809   2.383   2.179
 9162SOL    HW128385   5.834   2.365   2.274
 9162SOL    HW228386   5.889   2.371   2.120
 9163SOL     OW28387   0.479   3.561   2.768
 9163SOL    HW128388   0.521   3.604   2.688
 9163SOL    HW228389   0.447   3.632   2.831
 9164SOL     OW28390   4.323   0.833   0.965
 9164SOL    HW128391   4.296   0.903   1.031
 9164SOL    HW228392   4.423   0.835   0.954
 9165SOL     OW28393   6.577   6.847   0.046
 9165SOL    HW128394   6.508   6.913   0.074
 9165SOL    HW228395   6.564   6.822   6.977
 9166SOL     OW28396   4.092   5.521   1.569
 9166SOL    HW128397   4.188   5.541   1.551
 9166SOL    HW228398   4.082   5.428   1.604
 9167SOL     OW28399   0.671   3.358   5.337
 9167SOL    HW128400   0.729   3.436   5.311
 9167SOL    HW228401   0.639   3.311   5.255
 9168SOL     OW28402   6.247   6.804   4.846
 9168SOL    HW128403   6.337   6.829   4.880
 9168SOL    HW228404   6.255   6.730   4.779
 9169SOL     OW28405   5.819   5.330   0.194
 9169SOL    HW128406   5.783   5.320   0.287
 9169SOL    HW228407   5.771   5.405   0.148
 9170SOL     OW28408   1.203   6.615   4.321
 9170SOL    HW128409   1.230   6.695   4.268
 9170SOL    HW228410   1.269   6.542   4.307
 9171SOL     OW28411   4.377   5.496   6.494
 9171SOL    HW128412   4.465   5.472   6.454
 9171SOL    HW228413   4.384   5.496   6.594
 9172SOL     OW28414   5.401   6.854   6.129
 9172SOL    HW128415   5.312   6.835   6.087
 9172SOL    HW228416   5.457   6.908   6.065
 9173SOL     OW28417   5.503   4.236   6.841
 9173SOL    HW128418   5.489   4.286   6.927
 9173SOL    HW228419   5.527   4.141   6.861
 9174SOL     OW28420   5.283   5.273   0.165
 9174SOL    HW128421   5.294   5.365   0.203
 9174SOL    HW228422   5.287   5.206   0.240
 9175SOL     OW28423   2.420   0.656   1.705
 9175SOL    HW128424   2.358   0.690   1.776
 9175SOL    HW228425   2.452   0.565   1.730
 9176SOL     OW28426   1.245   6.707   2.104
 9176SOL    HW128427   1.153   6.668   2.095
 9176SOL    HW228428   1.305   6.639   2.147
 9177SOL     OW28429   0.154   5.859   3.326
 9177SOL    HW128430   0.190   5.766   3.317
 9177SOL    HW228431   0.163   5.889   3.421
 9178SOL     OW28432   0.642   2.824   1.035
 9178SOL    HW128433   0.732   2.795   1.066
 9178SOL    HW228434   0.631   2.922   1.052
 9179SOL     OW28435   3.842   6.371   2.592
 9179SOL    HW128436   3.860   6.359   2.495
 9179SOL    HW228437   3.927   6.365   2.644
 9180SOL     OW28438   0.705   1.579   3.946
 9180SOL    HW128439   0.728   1.486   3.919
 9180SOL    HW228440   0.725   1.592   4.043
 9181SOL     OW28441   3.348   1.823   2.197
 9181SOL    HW128442   3.299   1.910   2.197
 9181SOL    HW228443   3.438   1.836   2.238
 9182SOL     OW28444   6.213   0.547   2.387
 9182SOL    HW128445   6.198   0.463   2.335
 9182SOL    HW228446   6.304   0.584   2.366
 9183SOL     OW28447   2.348   1.511   6.052
 9183SOL    HW128448   2.370   1.414   6.046
 9183SOL    HW228449   2.351   1.552   5.961
 9184SOL     OW28450   2.961   6.303   0.103
 9184SOL    HW128451   2.904   6.235   0.057
 9184SOL    HW228452   2.919   6.328   0.190
 9185SOL     OW28453   0.585   1.291   4.816
 9185SOL    HW128454   0.537   1.273   4.902
 9185SOL    HW228455   0.676   1.328   4.836
 9186SOL     OW28456   5.240   6.456   6.098
 9186SOL    HW128457   5.309   6.392   6.132
 9186SOL    HW228458   5.204   6.422   6.011
 9187SOL     OW28459   4.301   2.990   1.355
 9187SOL    HW128460   4.330   3.060   1.291
 9187SOL    HW228461   4.380   2.955   1.405
 9188SOL     OW28462   1.514   0.798   2.613
 9188SOL    HW128463   1.436   0.737   2.631
 9188SOL    HW228464   1.586   0.747   2.566
 9189SOL     OW28465   3.023   0.331   0.300
 9189SOL    HW128466   3.042   0.311   0.396
 9189SOL    HW228467   3.093   0.289   0.243
 9190SOL     OW28468   3.092   0.728   6.262
 9190SOL    HW128469   3.147   0.703   6.342
 9190SOL    HW228470   3.063   0.823   6.270
 9191SOL     OW28471   5.466   0.535   1.593
 9191SOL    HW128472   5.416   0.502   1.673
 9191SOL    HW228473   5.444   0.478   1.514
 9192SOL     OW28474   4.422   4.547   3.246
 9192SOL    HW128475   4.428   4.643   3.217
 9192SOL    HW228476   4.416   4.543   3.346
 9193SOL     OW28477   3.722   3.699   1.805
 9193SOL    HW128478   3.734   3.681   1.902
 9193SOL    HW228479   3.632   3.667   1.775
 9194SOL     OW28480   2.969   5.306   2.865
 9194SOL    HW128481   3.068   5.300   2.856
 9194SOL    HW228482   2.927   5.306   2.775
 9195SOL     OW28483   0.286   3.809   3.418
 9195SOL    HW128484   0.320   3.731   3.471
 9195SOL    HW228485   0.192   3.830   3.445
 9196SOL     OW28486   5.798   5.809   3.057
 9196SOL    HW128487   5.748   5.746   2.998
 9196SOL    HW228488   5.889   5.825   3.020
 9197SOL     OW28489   4.839   2.365   6.461
 9197SOL    HW128490   4.811   2.306   6.386
 9197SOL    HW228491   4.778   2.351   6.539
 9198SOL     OW28492   6.514   3.923   4.873
 9198SOL    HW128493   6.605   3.895   4.905
 9198SOL    HW228494   6.456   3.946   4.950
 9199SOL     OW28495   0.429   3.222   6.749
 9199SOL    HW128496   0.356   3.259   6.808
 9199SOL    HW228497   0.451   3.289   6.678
 9200SOL     OW28498   4.295   5.898   2.106
 9200SOL    HW128499   4.369   5.872   2.167
 9200SOL    HW228500   4.273   5.821   2.045
 9201SOL     OW28501   0.291   2.919   2.507
 9201SOL    HW128502   0.238   3.002   2.491
 9201SOL    HW228503   0.299   2.867   2.422
 9202SOL     OW28504   2.055   6.152   3.112
 9202SOL    HW128505   1.974   6.131   3.058
 9202SOL    HW228506   2.121   6.077   3.103
 9203SOL     OW28507   5.755   2.426   0.266
 9203SOL    HW128508   5.719   2.440   0.358
 9203SOL    HW228509   5.851   2.453   0.263
 9204SOL     OW28510   5.179   4.004   1.831
 9204SOL    HW128511   5.214   3.919   1.792
 9204SOL    HW228512   5.233   4.081   1.798
 9205SOL     OW28513   4.571   2.662   0.525
 9205SOL    HW128514   4.666   2.685   0.507
 9205SOL    HW228515   4.511   2.720   0.471
 9206SOL     OW28516   0.162   0.694   4.759
 9206SOL    HW128517   0.188   0.744   4.842
 9206SOL    HW228518   0.125   0.758   4.692
 9207SOL     OW28519   5.880   6.332   0.227
 9207SOL    HW128520   5.884   6.235   0.250
 9207SOL    HW228521   5.915   6.386   0.304
 9208SOL     OW28522   6.012   3.825   1.604
 9208SOL    HW128523   5.922   3.867   1.617
 9208SOL    HW228524   6.021   3.746   1.664
 9209SOL     OW28525   4.883   0.454   4.395
 9209SOL    HW128526   4.922   0.468   4.305
 9209SOL    HW228527   4.954   0.426   4.459
 9210SOL     OW28528   1.434   6.618   0.547
 9210SOL    HW128529   1.426   6.526   0.585
 9210SOL    HW228530   1.426   6.685   0.621
 9211SOL     OW28531   4.612   0.939   6.294
 9211SOL    HW128532   4.618   1.022   6.349
 9211SOL    HW228533   4.640   0.960   6.200
 9212SOL     OW28534   5.886   3.267   6.152
 9212SOL    HW128535   5.892   3.256   6.053
 9212SOL    HW228536   5.840   3.353   6.173
 9213SOL     OW28537   0.201   0.092   3.107
 9213SOL    HW128538   0.297   0.099   3.134
 9213SOL    HW228539   0.190   0.123   3.013
 9214SOL     OW28540   1.708   1.262   5.178
 9214SOL    HW128541   1.655   1.178   5.168
 9214SOL    HW228542   1.780   1.264   5.109
 9215SOL     OW28543   6.657   4.258   3.810
 9215SOL    HW128544   6.606   4.172   3.813
 9215SOL    HW228545   6.753   4.240   3.833
 9216SOL     OW28546   1.777   6.757   3.222
 9216SOL    HW128547   1.682   6.786   3.223
 9216SOL    HW228548   1.836   6.836   3.203
 9217SOL     OW28549   4.350   1.850   0.538
 9217SOL    HW128550   4.303   1.905   0.469
 9217SOL    HW228551   4.445   1.880   0.545
 9218SOL     OW28552   5.352   5.685   6.226
 9218SOL    HW128553   5.301   5.631   6.293
 9218SOL    HW228554   5.296   5.763   6.197
 9219SOL     OW28555   3.575   2.836   5.587
 9219SOL    HW128556   3.638   2.899   5.541
 9219SOL    HW228557   3.501   2.812   5.525
 9220SOL     OW28558   0.026   6.653   3.351
 9220SOL    HW128559   0.082   6.628   3.271
 9220SOL    HW228560   0.062   6.737   3.391
 9221SOL     OW28561   2.823   1.190   2.301
 9221SOL    HW128562   2.908   1.145   2.272
 9221SOL    HW228563   2.753   1.178   2.232
 9222SOL     OW28564   2.470   6.246   2.834
 9222SOL    HW128565   2.432   6.336   2.817
 9222SOL    HW228566   2.414   6.176   2.789
 9223SOL     OW28567   5.841   2.999   5.182
 9223SOL    HW128568   5.810   2.904   5.189
 9223SOL    HW228569   5.762   3.060   5.191
 9224SOL     OW28570   2.095   5.632   2.526
 9224SOL    HW128571   2.039   5.573   2.468
 9224SOL    HW228572   2.130   5.580   2.603
 9225SOL     OW28573   0.189   6.079   5.370
 9225SOL    HW128574   0.236   6.028   5.441
 9225SOL    HW228575   0.232   6.169   5.360
 9226SOL     OW28576   6.948   6.262   4.827
 9226SOL    HW128577   7.006   6.326   4.776
 9226SOL    HW228578   6.968   6.169   4.796
 9227SOL     OW28579   4.945   2.801   0.826
 9227SOL    HW128580   4.851   2.767   0.831
 9227SOL    HW228581   4.944   2.900   0.814
 9228SOL     OW28582   3.539   3.772   4.049
 9228SOL    HW128583   3.543   3.871   4.034
 9228SOL    HW228584   3.578   3.724   3.971
 9229SOL     OW28585   6.885   5.918   1.600
 9229SOL    HW128586   6.853   5.825   1.582
 9229SOL    HW228587   6.946   5.947   1.526
 9230SOL     OW28588   2.994   6.321   5.213
 9230SOL    HW128589   2.985   6.235   5.161
 9230SOL    HW228590   2.987   6.302   5.311
 9231SOL     OW28591   4.864   5.383   1.886
 9231SOL    HW128592   4.910   5.464   1.850
 9231SOL    HW228593   4.850   5.394   1.985
 9232SOL     OW28594   1.272   5.071   1.441
 9232SOL    HW128595   1.221   4.991   1.409
 9232SOL    HW228596   1.224   5.113   1.518
 9233SOL     OW28597   1.066   0.853   6.508
 9233SOL    HW128598   1.034   0.812   6.423
 9233SOL    HW228599   1.166   0.847   6.513
 9234SOL     OW28600   2.689   3.831   0.742
 9234SOL    HW128601   2.776   3.789   0.767
 9234SOL    HW228602   2.640   3.858   0.825
 9235SOL     OW28603   1.047   2.240   3.111
 9235SOL    HW128604   0.968   2.217   3.168
 9235SOL    HW228605   1.101   2.158   3.095
 9236SOL     OW28606   2.475   3.430   6.242
 9236SOL    HW128607   2.434   3.517   6.214
 9236SOL    HW228608   2.441   3.406   6.333
 9237SOL     OW28609   6.554   5.816   3.824
 9237SOL    HW128610   6.586   5.731   3.865
 9237SOL    HW228611   6.586   5.822   3.729
 9238SOL     OW28612   2.109   1.964   5.629
 9238SOL    HW128613   2.167   2.007   5.699
 9238SOL    HW228614   2.089   1.870   5.655
 9239SOL     OW28615   2.011   6.379   6.724
 9239SOL    HW128616   1.936   6.377   6.657
 9239SOL    HW228617   2.018   6.470   6.763
 9240SOL     OW28618   3.510   1.671   5.461
 9240SOL    HW128619   3.587   1.682   5.398
 9240SOL    HW228620   3.444   1.745   5.447
 9241SOL     OW28621   5.510   5.475   6.944
 9241SOL    HW128622   5.414   5.501   6.955
 9241SOL    HW228623   5.539   5.495   6.851
 9242SOL     OW28624   1.819   3.159   0.285
 9242SOL    HW128625   1.802   3.085   0.349
 9242SOL    HW228626   1.776   3.138   0.197
 9243SOL     OW28627   1.815   6.980   6.753
 9243SOL    HW128628   1.842   7.023   6.667
 9243SOL    HW228629   1.753   0.014   6.802
 9244SOL     OW28630   3.619   5.920   6.390
 9244SOL    HW128631   3.609   5.882   6.298
 9244SOL    HW228632   3.603   5.849   6.457
 9245SOL     OW28633   0.590   4.212   3.503
 9245SOL    HW128634   0.511   4.175   3.551
 9245SOL    HW228635   0.669   4.212   3.564
 9246SOL     OW28636   4.515   2.085   0.113
 9246SOL    HW128637   4.549   2.039   0.031
 9246SOL    HW228638   4.588   2.139   0.154
 9247SOL     OW28639   3.166   6.253   1.996
 9247SOL    HW128640   3.177   6.178   1.931
 9247SOL    HW228641   3.171   6.341   1.948
 9248SOL     OW28642   2.698   0.245   6.855
 9248SOL    HW128643   2.776   0.221   6.797
 9248SOL    HW228644   2.731   0.272   6.946
 9249SOL     OW28645   2.816   1.682   6.926
 9249SOL    HW128646   2.820   1.623   6.846
 9249SOL    HW228647   2.727   1.673   6.970
 9250SOL     OW28648   0.479   3.800   1.739
 9250SOL    HW128649   0.379   3.804   1.737
 9250SOL    HW228650   0.510   3.807   1.834
 9251SOL     OW28651   3.733   1.657   1.144
 9251SOL    HW128652   3.670   1.602   1.199
 9251SOL    HW228653   3.760   1.738   1.196
 9252SOL     OW28654   5.958   1.314   4.884
 9252SOL    HW128655   5.877   1.314   4.826
 9252SOL    HW228656   5.934   1.284   4.976
 9253SOL     OW28657   2.983   5.304   3.751
 9253SOL    HW128658   2.986   5.240   3.827
 9253SOL    HW228659   2.991   5.254   3.665
 9254SOL     OW28660   6.572   5.896   1.961
 9254SOL    HW128661   6.598   5.856   2.049
 9254SOL    HW228662   6.475   5.920   1.963
 9255SOL     OW28663   0.357   2.595   1.594
 9255SOL    HW128664   0.368   2.649   1.510
 9255SOL    HW228665   0.362   2.498   1.572
 9256SOL     OW28666   1.058   6.402   0.575
 9256SOL    HW128667   0.993   6.346   0.522
 9256SOL    HW228668   1.051   6.497   0.545
 9257SOL     OW28669   6.242   6.488   5.416
 9257SOL    HW128670   6.334   6.526   5.411
 9257SOL    HW228671   6.203   6.505   5.507
 9258SOL     OW28672   5.061   3.759   3.457
 9258SOL    HW128673   5.027   3.669   3.483
 9258SOL    HW228674   5.035   3.778   3.362
 9259SOL     OW28675   1.576   2.997   6.350
 9259SOL    HW128676   1.526   2.912   6.328
 9259SOL    HW228677   1.636   3.021   6.275
 9260SOL     OW28678   5.795   4.434   5.111
 9260SOL    HW128679   5.774   4.474   5.021
 9260SOL    HW228680   5.773   4.336   5.109
 9261SOL     OW28681   0.709   3.200   0.798
 9261SOL    HW128682   0.727   3.275   0.735
 9261SOL    HW228683   0.759   3.215   0.883
 9262SOL     OW28684   6.743   6.624   5.765
 9262SOL    HW128685   6.648   6.594   5.777
 9262SOL    HW228686   6.763   6.637   5.668
 9263SOL     OW28687   1.725   4.550   2.865
 9263SOL    HW128688   1.801   4.590   2.916
 9263SOL    HW228689   1.759   4.512   2.779
 9264SOL     OW28690   6.037   4.049   5.553
 9264SOL    HW128691   6.046   4.106   5.635
 9264SOL    HW228692   5.940   4.041   5.529
 9265SOL     OW28693   3.855   0.346   2.137
 9265SOL    HW128694   3.872   0.442   2.161
 9265SOL    HW228695   3.824   0.296   2.218
 9266SOL     OW28696   0.217   4.821   0.991
 9266SOL    HW128697   0.301   4.855   1.033
 9266SOL    HW228698   0.142   4.884   1.011
 9267SOL     OW28699   6.538   1.031   3.858
 9267SOL    HW128700   6.538   0.937   3.824
 9267SOL    HW228701   6.624   1.051   3.905
 9268SOL     OW28702   6.786   0.202   0.284
 9268SOL    HW128703   6.719   0.219   0.212
 9268SOL    HW228704   6.835   0.117   0.266
 9269SOL     OW28705   3.588   0.039   1.450
 9269SOL    HW128706   3.640   6.999   1.397
 9269SOL    HW228707   3.523   7.019   1.509
 9270SOL     OW28708   2.166   0.799   4.944
 9270SOL    HW128709   2.164   0.699   4.945
 9270SOL    HW228710   2.081   0.835   4.982
 9271SOL     OW28711   1.166   5.277   5.809
 9271SOL    HW128712   1.168   5.345   5.882
 9271SOL    HW228713   1.254   5.279   5.760
 9272SOL     OW28714   6.673   0.132   6.176
 9272SOL    HW128715   6.575   0.123   6.190
 9272SOL    HW228716   6.721   0.059   6.225
 9273SOL     OW28717   5.551   4.032   3.620
 9273SOL    HW128718   5.631   4.018   3.678
 9273SOL    HW228719   5.575   4.091   3.543
 9274SOL     OW28720   6.678   2.863   2.145
 9274SOL    HW128721   6.743   2.796   2.109
 9274SOL    HW228722   6.596   2.864   2.088
 9275SOL     OW28723   4.743   1.597   0.790
 9275SOL    HW128724   4.747   1.684   0.742
 9275SOL    HW228725   4.676   1.538   0.746
 9276SOL     OW28726   1.652   3.623   1.167
 9276SOL    HW128727   1.572   3.682   1.176
 9276SOL    HW228728   1.626   3.538   1.121
 9277SOL     OW28729   3.491   5.830   2.959
 9277SOL    HW128730   3.578   5.869   2.928
 9277SOL    HW228731   3.448   5.891   3.025
 9278SOL     OW28732   1.074   6.947   4.621
 9278SOL    HW128733   1.094   6.890   4.541
 9278SOL    HW228734   1.159   6.967   4.669
 9279SOL     OW28735   4.050   5.968   2.650
 9279SOL    HW128736   4.124   5.960   2.583
 9279SOL    HW228737   3.963   5.978   2.602
 9280SOL     OW28738   1.065   4.404   2.383
 9280SOL    HW128739   1.125   4.327   2.405
 9280SOL    HW228740   1.114   4.471   2.328
 9281SOL     OW28741   1.632   5.468   0.509
 9281SOL    HW128742   1.564   5.516   0.565
 9281SOL    HW228743   1.634   5.372   0.535
 9282SOL     OW28744   1.850   0.262   3.635
 9282SOL    HW128745   1.880   0.280   3.542
 9282SOL    HW228746   1.771   0.200   3.634
 9283SOL     OW28747   5.289   4.858   6.362
 9283SOL    HW128748   5.208   4.916   6.370
 9283SOL    HW228749   5.308   4.841   6.265
 9284SOL     OW28750   3.700   5.996   1.049
 9284SOL    HW128751   3.653   6.011   1.136
 9284SOL    HW228752   3.687   5.902   1.019
 9285SOL     OW28753   6.742   5.967   3.208
 9285SOL    HW128754   6.698   6.055   3.187
 9285SOL    HW228755   6.783   5.930   3.125
 9286SOL     OW28756   5.281   5.624   1.899
 9286SOL    HW128757   5.372   5.637   1.859
 9286SOL    HW228758   5.251   5.530   1.883
 9287SOL     OW28759   4.424   4.583   6.808
 9287SOL    HW128760   4.490   4.591   6.883
 9287SOL    HW228761   4.444   4.652   6.739
 9288SOL     OW28762   3.206   1.008   4.489
 9288SOL    HW128763   3.159   0.969   4.411
 9288SOL    HW228764   3.147   1.075   4.534
 9289SOL     OW28765   4.514   6.136   2.283
 9289SOL    HW128766   4.436   6.084   2.318
 9289SOL    HW228767   4.523   6.222   2.334
 9290SOL     OW28768   5.507   0.849   3.540
 9290SOL    HW128769   5.523   0.866   3.443
 9290SOL    HW228770   5.560   0.913   3.595
 9291SOL     OW28771   0.216   5.298   5.324
 9291SOL    HW128772   0.237   5.223   5.262
 9291SOL    HW228773   0.120   5.291   5.353
 9292SOL     OW28774   2.395   1.441   0.684
 9292SOL    HW128775   2.345   1.409   0.765
 9292SOL    HW228776   2.481   1.389   0.676
 9293SOL     OW28777   3.575   1.063   6.448
 9293SOL    HW128778   3.496   1.052   6.387
 9293SOL    HW228779   3.607   1.157   6.445
 9294SOL     OW28780   5.389   6.286   6.252
 9294SOL    HW128781   5.432   6.227   6.184
 9294SOL    HW228782   5.316   6.237   6.299
 9295SOL     OW28783   6.404   0.928   2.819
 9295SOL    HW128784   6.437   0.860   2.754
 9295SOL    HW228785   6.333   0.888   2.877
 9296SOL     OW28786   1.846   2.733   5.688
 9296SOL    HW128787   1.759   2.775   5.664
 9296SOL    HW228788   1.841   2.635   5.673
 9297SOL     OW28789   0.353   4.996   1.749
 9297SOL    HW128790   0.417   5.054   1.800
 9297SOL    HW228791   0.390   4.904   1.741
 9298SOL     OW28792   6.422   3.889   0.660
 9298SOL    HW128793   6.484   3.896   0.581
 9298SOL    HW228794   6.337   3.936   0.639
 9299SOL     OW28795   4.036   2.224   3.841
 9299SOL    HW128796   3.940   2.208   3.819
 9299SOL    HW228797   4.090   2.145   3.812
 9300SOL     OW28798   2.787   6.343   5.534
 9300SOL    HW128799   2.826   6.258   5.499
 9300SOL    HW228800   2.687   6.339   5.526
 9301SOL     OW28801   0.731   3.422   4.191
 9301SOL    HW128802   0.786   3.468   4.261
 9301SOL    HW228803   0.664   3.486   4.153
 9302SOL     OW28804   3.514   6.202   3.603
 9302SOL    HW128805   3.582   6.129   3.590
 9302SOL    HW228806   3.442   6.170   3.665
 9303SOL     OW28807   2.918   4.099   0.370
 9303SOL    HW128808   2.986   4.135   0.434
 9303SOL    HW228809   2.842   4.058   0.421
 9304SOL     OW28810   6.210   5.677   6.871
 9304SOL    HW128811   6.192   5.771   6.900
 9304SOL    HW228812   6.127   5.622   6.881
 9305SOL     OW28813   2.597   1.852   1.562
 9305SOL    HW128814   2.527   1.783   1.582
 9305SOL    HW228815   2.552   1.939   1.539
 9306SOL     OW28816   6.412   6.561   3.160
 9306SOL    HW128817   6.438   6.471   3.195
 9306SOL    HW228818   6.409   6.626   3.236
 9307SOL     OW28819   2.126   3.588   0.965
 9307SOL    HW128820   2.092   3.589   1.059
 9307SOL    HW228821   2.075   3.520   0.912
 9308SOL     OW28822   2.513   3.132   0.868
 9308SOL    HW128823   2.445   3.205   0.879
 9308SOL    HW228824   2.535   3.094   0.958
 9309SOL     OW28825   3.687   5.011   5.880
 9309SOL    HW128826   3.763   4.952   5.853
 9309SOL    HW228827   3.601   4.973   5.845
 9310SOL     OW28828   6.074   0.123   5.895
 9310SOL    HW128829   6.084   0.184   5.974
 9310SOL    HW228830   6.150   0.138   5.832
 9311SOL     OW28831   5.100   4.424   0.295
 9311SOL    HW128832   5.133   4.369   0.217
 9311SOL    HW228833   5.165   4.498   0.313
 9312SOL     OW28834   6.213   2.615   4.039
 9312SOL    HW128835   6.184   2.558   4.116
 9312SOL    HW228836   6.290   2.672   4.067
 9313SOL     OW28837   6.927   0.102   1.808
 9313SOL    HW128838   6.837   0.066   1.833
 9313SOL    HW228839   6.921   0.150   1.721
 9314SOL     OW28840   5.264   4.229   2.100
 9314SOL    HW128841   5.295   4.225   2.005
 9314SOL    HW228842   5.247   4.136   2.134
 9315SOL     OW28843   4.926   5.310   5.165
 9315SOL    HW128844   5.010   5.363   5.150
 9315SOL    HW228845   4.862   5.363   5.220
 9316SOL     OW28846   5.301   5.918   6.883
 9316SOL    HW128847   5.344   5.998   6.842
 9316SOL    HW228848   5.344   5.835   6.846
 9317SOL     OW28849   2.982   6.226   3.303
 9317SOL    HW128850   2.970   6.190   3.395
 9317SOL    HW228851   2.901   6.205   3.248
 9318SOL     OW28852   3.414   0.128   3.998
 9318SOL    HW128853   3.340   0.061   3.988
 9318SOL    HW228854   3.385   0.202   4.059
 9319SOL     OW28855   3.600   2.721   0.644
 9319SOL    HW128856   3.615   2.696   0.549
 9319SOL    HW228857   3.642   2.653   0.704
 9320SOL     OW28858   6.736   0.903   6.450
 9320SOL    HW128859   6.750   0.868   6.543
 9320SOL    HW228860   6.695   0.832   6.393
 9321SOL     OW28861   1.499   2.425   4.196
 9321SOL    HW128862   1.539   2.487   4.128
 9321SOL    HW228863   1.448   2.477   4.264
 9322SOL     OW28864   5.309   3.296   0.690
 9322SOL    HW128865   5.219   3.318   0.728
 9322SOL    HW228866   5.308   3.205   0.650
 9323SOL     OW28867   0.199   3.053   5.109
 9323SOL    HW128868   0.239   2.996   5.181
 9323SOL    HW228869   0.245   3.033   5.022
 9324SOL     OW28870   0.375   3.666   1.463
 9324SOL    HW128871   0.419   3.617   1.389
 9324SOL    HW228872   0.395   3.764   1.455
 9325SOL     OW28873   0.098   3.301   2.874
 9325SOL    HW128874   0.067   3.392   2.903
 9325SOL    HW228875   0.188   3.309   2.831
 9326SOL     OW28876   3.848   4.826   1.247
 9326SOL    HW128877   3.845   4.921   1.278
 9326SOL    HW228878   3.845   4.765   1.327
 9327SOL     OW28879   1.932   2.246   3.151
 9327SOL    HW128880   1.966   2.331   3.111
 9327SOL    HW228881   1.968   2.168   3.100
 9328SOL     OW28882   0.794   0.312   3.721
 9328SOL    HW128883   0.802   0.336   3.624
 9328SOL    HW228884   0.827   0.388   3.776
 9329SOL     OW28885   1.287   5.419   6.319
 9329SOL    HW128886   1.378   5.456   6.337
 9329SOL    HW228887   1.296   5.330   6.274
 9330SOL     OW28888   0.743   6.181   0.935
 9330SOL    HW128889   0.771   6.272   0.903
 9330SOL    HW228890   0.824   6.121   0.939
 9331SOL     OW28891   2.744   5.756   4.820
 9331SOL    HW128892   2.802   5.692   4.871
 9331SOL    HW228893   2.703   5.709   4.742
 9332SOL     OW28894   6.344   6.280   0.619
 9332SOL    HW128895   6.377   6.194   0.582
 9332SOL    HW228896   6.298   6.332   0.547
 9333SOL     OW28897   0.700   5.917   1.596
 9333SOL    HW128898   0.661   5.991   1.541
 9333SOL    HW228899   0.798   5.909   1.577
 9334SOL     OW28900   0.405   5.939   6.909
 9334SOL    HW128901   0.313   5.976   6.922
 9334SOL    HW228902   0.455   5.996   6.844
 9335SOL     OW28903   6.872   3.771   1.039
 9335SOL    HW128904   6.963   3.784   1.078
 9335SOL    HW228905   6.881   3.736   0.946
 9336SOL     OW28906   4.647   5.610   5.542
 9336SOL    HW128907   4.618   5.658   5.459
 9336SOL    HW228908   4.569   5.559   5.579
 9337SOL     OW28909   3.018   1.936   4.847
 9337SOL    HW128910   3.041   1.851   4.799
 9337SOL    HW228911   3.036   1.924   4.945
 9338SOL     OW28912   4.308   0.195   1.973
 9338SOL    HW128913   4.332   0.261   2.043
 9338SOL    HW228914   4.303   0.240   1.884
 9339SOL     OW28915   0.524   3.341   4.372
 9339SOL    HW128916   0.548   3.318   4.278
 9339SOL    HW228917   0.525   3.258   4.429
 9340SOL     OW28918   3.018   4.790   2.076
 9340SOL    HW128919   2.951   4.722   2.047
 9340SOL    HW228920   3.089   4.799   2.006
 9341SOL     OW28921   5.006   5.650   1.822
 9341SOL    HW128922   5.084   5.676   1.879
 9341SOL    HW228923   5.037   5.639   1.727
 9342SOL     OW28924   2.947   1.012   4.683
 9342SOL    HW128925   3.007   0.946   4.729
 9342SOL    HW228926   2.914   0.972   4.597
 9343SOL     OW28927   5.587   3.916   1.231
 9343SOL    HW128928   5.606   4.008   1.196
 9343SOL    HW228929   5.656   3.892   1.299
 9344SOL     OW28930   5.364   6.003   5.060
 9344SOL    HW128931   5.324   5.940   5.126
 9344SOL    HW228932   5.425   5.953   4.998
 9345SOL     OW28933   0.272   4.867   6.847
 9345SOL    HW128934   0.274   4.781   6.797
 9345SOL    HW228935   0.197   4.865   6.914
 9346SOL     OW28936   5.545   0.575   2.502
 9346SOL    HW128937   5.643   0.564   2.520
 9346SOL    HW228938   5.504   0.632   2.574
 9347SOL     OW28939   5.278   0.076   2.027
 9347SOL    HW128940   5.327   0.134   2.092
 9347SOL    HW228941   5.180   0.096   2.032
 9348SOL     OW28942   2.534   4.895   2.379
 9348SOL    HW128943   2.579   4.809   2.356
 9348SOL    HW228944   2.576   4.933   2.462
 9349SOL     OW28945   1.322   4.427   1.445
 9349SOL    HW128946   1.325   4.454   1.349
 9349SOL    HW228947   1.290   4.332   1.451
 9350SOL     OW28948   6.819   0.751   0.001
 9350SOL    HW128949   6.907   0.755   0.049
 9350SOL    HW228950   6.748   0.720   0.064
 9351SOL     OW28951   3.793   4.409   6.553
 9351SOL    HW128952   3.784   4.322   6.504
 9351SOL    HW228953   3.877   4.409   6.607
 9352SOL     OW28954   2.556   1.830   6.714
 9352SOL    HW128955   2.558   1.857   6.810
 9352SOL    HW228956   2.642   1.857   6.670
 9353SOL     OW28957   1.390   3.254   2.314
 9353SOL    HW128958   1.339   3.223   2.234
 9353SOL    HW228959   1.485   3.273   2.288
 9354SOL     OW28960   5.650   2.620   2.333
 9354SOL    HW128961   5.699   2.534   2.347
 9354SOL    HW228962   5.573   2.625   2.396
 9355SOL     OW28963   0.732   2.628   2.313
 9355SOL    HW128964   0.761   2.722   2.328
 9355SOL    HW228965   0.812   2.567   2.315
 9356SOL     OW28966   4.490   2.454   2.107
 9356SOL    HW128967   4.469   2.392   2.182
 9356SOL    HW228968   4.587   2.447   2.083
 9357SOL     OW28969   1.746   4.200   6.913
 9357SOL    HW128970   1.658   4.197   6.866
 9357SOL    HW228971   1.782   4.293   6.909
 9358SOL     OW28972   5.063   5.082   3.459
 9358SOL    HW128973   5.150   5.130   3.470
 9358SOL    HW228974   5.051   5.017   3.535
 9359SOL     OW28975   4.231   5.779   5.757
 9359SOL    HW128976   4.270   5.688   5.748
 9359SOL    HW228977   4.278   5.828   5.831
 9360SOL     OW28978   0.707   0.527   5.154
 9360SOL    HW128979   0.782   0.488   5.207
 9360SOL    HW228980   0.620   0.509   5.200
 9361SOL     OW28981   1.619   1.334   2.713
 9361SOL    HW128982   1.618   1.235   2.700
 9361SOL    HW228983   1.531   1.372   2.685
 9362SOL     OW28984   1.659   2.083   2.643
 9362SOL    HW128985   1.732   2.020   2.667
 9362SOL    HW228986   1.669   2.167   2.697
 9363SOL     OW28987   0.381   6.508   2.369
 9363SOL    HW128988   0.437   6.426   2.357
 9363SOL    HW228989   0.319   6.518   2.291
 9364SOL     OW28990   5.694   4.093   1.027
 9364SOL    HW128991   5.709   4.186   1.062
 9364SOL    HW228992   5.772   4.066   0.970
 9365SOL     OW28993   3.007   1.214   4.354
 9365SOL    HW128994   2.920   1.202   4.401
 9365SOL    HW228995   3.006   1.163   4.268
 9366SOL     OW28996   2.609   1.704   1.210
 9366SOL    HW128997   2.606   1.803   1.193
 9366SOL    HW228998   2.678   1.662   1.152
 9367SOL     OW28999   4.953   6.502   4.285
 9367SOL    HW129000   4.942   6.433   4.214
 9367SOL    HW229001   4.991   6.459   4.368
 9368SOL     OW29002   6.188   3.109   0.994
 9368SOL    HW129003   6.212   3.013   1.007
 9368SOL    HW229004   6.271   3.164   0.993
 9369SOL     OW29005   0.776   2.565   6.156
 9369SOL    HW129006   0.797   2.475   6.117
 9369SOL    HW229007   0.697   2.604   6.108
 9370SOL     OW29008   6.099   5.524   2.533
 9370SOL    HW129009   6.141   5.449   2.584
 9370SOL    HW229010   6.020   5.489   2.482
 9371SOL     OW29011   1.548   0.418   0.469
 9371SOL    HW129012   1.602   0.424   0.385
 9371SOL    HW229013   1.493   0.335   0.467
 9372SOL     OW29014   5.093   5.291   0.760
 9372SOL    HW129015   5.064   5.196   0.755
 9372SOL    HW229016   5.100   5.329   0.668
 9373SOL     OW29017   4.772   2.975   4.748
 9373SOL    HW129018   4.826   2.945   4.669
 9373SOL    HW229019   4.793   3.071   4.768
 9374SOL     OW29020   4.697   4.470   6.476
 9374SOL    HW129021   4.722   4.539   6.544
 9374SOL    HW229022   4.619   4.417   6.509
 9375SOL     OW29023   6.441   6.314   3.589
 9375SOL    HW129024   6.539   6.334   3.585
 9375SOL    HW229025   6.414   6.298   3.684
 9376SOL     OW29026   2.664   3.453   1.628
 9376SOL    HW129027   2.665   3.553   1.622
 9376SOL    HW229028   2.624   3.426   1.715
 9377SOL     OW29029   6.850   4.481   3.557
 9377SOL    HW129030   6.900   4.567   3.560
 9377SOL    HW229031   6.777   4.483   3.626
 9378SOL     OW29032   3.856   5.663   1.644
 9378SOL    HW129033   3.893   5.755   1.628
 9378SOL    HW229034   3.931   5.597   1.648
 9379SOL     OW29035   4.502   4.606   5.254
 9379SOL    HW129036   4.433   4.591   5.183
 9379SOL    HW229037   4.523   4.520   5.298
 9380SOL     OW29038   0.079   5.338   6.055
 9380SOL    HW129039   0.083   5.250   6.008
 9380SOL    HW229040   0.149   5.342   6.125
 9381SOL     OW29041   0.545   0.987   0.186
 9381SOL    HW129042   0.583   1.051   0.119
 9381SOL    HW229043   0.612   0.971   0.258
 9382SOL     OW29044   6.286   2.723   2.336
 9382SOL    HW129045   6.259   2.816   2.311
 9382SOL    HW229046   6.311   2.673   2.254
 9383SOL     OW29047   0.560   5.115   0.742
 9383SOL    HW129048   0.583   5.110   0.645
 9383SOL    HW229049   0.497   5.192   0.758
 9384SOL     OW29050   2.961   6.832   2.021
 9384SOL    HW129051   2.890   6.902   2.017
 9384SOL    HW229052   3.036   6.864   2.080
 9385SOL     OW29053   4.394   6.830   3.515
 9385SOL    HW129054   4.488   6.815   3.487
 9385SOL    HW229055   4.347   6.887   3.447
 9386SOL     OW29056   3.724   6.902   4.489
 9386SOL    HW129057   3.674   6.948   4.562
 9386SOL    HW229058   3.718   6.956   4.405
 9387SOL     OW29059   4.308   6.054   0.897
 9387SOL    HW129060   4.367   6.027   0.973
 9387SOL    HW229061   4.350   6.025   0.811
 9388SOL     OW29062   6.684   0.115   1.047
 9388SOL    HW129063   6.757   0.183   1.038
 9388SOL    HW229064   6.667   0.096   1.143
 9389SOL     OW29065   3.049   1.138   0.926
 9389SOL    HW129066   3.043   1.126   1.025
 9389SOL    HW229067   3.136   1.101   0.893
 9390SOL     OW29068   3.927   6.682   0.907
 9390SOL    HW129069   3.868   6.739   0.850
 9390SOL    HW229070   3.955   6.602   0.856
 9391SOL     OW29071   5.534   0.248   3.676
 9391SOL    HW129072   5.590   0.243   3.759
 9391SOL    HW229073   5.580   0.305   3.608
 9392SOL     OW29074   0.889   0.268   4.622
 9392SOL    HW129075   0.883   0.326   4.540
 9392SOL    HW229076   0.838   0.311   4.697
 9393SOL     OW29077   5.048   1.930   5.072
 9393SOL    HW129078   4.986   1.933   5.151
 9393SOL    HW229079   4.997   1.950   4.989
 9394SOL     OW29080   6.480   1.444   2.509
 9394SOL    HW129081   6.558   1.504   2.488
 9394SOL    HW229082   6.488   1.410   2.602
 9395SOL     OW29083   1.542   2.878   0.486
 9395SOL    HW129084   1.454   2.914   0.455
 9395SOL    HW229085   1.588   2.832   0.410
 9396SOL     OW29086   0.759   1.481   4.969
 9396SOL    HW129087   0.818   1.554   4.934
 9396SOL    HW229088   0.813   1.416   5.023
 9397SOL     OW29089   1.858   1.757   1.227
 9397SOL    HW129090   1.930   1.765   1.159
 9397SOL    HW229091   1.825   1.662   1.230
 9398SOL     OW29092   2.629   2.245   1.653
 9398SOL    HW129093   2.566   2.317   1.680
 9398SOL    HW229094   2.577   2.167   1.618
 9399SOL     OW29095   0.587   0.747   5.634
 9399SOL    HW129096   0.533   0.667   5.658
 9399SOL    HW229097   0.680   0.737   5.669
 9400SOL     OW29098   4.349   1.323   4.487
 9400SOL    HW129099   4.352   1.236   4.438
 9400SOL    HW229100   4.301   1.391   4.432
 9401SOL     OW29101   4.544   0.129   4.262
 9401SOL    HW129102   4.635   0.150   4.297
 9401SOL    HW229103   4.486   0.211   4.269
 9402SOL     OW29104   2.743   4.547   6.301
 9402SOL    HW129105   2.697   4.586   6.380
 9402SOL    HW229106   2.706   4.587   6.217
 9403SOL     OW29107   6.450   0.295   3.574
 9403SOL    HW129108   6.545   0.300   3.605
 9403SOL    HW229109   6.448   0.280   3.475
 9404SOL     OW29110   2.316   4.218   4.626
 9404SOL    HW129111   2.281   4.274   4.702
 9404SOL    HW229112   2.413   4.236   4.614
 9405SOL     OW29113   0.412   0.715   0.946
 9405SOL    HW129114   0.376   0.804   0.916
 9405SOL    HW229115   0.487   0.730   1.010
 9406SOL     OW29116   6.544   1.864   5.625
 9406SOL    HW129117   6.608   1.937   5.645
 9406SOL    HW229118   6.587   1.797   5.564
 9407SOL     OW29119   3.530   5.539   3.561
 9407SOL    HW129120   3.489   5.483   3.633
 9407SOL    HW229121   3.463   5.605   3.528
 9408SOL     OW29122   3.803   1.324   0.463
 9408SOL    HW129123   3.743   1.382   0.519
 9408SOL    HW229124   3.755   1.301   0.378
 9409SOL     OW29125   6.205   4.061   3.888
 9409SOL    HW129126   6.188   4.133   3.955
 9409SOL    HW229127   6.296   4.074   3.848
 9410SOL     OW29128   4.381   6.833   1.292
 9410SOL    HW129129   4.374   6.870   1.385
 9410SOL    HW229130   4.394   6.734   1.296
 9411SOL     OW29131   5.104   4.489   2.493
 9411SOL    HW129132   5.137   4.555   2.560
 9411SOL    HW229133   5.181   4.461   2.435
 9412SOL     OW29134   6.832   1.623   3.120
 9412SOL    HW129135   6.892   1.701   3.133
 9412SOL    HW229136   6.871   1.561   3.052
 9413SOL     OW29137   4.284   5.571   3.837
 9413SOL    HW129138   4.214   5.598   3.903
 9413SOL    HW229139   4.245   5.570   3.745
 9414SOL     OW29140   2.490   0.230   1.579
 9414SOL    HW129141   2.458   0.135   1.583
 9414SOL    HW229142   2.412   0.292   1.579
 9415SOL     OW29143   0.958   6.490   1.618
 9415SOL    HW129144   1.004   6.483   1.530
 9415SOL    HW229145   0.881   6.553   1.610
 9416SOL     OW29146   1.256   1.857   2.275
 9416SOL    HW129147   1.332   1.801   2.242
 9416SOL    HW229148   1.269   1.876   2.373
 9417SOL     OW29149   0.970   0.483   4.175
 9417SOL    HW129150   0.890   0.439   4.135
 9417SOL    HW229151   1.049   0.471   4.114
 9418SOL     OW29152   4.046   4.486   0.630
 9418SOL    HW129153   3.961   4.434   0.627
 9418SOL    HW229154   4.026   4.583   0.642
 9419SOL     OW29155   3.176   5.911   3.328
 9419SOL    HW129156   3.171   6.005   3.294
 9419SOL    HW229157   3.150   5.848   3.254
 9420SOL     OW29158   1.290   0.639   2.638
 9420SOL    HW129159   1.220   0.616   2.570
 9420SOL    HW229160   1.299   0.564   2.704
 9421SOL     OW29161   1.712   4.291   5.050
 9421SOL    HW129162   1.805   4.322   5.029
 9421SOL    HW229163   1.708   4.258   5.144
 9422SOL     OW29164   3.350   1.110   2.654
 9422SOL    HW129165   3.375   1.207   2.646
 9422SOL    HW229166   3.333   1.072   2.563
 9423SOL     OW29167   4.731   0.080   5.581
 9423SOL    HW129168   4.753   0.023   5.660
 9423SOL    HW229169   4.766   0.037   5.497
 9424SOL     OW29170   3.532   5.806   3.769
 9424SOL    HW129171   3.623   5.767   3.753
 9424SOL    HW229172   3.491   5.832   3.681
 9425SOL     OW29173   0.133   5.537   2.245
 9425SOL    HW129174   0.110   5.613   2.306
 9425SOL    HW229175   0.160   5.573   2.156
 9426SOL     OW29176   3.508   6.223   0.786
 9426SOL    HW129177   3.479   6.228   0.881
 9426SOL    HW229178   3.513   6.127   0.757
 9427SOL     OW29179   3.833   4.909   4.622
 9427SOL    HW129180   3.928   4.897   4.648
 9427SOL    HW229181   3.781   4.827   4.646
 9428SOL     OW29182   4.301   6.789   1.791
 9428SOL    HW129183   4.279   6.730   1.713
 9428SOL    HW229184   4.217   6.809   1.841
 9429SOL     OW29185   0.684   3.228   2.702
 9429SOL    HW129186   0.710   3.284   2.623
 9429SOL    HW229187   0.703   3.278   2.786
 9430SOL     OW29188   6.229   6.764   1.808
 9430SOL    HW129189   6.289   6.695   1.848
 9430SOL    HW229190   6.272   6.854   1.816
 9431SOL     OW29191   5.812   4.437   0.738
 9431SOL    HW129192   5.899   4.486   0.745
 9431SOL    HW229193   5.752   4.465   0.812
 9432SOL     OW29194   5.833   6.287   2.789
 9432SOL    HW129195   5.771   6.219   2.750
 9432SOL    HW229196   5.897   6.318   2.718
 9433SOL     OW29197   2.223   5.238   4.487
 9433SOL    HW129198   2.277   5.301   4.431
 9433SOL    HW229199   2.161   5.290   4.546
 9434SOL     OW29200   5.666   4.708   3.385
 9434SOL    HW129201   5.752   4.745   3.420
 9434SOL    HW229202   5.630   4.768   3.314
 9435SOL     OW29203   3.092   2.650   6.072
 9435SOL    HW129204   3.171   2.595   6.044
 9435SOL    HW229205   3.063   2.707   5.995
 9436SOL     OW29206   3.558   2.457   5.447
 9436SOL    HW129207   3.588   2.400   5.524
 9436SOL    HW229208   3.458   2.463   5.447
 9437SOL     OW29209   0.573   6.130   4.682
 9437SOL    HW129210   0.528   6.057   4.734
 9437SOL    HW229211   0.517   6.154   4.602
 9438SOL     OW29212   0.293   6.657   1.435
 9438SOL    HW129213   0.318   6.571   1.391
 9438SOL    HW229214   0.194   6.657   1.453
 9439SOL     OW29215   1.418   2.546   1.877
 9439SOL    HW129216   1.400   2.644   1.889
 9439SOL    HW229217   1.474   2.513   1.952
 9440SOL     OW29218   3.471   6.069   3.140
 9440SOL    HW129219   3.396   6.107   3.194
 9440SOL    HW229220   3.506   5.987   3.185
 9441SOL     OW29221   1.109   5.409   6.042
 9441SOL    HW129222   1.136   5.331   6.099
 9441SOL    HW229223   1.101   5.490   6.100
 9442SOL     OW29224   1.561   2.030   1.927
 9442SOL    HW129225   1.654   2.025   1.890
 9442SOL    HW229226   1.523   1.938   1.932
 9443SOL     OW29227   0.801   1.801   0.882
 9443SOL    HW129228   0.726   1.862   0.908
 9443SOL    HW229229   0.863   1.849   0.820
 9444SOL     OW29230   1.555   4.507   4.907
 9444SOL    HW129231   1.510   4.573   4.967
 9444SOL    HW229232   1.608   4.442   4.962
 9445SOL     OW29233   5.582   1.876   2.555
 9445SOL    HW129234   5.489   1.890   2.522
 9445SOL    HW229235   5.625   1.801   2.504
 9446SOL     OW29236   4.930   5.192   0.339
 9446SOL    HW129237   4.831   5.184   0.346
 9446SOL    HW229238   4.973   5.109   0.376
 9447SOL     OW29239   5.835   1.260   1.889
 9447SOL    HW129240   5.752   1.314   1.905
 9447SOL    HW229241   5.811   1.176   1.839
 9448SOL     OW29242   6.860   6.938   0.521
 9448SOL    HW129243   6.938   7.001   0.523
 9448SOL    HW229244   6.878   6.862   0.584
 9449SOL     OW29245   5.994   5.246   4.829
 9449SOL    HW129246   5.916   5.297   4.795
 9449SOL    HW229247   6.021   5.283   4.918
 9450SOL     OW29248   1.637   6.545   4.161
 9450SOL    HW129249   1.732   6.521   4.185
 9450SOL    HW229250   1.585   6.563   4.244
 9451SOL     OW29251   4.064   3.281   4.647
 9451SOL    HW129252   4.072   3.352   4.578
 9451SOL    HW229253   4.121   3.305   4.727
 9452SOL     OW29254   3.506   4.296   0.518
 9452SOL    HW129255   3.413   4.263   0.538
 9452SOL    HW229256   3.504   4.395   0.507
 9453SOL     OW29257   2.644   6.380   1.141
 9453SOL    HW129258   2.658   6.384   1.042
 9453SOL    HW229259   2.560   6.429   1.164
 9454SOL     OW29260   2.388   1.801   6.236
 9454SOL    HW129261   2.382   1.795   6.137
 9454SOL    HW229262   2.356   1.716   6.277
 9455SOL     OW29263   1.454   2.001   1.431
 9455SOL    HW129264   1.397   2.051   1.496
 9455SOL    HW229265   1.544   2.045   1.425
 9456SOL     OW29266   1.289   2.902   0.389
 9456SOL    HW129267   1.238   2.921   0.305
 9456SOL    HW229268   1.262   2.813   0.426
 9457SOL     OW29269   6.303   3.903   0.083
 9457SOL    HW129270   6.226   3.935   0.139
 9457SOL    HW229271   6.365   3.848   0.139
 9458SOL     OW29272   1.690   5.743   4.033
 9458SOL    HW129273   1.590   5.738   4.031
 9458SOL    HW229274   1.723   5.786   3.949
 9459SOL     OW29275   3.573   5.853   0.828
 9459SOL    HW129276   3.477   5.828   0.846
 9459SOL    HW229277   3.577   5.919   0.753
 9460SOL     OW29278   1.399   3.409   5.318
 9460SOL    HW129279   1.487   3.364   5.332
 9460SOL    HW229280   1.405   3.471   5.240
 9461SOL     OW29281   1.047   0.269   2.254
 9461SOL    HW129282   0.969   0.324   2.224
 9461SOL    HW229283   1.060   0.281   2.352
 9462SOL     OW29284   0.280   3.332   3.569
 9462SOL    HW129285   0.274   3.235   3.594
 9462SOL    HW229286   0.376   3.356   3.553
 9463SOL     OW29287   5.480   2.126   5.748
 9463SOL    HW129288   5.387   2.153   5.773
 9463SOL    HW229289   5.496   2.146   5.651
 9464SOL     OW29290   3.696   6.736   6.128
 9464SOL    HW129291   3.655   6.674   6.061
 9464SOL    HW229292   3.631   6.809   6.150
 9465SOL     OW29293   4.677   6.968   4.075
 9465SOL    HW129294   4.776   6.955   4.081
 9465SOL    HW229295   4.652   0.024   4.125
 9466SOL     OW29296   3.583   1.795   0.098
 9466SOL    HW129297   3.650   1.725   0.076
 9466SOL    HW229298   3.603   1.834   0.188
 9467SOL     OW29299   0.927   3.155   2.494
 9467SOL    HW129300   1.023   3.184   2.486
 9467SOL    HW229301   0.916   3.101   2.577
 9468SOL     OW29302   0.945   2.701   6.366
 9468SOL    HW129303   0.906   2.616   6.330
 9468SOL    HW229304   0.933   2.774   6.298
 9469SOL     OW29305   0.737   4.000   2.343
 9469SOL    HW129306   0.663   3.977   2.405
 9469SOL    HW229307   0.765   3.919   2.292
 9470SOL     OW29308   6.061   3.561   1.729
 9470SOL    HW129309   6.027   3.600   1.814
 9470SOL    HW229310   6.139   3.502   1.748
 9471SOL     OW29311   0.451   2.174   5.883
 9471SOL    HW129312   0.454   2.208   5.977
 9471SOL    HW229313   0.372   2.213   5.836
 9472SOL     OW29314   6.099   2.147   5.167
 9472SOL    HW129315   6.069   2.052   5.171
 9472SOL    HW229316   6.095   2.188   5.258
 9473SOL     OW29317   2.815   4.593   5.452
 9473SOL    HW129318   2.831   4.570   5.356
 9473SOL    HW229319   2.800   4.509   5.504
 9474SOL     OW29320   3.632   5.680   4.423
 9474SOL    HW129321   3.576   5.597   4.417
 9474SOL    HW229322   3.654   5.698   4.519
 9475SOL     OW29323   2.813   3.217   1.541
 9475SOL    HW129324   2.777   3.301   1.581
 9475SOL    HW229325   2.906   3.233   1.507
 9476SOL     OW29326   3.036   3.309   5.499
 9476SOL    HW129327   3.106   3.381   5.496
 9476SOL    HW229328   2.971   3.323   5.425
 9477SOL     OW29329   0.949   2.416   0.725
 9477SOL    HW129330   1.017   2.428   0.797
 9477SOL    HW229331   0.980   2.346   0.661
 9478SOL     OW29332   5.678   3.703   6.369
 9478SOL    HW129333   5.750   3.719   6.301
 9478SOL    HW229334   5.707   3.630   6.431
 9479SOL     OW29335   5.774   4.646   5.288
 9479SOL    HW129336   5.716   4.705   5.233
 9479SOL    HW229337   5.796   4.563   5.235
 9480SOL     OW29338   0.153   3.674   6.312
 9480SOL    HW129339   0.195   3.598   6.361
 9480SOL    HW229340   0.188   3.676   6.218
 9481SOL     OW29341   1.193   2.719   3.622
 9481SOL    HW129342   1.188   2.643   3.558
 9481SOL    HW229343   1.174   2.805   3.573
 9482SOL     OW29344   4.270   1.623   1.975
 9482SOL    HW129345   4.298   1.584   1.888
 9482SOL    HW229346   4.213   1.704   1.958
 9483SOL     OW29347   1.609   1.150   0.811
 9483SOL    HW129348   1.514   1.182   0.820
 9483SOL    HW229349   1.663   1.221   0.765
 9484SOL     OW29350   6.699   0.322   3.675
 9484SOL    HW129351   6.696   0.230   3.715
 9484SOL    HW229352   6.643   0.384   3.729
 9485SOL     OW29353   6.661   0.291   2.592
 9485SOL    HW129354   6.593   0.220   2.607
 9485SOL    HW229355   6.669   0.309   2.493
 9486SOL     OW29356   2.465   6.696   1.536
 9486SOL    HW129357   2.527   6.677   1.460
 9486SOL    HW229358   2.515   6.738   1.611
 9487SOL     OW29359   3.668   2.882   3.362
 9487SOL    HW129360   3.715   2.806   3.316
 9487SOL    HW229361   3.734   2.932   3.418
 9488SOL     OW29362   1.952   0.100   1.615
 9488SOL    HW129363   2.024   0.071   1.552
 9488SOL    HW229364   1.909   0.020   1.656
 9489SOL     OW29365   2.544   4.975   0.937
 9489SOL    HW129366   2.603   4.900   0.909
 9489SOL    HW229367   2.550   4.987   1.037
 9490SOL     OW29368   4.734   1.816   0.618
 9490SOL    HW129369   4.702   1.893   0.563
 9490SOL    HW229370   4.786   1.753   0.560
 9491SOL     OW29371   5.666   5.913   6.638
 9491SOL    HW129372   5.721   5.844   6.685
 9491SOL    HW229373   5.650   5.991   6.699
 9492SOL     OW29374   3.078   5.849   1.301
 9492SOL    HW129375   2.983   5.877   1.315
 9492SOL    HW229376   3.082   5.750   1.286
 9493SOL     OW29377   4.644   5.829   2.653
 9493SOL    HW129378   4.718   5.841   2.586
 9493SOL    HW229379   4.652   5.739   2.695
 9494SOL     OW29380   3.631   2.901   6.630
 9494SOL    HW129381   3.707   2.958   6.659
 9494SOL    HW229382   3.662   2.837   6.559
 9495SOL     OW29383   5.342   2.554   4.397
 9495SOL    HW129384   5.341   2.454   4.386
 9495SOL    HW229385   5.420   2.591   4.347
 9496SOL     OW29386   0.400   4.510   6.546
 9496SOL    HW129387   0.399   4.412   6.523
 9496SOL    HW229388   0.475   4.529   6.609
 9497SOL     OW29389   0.798   6.405   6.246
 9497SOL    HW129390   0.834   6.487   6.202
 9497SOL    HW229391   0.698   6.407   6.245
 9498SOL     OW29392   4.347   6.553   6.557
 9498SOL    HW129393   4.340   6.650   6.580
 9498SOL    HW229394   4.425   6.538   6.497
 9499SOL     OW29395   4.862   3.747   5.288
 9499SOL    HW129396   4.865   3.691   5.205
 9499SOL    HW229397   4.911   3.833   5.271
 9500SOL     OW29398   3.680   5.704   1.074
 9500SOL    HW129399   3.646   5.634   1.012
 9500SOL    HW229400   3.620   5.712   1.153
 9501SOL     OW29401   3.360   1.879   4.697
 9501SOL    HW129402   3.347   1.948   4.768
 9501SOL    HW229403   3.429   1.813   4.726
 9502SOL     OW29404   4.211   2.915   6.321
 9502SOL    HW129405   4.127   2.861   6.316
 9502SOL    HW229406   4.289   2.854   6.339
 9503SOL     OW29407   0.827   6.461   1.115
 9503SOL    HW129408   0.904   6.417   1.069
 9503SOL    HW229409   0.825   6.433   1.211
 9504SOL     OW29410   6.947   2.975   0.799
 9504SOL    HW129411   6.903   2.944   0.884
 9504SOL    HW229412   0.009   2.929   0.789
 9505SOL     OW29413   5.128   3.176   3.195
 9505SOL    HW129414   5.034   3.146   3.179
 9505SOL    HW229415   5.173   3.194   3.107
 9506SOL     OW29416   6.500   2.014   1.030
 9506SOL    HW129417   6.486   1.934   0.970
 9506SOL    HW229418   6.534   2.090   0.976
 9507SOL     OW29419   1.655   3.279   5.343
 9507SOL    HW129420   1.618   3.196   5.302
 9507SOL    HW229421   1.728   3.316   5.285
 9508SOL     OW29422   3.916   1.333   5.610
 9508SOL    HW129423   3.819   1.309   5.614
 9508SOL    HW229424   3.927   1.416   5.555
 9509SOL     OW29425   3.363   6.518   5.930
 9509SOL    HW129426   3.302   6.584   5.887
 9509SOL    HW229427   3.386   6.549   6.023
 9510SOL     OW29428   6.916   4.106   2.509
 9510SOL    HW129429   6.862   4.049   2.572
 9510SOL    HW229430   6.896   4.078   2.415
 9511SOL     OW29431   2.280   1.706   1.498
 9511SOL    HW129432   2.257   1.784   1.556
 9511SOL    HW229433   2.257   1.727   1.403
 9512SOL     OW29434   1.633   3.363   5.609
 9512SOL    HW129435   1.643   3.308   5.526
 9512SOL    HW229436   1.541   3.352   5.646
 9513SOL     OW29437   3.335   5.055   3.554
 9513SOL    HW129438   3.325   5.068   3.455
 9513SOL    HW229439   3.414   4.996   3.571
 9514SOL     OW29440   3.190   3.400   5.827
 9514SOL    HW129441   3.093   3.373   5.831
 9514SOL    HW229442   3.204   3.458   5.747
 9515SOL     OW29443   1.543   5.908   5.568
 9515SOL    HW129444   1.629   5.872   5.603
 9515SOL    HW229445   1.504   5.972   5.634
 9516SOL     OW29446   6.509   4.366   4.718
 9516SOL    HW129447   6.479   4.458   4.693
 9516SOL    HW229448   6.566   4.371   4.799
 9517SOL     OW29449   0.342   5.444   2.412
 9517SOL    HW129450   0.328   5.345   2.423
 9517SOL    HW229451   0.262   5.484   2.368
 9518SOL     OW29452   0.797   3.269   5.558
 9518SOL    HW129453   0.888   3.297   5.530
 9518SOL    HW229454   0.732   3.287   5.484
 9519SOL     OW29455   3.241   3.002   3.604
 9519SOL    HW129456   3.215   3.042   3.516
 9519SOL    HW229457   3.325   2.948   3.593
 9520SOL     OW29458   4.606   1.165   5.980
 9520SOL    HW129459   4.615   1.263   5.958
 9520SOL    HW229460   4.558   1.119   5.905
 9521SOL     OW29461   3.947   1.315   1.323
 9521SOL    HW129462   3.875   1.259   1.284
 9521SOL    HW229463   3.921   1.411   1.318
 9522SOL     OW29464   3.875   6.507   1.134
 9522SOL    HW129465   3.793   6.563   1.123
 9522SOL    HW229466   3.925   6.504   1.047
 9523SOL     OW29467   2.432   4.581   4.331
 9523SOL    HW129468   2.374   4.558   4.253
 9523SOL    HW229469   2.377   4.582   4.414
 9524SOL     OW29470   1.588   3.378   1.111
 9524SOL    HW129471   1.625   3.311   1.047
 9524SOL    HW229472   1.536   3.330   1.182
 9525SOL     OW29473   2.489   2.354   6.149
 9525SOL    HW129474   2.543   2.421   6.098
 9525SOL    HW229475   2.426   2.402   6.211
 9526SOL     OW29476   5.141   4.339   6.206
 9526SOL    HW129477   5.050   4.297   6.216
 9526SOL    HW229478   5.151   4.375   6.114
 9527SOL     OW29479   4.393   5.879   4.916
 9527SOL    HW129480   4.392   5.786   4.878
 9527SOL    HW229481   4.383   5.945   4.843
 9528SOL     OW29482   5.034   2.454   1.214
 9528SOL    HW129483   4.944   2.494   1.230
 9528SOL    HW229484   5.101   2.494   1.277
 9529SOL     OW29485   5.750   0.208   1.421
 9529SOL    HW129486   5.778   0.304   1.420
 9529SOL    HW229487   5.778   0.167   1.508
 9530SOL     OW29488   0.986   6.080   3.542
 9530SOL    HW129489   0.919   6.082   3.616
 9530SOL    HW229490   0.980   5.993   3.494
 9531SOL     OW29491   3.582   5.773   2.192
 9531SOL    HW129492   3.673   5.789   2.229
 9531SOL    HW229493   3.589   5.726   2.104
 9532SOL     OW29494   6.835   5.226   4.106
 9532SOL    HW129495   6.885   5.158   4.161
 9532SOL    HW229496   6.900   5.275   4.047
 9533SOL     OW29497   1.044   4.504   4.159
 9533SOL    HW129498   0.994   4.427   4.198
 9533SOL    HW229499   1.001   4.590   4.185
 9534SOL     OW29500   4.695   6.252   4.450
 9534SOL    HW129501   4.781   6.204   4.467
 9534SOL    HW229502   4.667   6.240   4.355
 9535SOL     OW29503   7.004   1.547   4.076
 9535SOL    HW129504   6.930   1.491   4.114
 9535SOL    HW229505   0.011   1.610   4.146
 9536SOL     OW29506   3.351   3.421   6.047
 9536SOL    HW129507   3.373   3.510   6.085
 9536SOL    HW229508   3.309   3.432   5.957
 9537SOL     OW29509   0.092   0.876   4.559
 9537SOL    HW129510   7.020   0.888   4.572
 9537SOL    HW229511   0.141   0.950   4.605
 9538SOL     OW29512   5.945   0.434   5.465
 9538SOL    HW129513   5.889   0.410   5.386
 9538SOL    HW229514   5.888   0.437   5.547
 9539SOL     OW29515   3.558   4.117   1.911
 9539SOL    HW129516   3.551   4.205   1.864
 9539SOL    HW229517   3.554   4.131   2.010
 9540SOL     OW29518   4.203   4.956   3.033
 9540SOL    HW129519   4.224   4.872   2.983
 9540SOL    HW229520   4.263   5.029   3.004
 9541SOL     OW29521   1.868   5.448   5.994
 9541SOL    HW129522   1.835   5.468   5.902
 9541SOL    HW229523   1.931   5.371   5.991
 9542SOL     OW29524   6.171   3.588   3.387
 9542SOL    HW129525   6.182   3.494   3.419
 9542SOL    HW229526   6.249   3.642   3.416
 9543SOL     OW29527   1.902   0.860   5.937
 9543SOL    HW129528   1.955   0.841   5.855
 9543SOL    HW229529   1.963   0.858   6.017
 9544SOL     OW29530   6.098   2.838   4.943
 9544SOL    HW129531   6.020   2.803   4.892
 9544SOL    HW229532   6.094   2.938   4.946
 9545SOL     OW29533   6.173   4.071   1.621
 9545SOL    HW129534   6.182   4.081   1.720
 9545SOL    HW229535   6.105   3.999   1.601
 9546SOL     OW29536   3.149   2.710   0.217
 9546SOL    HW129537   3.064   2.751   0.249
 9546SOL    HW229538   3.179   2.757   0.134
 9547SOL     OW29539   4.069   0.710   3.306
 9547SOL    HW129540   4.044   0.616   3.329
 9547SOL    HW229541   4.058   0.724   3.208
 9548SOL     OW29542   0.659   5.133   5.573
 9548SOL    HW129543   0.681   5.178   5.487
 9548SOL    HW229544   0.566   5.096   5.569
 9549SOL     OW29545   4.882   1.319   1.516
 9549SOL    HW129546   4.853   1.396   1.460
 9549SOL    HW229547   4.964   1.278   1.476
 9550SOL     OW29548   0.213   2.000   1.913
 9550SOL    HW129549   0.223   2.051   1.828
 9550SOL    HW229550   0.162   1.915   1.896
 9551SOL     OW29551   6.439   3.328   6.779
 9551SOL    HW129552   6.472   3.417   6.746
 9551SOL    HW229553   6.342   3.335   6.802
 9552SOL     OW29554   3.327   2.050   0.577
 9552SOL    HW129555   3.396   2.106   0.530
 9552SOL    HW229556   3.299   1.975   0.517
 9553SOL     OW29557   5.254   1.561   0.022
 9553SOL    HW129558   5.159   1.529   0.018
 9553SOL    HW229559   5.283   1.569   0.117
 9554SOL     OW29560   2.664   0.930   4.331
 9554SOL    HW129561   2.601   0.937   4.409
 9554SOL    HW229562   2.754   0.902   4.364
 9555SOL     OW29563   0.343   6.555   2.644
 9555SOL    HW129564   0.359   6.507   2.558
 9555SOL    HW229565   0.421   6.540   2.705
 9556SOL     OW29566   2.532   4.626   6.491
 9556SOL    HW129567   2.459   4.626   6.559
 9556SOL    HW229568   2.493   4.641   6.400
 9557SOL     OW29569   5.339   1.020   0.238
 9557SOL    HW129570   5.286   1.063   0.165
 9557SOL    HW229571   5.294   1.035   0.326
 9558SOL     OW29572   5.824   5.795   5.222
 9558SOL    HW129573   5.873   5.823   5.140
 9558SOL    HW229574   5.760   5.722   5.199
 9559SOL     OW29575   2.214   4.206   0.047
 9559SOL    HW129576   2.213   4.232   0.144
 9559SOL    HW229577   2.309   4.197   0.017
 9560SOL     OW29578   2.119   0.067   1.322
 9560SOL    HW129579   2.205   0.016   1.308
 9560SOL    HW229580   2.140   0.164   1.334
 9561SOL     OW29581   6.877   1.139   6.397
 9561SOL    HW129582   6.822   1.056   6.396
 9561SOL    HW229583   6.974   1.114   6.408
 9562SOL     OW29584   1.993   5.900   2.800
 9562SOL    HW129585   2.037   5.901   2.710
 9562SOL    HW229586   1.947   5.987   2.816
 9563SOL     OW29587   0.301   5.450   0.285
 9563SOL    HW129588   0.276   5.382   0.215
 9563SOL    HW229589   0.344   5.403   0.362
 9564SOL     OW29590   0.646   1.652   0.214
 9564SOL    HW129591   0.589   1.695   0.143
 9564SOL    HW229592   0.736   1.631   0.175
 9565SOL     OW29593   2.447   2.146   4.772
 9565SOL    HW129594   2.424   2.239   4.742
 9565SOL    HW229595   2.534   2.118   4.733
 9566SOL     OW29596   3.457   0.423   6.634
 9566SOL    HW129597   3.514   0.344   6.657
 9566SOL    HW229598   3.361   0.400   6.647
 9567SOL     OW29599   6.859   4.380   0.747
 9567SOL    HW129600   6.874   4.353   0.652
 9567SOL    HW229601   6.881   4.477   0.758
 9568SOL     OW29602   4.736   2.522   5.347
 9568SOL    HW129603   4.658   2.512   5.409
 9568SOL    HW229604   4.720   2.599   5.286
 9569SOL     OW29605   5.792   0.196   2.259
 9569SOL    HW129606   5.799   0.228   2.354
 9569SOL    HW229607   5.817   0.100   2.254
 9570SOL     OW29608   0.807   3.825   2.171
 9570SOL    HW129609   0.853   3.740   2.197
 9570SOL    HW229610   0.873   3.887   2.128
 9571SOL     OW29611   1.520   0.985   6.697
 9571SOL    HW129612   1.498   1.014   6.790
 9571SOL    HW229613   1.611   0.942   6.696
 9572SOL     OW29614   2.893   4.826   4.881
 9572SOL    HW129615   2.862   4.757   4.946
 9572SOL    HW229616   2.838   4.821   4.798
 9573SOL     OW29617   5.697   6.574   4.398
 9573SOL    HW129618   5.784   6.529   4.376
 9573SOL    HW229619   5.708   6.624   4.484
 9574SOL     OW29620   4.803   2.571   1.244
 9574SOL    HW129621   4.716   2.522   1.244
 9574SOL    HW229622   4.804   2.638   1.319
 9575SOL     OW29623   5.278   1.033   1.684
 9575SOL    HW129624   5.322   1.081   1.608
 9575SOL    HW229625   5.252   1.098   1.755
 9576SOL     OW29626   1.473   1.533   5.901
 9576SOL    HW129627   1.531   1.611   5.878
 9576SOL    HW229628   1.527   1.464   5.949
 9577SOL     OW29629   0.100   5.448   2.914
 9577SOL    HW129630   0.135   5.477   3.002
 9577SOL    HW229631   0.156   5.372   2.879
 9578SOL     OW29632   1.907   3.288   2.795
 9578SOL    HW129633   1.986   3.315   2.850
 9578SOL    HW229634   1.897   3.351   2.717
 9579SOL     OW29635   5.373   5.592   2.570
 9579SOL    HW129636   5.356   5.545   2.483
 9579SOL    HW229637   5.327   5.542   2.644
 9580SOL     OW29638   4.768   4.110   3.920
 9580SOL    HW129639   4.790   4.020   3.959
 9580SOL    HW229640   4.693   4.151   3.973
 9581SOL     OW29641   4.988   1.781   6.360
 9581SOL    HW129642   5.033   1.867   6.386
 9581SOL    HW229643   5.020   1.753   6.269
 9582SOL     OW29644   4.732   6.473   5.495
 9582SOL    HW129645   4.705   6.418   5.574
 9582SOL    HW229646   4.675   6.448   5.416
 9583SOL     OW29647   2.632   4.471   1.258
 9583SOL    HW129648   2.609   4.568   1.268
 9583SOL    HW229649   2.612   4.423   1.343
 9584SOL     OW29650   2.134   5.568   4.174
 9584SOL    HW129651   2.128   5.633   4.251
 9584SOL    HW229652   2.181   5.485   4.204
 9585SOL     OW29653   4.575   6.786   0.647
 9585SOL    HW129654   4.479   6.794   0.621
 9585SOL    HW229655   4.632   6.783   0.565
 9586SOL     OW29656   3.767   5.173   3.557
 9586SOL    HW129657   3.846   5.231   3.533
 9586SOL    HW229658   3.800   5.087   3.595
 9587SOL     OW29659   3.842   6.324   0.023
 9587SOL    HW129660   3.821   6.229   0.046
 9587SOL    HW229661   3.764   6.382   0.050
 9588SOL     OW29662   6.503   5.950   1.285
 9588SOL    HW129663   6.504   5.910   1.377
 9588SOL    HW229664   6.596   5.979   1.262
 9589SOL     OW29665   1.066   1.388   5.640
 9589SOL    HW129666   1.037   1.474   5.682
 9589SOL    HW229667   1.039   1.311   5.698
 9590SOL     OW29668   5.297   0.470   0.348
 9590SOL    HW129669   5.397   0.466   0.350
 9590SOL    HW229670   5.262   0.484   0.440
 9591SOL     OW29671   5.096   1.062   6.455
 9591SOL    HW129672   5.090   1.082   6.553
 9591SOL    HW229673   5.058   1.139   6.403
 9592SOL     OW29674   1.717   5.738   5.230
 9592SOL    HW129675   1.744   5.833   5.241
 9592SOL    HW229676   1.623   5.734   5.196
 9593SOL     OW29677   2.794   2.289   4.678
 9593SOL    HW129678   2.740   2.244   4.607
 9593SOL    HW229679   2.867   2.228   4.708
 9594SOL     OW29680   0.482   6.385   3.538
 9594SOL    HW129681   0.546   6.461   3.546
 9594SOL    HW229682   0.486   6.347   3.446
 9595SOL     OW29683   0.565   4.701   3.820
 9595SOL    HW129684   0.651   4.742   3.850
 9595SOL    HW229685   0.570   4.679   3.722
 9596SOL     OW29686   1.483   6.493   0.964
 9596SOL    HW129687   1.444   6.424   1.025
 9596SOL    HW229688   1.421   6.571   0.958
 9597SOL     OW29689   0.826   3.308   1.906
 9597SOL    HW129690   0.752   3.264   1.958
 9597SOL    HW229691   0.899   3.333   1.969
 9598SOL     OW29692   2.588   4.926   3.313
 9598SOL    HW129693   2.500   4.900   3.352
 9598SOL    HW229694   2.656   4.857   3.334
 9599SOL     OW29695   4.861   0.210   5.863
 9599SOL    HW129696   4.894   0.274   5.792
 9599SOL    HW229697   4.890   0.117   5.840
 9600SOL     OW29698   3.889   1.307   0.786
 9600SOL    HW129699   3.893   1.312   0.686
 9600SOL    HW229700   3.903   1.398   0.825
 9601SOL     OW29701   0.934   3.901   1.012
 9601SOL    HW129702   0.859   3.938   1.066
 9601SOL    HW229703   0.900   3.873   0.922
 9602SOL     OW29704   3.942   4.415   5.734
 9602SOL    HW129705   4.016   4.462   5.783
 9602SOL    HW229706   3.969   4.402   5.638
 9603SOL     OW29707   5.662   6.450   5.819
 9603SOL    HW129708   5.746   6.494   5.786
 9603SOL    HW229709   5.613   6.513   5.879
 9604SOL     OW29710   4.449   6.577   1.564
 9604SOL    HW129711   4.354   6.608   1.561
 9604SOL    HW229712   4.477   6.547   1.473
 9605SOL     OW29713   4.961   4.939   1.691
 9605SOL    HW129714   4.890   4.920   1.623
 9605SOL    HW229715   5.048   4.898   1.661
 9606SOL     OW29716   1.838   1.426   6.893
 9606SOL    HW129717   1.764   1.479   6.932
 9606SOL    HW229718   1.839   1.438   6.794
 9607SOL     OW29719   1.609   2.352   6.932
 9607SOL    HW129720   1.632   2.393   6.844
 9607SOL    HW229721   1.665   2.271   6.946
 9608SOL     OW29722   6.547   2.382   4.562
 9608SOL    HW129723   6.493   2.464   4.545
 9608SOL    HW229724   6.508   2.305   4.512
 9609SOL     OW29725   4.864   3.474   0.808
 9609SOL    HW129726   4.820   3.400   0.860
 9609SOL    HW229727   4.797   3.545   0.787
 9610SOL     OW29728   1.089   5.042   2.662
 9610SOL    HW129729   1.030   4.961   2.659
 9610SOL    HW229730   1.185   5.014   2.658
 9611SOL     OW29731   2.293   0.311   0.062
 9611SOL    HW129732   2.209   0.265   0.091
 9611SOL    HW229733   2.278   0.357   7.002
 9612SOL     OW29734   0.223   1.522   3.862
 9612SOL    HW129735   0.275   1.561   3.938
 9612SOL    HW229736   0.128   1.552   3.867
 9613SOL     OW29737   5.889   4.451   4.548
 9613SOL    HW129738   5.842   4.405   4.623
 9613SOL    HW229739   5.943   4.527   4.584
 9614SOL     OW29740   4.025   1.395   3.434
 9614SOL    HW129741   3.969   1.410   3.353
 9614SOL    HW229742   4.118   1.368   3.407
 9615SOL     OW29743   1.753   3.514   1.404
 9615SOL    HW129744   1.706   3.550   1.323
 9615SOL    HW229745   1.848   3.546   1.404
 9616SOL     OW29746   3.499   3.713   5.998
 9616SOL    HW129747   3.512   3.702   6.096
 9616SOL    HW229748   3.524   3.629   5.951
 9617SOL     OW29749   0.946   3.236   2.867
 9617SOL    HW129750   0.892   3.155   2.844
 9617SOL    HW229751   1.043   3.211   2.874
 9618SOL     OW29752   2.285   2.807   0.709
 9618SOL    HW129753   2.268   2.858   0.793
 9618SOL    HW229754   2.378   2.823   0.677
 9619SOL     OW29755   2.307   7.001   6.699
 9619SOL    HW129756   2.277   6.909   6.674
 9619SOL    HW229757   2.406   7.007   6.691
 9620SOL     OW29758   5.494   1.008   4.807
 9620SOL    HW129759   5.415   0.963   4.764
 9620SOL    HW229760   5.462   1.089   4.857
 9621SOL     OW29761   1.611   3.830   3.877
 9621SOL    HW129762   1.696   3.823   3.824
 9621SOL    HW229763   1.572   3.739   3.888
 9622SOL     OW29764   4.271   6.957   0.228
 9622SOL    HW129765   4.330   7.012   0.288
 9622SOL    HW229766   4.304   6.863   0.226
 9623SOL     OW29767   0.726   3.322   6.423
 9623SOL    HW129768   0.791   3.350   6.494
 9623SOL    HW229769   0.769   3.331   6.334
 9624SOL     OW29770   6.554   3.052   3.938
 9624SOL    HW129771   6.654   3.044   3.929
 9624SOL    HW229772   6.512   3.053   3.847
 9625SOL     OW29773   5.365   6.243   1.767
 9625SOL    HW129774   5.343   6.334   1.803
 9625SOL    HW229775   5.437   6.252   1.697
 9626SOL     OW29776   3.643   0.656   0.036
 9626SOL    HW129777   3.672   0.701   0.121
 9626SOL    HW229778   3.656   0.719   6.986
 9627SOL     OW29779   0.681   0.323   0.694
 9627SOL    HW129780   0.702   0.333   0.596
 9627SOL    HW229781   0.614   0.392   0.720
 9628SOL     OW29782   3.283   6.901   2.000
 9628SOL    HW129783   3.289   6.978   1.937
 9628SOL    HW229784   3.205   6.914   2.062
 9629SOL     OW29785   2.326   0.367   0.322
 9629SOL    HW129786   2.320   0.336   0.227
 9629SOL    HW229787   2.240   0.411   0.348
 9630SOL     OW29788   0.935   2.269   6.813
 9630SOL    HW129789   0.914   2.351   6.759
 9630SOL    HW229790   0.936   2.189   6.754
 9631SOL     OW29791   6.591   5.654   0.627
 9631SOL    HW129792   6.667   5.708   0.663
 9631SOL    HW229793   6.505   5.687   0.666
 9632SOL     OW29794   1.889   5.504   2.809
 9632SOL    HW129795   1.840   5.516   2.723
 9632SOL    HW229796   1.833   5.453   2.873
 9633SOL     OW29797   0.651   4.808   0.552
 9633SOL    HW129798   0.708   4.746   0.605
 9633SOL    HW229799   0.567   4.829   0.603
 9634SOL     OW29800   6.770   6.045   5.872
 9634SOL    HW129801   6.690   5.994   5.843
 9634SOL    HW229802   6.782   6.038   5.971
 9635SOL     OW29803   6.178   5.897   6.022
 9635SOL    HW129804   6.275   5.922   6.019
 9635SOL    HW229805   6.163   5.815   5.966
 9636SOL     OW29806   3.485   1.386   0.534
 9636SOL    HW129807   3.515   1.307   0.589
 9636SOL    HW229808   3.556   1.455   0.534
 9637SOL     OW29809   2.560   1.674   0.021
 9637SOL    HW129810   2.575   1.661   0.119
 9637SOL    HW229811   2.472   1.634   7.022
 9638SOL     OW29812   6.767   2.831   6.510
 9638SOL    HW129813   6.682   2.858   6.556
 9638SOL    HW229814   6.763   2.859   6.414
 9639SOL     OW29815   3.270   0.175   2.399
 9639SOL    HW129816   3.223   0.250   2.447
 9639SOL    HW229817   3.243   0.088   2.441
 9640SOL     OW29818   2.480   1.783   2.906
 9640SOL    HW129819   2.527   1.821   2.826
 9640SOL    HW229820   2.469   1.684   2.893
 9641SOL     OW29821   4.809   5.553   6.835
 9641SOL    HW129822   4.895   5.598   6.858
 9641SOL    HW229823   4.774   5.504   6.915
 9642SOL     OW29824   3.110   6.865   2.947
 9642SOL    HW129825   3.033   6.803   2.935
 9642SOL    HW229826   3.136   6.867   3.043
 9643SOL     OW29827   3.863   4.870   2.252
 9643SOL    HW129828   3.901   4.795   2.199
 9643SOL    HW229829   3.770   4.889   2.220
 9644SOL     OW29830   2.347   0.921   0.269
 9644SOL    HW129831   2.343   0.988   0.344
 9644SOL    HW229832   2.334   0.829   0.306
 9645SOL     OW29833   2.731   5.079   5.493
 9645SOL    HW129834   2.636   5.101   5.514
 9645SOL    HW229835   2.782   5.064   5.578
 9646SOL     OW29836   3.515   4.910   4.274
 9646SOL    HW129837   3.612   4.912   4.297
 9646SOL    HW229838   3.461   4.909   4.358
 9647SOL     OW29839   6.133   3.040   5.752
 9647SOL    HW129840   6.069   3.091   5.809
 9647SOL    HW229841   6.200   3.102   5.712
 9648SOL     OW29842   4.208   4.110   1.119
 9648SOL    HW129843   4.144   4.072   1.186
 9648SOL    HW229844   4.294   4.133   1.164
 9649SOL     OW29845   1.662   4.380   0.718
 9649SOL    HW129846   1.739   4.408   0.660
 9649SOL    HW229847   1.666   4.428   0.805
 9650SOL     OW29848   1.556   0.588   1.249
 9650SOL    HW129849   1.616   0.595   1.170
 9650SOL    HW229850   1.557   0.674   1.300
 9651SOL     OW29851   0.884   2.204   0.267
 9651SOL    HW129852   0.881   2.302   0.246
 9651SOL    HW229853   0.968   2.164   0.230
 9652SOL     OW29854   1.601   4.572   1.187
 9652SOL    HW129855   1.571   4.667   1.191
 9652SOL    HW229856   1.625   4.540   1.279
 9653SOL     OW29857   6.575   6.606   4.189
 9653SOL    HW129858   6.513   6.606   4.267
 9653SOL    HW229859   6.636   6.527   4.193
 9654SOL     OW29860   2.063   2.747   2.448
 9654SOL    HW129861   1.987   2.681   2.454
 9654SOL    HW229862   2.150   2.698   2.458
 9655SOL     OW29863   6.396   3.108   0.524
 9655SOL    HW129864   6.357   3.088   0.434
 9655SOL    HW229865   6.423   3.023   0.568
 9656SOL     OW29866   2.668   1.830   2.168
 9656SOL    HW129867   2.581   1.816   2.215
 9656SOL    HW229868   2.743   1.803   2.228
 9657SOL     OW29869   0.581   0.438   4.339
 9657SOL    HW129870   0.510   0.373   4.364
 9657SOL    HW229871   0.671   0.400   4.362
 9658SOL     OW29872   6.092   0.622   3.314
 9658SOL    HW129873   6.140   0.697   3.359
 9658SOL    HW229874   6.150   0.582   3.243
 9659SOL     OW29875   1.934   5.568   6.621
 9659SOL    HW129876   1.968   5.657   6.649
 9659SOL    HW229877   1.850   5.547   6.671
 9660SOL     OW29878   1.278   4.022   0.214
 9660SOL    HW129879   1.205   4.089   0.227
 9660SOL    HW229880   1.337   4.021   0.295
 9661SOL     OW29881   3.999   0.908   1.022
 9661SOL    HW129882   4.059   0.953   0.955
 9661SOL    HW229883   3.905   0.941   1.010
 9662SOL     OW29884   4.687   2.319   4.292
 9662SOL    HW129885   4.689   2.220   4.300
 9662SOL    HW229886   4.599   2.347   4.254
 9663SOL     OW29887   3.308   5.688   2.782
 9663SOL    HW129888   3.371   5.721   2.852
 9663SOL    HW229889   3.338   5.722   2.692
 9664SOL     OW29890   2.471   5.746   1.273
 9664SOL    HW129891   2.489   5.746   1.372
 9664SOL    HW229892   2.440   5.837   1.245
 9665SOL     OW29893   5.507   4.840   3.548
 9665SOL    HW129894   5.439   4.883   3.488
 9665SOL    HW229895   5.569   4.785   3.493
 9666SOL     OW29896   5.318   5.085   4.651
 9666SOL    HW129897   5.224   5.054   4.665
 9666SOL    HW229898   5.318   5.179   4.617
 9667SOL     OW29899   2.978   3.486   2.839
 9667SOL    HW129900   2.946   3.430   2.916
 9667SOL    HW229901   3.072   3.462   2.817
 9668SOL     OW29902   0.117   1.579   4.816
 9668SOL    HW129903   0.145   1.656   4.759
 9668SOL    HW229904   0.050   1.611   4.884
 9669SOL     OW29905   0.910   6.772   0.029
 9669SOL    HW129906   0.903   6.672   0.031
 9669SOL    HW229907   0.836   6.809   7.000
 9670SOL     OW29908   6.261   3.733   6.630
 9670SOL    HW129909   6.253   3.827   6.598
 9670SOL    HW229910   6.313   3.731   6.715
 9671SOL     OW29911   6.665   1.555   6.781
 9671SOL    HW129912   6.728   1.488   6.819
 9671SOL    HW229913   6.645   1.531   6.686
 9672SOL     OW29914   0.483   0.091   5.408
 9672SOL    HW129915   0.564   0.037   5.384
 9672SOL    HW229916   0.414   0.081   5.336
 9673SOL     OW29917   2.041   2.281   6.188
 9673SOL    HW129918   2.067   2.184   6.194
 9673SOL    HW229919   1.979   2.294   6.111
 9674SOL     OW29920   2.431   6.213   2.329
 9674SOL    HW129921   2.509   6.249   2.380
 9674SOL    HW229922   2.347   6.255   2.363
 9675SOL     OW29923   6.879   2.268   2.212
 9675SOL    HW129924   6.952   2.232   2.155
 9675SOL    HW229925   6.872   2.367   2.199
 9676SOL     OW29926   6.489   2.683   4.306
 9676SOL    HW129927   6.530   2.603   4.264
 9676SOL    HW229928   6.412   2.654   4.364
 9677SOL     OW29929   1.828   4.044   6.329
 9677SOL    HW129930   1.845   4.039   6.231
 9677SOL    HW229931   1.837   4.139   6.360
 9678SOL     OW29932   3.239   3.396   3.382
 9678SOL    HW129933   3.288   3.325   3.433
 9678SOL    HW229934   3.147   3.365   3.361
 9679SOL     OW29935   0.434   3.528   1.893
 9679SOL    HW129936   0.351   3.476   1.910
 9679SOL    HW229937   0.465   3.512   1.799
 9680SOL     OW29938   4.722   5.567   2.702
 9680SOL    HW129939   4.679   5.572   2.612
 9680SOL    HW229940   4.821   5.555   2.690
 9681SOL     OW29941   1.085   0.905   3.900
 9681SOL    HW129942   0.993   0.883   3.868
 9681SOL    HW229943   1.151   0.847   3.852
 9682SOL     OW29944   0.499   4.319   2.143
 9682SOL    HW129945   0.442   4.400   2.145
 9682SOL    HW229946   0.501   4.282   2.050
 9683SOL     OW29947   4.623   0.018   4.984
 9683SOL    HW129948   4.606   6.948   5.001
 9683SOL    HW229949   4.551   0.055   4.926
 9684SOL     OW29950   1.915   4.045   3.025
 9684SOL    HW129951   1.948   3.981   3.095
 9684SOL    HW229952   1.839   4.099   3.063
 9685SOL     OW29953   1.717   1.206   6.703
 9685SOL    HW129954   1.696   1.243   6.793
 9685SOL    HW229955   1.671   1.118   6.692
 9686SOL     OW29956   6.311   2.718   3.180
 9686SOL    HW129957   6.394   2.662   3.183
 9686SOL    HW229958   6.335   2.811   3.153
 9687SOL     OW29959   2.878   1.252   5.245
 9687SOL    HW129960   2.954   1.311   5.272
 9687SOL    HW229961   2.884   1.165   5.294
 9688SOL     OW29962   5.875   2.194   4.605
 9688SOL    HW129963   5.935   2.179   4.684
 9688SOL    HW229964   5.887   2.121   4.538
 9689SOL     OW29965   2.874   5.524   5.464
 9689SOL    HW129966   2.791   5.515   5.519
 9689SOL    HW229967   2.896   5.436   5.422
 9690SOL     OW29968   6.014   3.458   7.017
 9690SOL    HW129969   5.934   3.447   6.958
 9690SOL    HW229970   6.003   3.401   0.072
 9691SOL     OW29971   1.246   4.290   0.788
 9691SOL    HW129972   1.329   4.238   0.768
 9691SOL    HW229973   1.191   4.241   0.855
 9692SOL     OW29974   3.055   5.297   0.312
 9692SOL    HW129975   3.082   5.278   0.407
 9692SOL    HW229976   3.116   5.367   0.274
 9693SOL     OW29977   6.094   5.711   1.543
 9693SOL    HW129978   6.115   5.772   1.467
 9693SOL    HW229979   6.174   5.704   1.603
 9694SOL     OW29980   0.951   0.725   0.101
 9694SOL    HW129981   0.937   0.799   0.036
 9694SOL    HW229982   0.868   0.712   0.156
 9695SOL     OW29983   5.509   4.588   0.527
 9695SOL    HW129984   5.514   4.544   0.617
 9695SOL    HW229985   5.593   4.569   0.476
 9696SOL     OW29986   4.306   4.401   0.033
 9696SOL    HW129987   4.292   4.396   6.960
 9696SOL    HW229988   4.221   4.429   0.077
 9697SOL     OW29989   0.150   5.635   0.022
 9697SOL    HW129990   0.188   5.727   0.031
 9697SOL    HW229991   0.225   5.568   0.020
 9698SOL     OW29992   4.854   1.505   5.453
 9698SOL    HW129993   4.873   1.511   5.355
 9698SOL    HW229994   4.937   1.476   5.501
 9699SOL     OW29995   1.600   2.219   6.470
 9699SOL    HW129996   1.657   2.224   6.552
 9699SOL    HW229997   1.623   2.138   6.417
 9700SOL     OW29998   3.944   3.198   3.277
 9700SOL    HW129999   3.855   3.236   3.299
 9700SOL    HW230000   3.964   3.122   3.340
 9701SOL     OW30001   4.117   5.129   4.225
 9701SOL    HW130002   4.094   5.206   4.286
 9701SOL    HW230003   4.193   5.155   4.166
 9702SOL     OW30004   5.326   0.366   6.776
 9702SOL    HW130005   5.247   0.327   6.729
 9702SOL    HW230006   5.410   0.323   6.742
 9703SOL     OW30007   2.082   6.067   4.575
 9703SOL    HW130008   2.165   6.087   4.524
 9703SOL    HW230009   2.024   6.004   4.523
 9704SOL     OW30010   3.202   1.394   4.366
 9704SOL    HW130011   3.152   1.475   4.397
 9704SOL    HW230012   3.150   1.312   4.388
 9705SOL     OW30013   2.523   3.977   0.945
 9705SOL    HW130014   2.451   3.929   0.995
 9705SOL    HW230015   2.483   4.051   0.892
 9706SOL     OW30016   6.982   2.254   3.607
 9706SOL    HW130017   7.023   2.222   3.522
 9706SOL    HW230018   6.995   2.184   3.678
 9707SOL     OW30019   2.524   5.772   1.535
 9707SOL    HW130020   2.568   5.861   1.521
 9707SOL    HW230021   2.578   5.717   1.599
 9708SOL     OW30022   1.225   1.948   1.850
 9708SOL    HW130023   1.305   1.919   1.901
 9708SOL    HW230024   1.225   1.904   1.760
 9709SOL     OW30025   1.782   6.303   3.753
 9709SOL    HW130026   1.701   6.348   3.789
 9709SOL    HW230027   1.806   6.225   3.811
 9710SOL     OW30028   1.886   6.679   3.854
 9710SOL    HW130029   1.957   6.709   3.918
 9710SOL    HW230030   1.918   6.597   3.805
 9711SOL     OW30031   1.871   2.995   6.529
 9711SOL    HW130032   1.919   2.908   6.533
 9711SOL    HW230033   1.853   3.019   6.434
 9712SOL     OW30034   5.330   3.758   4.447
 9712SOL    HW130035   5.241   3.794   4.476
 9712SOL    HW230036   5.317   3.697   4.369
 9713SOL     OW30037   0.862   5.807   3.632
 9713SOL    HW130038   0.874   5.756   3.717
 9713SOL    HW230039   0.835   5.901   3.653
 9714SOL     OW30040   2.295   2.033   2.036
 9714SOL    HW130041   2.292   1.936   2.060
 9714SOL    HW230042   2.208   2.060   1.997
 9715SOL     OW30043   5.819   5.441   5.817
 9715SOL    HW130044   5.770   5.356   5.837
 9715SOL    HW230045   5.839   5.489   5.902
 9716SOL     OW30046   3.394   0.514   5.844
 9716SOL    HW130047   3.317   0.501   5.782
 9716SOL    HW230048   3.381   0.458   5.926
 9717SOL     OW30049   6.083   5.374   3.376
 9717SOL    HW130050   6.123   5.444   3.317
 9717SOL    HW230051   6.142   5.359   3.455
 9718SOL     OW30052   5.998   2.648   2.405
 9718SOL    HW130053   5.953   2.736   2.415
 9718SOL    HW230054   6.097   2.659   2.419
 9719SOL     OW30055   0.363   1.242   7.025
 9719SOL    HW130056   0.342   1.246   6.928
 9719SOL    HW230057   0.290   1.287   0.050
 9720SOL     OW30058   0.151   1.403   0.586
 9720SOL    HW130059   0.170   1.330   0.653
 9720SOL    HW230060   0.220   1.475   0.595
 9721SOL     OW30061   0.840   2.364   3.598
 9721SOL    HW130062   0.906   2.308   3.649
 9721SOL    HW230063   0.870   2.371   3.503
 9722SOL     OW30064   6.996   0.130   4.771
 9722SOL    HW130065   0.060   0.169   4.778
 9722SOL    HW230066   6.993   0.064   4.695
 9723SOL     OW30067   6.279   0.601   4.735
 9723SOL    HW130068   6.300   0.526   4.797
 9723SOL    HW230069   6.180   0.613   4.729
 9724SOL     OW30070   4.179   2.512   1.286
 9724SOL    HW130071   4.166   2.437   1.221
 9724SOL    HW230072   4.094   2.528   1.336
 9725SOL     OW30073   4.225   2.946   5.856
 9725SOL    HW130074   4.243   2.853   5.889
 9725SOL    HW230075   4.141   2.946   5.802
 9726SOL     OW30076   5.248   5.846   5.500
 9726SOL    HW130077   5.297   5.902   5.566
 9726SOL    HW230078   5.161   5.890   5.477
 9727SOL     OW30079   0.300   0.838   6.617
 9727SOL    HW130080   0.236   0.828   6.541
 9727SOL    HW230081   0.313   0.750   6.663
 9728SOL     OW30082   2.469   5.558   6.121
 9728SOL    HW130083   2.555   5.545   6.171
 9728SOL    HW230084   2.474   5.507   6.035
 9729SOL     OW30085   3.343   5.924   2.173
 9729SOL    HW130086   3.358   5.991   2.246
 9729SOL    HW230087   3.398   5.843   2.191
 9730SOL     OW30088   4.869   3.594   2.580
 9730SOL    HW130089   4.873   3.584   2.680
 9730SOL    HW230090   4.829   3.683   2.558
 9731SOL     OW30091   5.467   4.234   0.915
 9731SOL    HW130092   5.385   4.190   0.953
 9731SOL    HW230093   5.549   4.193   0.955
 9732SOL     OW30094   5.405   6.244   4.352
 9732SOL    HW130095   5.363   6.157   4.329
 9732SOL    HW230096   5.340   6.301   4.402
 9733SOL     OW30097   4.642   4.263   4.145
 9733SOL    HW130098   4.665   4.204   4.222
 9733SOL    HW230099   4.593   4.344   4.177
 9734SOL     OW30100   6.424   2.438   5.971
 9734SOL    HW130101   6.441   2.376   5.895
 9734SOL    HW230102   6.334   2.480   5.961
 9735SOL     OW30103   3.451   4.696   1.257
 9735SOL    HW130104   3.447   4.795   1.249
 9735SOL    HW230105   3.544   4.665   1.238
 9736SOL     OW30106   3.895   2.080   2.067
 9736SOL    HW130107   3.827   2.150   2.044
 9736SOL    HW230108   3.986   2.121   2.066
 9737SOL     OW30109   5.044   1.531   4.583
 9737SOL    HW130110   5.038   1.586   4.666
 9737SOL    HW230111   5.140   1.517   4.558
 9738SOL     OW30112   2.555   0.141   2.314
 9738SOL    HW130113   2.543   0.063   2.375
 9738SOL    HW230114   2.476   0.150   2.255
 9739SOL     OW30115   5.213   4.660   2.705
 9739SOL    HW130116   5.217   4.759   2.708
 9739SOL    HW230117   5.131   4.629   2.752
 9740SOL     OW30118   6.595   3.391   3.694
 9740SOL    HW130119   6.646   3.375   3.779
 9740SOL    HW230120   6.529   3.317   3.681
 9741SOL     OW30121   3.851   1.623   3.040
 9741SOL    HW130122   3.857   1.722   3.049
 9741SOL    HW230123   3.756   1.595   3.035
 9742SOL     OW30124   3.776   1.439   2.375
 9742SOL    HW130125   3.827   1.525   2.370
 9742SOL    HW230126   3.687   1.456   2.417
 9743SOL     OW30127   1.595   1.328   6.050
 9743SOL    HW130128   1.584   1.348   6.147
 9743SOL    HW230129   1.598   1.228   6.037
 9744SOL     OW30130   2.469   0.321   0.996
 9744SOL    HW130131   2.398   0.356   0.935
 9744SOL    HW230132   2.507   0.237   0.957
 9745SOL     OW30133   0.448   0.969   3.963
 9745SOL    HW130134   0.454   1.065   3.991
 9745SOL    HW230135   0.442   0.911   4.044
 9746SOL     OW30136   5.993   6.648   4.570
 9746SOL    HW130137   6.063   6.686   4.510
 9746SOL    HW230138   6.014   6.552   4.590
 9747SOL     OW30139   0.089   0.236   5.444
 9747SOL    HW130140   0.026   0.312   5.431
 9747SOL    HW230141   0.089   0.178   5.362
 9748SOL     OW30142   1.328   4.765   4.495
 9748SOL    HW130143   1.411   4.815   4.470
 9748SOL    HW230144   1.278   4.740   4.412
 9749SOL     OW30145   0.812   5.503   5.139
 9749SOL    HW130146   0.890   5.523   5.197
 9749SOL    HW230147   0.750   5.582   5.137
 9750SOL     OW30148   2.669   5.552   2.351
 9750SOL    HW130149   2.730   5.613   2.401
 9750SOL    HW230150   2.579   5.553   2.394
 9751SOL     OW30151   1.300   1.779   0.714
 9751SOL    HW130152   1.284   1.803   0.618
 9751SOL    HW230153   1.360   1.846   0.756
 9752SOL     OW30154   3.096   6.788   6.021
 9752SOL    HW130155   3.129   6.729   6.094
 9752SOL    HW230156   3.043   6.734   5.956
 9753SOL     OW30157   0.208   0.563   6.658
 9753SOL    HW130158   0.209   0.466   6.683
 9753SOL    HW230159   0.237   0.573   6.563
 9754SOL     OW30160   0.072   2.921   6.457
 9754SOL    HW130161   0.143   2.851   6.451
 9754SOL    HW230162   0.010   2.913   6.379
 9755SOL     OW30163   4.337   6.101   4.767
 9755SOL    HW130164   4.267   6.114   4.698
 9755SOL    HW230165   4.319   6.162   4.845
 9756SOL     OW30166   4.530   2.833   6.553
 9756SOL    HW130167   4.509   2.845   6.650
 9756SOL    HW230168   4.629   2.831   6.541
 9757SOL     OW30169   5.555   0.604   4.245
 9757SOL    HW130170   5.493   0.673   4.282
 9757SOL    HW230171   5.647   0.643   4.235
 9758SOL     OW30172   3.433   0.252   0.431
 9758SOL    HW130173   3.370   0.179   0.457
 9758SOL    HW230174   3.522   0.237   0.474
 9759SOL     OW30175   2.665   6.341   1.660
 9759SOL    HW130176   2.612   6.346   1.576
 9759SOL    HW230177   2.632   6.410   1.725
 9760SOL     OW30178   5.009   3.743   6.214
 9760SOL    HW130179   5.071   3.781   6.282
 9760SOL    HW230180   5.048   3.754   6.123
 9761SOL     OW30181   5.356   5.596   3.049
 9761SOL    HW130182   5.372   5.577   3.146
 9761SOL    HW230183   5.258   5.609   3.033
 9762SOL     OW30184   3.258   1.007   2.034
 9762SOL    HW130185   3.259   0.919   2.082
 9762SOL    HW230186   3.326   1.068   2.076
 9763SOL     OW30187   2.288   2.169   1.746
 9763SOL    HW130188   2.350   2.145   1.821
 9763SOL    HW230189   2.195   2.143   1.771
 9764SOL     OW30190   1.574   3.085   4.252
 9764SOL    HW130191   1.551   3.152   4.322
 9764SOL    HW230192   1.622   3.008   4.294
 9765SOL     OW30193   0.207   1.890   5.452
 9765SOL    HW130194   0.172   1.796   5.462
 9765SOL    HW230195   0.270   1.894   5.375
 9766SOL     OW30196   2.971   0.309   1.728
 9766SOL    HW130197   2.906   0.371   1.684
 9766SOL    HW230198   3.064   0.343   1.714
 9767SOL     OW30199   4.406   0.674   4.906
 9767SOL    HW130200   4.365   0.761   4.878
 9767SOL    HW230201   4.389   0.659   5.003
 9768SOL     OW30202   4.453   1.790   2.989
 9768SOL    HW130203   4.429   1.712   2.931
 9768SOL    HW230204   4.401   1.871   2.959
 9769SOL     OW30205   6.993   2.703   0.159
 9769SOL    HW130206   6.923   2.774   0.152
 9769SOL    HW230207   7.002   2.672   0.253
 9770SOL     OW30208   0.405   2.978   4.926
 9770SOL    HW130209   0.441   3.059   4.881
 9770SOL    HW230210   0.402   2.902   4.861
 9771SOL     OW30211   1.917   6.710   4.282
 9771SOL    HW130212   1.853   6.784   4.260
 9771SOL    HW230213   1.898   6.677   4.375
 9772SOL     OW30214   5.840   6.262   1.065
 9772SOL    HW130215   5.918   6.253   1.003
 9772SOL    HW230216   5.787   6.342   1.039
 9773SOL     OW30217   4.862   5.143   3.281
 9773SOL    HW130218   4.856   5.119   3.184
 9773SOL    HW230219   4.943   5.100   3.322
 9774SOL     OW30220   6.123   5.972   3.887
 9774SOL    HW130221   6.056   5.911   3.929
 9774SOL    HW230222   6.093   5.995   3.794
 9775SOL     OW30223   2.944   1.531   3.992
 9775SOL    HW130224   2.953   1.591   4.071
 9775SOL    HW230225   3.035   1.512   3.954
 9776SOL     OW30226   0.513   4.457   4.480
 9776SOL    HW130227   0.449   4.454   4.404
 9776SOL    HW230228   0.528   4.553   4.507
 9777SOL     OW30229   5.170   5.560   6.402
 9777SOL    HW130230   5.099   5.517   6.346
 9777SOL    HW230231   5.190   5.501   6.480
 9778SOL     OW30232   3.694   0.049   4.276
 9778SOL    HW130233   3.744   0.060   4.190
 9778SOL    HW230234   3.692   0.136   4.325
 9779SOL     OW30235   2.985   2.189   6.898
 9779SOL    HW130236   3.056   2.185   6.827
 9779SOL    HW230237   2.984   2.104   6.950
 9780SOL     OW30238   1.385   2.974   1.260
 9780SOL    HW130239   1.460   2.909   1.273
 9780SOL    HW230240   1.337   2.986   1.346
 9781SOL     OW30241   7.013   0.164   4.397
 9781SOL    HW130242   7.001   0.079   4.448
 9781SOL    HW230243   6.948   0.167   4.321
 9782SOL     OW30244   5.512   0.073   0.100
 9782SOL    HW130245   5.499   0.134   0.021
 9782SOL    HW230246   5.456   0.106   0.176
 9783SOL     OW30247   6.064   0.008   4.352
 9783SOL    HW130248   6.023   0.044   4.267
 9783SOL    HW230249   6.163   0.002   4.341
 9784SOL     OW30250   4.839   0.866   5.069
 9784SOL    HW130251   4.828   0.792   5.002
 9784SOL    HW230252   4.890   0.831   5.148
 9785SOL     OW30253   1.137   2.463   0.916
 9785SOL    HW130254   1.206   2.394   0.892
 9785SOL    HW230255   1.163   2.508   1.001
 9786SOL     OW30256   1.178   7.009   3.383
 9786SOL    HW130257   1.123   6.991   3.464
 9786SOL    HW230258   1.196   0.080   3.375
 9787SOL     OW30259   6.064   3.892   1.152
 9787SOL    HW130260   6.016   3.965   1.200
 9787SOL    HW230261   6.068   3.811   1.210
 9788SOL     OW30262   6.913   7.009   6.257
 9788SOL    HW130263   6.909   7.018   6.157
 9788SOL    HW230264   7.008   7.009   6.287
 9789SOL     OW30265   2.376   4.416   4.087
 9789SOL    HW130266   2.355   4.341   4.024
 9789SOL    HW230267   2.336   4.395   4.177
 9790SOL     OW30268   0.432   1.479   3.300
 9790SOL    HW130269   0.478   1.398   3.262
 9790SOL    HW230270   0.406   1.540   3.226
 9791SOL     OW30271   1.360   2.248   0.607
 9791SOL    HW130272   1.319   2.245   0.698
 9791SOL    HW230273   1.406   2.335   0.594
 9792SOL     OW30274   4.857   5.762   2.953
 9792SOL    HW130275   4.785   5.698   2.927
 9792SOL    HW230276   4.911   5.786   2.873
 9793SOL     OW30277   4.810   5.782   1.992
 9793SOL    HW130278   4.844   5.723   1.920
 9793SOL    HW230279   4.885   5.806   2.055
 9794SOL     OW30280   3.473   4.470   0.262
 9794SOL    HW130281   3.469   4.517   0.350
 9794SOL    HW230282   3.402   4.505   0.201
 9795SOL     OW30283   1.979   5.177   2.643
 9795SOL    HW130284   2.075   5.194   2.619
 9795SOL    HW230285   1.938   5.115   2.577
 9796SOL     OW30286   4.056   5.048   5.959
 9796SOL    HW130287   3.972   5.101   5.969
 9796SOL    HW230288   4.065   5.017   5.864
 9797SOL     OW30289   6.491   3.568   5.055
 9797SOL    HW130290   6.421   3.564   5.127
 9797SOL    HW230291   6.580   3.544   5.093
 9798SOL     OW30292   3.347   1.427   1.477
 9798SOL    HW130293   3.300   1.388   1.555
 9798SOL    HW230294   3.312   1.519   1.458
 9799SOL     OW30295   3.931   3.667   3.183
 9799SOL    HW130296   3.875   3.697   3.105
 9799SOL    HW230297   3.969   3.577   3.164
 9800SOL     OW30298   4.174   5.945   0.601
 9800SOL    HW130299   4.196   5.965   0.506
 9800SOL    HW230300   4.079   5.915   0.608
 9801SOL     OW30301   5.995   5.185   1.845
 9801SOL    HW130302   5.955   5.243   1.916
 9801SOL    HW230303   5.988   5.089   1.872
 9802SOL     OW30304   0.865   6.293   2.287
 9802SOL    HW130305   0.861   6.356   2.209
 9802SOL    HW230306   0.816   6.209   2.265
 9803SOL     OW30307   5.602   6.868   5.730
 9803SOL    HW130308   5.699   6.890   5.734
 9803SOL    HW230309   5.591   6.771   5.708
 9804SOL     OW30310   5.081   6.202   3.880
 9804SOL    HW130311   5.053   6.260   3.804
 9804SOL    HW230312   5.025   6.119   3.881
 9805SOL     OW30313   2.684   4.761   0.860
 9805SOL    HW130314   2.618   4.687   0.859
 9805SOL    HW230315   2.756   4.741   0.927
 9806SOL     OW30316   0.808   0.991   3.011
 9806SOL    HW130317   0.855   0.921   3.065
 9806SOL    HW230318   0.720   1.012   3.054
 9807SOL     OW30319   1.886   4.137   0.706
 9807SOL    HW130320   1.902   4.215   0.767
 9807SOL    HW230321   1.970   4.116   0.656
 9808SOL     OW30322   1.843   2.284   3.399
 9808SOL    HW130323   1.846   2.248   3.305
 9808SOL    HW230324   1.887   2.220   3.461
 9809SOL     OW30325   0.481   6.849   4.234
 9809SOL    HW130326   0.397   6.884   4.194
 9809SOL    HW230327   0.529   6.922   4.281
 9810SOL     OW30328   4.878   1.766   2.813
 9810SOL    HW130329   4.844   1.734   2.901
 9810SOL    HW230330   4.824   1.726   2.739
 9811SOL     OW30331   1.592   0.060   2.960
 9811SOL    HW130332   1.627   0.134   2.903
 9811SOL    HW230333   1.506   0.026   2.922
 9812SOL     OW30334   5.750   3.036   0.179
 9812SOL    HW130335   5.677   3.088   0.135
 9812SOL    HW230336   5.737   3.037   0.278
 9813SOL     OW30337   6.133   4.487   0.458
 9813SOL    HW130338   6.090   4.575   0.440
 9813SOL    HW230339   6.083   4.440   0.531
 9814SOL     OW30340   6.532   1.248   5.567
 9814SOL    HW130341   6.476   1.207   5.496
 9814SOL    HW230342   6.549   1.181   5.640
 9815SOL     OW30343   0.023   5.124   2.366
 9815SOL    HW130344   6.985   5.052   2.339
 9815SOL    HW230345   7.006   5.214   2.353
 9816SOL     OW30346   6.832   2.376   5.224
 9816SOL    HW130347   6.862   2.468   5.248
 9816SOL    HW230348   6.799   2.330   5.307
 9817SOL     OW30349   2.337   2.022   0.286
 9817SOL    HW130350   2.359   2.113   0.252
 9817SOL    HW230351   2.242   2.000   0.265
 9818SOL     OW30352   0.157   0.260   2.541
 9818SOL    HW130353   0.162   0.178   2.485
 9818SOL    HW230354   0.237   0.317   2.524
 9819SOL     OW30355   6.155   1.095   5.173
 9819SOL    HW130356   6.225   1.083   5.104
 9819SOL    HW230357   6.102   1.010   5.183
 9820SOL     OW30358   3.397   0.581   6.344
 9820SOL    HW130359   3.402   0.634   6.428
 9820SOL    HW230360   3.363   0.489   6.364
 9821SOL     OW30361   4.262   4.096   6.190
 9821SOL    HW130362   4.242   4.012   6.239
 9821SOL    HW230363   4.347   4.136   6.226
 9822SOL     OW30364   2.971   7.025   3.775
 9822SOL    HW130365   2.913   0.016   3.855
 9822SOL    HW230366   3.042   0.068   3.770
 9823SOL     OW30367   3.754   6.626   2.650
 9823SOL    HW130368   3.763   6.526   2.650
 9823SOL    HW230369   3.823   6.665   2.588
 9824SOL     OW30370   1.762   5.962   5.400
 9824SOL    HW130371   1.772   6.062   5.408
 9824SOL    HW230372   1.684   5.932   5.453
 9825SOL     OW30373   0.658   6.503   4.730
 9825SOL    HW130374   0.663   6.451   4.815
 9825SOL    HW230375   0.749   6.510   4.689
 9826SOL     OW30376   1.460   6.657   5.153
 9826SOL    HW130377   1.475   6.682   5.249
 9826SOL    HW230378   1.456   6.557   5.146
 9827SOL     OW30379   2.070   4.488   1.317
 9827SOL    HW130380   2.081   4.418   1.388
 9827SOL    HW230381   1.994   4.549   1.342
 9828SOL     OW30382   4.975   1.781   4.299
 9828SOL    HW130383   4.967   1.750   4.204
 9828SOL    HW230384   5.017   1.872   4.301
 9829SOL     OW30385   5.540   3.942   5.594
 9829SOL    HW130386   5.468   3.874   5.606
 9829SOL    HW230387   5.627   3.896   5.575
 9830SOL     OW30388   5.900   0.209   3.439
 9830SOL    HW130389   5.872   0.186   3.346
 9830SOL    HW230390   5.869   0.137   3.501
 9831SOL     OW30391   1.032   4.871   1.538
 9831SOL    HW130392   1.047   4.781   1.498
 9831SOL    HW230393   1.065   4.873   1.632
 9832SOL     OW30394   6.223   5.743   5.125
 9832SOL    HW130395   6.137   5.755   5.075
 9832SOL    HW230396   6.204   5.709   5.217
 9833SOL     OW30397   3.855   3.148   4.255
 9833SOL    HW130398   3.828   3.244   4.263
 9833SOL    HW230399   3.922   3.126   4.325
 9834SOL     OW30400   2.590   5.953   5.991
 9834SOL    HW130401   2.595   6.036   5.936
 9834SOL    HW230402   2.682   5.915   6.002
 9835SOL     OW30403   3.996   3.074   3.725
 9835SOL    HW130404   4.069   3.141   3.736
 9835SOL    HW230405   3.935   3.077   3.804
 9836SOL     OW30406   6.830   3.201   6.564
 9836SOL    HW130407   6.901   3.134   6.586
 9836SOL    HW230408   6.828   3.273   6.633
 9837SOL     OW30409   6.338   0.606   5.227
 9837SOL    HW130410   6.386   0.690   5.203
 9837SOL    HW230411   6.252   0.628   5.272
 9838SOL     OW30412   0.388   5.706   1.052
 9838SOL    HW130413   0.320   5.730   1.121
 9838SOL    HW230414   0.480   5.713   1.092
 9839SOL     OW30415   4.287   0.020   3.354
 9839SOL    HW130416   4.195   7.020   3.325
 9839SOL    HW230417   4.306   0.112   3.321
 9840SOL     OW30418   6.332   1.961   5.468
 9840SOL    HW130419   6.418   1.944   5.517
 9840SOL    HW230420   6.284   1.874   5.454
 9841SOL     OW30421   0.078   5.290   2.036
 9841SOL    HW130422   0.081   5.221   1.963
 9841SOL    HW230423   0.104   5.247   2.123
 9842SOL     OW30424   4.164   0.668   0.829
 9842SOL    HW130425   4.072   0.675   0.868
 9842SOL    HW230426   4.222   0.738   0.869
 9843SOL     OW30427   0.247   0.228   0.741
 9843SOL    HW130428   0.238   0.156   0.672
 9843SOL    HW230429   0.225   0.317   0.700
 9844SOL     OW30430   5.593   0.831   4.447
 9844SOL    HW130431   5.517   0.778   4.485
 9844SOL    HW230432   5.671   0.770   4.432
 9845SOL     OW30433   0.757   3.390   2.497
 9845SOL    HW130434   0.830   3.327   2.471
 9845SOL    HW230435   0.791   3.452   2.568
 9846SOL     OW30436   5.861   2.167   3.290
 9846SOL    HW130437   5.780   2.149   3.345
 9846SOL    HW230438   5.841   2.239   3.224
 9847SOL     OW30439   4.370   3.445   0.297
 9847SOL    HW130440   4.425   3.363   0.311
 9847SOL    HW230441   4.393   3.486   0.209
 9848SOL     OW30442   3.251   3.514   6.397
 9848SOL    HW130443   3.205   3.573   6.463
 9848SOL    HW230444   3.203   3.427   6.389
 9849SOL     OW30445   1.860   2.430   2.238
 9849SOL    HW130446   1.851   2.342   2.284
 9849SOL    HW230447   1.946   2.433   2.187
 9850SOL     OW30448   2.357   0.152   3.797
 9850SOL    HW130449   2.313   0.242   3.795
 9850SOL    HW230450   2.405   0.136   3.711
 9851SOL     OW30451   3.954   6.716   3.234
 9851SOL    HW130452   3.975   6.728   3.137
 9851SOL    HW230453   3.867   6.667   3.243
 9852SOL     OW30454   2.506   0.870   6.641
 9852SOL    HW130455   2.409   0.897   6.643
 9852SOL    HW230456   2.521   0.798   6.708
 9853SOL     OW30457   0.177   3.664   3.947
 9853SOL    HW130458   0.214   3.639   3.857
 9853SOL    HW230459   0.091   3.615   3.962
 9854SOL     OW30460   6.334   4.323   6.851
 9854SOL    HW130461   6.310   4.230   6.823
 9854SOL    HW230462   6.263   4.386   6.820
 9855SOL     OW30463   0.530   6.308   1.099
 9855SOL    HW130464   0.484   6.219   1.098
 9855SOL    HW230465   0.626   6.296   1.073
 9856SOL     OW30466   4.481   4.590   3.531
 9856SOL    HW130467   4.425   4.625   3.605
 9856SOL    HW230468   4.527   4.506   3.560
 9857SOL     OW30469   4.053   6.512   5.613
 9857SOL    HW130470   4.067   6.611   5.621
 9857SOL    HW230471   4.120   6.465   5.670
 9858SOL     OW30472   6.377   5.125   2.653
 9858SOL    HW130473   6.344   5.114   2.747
 9858SOL    HW230474   6.458   5.183   2.652
 9859SOL     OW30475   0.161   6.623   2.878
 9859SOL    HW130476   0.087   6.689   2.896
 9859SOL    HW230477   0.219   6.659   2.805
 9860SOL     OW30478   1.000   3.827   3.454
 9860SOL    HW130479   0.992   3.732   3.421
 9860SOL    HW230480   0.916   3.876   3.433
 9861SOL     OW30481   4.023   2.203   4.281
 9861SOL    HW130482   3.946   2.190   4.219
 9861SOL    HW230483   3.989   2.220   4.374
 9862SOL     OW30484   1.235   3.203   6.147
 9862SOL    HW130485   1.197   3.125   6.096
 9862SOL    HW230486   1.291   3.259   6.085
 9863SOL     OW30487   3.679   5.648   1.952
 9863SOL    HW130488   3.753   5.611   2.008
 9863SOL    HW230489   3.653   5.581   1.882
 9864SOL     OW30490   3.479   6.511   4.893
 9864SOL    HW130491   3.526   6.584   4.943
 9864SOL    HW230492   3.383   6.535   4.881
 9865SOL     OW30493   2.665   4.690   6.087
 9865SOL    HW130494   2.726   4.767   6.106
 9865SOL    HW230495   2.689   4.650   5.998
 9866SOL     OW30496   1.121   5.866   5.094
 9866SOL    HW130497   1.023   5.876   5.077
 9866SOL    HW230498   1.163   5.814   5.019
 9867SOL     OW30499   5.236   1.141   2.883
 9867SOL    HW130500   5.205   1.195   2.804
 9867SOL    HW230501   5.315   1.086   2.857
 9868SOL     OW30502   2.477   5.485   3.141
 9868SOL    HW130503   2.564   5.518   3.178
 9868SOL    HW230504   2.446   5.545   3.068
 9869SOL     OW30505   6.104   1.958   2.819
 9869SOL    HW130506   6.108   1.904   2.735
 9869SOL    HW230507   6.160   1.916   2.889
 9870SOL     OW30508   2.102   3.221   3.270
 9870SOL    HW130509   2.110   3.321   3.272
 9870SOL    HW230510   2.079   3.192   3.177
 9871SOL     OW30511   5.433   5.268   2.766
 9871SOL    HW130512   5.478   5.190   2.809
 9871SOL    HW230513   5.502   5.337   2.742
 9872SOL     OW30514   0.096   6.434   4.697
 9872SOL    HW130515   0.046   6.520   4.691
 9872SOL    HW230516   0.191   6.449   4.667
 9873SOL     OW30517   0.887   0.758   4.252
 9873SOL    HW130518   0.918   0.672   4.211
 9873SOL    HW230519   0.895   0.751   4.352
 9874SOL     OW30520   0.145   2.701   4.391
 9874SOL    HW130521   0.079   2.730   4.460
 9874SOL    HW230522   0.104   2.707   4.301
 9875SOL     OW30523   5.605   5.452   0.952
 9875SOL    HW130524   5.516   5.407   0.951
 9875SOL    HW230525   5.599   5.539   1.000
 9876SOL     OW30526   0.862   6.933   3.010
 9876SOL    HW130527   0.861   6.841   2.972
 9876SOL    HW230528   0.939   6.942   3.073
 9877SOL     OW30529   1.693   5.560   4.963
 9877SOL    HW130530   1.745   5.518   5.037
 9877SOL    HW230531   1.712   5.658   4.960
 9878SOL     OW30532   4.977   4.103   0.029
 9878SOL    HW130533   4.898   4.114   0.090
 9878SOL    HW230534   4.967   4.018   7.004
 9879SOL     OW30535   6.046   5.029   4.343
 9879SOL    HW130536   6.074   5.107   4.399
 9879SOL    HW230537   5.954   4.999   4.370
 9880SOL     OW30538   2.881   1.381   1.194
 9880SOL    HW130539   2.928   1.294   1.178
 9880SOL    HW230540   2.819   1.372   1.271
 9881SOL     OW30541   6.266   0.258   2.770
 9881SOL    HW130542   6.326   0.231   2.694
 9881SOL    HW230543   6.211   0.179   2.798
 9882SOL     OW30544   3.154   4.033   4.987
 9882SOL    HW130545   3.248   4.007   5.007
 9882SOL    HW230546   3.094   3.954   5.001
 9883SOL     OW30547   0.404   5.029   2.656
 9883SOL    HW130548   0.354   4.944   2.640
 9883SOL    HW230549   0.500   5.008   2.675
 9884SOL     OW30550   3.368   2.813   5.391
 9884SOL    HW130551   3.313   2.882   5.343
 9884SOL    HW230552   3.312   2.732   5.408
 9885SOL     OW30553   4.927   2.383   5.081
 9885SOL    HW130554   4.890   2.475   5.090
 9885SOL    HW230555   4.886   2.323   5.149
 9886SOL     OW30556   2.188   5.939   1.359
 9886SOL    HW130557   2.175   5.840   1.367
 9886SOL    HW230558   2.110   5.986   1.400
 9887SOL     OW30559   3.288   1.359   6.997
 9887SOL    HW130560   3.317   1.439   0.024
 9887SOL    HW230561   3.285   1.384   6.900
 9888SOL     OW30562   6.610   0.080   3.780
 9888SOL    HW130563   6.577   0.047   3.691
 9888SOL    HW230564   6.640   0.002   3.835
 9889SOL     OW30565   6.375   5.880   2.343
 9889SOL    HW130566   6.358   5.821   2.422
 9889SOL    HW230567   6.464   5.856   2.304
 9890SOL     OW30568   1.557   3.238   3.244
 9890SOL    HW130569   1.566   3.216   3.147
 9890SOL    HW230570   1.577   3.335   3.258
 9891SOL     OW30571   3.447   0.346   1.036
 9891SOL    HW130572   3.502   0.263   1.044
 9891SOL    HW230573   3.484   0.405   0.966
 9892SOL     OW30574   2.234   5.923   2.958
 9892SOL    HW130575   2.214   5.968   2.870
 9892SOL    HW230576   2.312   5.969   3.001
 9893SOL     OW30577   5.322   4.803   4.491
 9893SOL    HW130578   5.264   4.778   4.414
 9893SOL    HW230579   5.378   4.882   4.466
 9894SOL     OW30580   4.994   3.483   5.997
 9894SOL    HW130581   5.026   3.494   6.092
 9894SOL    HW230582   4.967   3.572   5.960
 9895SOL     OW30583   5.373   2.732   6.083
 9895SOL    HW130584   5.444   2.711   6.016
 9895SOL    HW230585   5.309   2.798   6.044
 9896SOL     OW30586   3.184   4.153   6.296
 9896SOL    HW130587   3.222   4.061   6.289
 9896SOL    HW230588   3.116   4.167   6.224
 9897SOL     OW30589   0.940   1.224   2.916
 9897SOL    HW130590   0.909   1.139   2.960
 9897SOL    HW230591   1.039   1.221   2.903
 9898SOL     OW30592   0.391   5.482   0.015
 9898SOL    HW130593   0.444   5.510   6.962
 9898SOL    HW230594   0.440   5.508   0.098
 9899SOL     OW30595   3.660   5.127   0.715
 9899SOL    HW130596   3.648   5.222   0.746
 9899SOL    HW230597   3.718   5.126   0.634
 9900SOL     OW30598   2.709   5.460   3.316
 9900SOL    HW130599   2.677   5.365   3.322
 9900SOL    HW230600   2.805   5.464   3.345
 9901SOL     OW30601   3.100   1.729   6.044
 9901SOL    HW130602   3.157   1.672   6.103
 9901SOL    HW230603   3.080   1.680   5.959
 9902SOL     OW30604   4.025   4.532   6.717
 9902SOL    HW130605   4.026   4.618   6.767
 9902SOL    HW230606   4.073   4.461   6.769
 9903SOL     OW30607   3.156   1.476   0.551
 9903SOL    HW130608   3.252   1.448   0.550
 9903SOL    HW230609   3.148   1.564   0.597
 9904SOL     OW30610   6.677   6.273   1.532
 9904SOL    HW130611   6.681   6.195   1.595
 9904SOL    HW230612   6.713   6.355   1.578
 9905SOL     OW30613   2.113   6.748   6.499
 9905SOL    HW130614   2.210   6.775   6.499
 9905SOL    HW230615   2.099   6.673   6.434
 9906SOL     OW30616   2.929   3.693   6.974
 9906SOL    HW130617   2.960   3.676   0.041
 9906SOL    HW230618   2.872   3.618   6.943
 9907SOL     OW30619   0.734   7.024   3.427
 9907SOL    HW130620   0.664   0.068   3.432
 9907SOL    HW230621   0.820   0.032   3.465
 9908SOL     OW30622   0.267   3.442   6.414
 9908SOL    HW130623   0.322   3.381   6.357
 9908SOL    HW230624   0.215   3.388   6.480
 9909SOL     OW30625   2.450   5.714   2.150
 9909SOL    HW130626   2.473   5.619   2.130
 9909SOL    HW230627   2.534   5.769   2.149
 9910SOL     OW30628   1.114   5.353   0.496
 9910SOL    HW130629   1.122   5.394   0.406
 9910SOL    HW230630   1.057   5.410   0.555
 9911SOL     OW30631   3.049   4.680   1.714
 9911SOL    HW130632   3.124   4.619   1.688
 9911SOL    HW230633   2.985   4.630   1.772
 9912SOL     OW30634   6.400   6.323   0.008
 9912SOL    HW130635   6.486   6.376   0.010
 9912SOL    HW230636   6.331   6.370   0.063
 9913SOL     OW30637   6.182   2.542   1.095
 9913SOL    HW130638   6.229   2.502   1.173
 9913SOL    HW230639   6.163   2.471   1.027
 9914SOL     OW30640   2.086   5.115   3.624
 9914SOL    HW130641   2.154   5.111   3.697
 9914SOL    HW230642   2.123   5.070   3.542
 9915SOL     OW30643   6.021   4.721   4.800
 9915SOL    HW130644   6.053   4.814   4.818
 9915SOL    HW230645   5.959   4.721   4.722
 9916SOL     OW30646   1.395   2.779   0.849
 9916SOL    HW130647   1.330   2.747   0.781
 9916SOL    HW230648   1.364   2.867   0.887
 9917SOL     OW30649   1.952   4.715   4.412
 9917SOL    HW130650   1.939   4.799   4.463
 9917SOL    HW230651   1.989   4.644   4.472
 9918SOL     OW30652   3.215   2.169   3.984
 9918SOL    HW130653   3.235   2.147   3.889
 9918SOL    HW230654   3.131   2.223   3.989
 9919SOL     OW30655   0.555   5.917   1.824
 9919SOL    HW130656   0.583   6.005   1.862
 9919SOL    HW230657   0.611   5.895   1.745
 9920SOL     OW30658   3.510   0.188   2.638
 9920SOL    HW130659   3.450   0.135   2.698
 9920SOL    HW230660   3.568   0.125   2.585
 9921SOL     OW30661   4.556   0.599   2.549
 9921SOL    HW130662   4.501   0.673   2.587
 9921SOL    HW230663   4.600   0.631   2.465
 9922SOL     OW30664   5.956   2.321   2.684
 9922SOL    HW130665   6.055   2.309   2.676
 9922SOL    HW230666   5.912   2.231   2.692
 9923SOL     OW30667   4.965   6.602   5.808
 9923SOL    HW130668   4.866   6.588   5.814
 9923SOL    HW230669   5.012   6.524   5.851
 9924SOL     OW30670   6.211   6.489   3.846
 9924SOL    HW130671   6.271   6.409   3.838
 9924SOL    HW230672   6.116   6.459   3.857
 9925SOL     OW30673   3.710   2.291   5.277
 9925SOL    HW130674   3.631   2.235   5.253
 9925SOL    HW230675   3.679   2.376   5.321
 9926SOL     OW30676   1.642   1.214   6.330
 9926SOL    HW130677   1.730   1.247   6.365
 9926SOL    HW230678   1.593   1.166   6.402
 9927SOL     OW30679   2.263   4.063   4.273
 9927SOL    HW130680   2.226   3.999   4.206
 9927SOL    HW230681   2.240   4.032   4.366
 9928SOL     OW30682   6.560   3.616   3.507
 9928SOL    HW130683   6.628   3.565   3.455
 9928SOL    HW230684   6.535   3.565   3.589
 9929SOL     OW30685   1.521   5.190   5.216
 9929SOL    HW130686   1.456   5.237   5.157
 9929SOL    HW230687   1.517   5.229   5.308
 9930SOL     OW30688   0.050   6.536   0.155
 9930SOL    HW130689   0.135   6.590   0.151
 9930SOL    HW230690   0.070   6.445   0.190
 9931SOL     OW30691   0.988   3.844   6.599
 9931SOL    HW130692   0.914   3.821   6.536
 9931SOL    HW230693   1.068   3.788   6.578
 9932SOL     OW30694   2.453   1.532   1.371
 9932SOL    HW130695   2.390   1.585   1.429
 9932SOL    HW230696   2.498   1.594   1.306
 9933SOL     OW30697   2.202   1.608   2.995
 9933SOL    HW130698   2.184   1.696   2.952
 9933SOL    HW230699   2.293   1.575   2.968
 9934SOL     OW30700   5.037   1.356   5.582
 9934SOL    HW130701   5.040   1.258   5.563
 9934SOL    HW230702   5.060   1.372   5.678
 9935SOL     OW30703   3.454   2.386   0.117
 9935SOL    HW130704   3.508   2.400   0.034
 9935SOL    HW230705   3.515   2.385   0.196
 9936SOL     OW30706   4.638   6.298   0.906
 9936SOL    HW130707   4.658   6.279   1.003
 9936SOL    HW230708   4.667   6.220   0.850
 9937SOL     OW30709   1.077   0.359   5.702
 9937SOL    HW130710   1.165   0.386   5.740
 9937SOL    HW230711   1.057   0.414   5.621
 9938SOL     OW30712   1.702   1.663   3.757
 9938SOL    HW130713   1.723   1.598   3.684
 9938SOL    HW230714   1.603   1.682   3.757
 9939SOL     OW30715   3.107   3.555   0.588
 9939SOL    HW130716   3.075   3.561   0.682
 9939SOL    HW230717   3.204   3.529   0.588
 9940SOL     OW30718   5.970   1.198   2.959
 9940SOL    HW130719   6.029   1.132   3.005
 9940SOL    HW230720   5.959   1.172   2.863
 9941SOL     OW30721   6.120   3.509   0.883
 9941SOL    HW130722   6.074   3.452   0.815
 9941SOL    HW230723   6.073   3.501   0.971
 9942SOL     OW30724   5.480   4.654   2.626
 9942SOL    HW130725   5.386   4.653   2.659
 9942SOL    HW230726   5.487   4.715   2.547
 9943SOL     OW30727   1.554   4.889   4.430
 9943SOL    HW130728   1.608   4.922   4.353
 9943SOL    HW230729   1.558   4.956   4.504
 9944SOL     OW30730   2.533   5.241   6.299
 9944SOL    HW130731   2.557   5.145   6.284
 9944SOL    HW230732   2.463   5.247   6.370
 9945SOL     OW30733   6.294   3.180   5.400
 9945SOL    HW130734   6.364   3.182   5.471
 9945SOL    HW230735   6.318   3.111   5.332
 9946SOL     OW30736   5.264   1.883   1.618
 9946SOL    HW130737   5.364   1.876   1.608
 9946SOL    HW230738   5.220   1.812   1.563
 9947SOL     OW30739   6.843   0.698   3.395
 9947SOL    HW130740   6.817   0.624   3.456
 9947SOL    HW230741   6.802   0.784   3.427
 9948SOL     OW30742   4.594   1.452   5.330
 9948SOL    HW130743   4.683   1.452   5.376
 9948SOL    HW230744   4.608   1.443   5.232
 9949SOL     OW30745   6.825   3.537   2.973
 9949SOL    HW130746   6.821   3.446   3.015
 9949SOL    HW230747   6.733   3.577   2.973
 9950SOL     OW30748   4.864   4.728   6.025
 9950SOL    HW130749   4.808   4.646   6.038
 9950SOL    HW230750   4.874   4.775   6.113
 9951SOL     OW30751   0.040   2.696   2.361
 9951SOL    HW130752   7.009   2.750   2.423
 9951SOL    HW230753   0.089   2.758   2.299
 9952SOL     OW30754   1.805   4.632   1.641
 9952SOL    HW130755   1.731   4.688   1.678
 9952SOL    HW230756   1.821   4.554   1.702
 9953SOL     OW30757   6.258   3.637   5.721
 9953SOL    HW130758   6.274   3.733   5.700
 9953SOL    HW230759   6.342   3.585   5.709
 9954SOL     OW30760   4.717   2.506   1.948
 9954SOL    HW130761   4.803   2.548   1.978
 9954SOL    HW230762   4.654   2.578   1.918
 9955SOL     OW30763   5.928   4.838   2.414
 9955SOL    HW130764   5.882   4.819   2.327
 9955SOL    HW230765   5.932   4.754   2.469
 9956SOL     OW30766   1.806   4.979   3.127
 9956SOL    HW130767   1.716   5.004   3.162
 9956SOL    HW230768   1.802   4.973   3.027
 9957SOL     OW30769   5.666   6.605   0.520
 9957SOL    HW130770   5.592   6.665   0.551
 9957SOL    HW230771   5.702   6.638   0.434
 9958SOL     OW30772   6.494   6.252   5.641
 9958SOL    HW130773   6.589   6.251   5.673
 9958SOL    HW230774   6.439   6.194   5.700
 9959SOL     OW30775   5.921   5.190   7.013
 9959SOL    HW130776   5.883   5.237   0.065
 9959SOL    HW230777   6.019   5.209   7.007
 9960SOL     OW30778   6.106   0.615   6.125
 9960SOL    HW130779   6.173   0.586   6.057
 9960SOL    HW230780   6.030   0.661   6.078
 9961SOL     OW30781   3.014   6.744   0.123
 9961SOL    HW130782   3.042   6.830   0.166
 9961SOL    HW230783   2.918   6.725   0.146
 9962SOL     OW30784   4.655   1.183   1.818
 9962SOL    HW130785   4.657   1.282   1.826
 9962SOL    HW230786   4.633   1.157   1.724
 9963SOL     OW30787   0.622   0.463   6.663
 9963SOL    HW130788   0.614   0.514   6.578
 9963SOL    HW230789   0.700   0.496   6.715
 9964SOL     OW30790   4.741   5.264   5.603
 9964SOL    HW130791   4.720   5.351   5.646
 9964SOL    HW230792   4.743   5.192   5.672
 9965SOL     OW30793   2.236   5.377   5.449
 9965SOL    HW130794   2.285   5.291   5.457
 9965SOL    HW230795   2.280   5.447   5.505
 9966SOL     OW30796   1.593   4.324   2.203
 9966SOL    HW130797   1.643   4.380   2.270
 9966SOL    HW230798   1.558   4.383   2.131
 9967SOL     OW30799   6.573   0.982   2.398
 9967SOL    HW130800   6.560   0.907   2.334
 9967SOL    HW230801   6.488   1.033   2.407
 9968SOL     OW30802   4.820   6.343   6.415
 9968SOL    HW130803   4.888   6.351   6.488
 9968SOL    HW230804   4.845   6.267   6.355
 9969SOL     OW30805   0.921   6.588   3.223
 9969SOL    HW130806   0.843   6.624   3.274
 9969SOL    HW230807   0.979   6.664   3.193
 9970SOL     OW30808   0.391   2.758   1.371
 9970SOL    HW130809   0.309   2.812   1.353
 9970SOL    HW230810   0.459   2.814   1.418
 9971SOL     OW30811   0.049   5.588   5.766
 9971SOL    HW130812   0.028   5.495   5.797
 9971SOL    HW230813   7.025   5.654   5.821
 9972SOL     OW30814   3.272   4.855   5.384
 9972SOL    HW130815   3.209   4.872   5.308
 9972SOL    HW230816   3.224   4.866   5.470
 9973SOL     OW30817   3.599   1.974   2.685
 9973SOL    HW130818   3.625   1.955   2.590
 9973SOL    HW230819   3.525   1.913   2.712
 9974SOL     OW30820   0.175   4.727   3.438
 9974SOL    HW130821   0.168   4.793   3.363
 9974SOL    HW230822   0.258   4.672   3.425
 9975SOL     OW30823   1.481   5.013   7.004
 9975SOL    HW130824   1.523   5.089   6.955
 9975SOL    HW230825   1.549   4.968   0.034
 9976SOL     OW30826   4.479   5.668   4.714
 9976SOL    HW130827   4.526   5.639   4.631
 9976SOL    HW230828   4.530   5.639   4.795
 9977SOL     OW30829   3.516   6.947   6.197
 9977SOL    HW130830   3.574   6.971   6.275
 9977SOL    HW230831   3.431   6.906   6.231
 9978SOL     OW30832   6.848   3.399   6.824
 9978SOL    HW130833   6.893   3.354   6.901
 9978SOL    HW230834   6.772   3.455   6.857
 9979SOL     OW30835   3.171   3.861   4.001
 9979SOL    HW130836   3.228   3.823   4.074
 9979SOL    HW230837   3.083   3.814   3.999
 9980SOL     OW30838   0.848   6.864   6.519
 9980SOL    HW130839   0.750   6.853   6.536
 9980SOL    HW230840   0.869   6.838   6.425
 9981SOL     OW30841   5.706   1.938   1.834
 9981SOL    HW130842   5.800   1.913   1.811
 9981SOL    HW230843   5.693   1.936   1.933
 9982SOL     OW30844   2.560   1.079   5.209
 9982SOL    HW130845   2.530   1.174   5.219
 9982SOL    HW230846   2.659   1.074   5.222
 9983SOL     OW30847   0.312   2.351   1.965
 9983SOL    HW130848   0.268   2.319   1.881
 9983SOL    HW230849   0.410   2.364   1.949
 9984SOL     OW30850   1.475   4.827   1.253
 9984SOL    HW130851   1.449   4.798   1.345
 9984SOL    HW230852   1.400   4.879   1.212
 9985SOL     OW30853   5.876   5.022   6.202
 9985SOL    HW130854   5.813   5.076   6.147
 9985SOL    HW230855   5.826   4.948   6.247
 9986SOL     OW30856   5.456   4.182   0.627
 9986SOL    HW130857   5.501   4.252   0.571
 9986SOL    HW230858   5.434   4.220   0.717
 9987SOL     OW30859   5.523   1.877   0.861
 9987SOL    HW130860   5.475   1.789   0.855
 9987SOL    HW230861   5.486   1.939   0.791
 9988SOL     OW30862   5.398   6.933   4.146
 9988SOL    HW130863   5.345   6.865   4.096
 9988SOL    HW230864   5.394   6.911   4.244
 9989SOL     OW30865   6.884   5.258   1.476
 9989SOL    HW130866   6.853   5.194   1.406
 9989SOL    HW230867   6.923   5.207   1.553
 9990SOL     OW30868   0.752   6.581   2.652
 9990SOL    HW130869   0.755   6.566   2.553
 9990SOL    HW230870   0.833   6.633   2.680
 9991SOL     OW30871   1.942   3.093   2.115
 9991SOL    HW130872   1.965   3.086   2.212
 9991SOL    HW230873   2.017   3.137   2.066
 9992SOL     OW30874   1.482   3.992   0.464
 9992SOL    HW130875   1.466   3.912   0.522
 9992SOL    HW230876   1.569   3.982   0.416
 9993SOL     OW30877   4.072   0.135   4.280
 9993SOL    HW130878   4.101   0.218   4.234
 9993SOL    HW230879   3.979   0.111   4.251
 9994SOL     OW30880   5.787   4.862   5.471
 9994SOL    HW130881   5.884   4.887   5.468
 9994SOL    HW230882   5.766   4.798   5.397
 9995SOL     OW30883   3.966   2.059   6.326
 9995SOL    HW130884   3.917   2.138   6.289
 9995SOL    HW230885   3.941   1.977   6.275
 9996SOL     OW30886   2.771   4.158   1.344
 9996SOL    HW130887   2.677   4.180   1.368
 9996SOL    HW230888   2.775   4.130   1.248
 9997SOL     OW30889   5.598   0.156   3.254
 9997SOL    HW130890   5.688   0.162   3.210
 9997SOL    HW230891   5.589   0.230   3.320
 9998SOL     OW30892   6.103   3.489   2.814
 9998SOL    HW130893   6.030   3.524   2.873
 9998SOL    HW230894   6.068   3.479   2.721
 9999SOL     OW30895   0.857   0.442   4.407
 9999SOL    HW130896   0.894   0.449   4.315
 9999SOL    HW230897   0.874   0.527   4.457
10000SOL     OW30898   4.426   3.384   1.486
10000SOL    HW130899   4.341   3.339   1.514
10000SOL    HW230900   4.425   3.478   1.518
10001SOL     OW30901   3.657   5.503   1.539
10001SOL    HW130902   3.713   5.571   1.586
10001SOL    HW230903   3.562   5.510   1.570
10002SOL     OW30904   2.305   6.728   2.873
10002SOL    HW130905   2.265   6.695   2.958
10002SOL    HW230906   2.397   6.762   2.891
10003SOL     OW30907   0.729   1.360   3.054
10003SOL    HW130908   0.807   1.302   3.029
10003SOL    HW230909   0.762   1.444   3.097
10004SOL     OW30910   0.688   2.769   2.975
10004SOL    HW130911   0.671   2.690   2.916
10004SOL    HW230912   0.647   2.753   3.064
10005SOL     OW30913   2.130   6.158   2.535
10005SOL    HW130914   2.109   6.218   2.612
10005SOL    HW230915   2.059   6.166   2.466
10006SOL     OW30916   4.942   2.010   6.542
10006SOL    HW130917   4.894   1.968   6.465
10006SOL    HW230918   4.914   1.965   6.627
10007SOL     OW30919   1.847   5.347   3.040
10007SOL    HW130920   1.827   5.327   3.136
10007SOL    HW230921   1.945   5.360   3.028
10008SOL     OW30922   2.920   0.766   5.852
10008SOL    HW130923   2.903   0.703   5.777
10008SOL    HW230924   2.862   0.742   5.930
10009SOL     OW30925   1.144   5.174   1.649
10009SOL    HW130926   1.213   5.203   1.715
10009SOL    HW230927   1.053   5.186   1.688
10010SOL     OW30928   2.056   4.498   0.653
10010SOL    HW130929   1.971   4.467   0.609
10010SOL    HW230930   2.128   4.506   0.585
10011SOL     OW30931   3.206   3.220   0.060
10011SOL    HW130932   3.225   3.177   6.998
10011SOL    HW230933   3.228   3.317   0.055
10012SOL     OW30934   5.598   2.119   3.395
10012SOL    HW130935   5.542   2.053   3.345
10012SOL    HW230936   5.614   2.085   3.488
10013SOL     OW30937   0.366   6.259   5.888
10013SOL    HW130938   0.425   6.179   5.900
10013SOL    HW230939   0.389   6.305   5.803
10014SOL     OW30940   1.332   1.436   2.718
10014SOL    HW130941   1.312   1.465   2.812
10014SOL    HW230942   1.246   1.416   2.671
10015SOL     OW30943   4.277   0.715   0.240
10015SOL    HW130944   4.325   0.784   0.186
10015SOL    HW230945   4.306   0.719   0.335
10016SOL     OW30946   2.882   1.582   5.147
10016SOL    HW130947   2.939   1.655   5.182
10016SOL    HW230948   2.913   1.555   5.056
10017SOL     OW30949   2.770   2.214   3.407
10017SOL    HW130950   2.808   2.231   3.315
10017SOL    HW230951   2.783   2.295   3.463
10018SOL     OW30952   0.057   4.314   5.546
10018SOL    HW130953   0.077   4.230   5.496
10018SOL    HW230954   0.013   4.292   5.633
10019SOL     OW30955   0.302   1.867   2.907
10019SOL    HW130956   0.297   1.871   2.807
10019SOL    HW230957   0.337   1.954   2.942
10020SOL     OW30958   6.657   0.850   3.540
10020SOL    HW130959   6.613   0.881   3.456
10020SOL    HW230960   6.593   0.793   3.592
10021SOL     OW30961   2.298   4.108   1.837
10021SOL    HW130962   2.242   4.120   1.919
10021SOL    HW230963   2.304   4.011   1.815
10022SOL     OW30964   0.750   6.190   6.036
10022SOL    HW130965   0.778   6.244   6.116
10022SOL    HW230966   0.769   6.242   5.953
10023SOL     OW30967   1.421   0.991   4.217
10023SOL    HW130968   1.427   1.048   4.299
10023SOL    HW230969   1.325   0.985   4.189
10024SOL     OW30970   1.944   3.601   3.024
10024SOL    HW130971   1.890   3.645   2.952
10024SOL    HW230972   1.907   3.627   3.114
10025SOL     OW30973   6.926   1.636   1.550
10025SOL    HW130974   7.011   1.625   1.601
10025SOL    HW230975   6.875   1.713   1.587
10026SOL     OW30976   6.726   1.505   5.016
10026SOL    HW130977   6.738   1.436   4.944
10026SOL    HW230978   6.718   1.595   4.974
10027SOL     OW30979   3.672   1.244   5.647
10027SOL    HW130980   3.651   1.157   5.691
10027SOL    HW230981   3.587   1.293   5.628
10028SOL     OW30982   4.020   6.230   1.894
10028SOL    HW130983   4.012   6.296   1.819
10028SOL    HW230984   4.112   6.191   1.894
10029SOL     OW30985   6.819   5.119   3.354
10029SOL    HW130986   6.844   5.214   3.373
10029SOL    HW230987   6.896   5.060   3.377
10030SOL     OW30988   3.145   6.838   3.912
10030SOL    HW130989   3.238   6.874   3.921
10030SOL    HW230990   3.087   6.908   3.868
10031SOL     OW30991   2.127   6.340   3.302
10031SOL    HW130992   2.044   6.391   3.326
10031SOL    HW230993   2.105   6.269   3.235
10032SOL     OW30994   2.179   5.607   4.716
10032SOL    HW130995   2.088   5.568   4.729
10032SOL    HW230996   2.186   5.693   4.765
10033SOL     OW30997   2.176   1.565   4.344
10033SOL    HW130998   2.106   1.581   4.414
10033SOL    HW230999   2.188   1.648   4.290
10034SOL     OW31000   2.662   0.648   1.445
10034SOL    HW131001   2.633   0.587   1.370
10034SOL    HW231002   2.603   0.729   1.446
10035SOL     OW31003   0.179   2.867   2.193
10035SOL    HW131004   0.190   2.959   2.232
10035SOL    HW231005   0.225   2.863   2.104
10036SOL     OW31006   0.638   1.328   0.281
10036SOL    HW131007   0.674   1.282   0.201
10036SOL    HW231008   0.641   1.427   0.267
10037SOL     OW31009   6.376   0.875   6.398
10037SOL    HW131010   6.279   0.865   6.379
10037SOL    HW231011   6.392   0.962   6.445
10038SOL     OW31012   4.165   0.093   0.056
10038SOL    HW131013   4.214   0.042   0.128
10038SOL    HW231014   4.108   0.163   0.099
10039SOL     OW31015   0.169   4.543   0.658
10039SOL    HW131016   0.175   4.474   0.585
10039SOL    HW231017   0.132   4.628   0.621
10040SOL     OW31018   3.012   0.512   0.726
10040SOL    HW131019   3.096   0.526   0.673
10040SOL    HW231020   3.036   0.482   0.818
10041SOL     OW31021   5.704   4.689   5.990
10041SOL    HW131022   5.607   4.664   5.989
10041SOL    HW231023   5.735   4.696   6.084
10042SOL     OW31024   6.090   0.172   4.583
10042SOL    HW131025   6.050   0.123   4.661
10042SOL    HW231026   6.047   0.140   4.498
10043SOL     OW31027   0.533   0.482   3.163
10043SOL    HW131028   0.514   0.435   3.076
10043SOL    HW231029   0.603   0.431   3.214
10044SOL     OW31030   2.614   2.434   6.804
10044SOL    HW131031   2.604   2.363   6.874
10044SOL    HW231032   2.541   2.501   6.814
10045SOL     OW31033   4.043   6.727   4.707
10045SOL    HW131034   4.082   6.639   4.680
10045SOL    HW231035   4.088   6.800   4.656
10046SOL     OW31036   6.588   1.451   0.423
10046SOL    HW131037   6.666   1.500   0.382
10046SOL    HW231038   6.617   1.358   0.448
10047SOL     OW31039   1.372   2.285   3.834
10047SOL    HW131040   1.359   2.359   3.768
10047SOL    HW231041   1.452   2.304   3.891
10048SOL     OW31042   3.215   2.357   1.645
10048SOL    HW131043   3.130   2.306   1.654
10048SOL    HW231044   3.291   2.302   1.680
10049SOL     OW31045   1.054   4.752   5.055
10049SOL    HW131046   0.974   4.810   5.068
10049SOL    HW231047   1.085   4.759   4.960
10050SOL     OW31048   6.085   1.552   5.129
10050SOL    HW131049   6.082   1.477   5.195
10050SOL    HW231050   6.151   1.530   5.057
10051SOL     OW31051   5.995   1.752   0.950
10051SOL    HW131052   6.080   1.703   0.929
10051SOL    HW231053   5.970   1.736   1.045
10052SOL     OW31054   2.285   5.594   0.441
10052SOL    HW131055   2.280   5.661   0.367
10052SOL    HW231056   2.352   5.626   0.509
10053SOL     OW31057   3.341   6.924   3.132
10053SOL    HW131058   3.326   6.878   3.219
10053SOL    HW231059   3.423   6.886   3.088
10054SOL     OW31060   5.368   4.550   3.876
10054SOL    HW131061   5.363   4.455   3.906
10054SOL    HW231062   5.312   4.607   3.935
10055SOL     OW31063   4.894   2.297   6.832
10055SOL    HW131064   4.977   2.304   6.777
10055SOL    HW231065   4.815   2.321   6.775
10056SOL     OW31066   4.936   4.143   2.947
10056SOL    HW131067   4.911   4.238   2.964
10056SOL    HW231068   4.907   4.116   2.855
10057SOL     OW31069   2.245   2.969   3.203
10057SOL    HW131070   2.153   2.942   3.175
10057SOL    HW231071   2.273   3.050   3.152
10058SOL     OW31072   1.174   5.231   3.748
10058SOL    HW131073   1.090   5.286   3.751
10058SOL    HW231074   1.153   5.142   3.708
10059SOL     OW31075   4.220   6.186   1.535
10059SOL    HW131076   4.180   6.239   1.610
10059SOL    HW231077   4.158   6.189   1.456
10060SOL     OW31078   2.327   2.632   2.489
10060SOL    HW131079   2.361   2.678   2.572
10060SOL    HW231080   2.401   2.582   2.445
10061SOL     OW31081   0.358   1.674   5.783
10061SOL    HW131082   0.394   1.737   5.851
10061SOL    HW231083   0.259   1.670   5.790
10062SOL     OW31084   5.959   5.887   2.679
10062SOL    HW131085   5.883   5.825   2.695
10062SOL    HW231086   6.041   5.852   2.725
10063SOL     OW31087   1.081   2.757   2.459
10063SOL    HW131088   1.165   2.813   2.458
10063SOL    HW231089   1.015   2.798   2.522
10064SOL     OW31090   5.120   4.757   5.531
10064SOL    HW131091   5.180   4.827   5.570
10064SOL    HW231092   5.156   4.727   5.443
10065SOL     OW31093   0.562   0.183   2.507
10065SOL    HW131094   0.504   0.193   2.426
10065SOL    HW231095   0.604   0.271   2.529
10066SOL     OW31096   6.550   0.038   4.222
10066SOL    HW131097   6.649   0.046   4.211
10066SOL    HW231098   6.504   0.070   4.139
10067SOL     OW31099   4.686   6.611   2.539
10067SOL    HW131100   4.669   6.709   2.544
10067SOL    HW231101   4.680   6.580   2.444
10068SOL     OW31102   5.531   3.234   5.551
10068SOL    HW131103   5.579   3.239   5.463
10068SOL    HW231104   5.453   3.173   5.542
10069SOL     OW31105   4.798   1.039   4.662
10069SOL    HW131106   4.848   0.958   4.630
10069SOL    HW231107   4.760   1.021   4.752
10070SOL     OW31108   0.573   0.079   4.333
10070SOL    HW131109   0.661   0.077   4.381
10070SOL    HW231110   0.518   0.155   4.367
10071SOL     OW31111   4.587   4.422   5.017
10071SOL    HW131112   4.642   4.403   5.098
10071SOL    HW231113   4.490   4.428   5.043
10072SOL     OW31114   0.353   6.196   4.491
10072SOL    HW131115   0.386   6.193   4.397
10072SOL    HW231116   0.272   6.138   4.500
10073SOL     OW31117   0.062   0.037   6.800
10073SOL    HW131118   7.006   0.044   6.743
10073SOL    HW231119   0.038   7.021   6.887
10074SOL     OW31120   2.011   6.222   4.792
10074SOL    HW131121   2.068   6.304   4.791
10074SOL    HW231122   2.032   6.165   4.713
10075SOL     OW31123   1.306   2.523   4.372
10075SOL    HW131124   1.225   2.570   4.339
10075SOL    HW231125   1.280   2.437   4.416
10076SOL     OW31126   5.526   6.943   3.336
10076SOL    HW131127   5.479   6.956   3.423
10076SOL    HW231128   5.565   0.003   3.306
10077SOL     OW31129   2.503   1.125   5.789
10077SOL    HW131130   2.582   1.068   5.815
10077SOL    HW231131   2.534   1.218   5.768
10078SOL     OW31132   5.701   6.151   5.043
10078SOL    HW131133   5.738   6.148   5.136
10078SOL    HW231134   5.637   6.227   5.036
10079SOL     OW31135   0.878   3.321   5.867
10079SOL    HW131136   0.826   3.237   5.879
10079SOL    HW231137   0.815   3.399   5.869
10080SOL     OW31138   1.383   2.234   5.136
10080SOL    HW131139   1.429   2.262   5.220
10080SOL    HW231140   1.399   2.304   5.065
10081SOL     OW31141   0.524   1.041   0.903
10081SOL    HW131142   0.571   0.963   0.945
10081SOL    HW231143   0.446   1.008   0.849
10082SOL     OW31144   6.942   1.072   0.137
10082SOL    HW131145   6.861   1.015   0.126
10082SOL    HW231146   7.018   1.033   0.084
10083SOL     OW31147   5.491   1.361   4.395
10083SOL    HW131148   5.588   1.340   4.383
10083SOL    HW231149   5.442   1.278   4.419
10084SOL     OW31150   3.068   0.617   7.003
10084SOL    HW131151   3.020   0.597   0.061
10084SOL    HW231152   3.014   0.681   6.948
10085SOL     OW31153   0.819   5.657   2.357
10085SOL    HW131154   0.724   5.635   2.379
10085SOL    HW231155   0.880   5.612   2.422
10086SOL     OW31156   6.911   1.883   2.455
10086SOL    HW131157   6.980   1.946   2.419
10086SOL    HW231158   6.955   1.814   2.513
10087SOL     OW31159   1.520   0.198   3.403
10087SOL    HW131160   1.440   0.257   3.396
10087SOL    HW231161   1.531   0.167   3.497
10088SOL     OW31162   5.829   0.053   4.495
10088SOL    HW131163   5.907   0.005   4.454
10088SOL    HW231164   5.758   0.066   4.425
10089SOL     OW31165   2.122   2.413   2.154
10089SOL    HW131166   2.168   2.502   2.142
10089SOL    HW231167   2.165   2.364   2.229
10090SOL     OW31168   0.505   5.861   2.214
10090SOL    HW131169   0.487   5.763   2.201
10090SOL    HW231170   0.428   5.914   2.179
10091SOL     OW31171   0.779   1.603   4.220
10091SOL    HW131172   0.725   1.659   4.282
10091SOL    HW231173   0.876   1.613   4.243
10092SOL     OW31174   2.688   2.621   5.464
10092SOL    HW131175   2.623   2.545   5.471
10092SOL    HW231176   2.642   2.698   5.419
10093SOL     OW31177   6.560   6.865   5.411
10093SOL    HW131178   6.648   6.902   5.381
10093SOL    HW231179   6.486   6.915   5.366
10094SOL     OW31180   1.231   0.326   1.860
10094SOL    HW131181   1.277   0.415   1.867
10094SOL    HW231182   1.261   0.280   1.777
10095SOL     OW31183   0.716   2.530   5.019
10095SOL    HW131184   0.619   2.547   5.004
10095SOL    HW231185   0.756   2.606   5.071
10096SOL     OW31186   6.546   5.975   2.808
10096SOL    HW131187   6.545   5.999   2.711
10096SOL    HW231188   6.626   6.015   2.852
10097SOL     OW31189   1.878   2.192   5.916
10097SOL    HW131190   1.805   2.254   5.945
10097SOL    HW231191   1.888   2.197   5.817
10098SOL     OW31192   2.968   4.824   6.558
10098SOL    HW131193   3.039   4.760   6.530
10098SOL    HW231194   2.981   4.911   6.511
10099SOL     OW31195   1.240   3.372   4.575
10099SOL    HW131196   1.147   3.353   4.543
10099SOL    HW231197   1.244   3.361   4.674
10100SOL     OW31198   4.795   0.416   6.094
10100SOL    HW131199   4.767   0.380   6.183
10100SOL    HW231200   4.806   0.340   6.029
10101SOL     OW31201   0.727   3.699   2.439
10101SOL    HW131202   0.746   3.637   2.515
10101SOL    HW231203   0.676   3.778   2.472
10102SOL     OW31204   4.257   0.825   4.402
10102SOL    HW131205   4.210   0.893   4.458
10102SOL    HW231206   4.312   0.766   4.461
10103SOL     OW31207   6.760   2.902   0.593
10103SOL    HW131208   6.808   2.939   0.673
10103SOL    HW231209   6.820   2.838   0.546
10104SOL     OW31210   2.106   5.310   6.130
10104SOL    HW131211   2.152   5.255   6.061
10104SOL    HW231212   2.037   5.255   6.176
10105SOL     OW31213   3.726   0.378   6.991
10105SOL    HW131214   3.707   0.472   7.020
10105SOL    HW231215   3.787   0.334   0.030
10106SOL     OW31216   4.718   5.660   0.734
10106SOL    HW131217   4.762   5.572   0.752
10106SOL    HW231218   4.762   5.731   0.789
10107SOL     OW31219   5.695   2.195   5.935
10107SOL    HW131220   5.640   2.130   5.883
10107SOL    HW231221   5.791   2.166   5.934
10108SOL     OW31222   4.920   5.852   6.392
10108SOL    HW131223   5.014   5.862   6.425
10108SOL    HW231224   4.864   5.808   6.462
10109SOL     OW31225   5.199   6.217   4.160
10109SOL    HW131226   5.275   6.276   4.187
10109SOL    HW231227   5.176   6.234   4.064
10110SOL     OW31228   3.644   2.468   6.184
10110SOL    HW131229   3.583   2.547   6.190
10110SOL    HW231230   3.602   2.391   6.232
10111SOL     OW31231   6.806   2.458   1.743
10111SOL    HW131232   6.750   2.378   1.768
10111SOL    HW231233   6.752   2.518   1.684
10112SOL     OW31234   4.715   4.034   5.829
10112SOL    HW131235   4.653   3.981   5.887
10112SOL    HW231236   4.804   3.988   5.824
10113SOL     OW31237   3.568   0.099   1.026
10113SOL    HW131238   3.667   0.089   1.028
10113SOL    HW231239   3.525   0.023   1.075
10114SOL     OW31240   4.413   1.840   1.733
10114SOL    HW131241   4.475   1.899   1.682
10114SOL    HW231242   4.414   1.748   1.693
10115SOL     OW31243   1.421   1.449   4.609
10115SOL    HW131244   1.474   1.477   4.528
10115SOL    HW231245   1.484   1.423   4.682
10116SOL     OW31246   0.729   0.858   1.008
10116SOL    HW131247   0.782   0.780   0.974
10116SOL    HW231248   0.681   0.831   1.092
10117SOL     OW31249   3.871   6.851   6.293
10117SOL    HW131250   3.832   6.798   6.218
10117SOL    HW231251   3.841   6.946   6.285
10118SOL     OW31252   5.032   5.280   3.034
10118SOL    HW131253   5.015   5.272   3.132
10118SOL    HW231254   5.029   5.190   2.992
10119SOL     OW31255   1.978   0.324   5.889
10119SOL    HW131256   2.038   0.400   5.863
10119SOL    HW231257   2.029   0.257   5.943
10120SOL     OW31258   5.658   3.144   3.660
10120SOL    HW131259   5.591   3.217   3.674
10120SOL    HW231260   5.624   3.060   3.702
10121SOL     OW31261   5.837   4.720   4.592
10121SOL    HW131262   5.798   4.647   4.535
10121SOL    HW231263   5.837   4.806   4.541
10122SOL     OW31264   5.393   2.370   1.336
10122SOL    HW131265   5.439   2.400   1.252
10122SOL    HW231266   5.305   2.417   1.345
10123SOL     OW31267   0.517   6.126   0.521
10123SOL    HW131268   0.576   6.207   0.527
10123SOL    HW231269   0.425   6.155   0.496
10124SOL     OW31270   3.496   4.076   0.751
10124SOL    HW131271   3.570   4.096   0.815
10124SOL    HW231272   3.465   4.162   0.709
10125SOL     OW31273   2.543   0.972   0.090
10125SOL    HW131274   2.584   1.055   0.127
10125SOL    HW231275   2.466   0.944   0.149
10126SOL     OW31276   6.157   5.236   6.471
10126SOL    HW131277   6.217   5.265   6.546
10126SOL    HW231278   6.205   5.169   6.415
10127SOL     OW31279   3.849   4.940   5.106
10127SOL    HW131280   3.825   4.878   5.181
10127SOL    HW231281   3.911   4.895   5.043
10128SOL     OW31282   0.933   1.685   0.542
10128SOL    HW131283   0.947   1.776   0.582
10128SOL    HW231284   0.902   1.694   0.448
10129SOL     OW31285   5.428   2.661   2.910
10129SOL    HW131286   5.361   2.639   2.839
10129SOL    HW231287   5.496   2.588   2.915
10130SOL     OW31288   6.294   5.749   1.762
10130SOL    HW131289   6.291   5.833   1.817
10130SOL    HW231290   6.300   5.670   1.823
10131SOL     OW31291   0.356   0.659   0.540
10131SOL    HW131292   0.393   0.751   0.555
10131SOL    HW231293   0.333   0.648   0.444
10132SOL     OW31294   2.362   6.484   2.735
10132SOL    HW131295   2.333   6.566   2.785
10132SOL    HW231296   2.392   6.511   2.643
10133SOL     OW31297   5.936   4.552   2.529
10133SOL    HW131298   5.870   4.520   2.597
10133SOL    HW231299   6.025   4.563   2.573
10134SOL     OW31300   0.940   1.915   1.361
10134SOL    HW131301   1.002   1.880   1.291
10134SOL    HW231302   0.966   1.879   1.451
10135SOL     OW31303   3.113   6.892   1.667
10135SOL    HW131304   3.151   6.825   1.604
10135SOL    HW231305   3.186   6.930   1.724
10136SOL     OW31306   5.904   6.798   2.738
10136SOL    HW131307   5.854   6.729   2.791
10136SOL    HW231308   5.907   6.770   2.642
10137SOL     OW31309   5.608   4.709   4.306
10137SOL    HW131310   5.549   4.686   4.382
10137SOL    HW231311   5.646   4.625   4.266
10138SOL     OW31312   5.697   3.073   6.426
10138SOL    HW131313   5.792   3.084   6.456
10138SOL    HW231314   5.637   3.071   6.506
10139SOL     OW31315   3.733   3.134   3.055
10139SOL    HW131316   3.759   3.083   3.137
10139SOL    HW231317   3.725   3.071   2.978
10140SOL     OW31318   1.270   5.046   4.579
10140SOL    HW131319   1.174   5.035   4.605
10140SOL    HW231320   1.301   4.966   4.528
10141SOL     OW31321   1.469   0.544   3.510
10141SOL    HW131322   1.390   0.501   3.553
10141SOL    HW231323   1.532   0.577   3.580
10142SOL     OW31324   5.315   5.311   4.182
10142SOL    HW131325   5.394   5.371   4.173
10142SOL    HW231326   5.258   5.342   4.258
10143SOL     OW31327   4.050   6.144   1.340
10143SOL    HW131328   3.987   6.082   1.387
10143SOL    HW231329   4.067   6.110   1.247
10144SOL     OW31330   3.379   4.973   2.324
10144SOL    HW131331   3.311   4.899   2.318
10144SOL    HW231332   3.404   4.986   2.420
10145SOL     OW31333   2.184   0.512   5.847
10145SOL    HW131334   2.244   0.453   5.793
10145SOL    HW231335   2.163   0.595   5.795
10146SOL     OW31336   4.452   4.546   3.866
10146SOL    HW131337   4.434   4.460   3.817
10146SOL    HW231338   4.540   4.582   3.838
10147SOL     OW31339   5.378   5.588   4.687
10147SOL    HW131340   5.287   5.629   4.675
10147SOL    HW231341   5.376   5.494   4.653
10148SOL     OW31342   6.186   5.902   1.355
10148SOL    HW131343   6.229   5.991   1.368
10148SOL    HW231344   6.102   5.913   1.302
10149SOL     OW31345   3.876   2.618   1.668
10149SOL    HW131346   3.886   2.519   1.658
10149SOL    HW231347   3.786   2.639   1.705
10150SOL     OW31348   5.052   4.205   0.888
10150SOL    HW131349   5.124   4.151   0.932
10150SOL    HW231350   5.004   4.259   0.957
10151SOL     OW31351   0.348   5.084   6.062
10151SOL    HW131352   0.258   5.046   6.044
10151SOL    HW231353   0.382   5.130   5.980
10152SOL     OW31354   0.380   5.875   4.172
10152SOL    HW131355   0.446   5.871   4.247
10152SOL    HW231356   0.379   5.967   4.132
10153SOL     OW31357   5.132   5.590   3.987
10153SOL    HW131358   5.048   5.537   3.982
10153SOL    HW231359   5.210   5.532   3.965
10154SOL     OW31360   6.345   5.698   5.486
10154SOL    HW131361   6.381   5.622   5.431
10154SOL    HW231362   6.261   5.668   5.532
10155SOL     OW31363   4.113   1.665   5.736
10155SOL    HW131364   4.133   1.621   5.649
10155SOL    HW231365   4.104   1.763   5.723
10156SOL     OW31366   5.472   6.926   2.129
10156SOL    HW131367   5.387   6.964   2.092
10156SOL    HW231368   5.539   6.916   2.055
10157SOL     OW31369   4.946   0.101   3.152
10157SOL    HW131370   4.947   0.177   3.087
10157SOL    HW231371   5.036   0.059   3.156
10158SOL     OW31372   5.159   3.525   5.720
10158SOL    HW131373   5.126   3.530   5.814
10158SOL    HW231374   5.159   3.616   5.680
10159SOL     OW31375   1.064   0.577   6.754
10159SOL    HW131376   1.098   0.544   6.666
10159SOL    HW231377   1.142   0.604   6.811
10160SOL     OW31378   0.195   6.823   3.776
10160SOL    HW131379   0.237   6.776   3.698
10160SOL    HW231380   0.249   6.904   3.798
10161SOL     OW31381   2.855   5.534   5.167
10161SOL    HW131382   2.910   5.481   5.103
10161SOL    HW231383   2.871   5.501   5.260
10162SOL     OW31384   2.679   2.500   5.750
10162SOL    HW131385   2.749   2.449   5.800
10162SOL    HW231386   2.633   2.439   5.685
10163SOL     OW31387   0.769   3.607   5.254
10163SOL    HW131388   0.843   3.669   5.279
10163SOL    HW231389   0.681   3.646   5.281
10164SOL     OW31390   1.724   3.153   6.687
10164SOL    HW131391   1.787   3.099   6.631
10164SOL    HW231392   1.630   3.128   6.665
10165SOL     OW31393   0.154   1.849   3.398
10165SOL    HW131394   0.060   1.819   3.414
10165SOL    HW231395   0.217   1.772   3.414
10166SOL     OW31396   0.531   1.026   2.131
10166SOL    HW131397   0.471   1.064   2.202
10166SOL    HW231398   0.499   1.055   2.041
10167SOL     OW31399   4.883   0.703   0.177
10167SOL    HW131400   4.940   0.622   0.192
10167SOL    HW231401   4.790   0.675   0.155
10168SOL     OW31402   6.363   4.657   5.862
10168SOL    HW131403   6.415   4.729   5.817
10168SOL    HW231404   6.421   4.609   5.927
10169SOL     OW31405   6.827   4.350   5.210
10169SOL    HW131406   6.758   4.421   5.192
10169SOL    HW231407   6.784   4.260   5.204
10170SOL     OW31408   1.668   4.662   4.642
10170SOL    HW131409   1.661   4.564   4.661
10170SOL    HW231410   1.674   4.676   4.543
10171SOL     OW31411   6.522   2.671   6.063
10171SOL    HW131412   6.472   2.735   6.004
10171SOL    HW231413   6.523   2.581   6.020
10172SOL     OW31414   4.968   0.283   4.825
10172SOL    HW131415   5.035   0.230   4.772
10172SOL    HW231416   4.942   0.233   4.907
10173SOL     OW31417   1.961   2.820   2.677
10173SOL    HW131418   1.875   2.871   2.676
10173SOL    HW231419   1.994   2.808   2.584
10174SOL     OW31420   6.420   5.163   0.991
10174SOL    HW131421   6.463   5.103   0.923
10174SOL    HW231422   6.490   5.213   1.041
10175SOL     OW31423   5.716   2.282   5.339
10175SOL    HW131424   5.742   2.271   5.243
10175SOL    HW231425   5.797   2.308   5.392
10176SOL     OW31426   2.750   3.167   0.689
10176SOL    HW131427   2.678   3.133   0.749
10176SOL    HW231428   2.839   3.155   0.733
10177SOL     OW31429   0.838   6.972   5.668
10177SOL    HW131430   0.795   0.035   5.678
10177SOL    HW231431   0.937   6.984   5.654
10178SOL     OW31432   5.046   3.241   5.074
10178SOL    HW131433   5.078   3.327   5.113
10178SOL    HW231434   5.110   3.168   5.098
10179SOL     OW31435   6.884   3.181   0.253
10179SOL    HW131436   6.943   3.261   0.259
10179SOL    HW231437   6.797   3.206   0.212
10180SOL     OW31438   1.724   6.464   6.743
10180SOL    HW131439   1.774   6.529   6.801
10180SOL    HW231440   1.627   6.466   6.768
10181SOL     OW31441   5.806   3.222   2.536
10181SOL    HW131442   5.854   3.155   2.593
10181SOL    HW231443   5.789   3.183   2.446
10182SOL     OW31444   3.732   1.278   1.054
10182SOL    HW131445   3.662   1.327   1.105
10182SOL    HW231446   3.789   1.343   1.003
10183SOL     OW31447   1.449   1.571   6.217
10183SOL    HW131448   1.539   1.589   6.178
10183SOL    HW231449   1.379   1.614   6.160
10184SOL     OW31450   4.644   0.109   0.157
10184SOL    HW131451   4.598   0.121   0.245
10184SOL    HW231452   4.603   0.169   0.088
10185SOL     OW31453   4.661   1.011   0.358
10185SOL    HW131454   4.571   0.970   0.374
10185SOL    HW231455   4.652   1.087   0.294
10186SOL     OW31456   4.902   2.211   2.668
10186SOL    HW131457   4.951   2.131   2.704
10186SOL    HW231458   4.875   2.271   2.743
10187SOL     OW31459   0.439   2.665   2.294
10187SOL    HW131460   0.435   2.610   2.210
10187SOL    HW231461   0.532   2.664   2.329
10188SOL     OW31462   3.817   6.029   0.807
10188SOL    HW131463   3.771   6.005   0.892
10188SOL    HW231464   3.906   5.984   0.803
10189SOL     OW31465   0.391   6.636   4.385
10189SOL    HW131466   0.456   6.561   4.397
10189SOL    HW231467   0.433   6.708   4.330
10190SOL     OW31468   5.789   3.221   0.531
10190SOL    HW131469   5.763   3.284   0.459
10190SOL    HW231470   5.781   3.127   0.499
10191SOL     OW31471   6.706   4.510   0.120
10191SOL    HW131472   6.663   4.427   0.156
10191SOL    HW231473   6.643   4.588   0.132
10192SOL     OW31474   3.988   1.570   0.589
10192SOL    HW131475   4.077   1.532   0.565
10192SOL    HW231476   3.976   1.657   0.542
10193SOL     OW31477   4.996   4.607   1.101
10193SOL    HW131478   4.961   4.637   1.190
10193SOL    HW231479   5.025   4.687   1.048
10194SOL     OW31480   4.777   2.631   5.030
10194SOL    HW131481   4.695   2.683   5.052
10194SOL    HW231482   4.858   2.681   5.061
10195SOL     OW31483   5.661   5.599   2.448
10195SOL    HW131484   5.626   5.596   2.542
10195SOL    HW231485   5.615   5.530   2.393
10196SOL     OW31486   0.815   1.306   4.389
10196SOL    HW131487   0.867   1.392   4.391
10196SOL    HW231488   0.827   1.259   4.477
10197SOL     OW31489   4.606   0.558   6.581
10197SOL    HW131490   4.650   0.636   6.626
10197SOL    HW231491   4.580   0.585   6.488
10198SOL     OW31492   4.785   0.229   1.547
10198SOL    HW131493   4.692   0.197   1.567
10198SOL    HW231494   4.840   0.152   1.514
10199SOL     OW31495   0.669   2.329   5.763
10199SOL    HW131496   0.713   2.280   5.689
10199SOL    HW231497   0.598   2.271   5.804
10200SOL     OW31498   5.204   2.600   2.776
10200SOL    HW131499   5.106   2.585   2.790
10200SOL    HW231500   5.220   2.628   2.681
10201SOL     OW31501   1.876   3.427   0.846
10201SOL    HW131502   1.896   3.367   0.923
10201SOL    HW231503   1.787   3.403   0.808
10202SOL     OW31504   4.803   0.100   2.832
10202SOL    HW131505   4.770   0.078   2.924
10202SOL    HW231506   4.724   0.116   2.771
10203SOL     OW31507   0.425   3.407   5.512
10203SOL    HW131508   0.376   3.488   5.481
10203SOL    HW231509   0.497   3.384   5.446
10204SOL     OW31510   4.585   4.777   6.209
10204SOL    HW131511   4.505   4.736   6.166
10204SOL    HW231512   4.665   4.718   6.194
10205SOL     OW31513   0.094   1.717   6.970
10205SOL    HW131514   0.082   1.748   0.037
10205SOL    HW231515   0.005   1.706   6.926
10206SOL     OW31516   2.640   2.176   4.435
10206SOL    HW131517   2.545   2.195   4.408
10206SOL    HW231518   2.649   2.079   4.458
10207SOL     OW31519   2.240   2.724   6.244
10207SOL    HW131520   2.320   2.755   6.192
10207SOL    HW231521   2.244   2.624   6.255
10208SOL     OW31522   6.702   0.417   5.522
10208SOL    HW131523   6.796   0.450   5.519
10208SOL    HW231524   6.664   0.415   5.429
10209SOL     OW31525   0.018   6.459   5.488
10209SOL    HW131526   7.017   6.498   5.576
10209SOL    HW231527   7.014   6.519   5.414
10210SOL     OW31528   3.680   0.590   1.973
10210SOL    HW131529   3.635   0.572   1.886
10210SOL    HW231530   3.775   0.615   1.957
10211SOL     OW31531   5.630   5.509   6.725
10211SOL    HW131532   5.719   5.545   6.750
10211SOL    HW231533   5.634   5.468   6.634
10212SOL     OW31534   0.163   0.482   0.575
10212SOL    HW131535   0.235   0.550   0.560
10212SOL    HW231536   0.164   0.415   0.501
10213SOL     OW31537   6.750   2.839   1.794
10213SOL    HW131538   6.791   2.805   1.709
10213SOL    HW231539   6.804   2.808   1.872
10214SOL     OW31540   1.146   2.544   1.472
10214SOL    HW131541   1.130   2.636   1.507
10214SOL    HW231542   1.215   2.498   1.528
10215SOL     OW31543   4.117   3.761   1.976
10215SOL    HW131544   4.097   3.730   2.069
10215SOL    HW231545   4.206   3.805   1.974
10216SOL     OW31546   0.782   6.444   2.087
10216SOL    HW131547   0.794   6.537   2.123
10216SOL    HW231548   0.685   6.426   2.074
10217SOL     OW31549   3.399   1.922   5.179
10217SOL    HW131550   3.497   1.908   5.164
10217SOL    HW231551   3.355   1.942   5.091
10218SOL     OW31552   0.880   2.916   2.887
10218SOL    HW131553   0.806   2.861   2.925
10218SOL    HW231554   0.873   2.916   2.787
10219SOL     OW31555   0.283   6.509   3.088
10219SOL    HW131556   0.243   6.552   3.007
10219SOL    HW231557   0.289   6.575   3.162
10220SOL     OW31558   3.933   3.369   6.742
10220SOL    HW131559   3.864   3.441   6.745
10220SOL    HW231560   3.985   3.369   6.828
10221SOL     OW31561   1.205   5.747   2.914
10221SOL    HW131562   1.136   5.807   2.873
10221SOL    HW231563   1.296   5.785   2.899
10222SOL     OW31564   2.983   3.122   3.169
10222SOL    HW131565   2.990   3.185   3.246
10222SOL    HW231566   2.924   3.045   3.194
10223SOL     OW31567   3.271   6.783   0.704
10223SOL    HW131568   3.243   6.754   0.612
10223SOL    HW231569   3.190   6.793   0.761
10224SOL     OW31570   6.960   3.565   3.985
10224SOL    HW131571   6.899   3.601   3.914
10224SOL    HW231572   6.908   3.505   4.046
10225SOL     OW31573   1.986   3.886   5.615
10225SOL    HW131574   1.908   3.860   5.672
10225SOL    HW231575   1.969   3.976   5.575
10226SOL     OW31576   3.793   5.095   6.320
10226SOL    HW131577   3.741   5.013   6.343
10226SOL    HW231578   3.815   5.095   6.223
10227SOL     OW31579   5.238   4.095   1.040
10227SOL    HW131580   5.307   4.022   1.034
10227SOL    HW231581   5.189   4.087   1.127
10228SOL     OW31582   5.219   6.834   6.856
10228SOL    HW131583   5.220   6.912   6.795
10228SOL    HW231584   5.312   6.799   6.867
10229SOL     OW31585   0.498   2.236   5.038
10229SOL    HW131586   0.410   2.280   5.057
10229SOL    HW231587   0.510   2.228   4.940
10230SOL     OW31588   5.855   5.808   1.588
10230SOL    HW131589   5.853   5.898   1.545
10230SOL    HW231590   5.948   5.771   1.583
10231SOL     OW31591   0.121   3.854   1.895
10231SOL    HW131592   0.121   3.947   1.932
10231SOL    HW231593   0.098   3.789   1.968
10232SOL     OW31594   4.651   4.723   2.278
10232SOL    HW131595   4.697   4.635   2.266
10232SOL    HW231596   4.686   4.767   2.361
10233SOL     OW31597   3.573   3.245   5.732
10233SOL    HW131598   3.550   3.266   5.637
10233SOL    HW231599   3.660   3.196   5.736
10234SOL     OW31600   0.960   0.588   1.995
10234SOL    HW131601   1.049   0.621   1.963
10234SOL    HW231602   0.889   0.654   1.970
10235SOL     OW31603   0.990   0.359   2.790
10235SOL    HW131604   0.949   0.268   2.778
10235SOL    HW231605   0.927   0.416   2.843
10236SOL     OW31606   1.038   0.673   2.814
10236SOL    HW131607   1.041   0.768   2.844
10236SOL    HW231608   1.118   0.654   2.757
10237SOL     OW31609   6.888   3.930   5.677
10237SOL    HW131610   6.789   3.912   5.671
10237SOL    HW231611   6.937   3.867   5.616
10238SOL     OW31612   2.799   0.182   0.689
10238SOL    HW131613   2.701   0.202   0.690
10238SOL    HW231614   2.827   0.147   0.778
10239SOL     OW31615   1.056   2.632   5.078
10239SOL    HW131616   1.101   2.613   4.991
10239SOL    HW231617   0.959   2.651   5.062
10240SOL     OW31618   1.266   6.645   1.096
10240SOL    HW131619   1.260   6.658   0.997
10240SOL    HW231620   1.175   6.626   1.133
10241SOL     OW31621   4.495   3.842   1.571
10241SOL    HW131622   4.490   3.878   1.478
10241SOL    HW231623   4.422   3.882   1.627
10242SOL     OW31624   0.746   3.441   1.688
10242SOL    HW131625   0.648   3.430   1.668
10242SOL    HW231626   0.771   3.379   1.763
10243SOL     OW31627   3.983   5.386   1.894
10243SOL    HW131628   3.918   5.395   1.818
10243SOL    HW231629   4.020   5.293   1.895
10244SOL     OW31630   2.080   5.673   1.401
10244SOL    HW131631   1.987   5.650   1.428
10244SOL    HW231632   2.144   5.616   1.453
10245SOL     OW31633   6.306   3.910   1.050
10245SOL    HW131634   6.369   3.908   1.128
10245SOL    HW231635   6.212   3.921   1.084
10246SOL     OW31636   3.425   3.533   3.567
10246SOL    HW131637   3.486   3.600   3.526
10246SOL    HW231638   3.347   3.517   3.506
10247SOL     OW31639   0.717   3.602   4.896
10247SOL    HW131640   0.677   3.692   4.877
10247SOL    HW231641   0.764   3.605   4.984
10248SOL     OW31642   0.942   1.375   4.127
10248SOL    HW131643   0.914   1.367   4.031
10248SOL    HW231644   0.862   1.364   4.186
10249SOL     OW31645   2.869   4.874   6.216
10249SOL    HW131646   2.949   4.870   6.276
10249SOL    HW231647   2.899   4.883   6.121
10250SOL     OW31648   2.891   2.847   0.270
10250SOL    HW131649   2.843   2.934   0.280
10250SOL    HW231650   2.879   2.812   0.177
10251SOL     OW31651   0.987   1.044   4.941
10251SOL    HW131652   0.948   1.054   5.032
10251SOL    HW231653   0.914   1.026   4.875
10252SOL     OW31654   5.569   3.737   5.995
10252SOL    HW131655   5.638   3.783   5.940
10252SOL    HW231656   5.552   3.646   5.959
10253SOL     OW31657   3.878   5.476   0.849
10253SOL    HW131658   3.841   5.568   0.839
10253SOL    HW231659   3.810   5.409   0.819
10254SOL     OW31660   6.574   1.837   6.443
10254SOL    HW131661   6.633   1.907   6.482
10254SOL    HW231662   6.576   1.755   6.500
10255SOL     OW31663   4.086   4.233   1.645
10255SOL    HW131664   4.136   4.158   1.602
10255SOL    HW231665   4.145   4.313   1.652
10256SOL     OW31666   2.131   0.443   4.124
10256SOL    HW131667   2.068   0.423   4.049
10256SOL    HW231668   2.169   0.358   4.160
10257SOL     OW31669   3.679   6.135   2.960
10257SOL    HW131670   3.603   6.139   3.025
10257SOL    HW231671   3.699   6.040   2.937
10258SOL     OW31672   3.480   1.500   2.180
10258SOL    HW131673   3.420   1.542   2.111
10258SOL    HW231674   3.569   1.481   2.138
10259SOL     OW31675   2.198   3.800   3.475
10259SOL    HW131676   2.242   3.711   3.484
10259SOL    HW231677   2.178   3.818   3.379
10260SOL     OW31678   0.047   0.574   4.048
10260SOL    HW131679   0.039   0.674   4.045
10260SOL    HW231680   0.134   0.549   4.090
10261SOL     OW31681   6.312   3.773   1.635
10261SOL    HW131682   6.334   3.694   1.579
10261SOL    HW231683   6.222   3.808   1.610
10262SOL     OW31684   4.539   1.001   6.665
10262SOL    HW131685   4.453   1.051   6.675
10262SOL    HW231686   4.583   1.026   6.579
10263SOL     OW31687   5.648   0.458   2.827
10263SOL    HW131688   5.692   0.473   2.738
10263SOL    HW231689   5.613   0.545   2.861
10264SOL     OW31690   6.647   1.381   6.173
10264SOL    HW131691   6.746   1.379   6.160
10264SOL    HW231692   6.606   1.442   6.105
10265SOL     OW31693   1.418   1.161   2.504
10265SOL    HW131694   1.505   1.138   2.547
10265SOL    HW231695   1.393   1.090   2.438
10266SOL     OW31696   2.700   3.722   1.668
10266SOL    HW131697   2.659   3.805   1.705
10266SOL    HW231698   2.769   3.688   1.731
10267SOL     OW31699   6.126   0.921   0.367
10267SOL    HW131700   6.173   0.836   0.389
10267SOL    HW231701   6.185   0.999   0.390
10268SOL     OW31702   4.022   5.895   2.905
10268SOL    HW131703   4.092   5.932   2.967
10268SOL    HW231704   4.037   5.931   2.813
10269SOL     OW31705   2.574   1.443   6.288
10269SOL    HW131706   2.532   1.459   6.199
10269SOL    HW231707   2.506   1.401   6.349
10270SOL     OW31708   2.817   0.385   3.590
10270SOL    HW131709   2.854   0.462   3.537
10270SOL    HW231710   2.726   0.409   3.625
10271SOL     OW31711   2.171   1.110   0.107
10271SOL    HW131712   2.141   1.204   0.088
10271SOL    HW231713   2.268   1.111   0.131
10272SOL     OW31714   5.818   6.395   5.238
10272SOL    HW131715   5.754   6.448   5.183
10272SOL    HW231716   5.791   6.399   5.334
10273SOL     OW31717   2.020   5.472   2.341
10273SOL    HW131718   2.107   5.422   2.348
10273SOL    HW231719   1.953   5.416   2.294
10274SOL     OW31720   0.855   4.455   5.101
10274SOL    HW131721   0.842   4.380   5.165
10274SOL    HW231722   0.795   4.531   5.125
10275SOL     OW31723   0.329   1.165   1.798
10275SOL    HW131724   0.241   1.160   1.845
10275SOL    HW231725   0.374   1.076   1.803
10276SOL     OW31726   3.504   4.955   5.247
10276SOL    HW131727   3.566   4.880   5.269
10276SOL    HW231728   3.428   4.955   5.313
10277SOL     OW31729   0.381   5.384   3.500
10277SOL    HW131730   0.320   5.341   3.434
10277SOL    HW231731   0.473   5.391   3.462
10278SOL     OW31732   5.607   0.334   4.210
10278SOL    HW131733   5.704   0.317   4.194
10278SOL    HW231734   5.596   0.415   4.267
10279SOL     OW31735   1.189   5.213   4.285
10279SOL    HW131736   1.284   5.214   4.315
10279SOL    HW231737   1.180   5.268   4.202
10280SOL     OW31738   6.342   5.807   0.702
10280SOL    HW131739   6.331   5.822   0.604
10280SOL    HW231740   6.367   5.893   0.746
10281SOL     OW31741   6.118   6.721   4.343
10281SOL    HW131742   6.123   6.815   4.376
10281SOL    HW231743   6.073   6.720   4.253
10282SOL     OW31744   5.345   2.449   3.603
10282SOL    HW131745   5.428   2.446   3.548
10282SOL    HW231746   5.289   2.528   3.577
10283SOL     OW31747   0.104   2.397   1.072
10283SOL    HW131748   0.134   2.303   1.089
10283SOL    HW231749   0.097   2.446   1.159
10284SOL     OW31750   1.193   5.202   5.258
10284SOL    HW131751   1.196   5.102   5.251
10284SOL    HW231752   1.243   5.241   5.181
10285SOL     OW31753   0.221   0.014   5.967
10285SOL    HW131754   0.245   0.108   5.992
10285SOL    HW231755   0.253   7.022   5.875
10286SOL     OW31756   3.306   0.748   1.496
10286SOL    HW131757   3.357   0.757   1.410
10286SOL    HW231758   3.337   0.819   1.560
10287SOL     OW31759   0.745   5.985   3.233
10287SOL    HW131760   0.647   5.969   3.237
10287SOL    HW231761   0.774   5.989   3.138
10288SOL     OW31762   3.903   6.159   4.631
10288SOL    HW131763   3.864   6.119   4.714
10288SOL    HW231764   3.864   6.249   4.615
10289SOL     OW31765   3.673   6.375   6.395
10289SOL    HW131766   3.626   6.303   6.343
10289SOL    HW231767   3.605   6.438   6.432
10290SOL     OW31768   3.645   3.241   2.567
10290SOL    HW131769   3.659   3.236   2.665
10290SOL    HW231770   3.554   3.206   2.544
10291SOL     OW31771   3.508   1.954   1.605
10291SOL    HW131772   3.608   1.948   1.603
10291SOL    HW231773   3.480   2.023   1.672
10292SOL     OW31774   0.436   0.955   5.931
10292SOL    HW131775   0.443   0.894   6.010
10292SOL    HW231776   0.528   0.979   5.899
10293SOL     OW31777   1.423   2.987   5.741
10293SOL    HW131778   1.478   3.067   5.765
10293SOL    HW231779   1.369   3.006   5.660
10294SOL     OW31780   0.965   6.790   1.761
10294SOL    HW131781   0.877   6.748   1.780
10294SOL    HW231782   0.965   6.885   1.792
10295SOL     OW31783   2.404   1.048   0.910
10295SOL    HW131784   2.476   0.982   0.891
10295SOL    HW231785   2.436   1.114   0.978
10296SOL     OW31786   0.008   3.225   5.003
10296SOL    HW131787   0.064   3.158   5.052
10296SOL    HW231788   6.946   3.234   5.050
10297SOL     OW31789   3.891   1.519   0.962
10297SOL    HW131790   3.838   1.573   1.027
10297SOL    HW231791   3.969   1.573   0.930
10298SOL     OW31792   1.579   0.660   1.630
10298SOL    HW131793   1.528   0.578   1.659
10298SOL    HW231794   1.620   0.704   1.709
10299SOL     OW31795   5.165   0.005   2.608
10299SOL    HW131796   5.082   0.037   2.561
10299SOL    HW231797   5.152   6.937   2.637
10300SOL     OW31798   0.695   4.039   1.535
10300SOL    HW131799   0.717   3.945   1.562
10300SOL    HW231800   0.632   4.079   1.603
10301SOL     OW31801   4.490   1.270   0.134
10301SOL    HW131802   4.512   1.247   0.039
10301SOL    HW231803   4.564   1.325   0.173
10302SOL     OW31804   2.900   6.121   5.413
10302SOL    HW131805   2.868   6.062   5.339
10302SOL    HW231806   2.897   6.070   5.500
10303SOL     OW31807   0.553   4.688   5.644
10303SOL    HW131808   0.518   4.691   5.737
10303SOL    HW231809   0.636   4.745   5.638
10304SOL     OW31810   4.616   5.230   0.649
10304SOL    HW131811   4.635   5.161   0.580
10304SOL    HW231812   4.638   5.194   0.740
10305SOL     OW31813   2.895   3.343   4.982
10305SOL    HW131814   2.893   3.299   4.892
10305SOL    HW231815   2.871   3.277   5.053
10306SOL     OW31816   3.633   1.161   1.686
10306SOL    HW131817   3.690   1.170   1.604
10306SOL    HW231818   3.689   1.127   1.762
10307SOL     OW31819   1.877   6.103   5.012
10307SOL    HW131820   1.891   6.009   5.043
10307SOL    HW231821   1.951   6.128   4.949
10308SOL     OW31822   2.475   4.598   2.194
10308SOL    HW131823   2.564   4.602   2.238
10308SOL    HW231824   2.468   4.672   2.127
10309SOL     OW31825   0.451   0.989   4.583
10309SOL    HW131826   0.453   0.988   4.483
10309SOL    HW231827   0.478   0.899   4.618
10310SOL     OW31828   2.908   4.371   6.557
10310SOL    HW131829   2.940   4.438   6.490
10310SOL    HW231830   2.952   4.283   6.540
10311SOL     OW31831   5.174   6.206   6.948
10311SOL    HW131832   5.183   6.293   6.997
10311SOL    HW231833   5.237   6.139   6.987
10312SOL     OW31834   2.234   6.619   1.356
10312SOL    HW131835   2.291   6.648   1.433
10312SOL    HW231836   2.159   6.685   1.344
10313SOL     OW31837   4.827   6.522   3.032
10313SOL    HW131838   4.748   6.462   3.021
10313SOL    HW231839   4.799   6.608   3.075
10314SOL     OW31840   0.533   6.674   0.534
10314SOL    HW131841   0.470   6.750   0.549
10314SOL    HW231842   0.612   6.683   0.595
10315SOL     OW31843   5.213   4.715   4.007
10315SOL    HW131844   5.237   4.723   4.103
10315SOL    HW231845   5.211   4.806   3.965
10316SOL     OW31846   1.416   2.056   0.245
10316SOL    HW131847   1.434   2.154   0.245
10316SOL    HW231848   1.468   2.012   0.317
10317SOL     OW31849   4.186   5.842   4.640
10317SOL    HW131850   4.262   5.784   4.670
10317SOL    HW231851   4.220   5.936   4.627
10318SOL     OW31852   6.225   6.994   7.001
10318SOL    HW131853   6.194   0.062   6.995
10318SOL    HW231854   6.277   6.981   0.059
10319SOL     OW31855   1.191   4.421   4.550
10319SOL    HW131856   1.223   4.488   4.618
10319SOL    HW231857   1.260   4.412   4.478
10320SOL     OW31858   7.004   6.764   3.038
10320SOL    HW131859   6.971   6.675   3.069
10320SOL    HW231860   7.018   6.824   3.116
10321SOL     OW31861   5.829   2.222   3.935
10321SOL    HW131862   5.857   2.300   3.991
10321SOL    HW231863   5.908   2.165   3.914
10322SOL     OW31864   4.570   4.583   4.742
10322SOL    HW131865   4.493   4.550   4.796
10322SOL    HW231866   4.573   4.683   4.745
10323SOL     OW31867   0.642   4.868   6.056
10323SOL    HW131868   0.655   4.781   6.104
10323SOL    HW231869   0.612   4.937   6.121
10324SOL     OW31870   3.326   3.235   2.557
10324SOL    HW131871   3.281   3.275   2.637
10324SOL    HW231872   3.298   3.284   2.475
10325SOL     OW31873   5.862   5.792   5.487
10325SOL    HW131874   5.789   5.853   5.520
10325SOL    HW231875   5.863   5.792   5.387
10326SOL     OW31876   5.106   3.930   6.577
10326SOL    HW131877   5.140   3.919   6.483
10326SOL    HW231878   5.098   4.027   6.598
10327SOL     OW31879   1.656   5.746   0.003
10327SOL    HW131880   1.589   5.728   6.957
10327SOL    HW231881   1.732   5.681   7.022
10328SOL     OW31882   6.546   2.176   3.586
10328SOL    HW131883   6.624   2.118   3.608
10328SOL    HW231884   6.519   2.161   3.491
10329SOL     OW31885   3.743   2.044   1.770
10329SOL    HW131886   3.717   2.112   1.839
10329SOL    HW231887   3.802   1.975   1.812
10330SOL     OW31888   5.073   6.363   1.974
10330SOL    HW131889   5.021   6.355   1.889
10330SOL    HW231890   5.071   6.276   2.023
10331SOL     OW31891   5.294   5.399   5.564
10331SOL    HW131892   5.351   5.472   5.527
10331SOL    HW231893   5.254   5.429   5.651
10332SOL     OW31894   1.972   0.979   6.544
10332SOL    HW131895   1.967   1.074   6.515
10332SOL    HW231896   2.046   0.967   6.610
10333SOL     OW31897   1.574   3.559   3.906
10333SOL    HW131898   1.597   3.537   3.811
10333SOL    HW231899   1.474   3.566   3.915
10334SOL     OW31900   3.998   1.370   4.176
10334SOL    HW131901   4.065   1.379   4.250
10334SOL    HW231902   3.973   1.460   4.142
10335SOL     OW31903   2.031   3.738   3.884
10335SOL    HW131904   1.941   3.705   3.915
10335SOL    HW231905   2.102   3.675   3.915
10336SOL     OW31906   5.900   6.536   3.045
10336SOL    HW131907   5.974   6.587   3.089
10336SOL    HW231908   5.880   6.454   3.098
10337SOL     OW31909   5.941   6.562   6.470
10337SOL    HW131910   5.897   6.624   6.535
10337SOL    HW231911   5.899   6.471   6.477
10338SOL     OW31912   0.243   5.926   2.064
10338SOL    HW131913   0.189   6.009   2.081
10338SOL    HW231914   0.296   5.938   1.980
10339SOL     OW31915   5.580   2.421   5.842
10339SOL    HW131916   5.528   2.412   5.757
10339SOL    HW231917   5.605   2.331   5.876
10340SOL     OW31918   3.478   3.161   6.647
10340SOL    HW131919   3.575   3.142   6.664
10340SOL    HW231920   3.451   3.118   6.560
10341SOL     OW31921   3.920   4.889   3.322
10341SOL    HW131922   3.925   4.847   3.231
10341SOL    HW231923   4.006   4.874   3.370
10342SOL     OW31924   0.822   1.846   3.850
10342SOL    HW131925   0.784   1.769   3.903
10342SOL    HW231926   0.779   1.848   3.760
10343SOL     OW31927   4.271   5.348   1.361
10343SOL    HW131928   4.339   5.275   1.371
10343SOL    HW231929   4.179   5.308   1.364
10344SOL     OW31930   4.961   6.822   6.954
10344SOL    HW131931   5.058   6.841   6.937
10344SOL    HW231932   4.930   6.877   0.005
10345SOL     OW31933   0.666   4.696   4.802
10345SOL    HW131934   0.748   4.665   4.755
10345SOL    HW231935   0.599   4.622   4.806
10346SOL     OW31936   1.022   5.033   0.760
10346SOL    HW131937   0.977   5.122   0.763
10346SOL    HW231938   1.018   4.990   0.851
10347SOL     OW31939   0.526   1.947   5.322
10347SOL    HW131940   0.589   1.898   5.262
10347SOL    HW231941   0.502   1.890   5.400
10348SOL     OW31942   0.160   5.382   1.207
10348SOL    HW131943   0.084   5.413   1.264
10348SOL    HW231944   0.183   5.288   1.230
10349SOL     OW31945   6.618   0.091   6.687
10349SOL    HW131946   6.684   0.154   6.646
10349SOL    HW231947   6.636   7.025   6.654
10350SOL     OW31948   4.176   0.114   6.804
10350SOL    HW131949   4.084   0.082   6.783
10350SOL    HW231950   4.212   0.063   6.883
10351SOL     OW31951   4.291   5.715   6.244
10351SOL    HW131952   4.296   5.814   6.252
10351SOL    HW231953   4.331   5.673   6.326
10352SOL     OW31954   4.367   4.963   5.888
10352SOL    HW131955   4.415   5.022   5.953
10352SOL    HW231956   4.324   4.887   5.936
10353SOL     OW31957   0.308   3.484   4.737
10353SOL    HW131958   0.305   3.551   4.812
10353SOL    HW231959   0.216   3.472   4.700
10354SOL     OW31960   5.478   1.260   1.090
10354SOL    HW131961   5.414   1.190   1.120
10354SOL    HW231962   5.547   1.218   1.030
10355SOL     OW31963   0.758   4.614   2.869
10355SOL    HW131964   0.744   4.581   2.775
10355SOL    HW231965   0.712   4.552   2.932
10356SOL     OW31966   0.622   3.250   5.086
10356SOL    HW131967   0.603   3.301   5.002
10356SOL    HW231968   0.655   3.159   5.063
10357SOL     OW31969   3.097   2.906   6.457
10357SOL    HW131970   3.050   2.880   6.373
10357SOL    HW231971   3.178   2.960   6.434
10358SOL     OW31972   0.680   0.394   2.066
10358SOL    HW131973   0.685   0.411   1.967
10358SOL    HW231974   0.703   0.478   2.115
10359SOL     OW31975   1.662   1.695   0.579
10359SOL    HW131976   1.608   1.674   0.661
10359SOL    HW231977   1.615   1.660   0.498
10360SOL     OW31978   0.464   4.285   3.870
10360SOL    HW131979   0.553   4.327   3.887
10360SOL    HW231980   0.449   4.211   3.936
10361SOL     OW31981   3.097   5.720   0.164
10361SOL    HW131982   3.085   5.649   0.233
10361SOL    HW231983   3.193   5.746   0.159
10362SOL     OW31984   0.483   4.976   5.237
10362SOL    HW131985   0.479   4.879   5.213
10362SOL    HW231986   0.412   4.997   5.304
10363SOL     OW31987   5.171   0.770   4.945
10363SOL    HW131988   5.256   0.717   4.939
10363SOL    HW231989   5.151   0.791   5.041
10364SOL     OW31990   1.165   3.752   1.015
10364SOL    HW131991   1.088   3.813   1.030
10364SOL    HW231992   1.183   3.744   0.917
10365SOL     OW31993   5.511   4.847   6.767
10365SOL    HW131994   5.558   4.915   6.822
10365SOL    HW231995   5.484   4.770   6.825
10366SOL     OW31996   4.698   6.984   3.704
10366SOL    HW131997   4.746   0.045   3.701
10366SOL    HW231998   4.698   6.942   3.613
10367SOL     OW31999   5.886   1.367   3.385
10367SOL    HW132000   5.980   1.344   3.407
10367SOL    HW232001   5.879   1.465   3.364
10368SOL     OW32002   2.266   6.992   1.013
10368SOL    HW132003   2.260   0.038   0.943
10368SOL    HW232004   2.189   6.929   1.002
10369SOL     OW32005   5.136   2.912   6.311
10369SOL    HW132006   5.200   2.972   6.263
10369SOL    HW232007   5.076   2.967   6.369
10370SOL     OW32008   2.643   0.414   4.903
10370SOL    HW132009   2.677   0.503   4.933
10370SOL    HW232010   2.702   0.379   4.830
10371SOL     OW32011   4.781   6.134   5.739
10371SOL    HW132012   4.820   6.190   5.665
10371SOL    HW232013   4.698   6.179   5.773
10372SOL     OW32014   0.159   1.153   4.511
10372SOL    HW132015   0.231   1.211   4.472
10372SOL    HW232016   0.129   1.087   4.442
10373SOL     OW32017   1.454   6.753   5.427
10373SOL    HW132018   1.524   6.804   5.477
10373SOL    HW232019   1.364   6.788   5.451
10374SOL     OW32020   3.792   1.310   3.582
10374SOL    HW132021   3.781   1.373   3.659
10374SOL    HW232022   3.879   1.328   3.536
10375SOL     OW32023   6.758   2.576   1.273
10375SOL    HW132024   6.747   2.511   1.349
10375SOL    HW232025   6.847   2.619   1.279
10376SOL     OW32026   5.609   0.196   3.957
10376SOL    HW132027   5.552   0.114   3.946
10376SOL    HW232028   5.582   0.244   4.040
10377SOL     OW32029   6.286   6.604   3.618
10377SOL    HW132030   6.272   6.516   3.572
10377SOL    HW232031   6.282   6.590   3.717
10378SOL     OW32032   6.830   6.651   5.469
10378SOL    HW132033   6.875   6.738   5.486
10378SOL    HW232034   6.827   6.634   5.371
10379SOL     OW32035   4.230   1.324   5.177
10379SOL    HW132036   4.249   1.259   5.250
10379SOL    HW232037   4.168   1.282   5.110
10380SOL     OW32038   3.339   0.789   4.594
10380SOL    HW132039   3.436   0.762   4.600
10380SOL    HW232040   3.333   0.886   4.572
10381SOL     OW32041   3.232   5.489   5.010
10381SOL    HW132042   3.318   5.454   4.972
10381SOL    HW232043   3.196   5.561   4.950
10382SOL     OW32044   0.210   5.127   1.264
10382SOL    HW132045   0.144   5.086   1.201
10382SOL    HW232046   0.301   5.124   1.223
10383SOL     OW32047   5.533   3.528   1.209
10383SOL    HW132048   5.528   3.487   1.300
10383SOL    HW232049   5.628   3.535   1.181
10384SOL     OW32050   4.960   1.446   0.018
10384SOL    HW132051   4.879   1.393   7.021
10384SOL    HW232052   4.942   1.499   0.101
10385SOL     OW32053   6.606   3.074   6.631
10385SOL    HW132054   6.601   3.107   6.725
10385SOL    HW232055   6.682   3.120   6.584
10386SOL     OW32056   0.102   1.536   6.198
10386SOL    HW132057   0.192   1.561   6.162
10386SOL    HW232058   0.031   1.585   6.148
10387SOL     OW32059   1.336   3.955   3.123
10387SOL    HW132060   1.381   3.998   3.201
10387SOL    HW232061   1.301   4.025   3.061
10388SOL     OW32062   2.286   4.413   2.069
10388SOL    HW132063   2.264   4.412   2.167
10388SOL    HW232064   2.370   4.466   2.055
10389SOL     OW32065   1.697   5.775   3.208
10389SOL    HW132066   1.748   5.853   3.244
10389SOL    HW232067   1.699   5.779   3.108
10390SOL     OW32068   2.082   3.515   3.421
10390SOL    HW132069   2.042   3.588   3.364
10390SOL    HW232070   2.069   3.538   3.517
10391SOL     OW32071   3.374   5.224   4.139
10391SOL    HW132072   3.454   5.231   4.079
10391SOL    HW232073   3.354   5.314   4.177
10392SOL     OW32074   7.004   5.641   0.225
10392SOL    HW132075   0.027   5.624   0.140
10392SOL    HW232076   6.908   5.619   0.213
10393SOL     OW32077   1.635   1.501   4.419
10393SOL    HW132078   1.656   1.559   4.341
10393SOL    HW232079   1.703   1.516   4.491
10394SOL     OW32080   3.199   6.480   0.780
10394SOL    HW132081   3.121   6.433   0.820
10394SOL    HW232082   3.214   6.566   0.827
10395SOL     OW32083   1.299   0.066   3.690
10395SOL    HW132084   1.219   0.075   3.750
10395SOL    HW232085   1.358   7.019   3.724
10396SOL     OW32086   0.474   0.786   4.167
10396SOL    HW132087   0.559   0.839   4.162
10396SOL    HW232088   0.428   0.806   4.253
10397SOL     OW32089   4.714   2.712   2.817
10397SOL    HW132090   4.705   2.800   2.771
10397SOL    HW232091   4.810   2.697   2.842
10398SOL     OW32092   0.694   2.497   2.587
10398SOL    HW132093   0.677   2.557   2.509
10398SOL    HW232094   0.640   2.414   2.578
10399SOL     OW32095   7.024   2.816   5.954
10399SOL    HW132096   0.084   2.837   5.909
10399SOL    HW232097   0.015   2.774   6.042
10400SOL     OW32098   1.895   4.972   2.483
10400SOL    HW132099   1.812   5.013   2.444
10400SOL    HW232100   1.930   4.902   2.420
10401SOL     OW32101   0.939   6.058   1.192
10401SOL    HW132102   0.995   6.071   1.274
10401SOL    HW232103   0.995   6.076   1.110
10402SOL     OW32104   1.270   2.602   4.871
10402SOL    HW132105   1.231   2.529   4.814
10402SOL    HW232106   1.318   2.667   4.813
10403SOL     OW32107   5.573   0.844   3.277
10403SOL    HW132108   5.664   0.830   3.238
10403SOL    HW232109   5.514   0.890   3.211
10404SOL     OW32110   6.423   0.273   4.827
10404SOL    HW132111   6.498   0.207   4.830
10404SOL    HW232112   6.385   0.276   4.735
10405SOL     OW32113   3.763   0.247   6.475
10405SOL    HW132114   3.787   0.341   6.450
10405SOL    HW232115   3.843   0.200   6.512
10406SOL     OW32116   1.349   6.328   4.945
10406SOL    HW132117   1.406   6.339   5.027
10406SOL    HW232118   1.272   6.269   4.966
10407SOL     OW32119   3.656   0.949   6.909
10407SOL    HW132120   3.660   1.046   6.884
10407SOL    HW232121   3.576   0.907   6.867
10408SOL     OW32122   2.947   0.011   2.551
10408SOL    HW132123   2.921   0.036   2.457
10408SOL    HW232124   3.032   6.985   2.549
10409SOL     OW32125   0.088   4.533   2.098
10409SOL    HW132126   0.087   4.610   2.034
10409SOL    HW232127   0.090   4.447   2.047
10410SOL     OW32128   5.508   4.991   0.902
10410SOL    HW132129   5.465   4.961   0.817
10410SOL    HW232130   5.591   4.939   0.917
10411SOL     OW32131   2.397   5.150   1.966
10411SOL    HW132132   2.455   5.085   2.016
10411SOL    HW232133   2.446   5.183   1.885
10412SOL     OW32134   1.108   4.000   6.004
10412SOL    HW132135   1.038   3.998   6.076
10412SOL    HW232136   1.158   4.086   6.009
10413SOL     OW32137   0.082   1.160   5.549
10413SOL    HW132138   0.009   1.227   5.540
10413SOL    HW232139   0.111   1.154   5.645
10414SOL     OW32140   5.450   5.285   4.934
10414SOL    HW132141   5.545   5.312   4.949
10414SOL    HW232142   5.394   5.367   4.919
10415SOL     OW32143   7.016   4.349   2.908
10415SOL    HW132144   0.019   4.412   2.979
10415SOL    HW232145   7.024   4.393   2.818
10416SOL     OW32146   5.124   0.744   6.952
10416SOL    HW132147   5.104   0.692   0.008
10416SOL    HW232148   5.039   0.778   6.912
10417SOL     OW32149   5.016   4.249   4.446
10417SOL    HW132150   5.087   4.232   4.515
10417SOL    HW232151   5.044   4.210   4.359
10418SOL     OW32152   6.110   3.146   0.215
10418SOL    HW132153   6.060   3.232   0.227
10418SOL    HW232154   6.075   3.078   0.280
10419SOL     OW32155   1.188   0.183   4.582
10419SOL    HW132156   1.099   0.189   4.629
10419SOL    HW232157   1.175   0.196   4.484
10420SOL     OW32158   6.509   3.896   4.385
10420SOL    HW132159   6.411   3.911   4.371
10420SOL    HW232160   6.540   3.949   4.464
10421SOL     OW32161   0.439   3.645   4.011
10421SOL    HW132162   0.481   3.732   4.037
10421SOL    HW232163   0.340   3.657   4.001
10422SOL     OW32164   5.750   2.990   6.155
10422SOL    HW132165   5.728   2.968   6.250
10422SOL    HW232166   5.787   3.083   6.150
10423SOL     OW32167   2.617   5.910   1.852
10423SOL    HW132168   2.526   5.952   1.849
10423SOL    HW232169   2.685   5.976   1.821
10424SOL     OW32170   5.114   0.852   2.869
10424SOL    HW132171   5.135   0.949   2.859
10424SOL    HW232172   5.050   0.824   2.798
10425SOL     OW32173   0.551   4.739   0.880
10425SOL    HW132174   0.557   4.643   0.850
10425SOL    HW232175   0.481   4.786   0.827
10426SOL     OW32176   6.404   2.984   6.914
10426SOL    HW132177   6.382   2.998   6.817
10426SOL    HW232178   6.458   3.061   6.948
10427SOL     OW32179   5.914   0.964   3.574
10427SOL    HW132180   5.869   1.029   3.512
10427SOL    HW232181   5.890   0.871   3.548
10428SOL     OW32182   1.595   0.591   5.223
10428SOL    HW132183   1.584   0.496   5.253
10428SOL    HW232184   1.506   0.633   5.210
10429SOL     OW32185   2.467   4.789   1.987
10429SOL    HW132186   2.548   4.845   2.005
10429SOL    HW232187   2.420   4.824   1.906
10430SOL     OW32188   3.608   1.755   4.666
10430SOL    HW132189   3.667   1.682   4.698
10430SOL    HW232190   3.600   1.751   4.567
10431SOL     OW32191   4.453   1.709   3.797
10431SOL    HW132192   4.500   1.794   3.773
10431SOL    HW232193   4.357   1.716   3.770
10432SOL     OW32194   1.665   4.478   1.429
10432SOL    HW132195   1.724   4.516   1.500
10432SOL    HW232196   1.610   4.404   1.468
10433SOL     OW32197   3.571   6.443   3.761
10433SOL    HW132198   3.600   6.372   3.697
10433SOL    HW232199   3.617   6.431   3.849
10434SOL     OW32200   4.910   1.977   0.814
10434SOL    HW132201   4.852   1.960   0.894
10434SOL    HW232202   4.881   1.919   0.738
10435SOL     OW32203   2.874   1.223   1.537
10435SOL    HW132204   2.816   1.289   1.491
10435SOL    HW232205   2.957   1.207   1.483
10436SOL     OW32206   1.646   3.988   5.128
10436SOL    HW132207   1.690   4.052   5.066
10436SOL    HW232208   1.655   4.022   5.222
10437SOL     OW32209   6.844   6.877   5.218
10437SOL    HW132210   6.794   6.959   5.247
10437SOL    HW232211   6.942   6.892   5.228
10438SOL     OW32212   6.745   5.827   0.013
10438SOL    HW132213   6.829   5.794   6.998
10438SOL    HW232214   6.757   5.922   0.041
10439SOL     OW32215   5.826   5.016   5.903
10439SOL    HW132216   5.788   4.925   5.920
10439SOL    HW232217   5.814   5.039   5.806
10440SOL     OW32218   5.260   2.552   2.088
10440SOL    HW132219   5.285   2.464   2.130
10440SOL    HW232220   5.301   2.556   1.996
10441SOL     OW32221   5.278   1.580   5.505
10441SOL    HW132222   5.284   1.497   5.561
10441SOL    HW232223   5.362   1.589   5.451
10442SOL     OW32224   2.704   0.704   6.041
10442SOL    HW132225   2.673   0.717   6.135
10442SOL    HW232226   2.729   0.608   6.028
10443SOL     OW32227   1.099   1.366   6.842
10443SOL    HW132228   1.172   1.432   6.861
10443SOL    HW232229   1.048   1.348   6.927
10444SOL     OW32230   4.500   5.712   3.614
10444SOL    HW132231   4.571   5.747   3.551
10444SOL    HW232232   4.542   5.649   3.679
10445SOL     OW32233   1.302   3.304   3.367
10445SOL    HW132234   1.272   3.276   3.459
10445SOL    HW232235   1.391   3.263   3.348
10446SOL     OW32236   2.961   4.787   5.260
10446SOL    HW132237   2.911   4.762   5.343
10446SOL    HW232238   2.961   4.710   5.197
10447SOL     OW32239   1.758   2.650   3.158
10447SOL    HW132240   1.713   2.610   3.078
10447SOL    HW232241   1.699   2.637   3.238
10448SOL     OW32242   0.538   4.776   1.751
10448SOL    HW132243   0.606   4.845   1.777
10448SOL    HW232244   0.559   4.742   1.659
10449SOL     OW32245   3.840   5.505   4.412
10449SOL    HW132246   3.786   5.424   4.390
10449SOL    HW232247   3.791   5.587   4.382
10450SOL     OW32248   0.736   2.724   4.624
10450SOL    HW132249   0.795   2.643   4.619
10450SOL    HW232250   0.701   2.745   4.534
10451SOL     OW32251   2.049   2.004   5.228
10451SOL    HW132252   1.998   2.049   5.155
10451SOL    HW232253   2.117   2.066   5.266
10452SOL     OW32254   0.056   2.958   4.689
10452SOL    HW132255   0.155   2.941   4.695
10452SOL    HW232256   0.009   2.874   4.664
10453SOL     OW32257   3.148   5.517   3.713
10453SOL    HW132258   3.071   5.453   3.721
10453SOL    HW232259   3.138   5.590   3.780
10454SOL     OW32260   6.927   2.722   6.749
10454SOL    HW132261   6.974   2.810   6.745
10454SOL    HW232262   6.879   2.706   6.662
10455SOL     OW32263   0.793   6.054   2.950
10455SOL    HW132264   0.828   6.146   2.933
10455SOL    HW232265   0.769   6.010   2.863
10456SOL     OW32266   1.142   6.063   5.859
10456SOL    HW132267   1.166   6.012   5.776
10456SOL    HW232268   1.138   6.000   5.936
10457SOL     OW32269   4.350   1.894   1.052
10457SOL    HW132270   4.260   1.880   1.093
10457SOL    HW232271   4.367   1.822   0.985
10458SOL     OW32272   1.976   6.703   6.732
10458SOL    HW132273   1.901   6.764   6.756
10458SOL    HW232274   2.012   6.728   6.642
10459SOL     OW32275   5.290   6.229   1.325
10459SOL    HW132276   5.279   6.131   1.309
10459SOL    HW232277   5.385   6.249   1.348
10460SOL     OW32278   5.934   1.455   6.568
10460SOL    HW132279   5.847   1.502   6.555
10460SOL    HW232280   5.921   1.357   6.557
10461SOL     OW32281   6.662   4.211   5.500
10461SOL    HW132282   6.685   4.160   5.417
10461SOL    HW232283   6.594   4.160   5.553
10462SOL     OW32284   4.629   3.837   0.061
10462SOL    HW132285   4.570   3.880   0.130
10462SOL    HW232286   4.615   3.738   0.061
10463SOL     OW32287   4.316   2.647   5.315
10463SOL    HW132288   4.240   2.616   5.258
10463SOL    HW232289   4.282   2.713   5.382
10464SOL     OW32290   6.143   4.810   1.747
10464SOL    HW132291   6.186   4.745   1.684
10464SOL    HW232292   6.201   4.891   1.756
10465SOL     OW32293   4.963   4.225   0.410
10465SOL    HW132294   5.003   4.310   0.376
10465SOL    HW232295   4.875   4.209   0.365
10466SOL     OW32296   6.274   3.877   5.596
10466SOL    HW132297   6.210   3.954   5.602
10466SOL    HW232298   6.368   3.911   5.607
10467SOL     OW32299   0.262   4.022   6.514
10467SOL    HW132300   0.300   4.037   6.423
10467SOL    HW232301   0.166   3.997   6.507
10468SOL     OW32302   1.756   4.757   3.484
10468SOL    HW132303   1.821   4.705   3.539
10468SOL    HW232304   1.691   4.803   3.543
10469SOL     OW32305   1.717   0.950   4.729
10469SOL    HW132306   1.732   1.021   4.661
10469SOL    HW232307   1.671   0.872   4.687
10470SOL     OW32308   2.504   4.282   1.763
10470SOL    HW132309   2.505   4.378   1.790
10470SOL    HW232310   2.418   4.240   1.793
10471SOL     OW32311   1.431   4.768   6.019
10471SOL    HW132312   1.494   4.749   5.943
10471SOL    HW232313   1.368   4.841   5.993
10472SOL     OW32314   4.163   5.484   5.930
10472SOL    HW132315   4.114   5.536   5.860
10472SOL    HW232316   4.102   5.469   6.008
10473SOL     OW32317   6.037   5.690   0.579
10473SOL    HW132318   5.938   5.705   0.588
10473SOL    HW232319   6.074   5.657   0.665
10474SOL     OW32320   5.826   5.452   5.254
10474SOL    HW132321   5.830   5.551   5.264
10474SOL    HW232322   5.766   5.413   5.324
10475SOL     OW32323   6.684   6.168   2.039
10475SOL    HW132324   6.716   6.135   2.129
10475SOL    HW232325   6.655   6.089   1.984
10476SOL     OW32326   5.422   6.114   0.981
10476SOL    HW132327   5.518   6.087   0.988
10476SOL    HW232328   5.391   6.105   0.886
10477SOL     OW32329   6.905   5.824   3.564
10477SOL    HW132330   6.927   5.921   3.557
10477SOL    HW232331   6.919   5.781   3.474
10478SOL     OW32332   6.823   1.542   0.274
10478SOL    HW132333   6.858   1.506   0.188
10478SOL    HW232334   6.892   1.529   0.346
10479SOL     OW32335   0.280   4.577   2.855
10479SOL    HW132336   0.312   4.483   2.861
10479SOL    HW232337   0.341   4.636   2.909
10480SOL     OW32338   2.801   1.760   3.881
10480SOL    HW132339   2.858   1.678   3.869
10480SOL    HW232340   2.741   1.771   3.802
10481SOL     OW32341   6.049   0.548   1.987
10481SOL    HW132342   6.140   0.531   1.949
10481SOL    HW232343   5.985   0.570   1.913
10482SOL     OW32344   4.522   4.484   4.508
10482SOL    HW132345   4.554   4.499   4.601
10482SOL    HW232346   4.428   4.448   4.511
10483SOL     OW32347   5.683   1.654   6.460
10483SOL    HW132348   5.603   1.618   6.508
10483SOL    HW232349   5.683   1.754   6.465
10484SOL     OW32350   5.483   0.345   1.119
10484SOL    HW132351   5.431   0.419   1.076
10484SOL    HW232352   5.571   0.380   1.151
10485SOL     OW32353   5.786   3.405   5.234
10485SOL    HW132354   5.792   3.322   5.290
10485SOL    HW232355   5.856   3.470   5.264
10486SOL     OW32356   6.555   3.185   3.168
10486SOL    HW132357   6.609   3.263   3.134
10486SOL    HW232358   6.582   3.164   3.262
10487SOL     OW32359   3.534   0.116   2.311
10487SOL    HW132360   3.438   0.139   2.329
10487SOL    HW232361   3.591   0.196   2.326
10488SOL     OW32362   4.231   3.714   6.956
10488SOL    HW132363   4.142   3.698   6.999
10488SOL    HW232364   4.268   3.801   6.988
10489SOL     OW32365   1.410   4.903   5.459
10489SOL    HW132366   1.354   4.821   5.447
10489SOL    HW232367   1.477   4.908   5.385
10490SOL     OW32368   5.959   6.644   4.128
10490SOL    HW132369   5.996   6.692   4.048
10490SOL    HW232370   5.911   6.561   4.098
10491SOL     OW32371   6.796   5.868   4.668
10491SOL    HW132372   6.731   5.806   4.711
10491SOL    HW232373   6.825   5.831   4.580
10492SOL     OW32374   4.860   3.720   5.943
10492SOL    HW132375   4.864   3.735   5.845
10492SOL    HW232376   4.767   3.694   5.969
10493SOL     OW32377   3.620   1.338   0.080
10493SOL    HW132378   3.695   1.317   0.143
10493SOL    HW232379   3.535   1.349   0.132
10494SOL     OW32380   5.669   1.168   5.103
10494SOL    HW132381   5.708   1.107   5.034
10494SOL    HW232382   5.570   1.177   5.087
10495SOL     OW32383   0.803   0.842   6.930
10495SOL    HW132384   0.805   0.743   6.915
10495SOL    HW232385   0.717   0.878   6.894
10496SOL     OW32386   0.430   0.353   5.249
10496SOL    HW132387   0.421   0.344   5.348
10496SOL    HW232388   0.519   0.317   5.220
10497SOL     OW32389   2.363   1.045   6.250
10497SOL    HW132390   2.456   1.018   6.277
10497SOL    HW232391   2.309   0.964   6.230
10498SOL     OW32392   2.602   5.369   5.619
10498SOL    HW132393   2.516   5.415   5.641
10498SOL    HW232394   2.597   5.330   5.527
10499SOL     OW32395   3.382   6.671   1.937
10499SOL    HW132396   3.439   6.628   2.007
10499SOL    HW232397   3.345   6.757   1.971
10500SOL     OW32398   1.783   0.906   6.725
10500SOL    HW132399   1.838   0.922   6.642
10500SOL    HW232400   1.837   0.933   6.805
10501SOL     OW32401   1.364   3.626   3.504
10501SOL    HW132402   1.317   3.540   3.524
10501SOL    HW232403   1.392   3.628   3.408
10502SOL     OW32404   3.643   6.634   4.590
10502SOL    HW132405   3.697   6.697   4.533
10502SOL    HW232406   3.587   6.686   4.654
10503SOL     OW32407   2.457   3.593   6.577
10503SOL    HW132408   2.376   3.648   6.559
10503SOL    HW232409   2.433   3.496   6.574
10504SOL     OW32410   1.924   2.717   0.614
10504SOL    HW132411   1.961   2.728   0.522
10504SOL    HW232412   1.961   2.789   0.674
10505SOL     OW32413   0.743   5.023   0.241
10505SOL    HW132414   0.706   5.004   0.150
10505SOL    HW232415   0.806   4.949   0.266
10506SOL     OW32416   6.789   5.980   6.131
10506SOL    HW132417   6.848   6.017   6.203
10506SOL    HW232418   6.703   5.949   6.171
10507SOL     OW32419   2.912   0.363   4.247
10507SOL    HW132420   2.889   0.266   4.251
10507SOL    HW232421   2.896   0.405   4.337
10508SOL     OW32422   5.762   5.671   3.291
10508SOL    HW132423   5.780   5.706   3.199
10508SOL    HW232424   5.664   5.680   3.311
10509SOL     OW32425   2.126   1.592   5.006
10509SOL    HW132426   2.068   1.672   4.995
10509SOL    HW232427   2.131   1.567   5.103
10510SOL     OW32428   5.490   0.400   6.282
10510SOL    HW132429   5.485   0.493   6.318
10510SOL    HW232430   5.458   0.335   6.351
10511SOL     OW32431   6.873   2.545   2.213
10511SOL    HW132432   6.917   2.588   2.292
10511SOL    HW232433   6.871   2.610   2.137
10512SOL     OW32434   2.222   6.981   6.977
10512SOL    HW132435   2.283   6.934   0.014
10512SOL    HW232436   2.257   6.972   6.884
10513SOL     OW32437   6.463   2.637   1.355
10513SOL    HW132438   6.400   2.567   1.389
10513SOL    HW232439   6.510   2.604   1.274
10514SOL     OW32440   1.776   2.438   1.402
10514SOL    HW132441   1.781   2.514   1.468
10514SOL    HW232442   1.863   2.390   1.400
10515SOL     OW32443   0.349   4.039   4.344
10515SOL    HW132444   0.352   4.081   4.253
10515SOL    HW232445   0.254   4.018   4.368
10516SOL     OW32446   2.497   6.457   0.131
10516SOL    HW132447   2.582   6.445   0.080
10516SOL    HW232448   2.474   6.555   0.135
10517SOL     OW32449   0.445   2.262   3.781
10517SOL    HW132450   0.471   2.178   3.828
10517SOL    HW232451   0.498   2.339   3.817
10518SOL     OW32452   1.191   6.267   3.506
10518SOL    HW132453   1.197   6.247   3.408
10518SOL    HW232454   1.128   6.202   3.549
10519SOL     OW32455   3.275   3.505   5.590
10519SOL    HW132456   3.373   3.495   5.607
10519SOL    HW232457   3.239   3.578   5.648
10520SOL     OW32458   2.447   4.898   6.830
10520SOL    HW132459   2.483   4.943   6.912
10520SOL    HW232460   2.443   4.799   6.845
10521SOL     OW32461   7.009   6.053   1.825
10521SOL    HW132462   0.082   6.052   1.814
10521SOL    HW232463   6.968   5.990   1.759
10522SOL     OW32464   5.610   6.620   2.464
10522SOL    HW132465   5.629   6.522   2.475
10522SOL    HW232466   5.696   6.671   2.463
10523SOL     OW32467   6.009   5.902   6.259
10523SOL    HW132468   6.063   5.889   6.176
10523SOL    HW232469   6.041   5.984   6.307
10524SOL     OW32470   5.188   1.013   4.807
10524SOL    HW132471   5.163   1.102   4.844
10524SOL    HW232472   5.179   0.943   4.878
10525SOL     OW32473   2.106   0.322   5.051
10525SOL    HW132474   2.066   0.230   5.059
10525SOL    HW232475   2.184   0.329   5.114
10526SOL     OW32476   4.428   5.233   2.662
10526SOL    HW132477   4.448   5.303   2.730
10526SOL    HW232478   4.361   5.268   2.597
10527SOL     OW32479   2.156   2.716   4.174
10527SOL    HW132480   2.255   2.700   4.175
10527SOL    HW232481   2.124   2.738   4.266
10528SOL     OW32482   5.534   4.290   6.568
10528SOL    HW132483   5.442   4.310   6.534
10528SOL    HW232484   5.527   4.243   6.656
10529SOL     OW32485   0.069   5.787   5.342
10529SOL    HW132486   0.083   5.882   5.371
10529SOL    HW232487   7.004   5.758   5.369
10530SOL     OW32488   1.239   1.399   4.407
10530SOL    HW132489   1.298   1.389   4.487
10530SOL    HW232490   1.222   1.310   4.366
10531SOL     OW32491   3.043   2.241   4.433
10531SOL    HW132492   3.134   2.220   4.467
10531SOL    HW232493   2.984   2.269   4.509
10532SOL     OW32494   3.327   4.131   4.149
10532SOL    HW132495   3.279   4.104   4.232
10532SOL    HW232496   3.279   4.095   4.069
10533SOL     OW32497   3.370   1.633   6.500
10533SOL    HW132498   3.319   1.719   6.508
10533SOL    HW232499   3.424   1.634   6.416
10534SOL     OW32500   5.542   4.392   1.951
10534SOL    HW132501   5.488   4.469   1.917
10534SOL    HW232502   5.614   4.427   2.011
10535SOL     OW32503   6.179   1.805   1.628
10535SOL    HW132504   6.203   1.864   1.551
10535SOL    HW232505   6.170   1.710   1.597
10536SOL     OW32506   6.113   6.139   2.226
10536SOL    HW132507   6.016   6.148   2.206
10536SOL    HW232508   6.144   6.047   2.200
10537SOL     OW32509   6.294   4.899   1.121
10537SOL    HW132510   6.352   4.878   1.200
10537SOL    HW232511   6.324   4.985   1.080
10538SOL     OW32512   4.914   3.544   6.559
10538SOL    HW132513   4.986   3.509   6.620
10538SOL    HW232514   4.939   3.524   6.464
10539SOL     OW32515   1.994   2.877   4.961
10539SOL    HW132516   2.077   2.823   4.947
10539SOL    HW232517   1.974   2.930   4.879
10540SOL     OW32518   3.512   1.012   0.717
10540SOL    HW132519   3.596   0.959   0.723
10540SOL    HW232520   3.534   1.107   0.695
10541SOL     OW32521   3.353   2.562   1.556
10541SOL    HW132522   3.298   2.492   1.601
10541SOL    HW232523   3.436   2.579   1.609
10542SOL     OW32524   1.721   2.705   0.315
10542SOL    HW132525   1.818   2.732   0.322
10542SOL    HW232526   1.710   2.641   0.239
10543SOL     OW32527   2.987   0.603   4.086
10543SOL    HW132528   2.988   0.503   4.082
10543SOL    HW232529   2.893   0.635   4.098
10544SOL     OW32530   6.995   1.482   1.312
10544SOL    HW132531   6.909   1.460   1.267
10544SOL    HW232532   6.977   1.540   1.392
10545SOL     OW32533   3.293   0.626   3.096
10545SOL    HW132534   3.282   0.693   3.023
10545SOL    HW232535   3.353   0.553   3.066
10546SOL     OW32536   4.491   1.248   4.791
10546SOL    HW132537   4.528   1.340   4.778
10546SOL    HW232538   4.489   1.200   4.703
10547SOL     OW32539   4.574   5.696   1.918
10547SOL    HW132540   4.665   5.733   1.934
10547SOL    HW232541   4.548   5.637   1.994
10548SOL     OW32542   4.503   4.078   6.021
10548SOL    HW132543   4.404   4.078   6.010
10548SOL    HW232544   4.526   4.107   6.114
10549SOL     OW32545   6.686   1.611   2.435
10549SOL    HW132546   6.709   1.678   2.366
10549SOL    HW232547   6.716   1.644   2.525
10550SOL     OW32548   4.424   6.938   5.375
10550SOL    HW132549   4.376   6.968   5.457
10550SOL    HW232550   4.372   6.964   5.294
10551SOL     OW32551   2.085   2.840   5.807
10551SOL    HW132552   2.007   2.813   5.750
10551SOL    HW232553   2.168   2.794   5.775
10552SOL     OW32554   3.816   0.897   5.486
10552SOL    HW132555   3.730   0.942   5.461
10552SOL    HW232556   3.805   0.798   5.482
10553SOL     OW32557   2.809   4.405   6.899
10553SOL    HW132558   2.757   4.430   6.817
10553SOL    HW232559   2.902   4.442   6.891
10554SOL     OW32560   6.511   3.944   5.903
10554SOL    HW132561   6.526   3.849   5.927
10554SOL    HW232562   6.501   3.999   5.987
10555SOL     OW32563   3.263   2.997   0.496
10555SOL    HW132564   3.176   2.949   0.513
10555SOL    HW232565   3.327   2.976   0.570
10556SOL     OW32566   3.036   4.897   4.082
10556SOL    HW132567   3.108   4.871   4.018
10556SOL    HW232568   3.071   4.893   4.176
10557SOL     OW32569   5.420   1.444   3.121
10557SOL    HW132570   5.355   1.519   3.113
10557SOL    HW232571   5.461   1.426   3.031
10558SOL     OW32572   5.936   5.728   6.639
10558SOL    HW132573   5.920   5.634   6.668
10558SOL    HW232574   6.017   5.731   6.580
10559SOL     OW32575   4.176   3.220   1.514
10559SOL    HW132576   4.172   3.189   1.609
10559SOL    HW232577   4.218   3.149   1.457
10560SOL     OW32578   0.019   2.118   4.344
10560SOL    HW132579   6.963   2.161   4.309
10560SOL    HW232580   0.056   2.172   4.420
10561SOL     OW32581   1.704   4.220   6.122
10561SOL    HW132582   1.657   4.133   6.109
10561SOL    HW232583   1.647   4.280   6.178
10562SOL     OW32584   4.426   2.178   1.094
10562SOL    HW132585   4.422   2.078   1.101
10562SOL    HW232586   4.519   2.209   1.114
10563SOL     OW32587   2.130   1.980   2.453
10563SOL    HW132588   2.198   1.945   2.517
10563SOL    HW232589   2.107   1.909   2.386
10564SOL     OW32590   0.391   1.442   2.637
10564SOL    HW132591   0.479   1.486   2.654
10564SOL    HW232592   0.319   1.492   2.684
10565SOL     OW32593   5.419   2.362   5.051
10565SOL    HW132594   5.333   2.359   5.001
10565SOL    HW232595   5.486   2.302   5.007
10566SOL     OW32596   4.768   5.727   0.137
10566SOL    HW132597   4.755   5.801   0.070
10566SOL    HW232598   4.683   5.675   0.146
10567SOL     OW32599   2.002   5.825   5.044
10567SOL    HW132600   1.976   5.815   5.140
10567SOL    HW232601   1.925   5.804   4.985
10568SOL     OW32602   4.195   0.311   4.055
10568SOL    HW132603   4.196   0.400   4.009
10568SOL    HW232604   4.144   0.245   3.999
10569SOL     OW32605   6.451   1.605   3.798
10569SOL    HW132606   6.467   1.528   3.859
10569SOL    HW232607   6.397   1.574   3.719
10570SOL     OW32608   0.769   2.567   1.957
10570SOL    HW132609   0.845   2.553   1.894
10570SOL    HW232610   0.805   2.589   2.048
10571SOL     OW32611   6.508   6.857   4.975
10571SOL    HW132612   6.590   6.801   4.991
10571SOL    HW232613   6.518   6.945   5.021
10572SOL     OW32614   6.281   3.829   3.141
10572SOL    HW132615   6.377   3.808   3.156
10572SOL    HW232616   6.243   3.877   3.220
10573SOL     OW32617   6.704   4.847   5.777
10573SOL    HW132618   6.607   4.862   5.760
10573SOL    HW232619   6.758   4.908   5.719
10574SOL     OW32620   0.367   2.531   2.755
10574SOL    HW132621   0.294   2.540   2.823
10574SOL    HW232622   0.337   2.469   2.683
10575SOL     OW32623   0.130   0.313   5.973
10575SOL    HW132624   0.036   0.344   5.958
10575SOL    HW232625   0.163   0.268   5.890
10576SOL     OW32626   0.456   5.719   3.578
10576SOL    HW132627   0.413   5.797   3.623
10576SOL    HW232628   0.492   5.656   3.648
10577SOL     OW32629   0.166   3.329   5.570
10577SOL    HW132630   0.256   3.371   5.562
10577SOL    HW232631   0.131   3.308   5.478
10578SOL     OW32632   5.884   0.777   5.707
10578SOL    HW132633   5.864   0.842   5.780
10578SOL    HW232634   5.960   0.718   5.734
10579SOL     OW32635   5.680   6.069   0.967
10579SOL    HW132636   5.734   6.126   1.028
10579SOL    HW232637   5.662   6.117   0.881
10580SOL     OW32638   1.269   5.264   1.230
10580SOL    HW132639   1.270   5.189   1.296
10580SOL    HW232640   1.190   5.323   1.247
10581SOL     OW32641   4.073   2.256   3.194
10581SOL    HW132642   4.094   2.170   3.241
10581SOL    HW232643   4.036   2.321   3.261
10582SOL     OW32644   3.582   4.003   0.005
10582SOL    HW132645   3.490   4.017   6.996
10582SOL    HW232646   3.649   4.048   6.972
10583SOL     OW32647   4.997   0.861   1.396
10583SOL    HW132648   4.900   0.843   1.383
10583SOL    HW232649   5.047   0.837   1.313
10584SOL     OW32650   5.821   6.516   1.373
10584SOL    HW132651   5.779   6.602   1.344
10584SOL    HW232652   5.819   6.510   1.473
10585SOL     OW32653   3.326   4.091   6.620
10585SOL    HW132654   3.330   4.186   6.588
10585SOL    HW232655   3.234   4.056   6.606
10586SOL     OW32656   5.226   2.127   2.062
10586SOL    HW132657   5.200   2.182   1.983
10586SOL    HW232658   5.145   2.112   2.120
10587SOL     OW32659   0.095   3.677   0.749
10587SOL    HW132660   0.021   3.733   0.786
10587SOL    HW232661   0.161   3.657   0.822
10588SOL     OW32662   1.752   5.385   3.985
10588SOL    HW132663   1.800   5.408   4.069
10588SOL    HW232664   1.805   5.319   3.932
10589SOL     OW32665   5.728   0.715   4.683
10589SOL    HW132666   5.788   0.687   4.758
10589SOL    HW232667   5.706   0.812   4.693
10590SOL     OW32668   0.959   0.061   4.223
10590SOL    HW132669   0.968   0.007   4.140
10590SOL    HW232670   0.900   0.013   4.289
10591SOL     OW32671   1.400   2.341   1.221
10591SOL    HW132672   1.469   2.292   1.167
10591SOL    HW232673   1.443   2.419   1.266
10592SOL     OW32674   4.917   1.555   6.519
10592SOL    HW132675   4.998   1.500   6.535
10592SOL    HW232676   4.940   1.633   6.461
10593SOL     OW32677   1.450   3.922   2.732
10593SOL    HW132678   1.510   3.925   2.812
10593SOL    HW232679   1.382   3.995   2.739
10594SOL     OW32680   1.913   1.244   3.874
10594SOL    HW132681   1.838   1.311   3.874
10594SOL    HW232682   1.875   1.152   3.873
10595SOL     OW32683   1.743   5.844   4.948
10595SOL    HW132684   1.741   5.893   4.861
10595SOL    HW232685   1.675   5.882   5.010
10596SOL     OW32686   2.690   1.420   0.991
10596SOL    HW132687   2.778   1.406   1.037
10596SOL    HW232688   2.625   1.351   1.022
10597SOL     OW32689   2.169   0.405   3.504
10597SOL    HW132690   2.152   0.502   3.488
10597SOL    HW232691   2.204   0.391   3.596
10598SOL     OW32692   2.874   1.097   0.716
10598SOL    HW132693   2.944   1.112   0.786
10598SOL    HW232694   2.857   0.999   0.705
10599SOL     OW32695   4.896   6.767   6.153
10599SOL    HW132696   4.800   6.741   6.143
10599SOL    HW232697   4.902   6.866   6.165
10600SOL     OW32698   1.954   3.421   5.417
10600SOL    HW132699   2.006   3.339   5.392
10600SOL    HW232700   1.868   3.394   5.461
10601SOL     OW32701   4.466   6.077   5.549
10601SOL    HW132702   4.425   5.998   5.503
10601SOL    HW232703   4.537   6.116   5.491
10602SOL     OW32704   4.608   2.628   2.417
10602SOL    HW132705   4.598   2.689   2.338
10602SOL    HW232706   4.705   2.618   2.439
10603SOL     OW32707   0.854   5.904   5.068
10603SOL    HW132708   0.816   5.875   5.156
10603SOL    HW232709   0.802   5.861   4.994
10604SOL     OW32710   1.006   4.466   6.479
10604SOL    HW132711   1.035   4.468   6.383
10604SOL    HW232712   0.916   4.510   6.487
10605SOL     OW32713   1.612   5.103   0.322
10605SOL    HW132714   1.522   5.129   0.285
10605SOL    HW232715   1.611   5.006   0.344
10606SOL     OW32716   1.163   0.633   1.776
10606SOL    HW132717   1.237   0.571   1.750
10606SOL    HW232718   1.197   0.701   1.841
10607SOL     OW32719   5.329   4.280   0.093
10607SOL    HW132720   5.301   4.206   0.155
10607SOL    HW232721   5.415   4.319   0.124
10608SOL     OW32722   5.118   6.462   2.261
10608SOL    HW132723   5.086   6.456   2.167
10608SOL    HW232724   5.061   6.527   2.312
10609SOL     OW32725   4.045   6.871   3.000
10609SOL    HW132726   4.142   6.856   2.980
10609SOL    HW232727   4.028   6.967   3.020
10610SOL     OW32728   2.188   4.517   4.820
10610SOL    HW132729   2.172   4.595   4.881
10610SOL    HW232730   2.192   4.433   4.874
10611SOL     OW32731   4.996   1.884   5.747
10611SOL    HW132732   5.043   1.877   5.835
10611SOL    HW232733   5.039   1.823   5.681
10612SOL     OW32734   1.345   0.486   1.628
10612SOL    HW132735   1.320   0.489   1.532
10612SOL    HW232736   1.410   0.412   1.644
10613SOL     OW32737   1.840   6.457   0.042
10613SOL    HW132738   1.813   6.451   0.138
10613SOL    HW232739   1.784   6.526   7.022
10614SOL     OW32740   0.779   0.734   3.113
10614SOL    HW132741   0.781   0.641   3.077
10614SOL    HW232742   0.705   0.742   3.181
10615SOL     OW32743   0.839   6.252   5.785
10615SOL    HW132744   0.772   6.184   5.756
10615SOL    HW232745   0.931   6.222   5.760
10616SOL     OW32746   3.498   5.514   1.773
10616SOL    HW132747   3.435   5.574   1.822
10616SOL    HW232748   3.455   5.425   1.758
10617SOL     OW32749   6.341   1.972   6.359
10617SOL    HW132750   6.418   1.919   6.394
10617SOL    HW232751   6.313   2.040   6.426
10618SOL     OW32752   6.718   3.958   1.463
10618SOL    HW132753   6.673   3.983   1.378
10618SOL    HW232754   6.656   3.902   1.518
10619SOL     OW32755   0.578   3.394   3.921
10619SOL    HW132756   0.538   3.481   3.953
10619SOL    HW232757   0.529   3.318   3.964
10620SOL     OW32758   1.511   5.531   3.898
10620SOL    HW132759   1.606   5.504   3.912
10620SOL    HW232760   1.476   5.487   3.815
10621SOL     OW32761   3.446   1.026   0.434
10621SOL    HW132762   3.368   1.075   0.394
10621SOL    HW232763   3.420   0.991   0.524
10622SOL     OW32764   4.517   2.487   0.742
10622SOL    HW132765   4.487   2.516   0.833
10622SOL    HW232766   4.523   2.566   0.681
10623SOL     OW32767   6.640   1.198   4.251
10623SOL    HW132768   6.541   1.210   4.243
10623SOL    HW232769   6.660   1.135   4.326
10624SOL     OW32770   2.826   1.276   3.045
10624SOL    HW132771   2.755   1.207   3.035
10624SOL    HW232772   2.863   1.272   3.138
10625SOL     OW32773   0.603   2.370   1.889
10625SOL    HW132774   0.657   2.337   1.812
10625SOL    HW232775   0.653   2.442   1.937
10626SOL     OW32776   6.806   1.669   2.675
10626SOL    HW132777   6.794   1.766   2.697
10626SOL    HW232778   6.894   1.656   2.628
10627SOL     OW32779   2.848   5.235   4.446
10627SOL    HW132780   2.753   5.239   4.477
10627SOL    HW232781   2.887   5.146   4.470
10628SOL     OW32782   0.379   0.373   4.982
10628SOL    HW132783   0.375   0.473   4.978
10628SOL    HW232784   0.385   0.343   5.077
10629SOL     OW32785   3.618   3.837   6.411
10629SOL    HW132786   3.605   3.910   6.478
10629SOL    HW232787   3.685   3.771   6.446
10630SOL     OW32788   5.317   1.102   1.390
10630SOL    HW132789   5.380   1.025   1.379
10630SOL    HW232790   5.366   1.188   1.377
10631SOL     OW32791   1.710   6.897   4.191
10631SOL    HW132792   1.726   6.906   4.092
10631SOL    HW232793   1.643   6.964   4.221
10632SOL     OW32794   6.701   3.192   0.628
10632SOL    HW132795   6.788   3.223   0.666
10632SOL    HW232796   6.713   3.100   0.590
10633SOL     OW32797   1.683   5.041   6.059
10633SOL    HW132798   1.674   5.037   5.959
10633SOL    HW232799   1.604   4.995   6.101
10634SOL     OW32800   3.383   6.297   2.588
10634SOL    HW132801   3.463   6.285   2.647
10634SOL    HW232802   3.317   6.357   2.634
10635SOL     OW32803   0.664   0.591   1.424
10635SOL    HW132804   0.758   0.562   1.406
10635SOL    HW232805   0.602   0.513   1.417
10636SOL     OW32806   5.141   1.750   6.684
10636SOL    HW132807   5.183   1.787   6.601
10636SOL    HW232808   5.197   1.774   6.763
10637SOL     OW32809   3.705   3.748   6.952
10637SOL    HW132810   3.676   3.827   7.005
10637SOL    HW232811   3.801   3.758   6.927
10638SOL     OW32812   6.668   1.552   5.718
10638SOL    HW132813   6.694   1.464   5.759
10638SOL    HW232814   6.575   1.545   5.683
10639SOL     OW32815   3.534   1.562   4.063
10639SOL    HW132816   3.435   1.548   4.070
10639SOL    HW232817   3.569   1.593   4.152
10640SOL     OW32818   4.845   6.409   0.485
10640SOL    HW132819   4.837   6.456   0.573
10640SOL    HW232820   4.757   6.370   0.460
10641SOL     OW32821   3.691   6.842   0.105
10641SOL    HW132822   3.639   6.921   0.135
10641SOL    HW232823   3.788   6.867   0.096
10642SOL     OW32824   0.323   6.220   2.257
10642SOL    HW132825   0.237   6.185   2.295
10642SOL    HW232826   0.392   6.224   2.328
10643SOL     OW32827   3.776   3.956   5.932
10643SOL    HW132828   3.739   3.868   5.899
10643SOL    HW232829   3.773   4.023   5.858
10644SOL     OW32830   4.157   1.591   5.408
10644SOL    HW132831   4.061   1.564   5.420
10644SOL    HW232832   4.160   1.679   5.359
10645SOL     OW32833   1.868   1.282   3.134
10645SOL    HW132834   1.904   1.375   3.125
10645SOL    HW232835   1.792   1.282   3.200
10646SOL     OW32836   6.925   4.318   0.159
10646SOL    HW132837   6.864   4.398   0.164
10646SOL    HW232838   6.988   4.329   0.082
10647SOL     OW32839   6.419   6.377   1.490
10647SOL    HW132840   6.402   6.475   1.485
10647SOL    HW232841   6.515   6.361   1.513
10648SOL     OW32842   4.592   3.707   5.717
10648SOL    HW132843   4.541   3.726   5.801
10648SOL    HW232844   4.606   3.792   5.666
10649SOL     OW32845   6.576   4.544   6.020
10649SOL    HW132846   6.570   4.476   6.093
10649SOL    HW232847   6.594   4.634   6.060
10650SOL     OW32848   1.981   1.017   5.528
10650SOL    HW132849   2.007   1.039   5.623
10650SOL    HW232850   1.928   1.093   5.491
10651SOL     OW32851   1.329   0.874   5.390
10651SOL    HW132852   1.409   0.885   5.449
10651SOL    HW232853   1.269   0.954   5.400
10652SOL     OW32854   4.585   0.638   0.586
10652SOL    HW132855   4.580   0.571   0.660
10652SOL    HW232856   4.616   0.593   0.502
10653SOL     OW32857   5.746   4.420   3.271
10653SOL    HW132858   5.841   4.449   3.259
10653SOL    HW232859   5.687   4.500   3.278
10654SOL     OW32860   5.183   6.962   1.043
10654SOL    HW132861   5.117   6.965   0.968
10654SOL    HW232862   5.193   0.028   1.081
10655SOL     OW32863   3.485   5.974   0.571
10655SOL    HW132864   3.489   5.902   0.502
10655SOL    HW232865   3.390   5.988   0.598
10656SOL     OW32866   0.552   3.384   5.982
10656SOL    HW132867   0.551   3.333   5.895
10656SOL    HW232868   0.479   3.350   6.041
10657SOL     OW32869   6.151   0.520   6.580
10657SOL    HW132870   6.247   0.496   6.589
10657SOL    HW232871   6.096   0.436   6.577
10658SOL     OW32872   0.225   5.882   3.598
10658SOL    HW132873   0.183   5.827   3.669
10658SOL    HW232874   0.238   5.975   3.631
10659SOL     OW32875   5.925   1.318   2.402
10659SOL    HW132876   5.991   1.368   2.457
10659SOL    HW232877   5.973   1.268   2.329
10660SOL     OW32878   4.712   4.693   5.116
10660SOL    HW132879   4.736   4.778   5.163
10660SOL    HW232880   4.627   4.657   5.155
10661SOL     OW32881   6.703   0.979   1.907
10661SOL    HW132882   6.757   0.895   1.916
10661SOL    HW232883   6.763   1.058   1.916
10662SOL     OW32884   0.681   2.080   0.629
10662SOL    HW132885   0.604   2.139   0.655
10662SOL    HW232886   0.647   2.005   0.571
10663SOL     OW32887   0.930   2.617   3.013
10663SOL    HW132888   1.007   2.565   2.975
10663SOL    HW232889   0.855   2.617   2.947
10664SOL     OW32890   2.264   5.442   6.303
10664SOL    HW132891   2.359   5.450   6.270
10664SOL    HW232892   2.208   5.399   6.232
10665SOL     OW32893   6.050   1.934   6.765
10665SOL    HW132894   6.019   2.025   6.736
10665SOL    HW232895   6.017   1.866   6.699
10666SOL     OW32896   0.431   6.022   1.097
10666SOL    HW132897   0.375   5.962   1.154
10666SOL    HW232898   0.414   6.002   1.001
10667SOL     OW32899   3.273   2.459   6.000
10667SOL    HW132900   3.287   2.509   5.914
10667SOL    HW232901   3.336   2.383   6.005
10668SOL     OW32902   1.629   6.845   6.453
10668SOL    HW132903   1.726   6.870   6.455
10668SOL    HW232904   1.574   6.921   6.487
10669SOL     OW32905   1.663   5.803   6.288
10669SOL    HW132906   1.656   5.854   6.374
10669SOL    HW232907   1.753   5.817   6.247
10670SOL     OW32908   5.853   3.914   5.132
10670SOL    HW132909   5.926   3.884   5.070
10670SOL    HW232910   5.773   3.855   5.119
10671SOL     OW32911   2.190   3.141   3.564
10671SOL    HW132912   2.139   3.178   3.487
10671SOL    HW232913   2.229   3.216   3.617
10672SOL     OW32914   6.465   2.831   0.624
10672SOL    HW132915   6.475   2.836   0.723
10672SOL    HW232916   6.555   2.813   0.583
10673SOL     OW32917   3.339   4.119   3.276
10673SOL    HW132918   3.262   4.058   3.297
10673SOL    HW232919   3.334   4.146   3.180
10674SOL     OW32920   3.382   1.831   2.764
10674SOL    HW132921   3.290   1.851   2.730
10674SOL    HW232922   3.382   1.740   2.806
10675SOL     OW32923   1.421   1.996   5.336
10675SOL    HW132924   1.379   2.042   5.414
10675SOL    HW232925   1.451   2.065   5.270
10676SOL     OW32926   6.527   0.490   0.165
10676SOL    HW132927   6.546   0.567   0.103
10676SOL    HW232928   6.543   0.404   0.117
10677SOL     OW32929   5.378   6.897   6.403
10677SOL    HW132930   5.381   6.876   6.306
10677SOL    HW232931   5.284   6.894   6.436
10678SOL     OW32932   2.232   6.058   3.755
10678SOL    HW132933   2.172   6.007   3.817
10678SOL    HW232934   2.282   6.127   3.806
10679SOL     OW32935   6.152   5.248   4.469
10679SOL    HW132936   6.180   5.265   4.564
10679SOL    HW232937   6.221   5.283   4.406
10680SOL     OW32938   0.566   2.306   3.560
10680SOL    HW132939   0.504   2.286   3.636
10680SOL    HW232940   0.660   2.295   3.589
10681SOL     OW32941   0.813   3.365   6.978
10681SOL    HW132942   0.774   3.294   0.010
10681SOL    HW232943   0.747   3.391   6.908
10682SOL     OW32944   6.607   2.453   3.632
10682SOL    HW132945   6.558   2.498   3.558
10682SOL    HW232946   6.586   2.355   3.631
10683SOL     OW32947   1.168   0.248   4.329
10683SOL    HW132948   1.236   0.288   4.266
10683SOL    HW232949   1.082   0.235   4.280
10684SOL     OW32950   5.253   6.111   0.760
10684SOL    HW132951   5.211   6.100   0.670
10684SOL    HW232952   5.207   6.187   0.808
10685SOL     OW32953   6.460   1.925   4.293
10685SOL    HW132954   6.408   2.007   4.315
10685SOL    HW232955   6.417   1.879   4.215
10686SOL     OW32956   5.407   3.975   1.437
10686SOL    HW132957   5.413   3.916   1.518
10686SOL    HW232958   5.459   3.934   1.362
10687SOL     OW32959   0.732   5.290   1.127
10687SOL    HW132960   0.731   5.314   1.030
10687SOL    HW232961   0.691   5.364   1.180
10688SOL     OW32962   1.850   5.566   1.456
10688SOL    HW132963   1.834   5.486   1.514
10688SOL    HW232964   1.824   5.544   1.362
10689SOL     OW32965   6.779   1.109   2.206
10689SOL    HW132966   6.682   1.092   2.219
10689SOL    HW232967   6.801   1.203   2.233
10690SOL     OW32968   3.839   0.598   2.230
10690SOL    HW132969   3.795   0.679   2.192
10690SOL    HW232970   3.814   0.588   2.326
10691SOL     OW32971   5.313   1.641   1.920
10691SOL    HW132972   5.289   1.737   1.911
10691SOL    HW232973   5.408   1.632   1.950
10692SOL     OW32974   5.918   6.399   4.349
10692SOL    HW132975   5.994   6.377   4.288
10692SOL    HW232976   5.832   6.369   4.307
10693SOL     OW32977   4.122   2.276   4.557
10693SOL    HW132978   4.172   2.342   4.501
10693SOL    HW232979   4.127   2.303   4.653
10694SOL     OW32980   3.661   6.531   0.148
10694SOL    HW132981   3.670   6.621   0.104
10694SOL    HW232982   3.661   6.543   0.247
10695SOL     OW32983   5.631   3.011   5.678
10695SOL    HW132984   5.564   2.938   5.665
10695SOL    HW232985   5.598   3.095   5.635
10696SOL     OW32986   6.419   0.879   0.854
10696SOL    HW132987   6.439   0.871   0.756
10696SOL    HW232988   6.403   0.975   0.878
10697SOL     OW32989   3.291   5.656   3.102
10697SOL    HW132990   3.217   5.700   3.052
10697SOL    HW232991   3.347   5.602   3.038
10698SOL     OW32992   4.001   6.979   3.330
10698SOL    HW132993   3.983   6.884   3.303
10698SOL    HW232994   3.975   0.013   3.255
10699SOL     OW32995   0.038   3.954   3.454
10699SOL    HW132996   0.008   4.013   3.379
10699SOL    HW232997   6.989   3.940   3.518
10700SOL     OW32998   0.454   2.822   3.458
10700SOL    HW132999   0.495   2.903   3.499
10700SOL    HW233000   0.451   2.831   3.359
10701SOL     OW33001   1.950   6.725   1.621
10701SOL    HW133002   1.891   6.793   1.663
10701SOL    HW233003   1.900   6.639   1.610
10702SOL     OW33004   4.780   1.936   1.042
10702SOL    HW133005   4.721   1.856   1.051
10702SOL    HW233006   4.730   2.017   1.073
10703SOL     OW33007   3.370   4.121   4.754
10703SOL    HW133008   3.467   4.113   4.778
10703SOL    HW233009   3.316   4.130   4.838
10704SOL     OW33010   5.542   5.465   1.786
10704SOL    HW133011   5.496   5.383   1.754
10704SOL    HW233012   5.587   5.511   1.709
10705SOL     OW33013   0.985   3.306   0.508
10705SOL    HW133014   0.991   3.311   0.408
10705SOL    HW233015   0.897   3.341   0.538
10706SOL     OW33016   3.320   3.833   0.472
10706SOL    HW133017   3.391   3.836   0.542
10706SOL    HW233018   3.361   3.811   0.383
10707SOL     OW33019   6.076   1.198   6.241
10707SOL    HW133020   6.054   1.228   6.148
10707SOL    HW233021   6.141   1.262   6.283
10708SOL     OW33022   4.334   3.348   0.996
10708SOL    HW133023   4.366   3.295   0.918
10708SOL    HW233024   4.358   3.300   1.081
10709SOL     OW33025   0.483   1.262   5.668
10709SOL    HW133026   0.581   1.266   5.687
10709SOL    HW233027   0.451   1.167   5.679
10710SOL     OW33028   6.624   6.938   3.546
10710SOL    HW133029   6.669   7.017   3.505
10710SOL    HW233030   6.693   6.876   3.584
10711SOL     OW33031   2.226   4.297   5.206
10711SOL    HW133032   2.248   4.242   5.286
10711SOL    HW233033   2.258   4.251   5.123
10712SOL     OW33034   3.566   2.120   5.814
10712SOL    HW133035   3.556   2.043   5.751
10712SOL    HW233036   3.604   2.198   5.766
10713SOL     OW33037   2.569   0.036   6.727
10713SOL    HW133038   2.593   0.089   6.808
10713SOL    HW233039   2.645   0.037   6.663
10714SOL     OW33040   5.632   5.131   4.504
10714SOL    HW133041   5.656   5.227   4.490
10714SOL    HW233042   5.605   5.117   4.600
10715SOL     OW33043   5.588   6.936   2.412
10715SOL    HW133044   5.514   7.003   2.406
10715SOL    HW233045   5.590   6.897   2.504
10716SOL     OW33046   6.273   1.836   3.005
10716SOL    HW133047   6.265   1.737   2.999
10716SOL    HW233048   6.344   1.868   2.942
10717SOL     OW33049   6.957   6.689   1.040
10717SOL    HW133050   6.886   6.618   1.033
10717SOL    HW233051   0.020   6.646   1.034
10718SOL     OW33052   0.361   4.499   5.244
10718SOL    HW133053   0.429   4.476   5.314
10718SOL    HW233054   0.269   4.489   5.281
10719SOL     OW33055   3.894   6.451   2.994
10719SOL    HW133056   3.903   6.392   2.914
10719SOL    HW233057   3.797   6.459   3.019
10720SOL     OW33058   1.352   3.561   5.601
10720SOL    HW133059   1.277   3.602   5.550
10720SOL    HW233060   1.348   3.462   5.594
10721SOL     OW33061   5.686   0.495   4.530
10721SOL    HW133062   5.590   0.475   4.513
10721SOL    HW233063   5.694   0.581   4.580
10722SOL     OW33064   0.952   4.977   1.038
10722SOL    HW133065   0.942   4.995   1.136
10722SOL    HW233066   0.862   4.964   0.997
10723SOL     OW33067   0.283   5.547   6.370
10723SOL    HW133068   0.240   5.614   6.310
10723SOL    HW233069   0.283   5.457   6.326
10724SOL     OW33070   3.764   6.685   5.805
10724SOL    HW133071   3.853   6.719   5.774
10724SOL    HW233072   3.774   6.594   5.845
10725SOL     OW33073   6.635   0.258   5.080
10725SOL    HW133074   6.717   0.288   5.031
10725SOL    HW233075   6.558   0.253   5.016
10726SOL     OW33076   6.813   1.168   3.892
10726SOL    HW133077   6.844   1.260   3.872
10726SOL    HW233078   6.852   1.104   3.825
10727SOL     OW33079   5.514   5.537   6.020
10727SOL    HW133080   5.468   5.541   6.109
10727SOL    HW233081   5.610   5.562   6.030
10728SOL     OW33082   5.142   6.060   4.913
10728SOL    HW133083   5.119   5.962   4.911
10728SOL    HW233084   5.239   6.071   4.933
10729SOL     OW33085   6.432   2.899   4.666
10729SOL    HW133086   6.359   2.957   4.627
10729SOL    HW233087   6.397   2.852   4.747
10730SOL     OW33088   0.741   5.859   4.181
10730SOL    HW133089   0.819   5.863   4.118
10730SOL    HW233090   0.699   5.950   4.188
10731SOL     OW33091   5.104   4.040   5.623
10731SOL    HW133092   5.063   4.119   5.667
10731SOL    HW233093   5.174   4.070   5.558
10732SOL     OW33094   5.894   5.347   2.049
10732SOL    HW133095   5.804   5.387   2.067
10732SOL    HW233096   5.912   5.274   2.115
10733SOL     OW33097   1.086   2.304   5.916
10733SOL    HW133098   1.087   2.375   5.987
10733SOL    HW233099   1.007   2.244   5.931
10734SOL     OW33100   0.561   1.447   4.223
10734SOL    HW133101   0.646   1.500   4.230
10734SOL    HW233102   0.549   1.393   4.306
10735SOL     OW33103   0.343   1.109   2.294
10735SOL    HW133104   0.274   1.155   2.238
10735SOL    HW233105   0.396   1.178   2.344
10736SOL     OW33106   5.425   5.967   4.387
10736SOL    HW133107   5.405   5.884   4.335
10736SOL    HW233108   5.524   5.981   4.389
10737SOL     OW33109   5.904   1.321   0.820
10737SOL    HW133110   5.945   1.360   0.738
10737SOL    HW233111   5.972   1.319   0.893
10738SOL     OW33112   0.812   6.593   2.377
10738SOL    HW133113   0.801   6.498   2.348
10738SOL    HW233114   0.722   6.637   2.380
10739SOL     OW33115   5.174   2.725   4.003
10739SOL    HW133116   5.128   2.723   3.914
10739SOL    HW233117   5.191   2.631   4.033
10740SOL     OW33118   2.880   1.192   6.744
10740SOL    HW133119   2.836   1.133   6.812
10740SOL    HW233120   2.888   1.284   6.781
10741SOL     OW33121   2.428   2.757   3.946
10741SOL    HW133122   2.458   2.691   3.877
10741SOL    HW233123   2.397   2.840   3.901
10742SOL     OW33124   6.481   0.585   2.361
10742SOL    HW133125   6.553   0.644   2.325
10742SOL    HW233126   6.505   0.489   2.346
10743SOL     OW33127   4.604   3.008   6.347
10743SOL    HW133128   4.535   3.079   6.360
10743SOL    HW233129   4.594   2.938   6.418
10744SOL     OW33130   1.820   1.463   1.206
10744SOL    HW133131   1.892   1.461   1.276
10744SOL    HW233132   1.780   1.372   1.198
10745SOL     OW33133   3.819   5.902   2.303
10745SOL    HW133134   3.806   5.940   2.395
10745SOL    HW233135   3.844   5.975   2.240
10746SOL     OW33136   2.494   5.657   4.940
10746SOL    HW133137   2.527   5.588   5.005
10746SOL    HW233138   2.563   5.728   4.929
10747SOL     OW33139   6.731   0.077   5.307
10747SOL    HW133140   6.679   0.124   5.236
10747SOL    HW233141   6.762   0.143   5.375
10748SOL     OW33142   3.199   6.475   1.825
10748SOL    HW133143   3.273   6.531   1.863
10748SOL    HW233144   3.114   6.528   1.824
10749SOL     OW33145   5.560   2.062   2.789
10749SOL    HW133146   5.585   2.009   2.708
10749SOL    HW233147   5.641   2.080   2.844
10750SOL     OW33148   3.476   1.946   3.788
10750SOL    HW133149   3.566   1.988   3.803
10750SOL    HW233150   3.488   1.855   3.747
10751SOL     OW33151   5.485   6.305   3.220
10751SOL    HW133152   5.517   6.295   3.126
10751SOL    HW233153   5.548   6.260   3.283
10752SOL     OW33154   6.798   6.268   6.424
10752SOL    HW133155   6.881   6.218   6.396
10752SOL    HW233156   6.762   6.227   6.508
10753SOL     OW33157   5.046   6.764   5.012
10753SOL    HW133158   5.077   6.691   5.074
10753SOL    HW233159   4.946   6.768   5.012
10754SOL     OW33160   6.528   5.354   2.054
10754SOL    HW133161   6.498   5.445   2.025
10754SOL    HW233162   6.469   5.322   2.128
10755SOL     OW33163   0.298   1.259   2.905
10755SOL    HW133164   0.260   1.244   2.997
10755SOL    HW233165   0.355   1.341   2.907
10756SOL     OW33166   0.798   6.512   6.914
10756SOL    HW133167   0.705   6.481   6.892
10756SOL    HW233168   0.832   6.571   6.841
10757SOL     OW33169   0.553   1.937   2.396
10757SOL    HW133170   0.562   1.966   2.492
10757SOL    HW233171   0.635   1.888   2.368
10758SOL     OW33172   0.336   1.247   0.995
10758SOL    HW133173   0.426   1.217   0.963
10758SOL    HW233174   0.340   1.344   1.020
10759SOL     OW33175   3.326   5.145   5.448
10759SOL    HW133176   3.404   5.169   5.505
10759SOL    HW233177   3.258   5.095   5.502
10760SOL     OW33178   1.222   5.036   6.612
10760SOL    HW133179   1.152   5.107   6.607
10760SOL    HW233180   1.201   4.973   6.686
10761SOL     OW33181   1.293   0.419   0.038
10761SOL    HW133182   1.366   0.488   0.040
10761SOL    HW233183   1.309   0.356   6.988
10762SOL     OW33184   1.777   5.325   0.894
10762SOL    HW133185   1.702   5.263   0.871
10762SOL    HW233186   1.787   5.331   0.993
10763SOL     OW33187   5.662   1.477   1.821
10763SOL    HW133188   5.749   1.518   1.792
10763SOL    HW233189   5.636   1.406   1.755
10764SOL     OW33190   5.068   0.104   3.568
10764SOL    HW133191   5.148   0.150   3.607
10764SOL    HW233192   4.984   0.143   3.607
10765SOL     OW33193   6.894   2.699   1.972
10765SOL    HW133194   6.972   2.752   1.940
10765SOL    HW233195   6.885   2.616   1.917
10766SOL     OW33196   3.443   6.125   0.007
10766SOL    HW133197   3.368   6.136   0.072
10766SOL    HW233198   3.499   6.046   0.034
10767SOL     OW33199   0.572   5.570   0.210
10767SOL    HW133200   0.571   5.666   0.237
10767SOL    HW233201   0.576   5.513   0.292
10768SOL     OW33202   6.763   6.473   0.474
10768SOL    HW133203   6.708   6.503   0.552
10768SOL    HW233204   6.757   6.374   0.464
10769SOL     OW33205   2.929   3.552   4.201
10769SOL    HW133206   2.928   3.471   4.261
10769SOL    HW233207   2.966   3.528   4.112
10770SOL     OW33208   4.594   0.969   5.160
10770SOL    HW133209   4.684   0.929   5.143
10770SOL    HW233210   4.548   0.985   5.073
10771SOL     OW33211   5.084   6.127   5.674
10771SOL    HW133212   5.176   6.099   5.649
10771SOL    HW233213   5.050   6.195   5.608
10772SOL     OW33214   5.281   3.180   4.075
10772SOL    HW133215   5.261   3.251   4.007
10772SOL    HW233216   5.284   3.220   4.166
10773SOL     OW33217   0.941   3.683   0.352
10773SOL    HW133218   0.999   3.603   0.367
10773SOL    HW233219   0.901   3.680   0.261
10774SOL     OW33220   6.455   2.808   1.954
10774SOL    HW133221   6.471   2.897   1.912
10774SOL    HW233222   6.440   2.739   1.883
10775SOL     OW33223   1.936   4.343   6.189
10775SOL    HW133224   1.849   4.302   6.162
10775SOL    HW233225   2.008   4.274   6.186
10776SOL     OW33226   0.222   3.583   3.697
10776SOL    HW133227   0.315   3.619   3.691
10776SOL    HW233228   0.217   3.497   3.645
10777SOL     OW33229   0.151   0.010   2.277
10777SOL    HW133230   0.186   0.075   2.210
10777SOL    HW233231   0.154   6.944   2.237
10778SOL     OW33232   4.430   6.663   3.142
10778SOL    HW133233   4.513   6.690   3.191
10778SOL    HW233234   4.396   6.576   3.179
10779SOL     OW33235   5.433   2.816   5.648
10779SOL    HW133236   5.418   2.771   5.560
10779SOL    HW233237   5.358   2.878   5.667
10780SOL     OW33238   1.109   5.674   4.449
10780SOL    HW133239   1.115   5.647   4.545
10780SOL    HW233240   1.163   5.610   4.393
10781SOL     OW33241   6.350   2.850   5.952
10781SOL    HW133242   6.255   2.821   5.967
10781SOL    HW233243   6.377   2.916   6.022
10782SOL     OW33244   1.448   3.418   4.819
10782SOL    HW133245   1.437   3.488   4.748
10782SOL    HW233246   1.498   3.457   4.896
10783SOL     OW33247   1.134   3.955   4.568
10783SOL    HW133248   1.098   4.032   4.620
10783SOL    HW233249   1.114   3.870   4.615
10784SOL     OW33250   4.904   5.856   3.623
10784SOL    HW133251   4.937   5.917   3.551
10784SOL    HW233252   4.953   5.770   3.620
10785SOL     OW33253   1.630   5.814   1.423
10785SOL    HW133254   1.606   5.717   1.425
10785SOL    HW233255   1.549   5.869   1.405
10786SOL     OW33256   4.844   1.319   2.450
10786SOL    HW133257   4.822   1.277   2.537
10786SOL    HW233258   4.772   1.299   2.384
10787SOL     OW33259   3.440   1.282   3.385
10787SOL    HW133260   3.449   1.183   3.396
10787SOL    HW233261   3.380   1.319   3.456
10788SOL     OW33262   1.474   3.019   6.862
10788SOL    HW133263   1.392   2.987   6.910
10788SOL    HW233264   1.462   3.008   6.764
10789SOL     OW33265   0.105   2.013   2.365
10789SOL    HW133266   0.180   2.074   2.391
10789SOL    HW233267   0.142   1.932   2.320
10790SOL     OW33268   6.710   2.969   4.628
10790SOL    HW133269   6.613   2.944   4.631
10790SOL    HW233270   6.765   2.886   4.620
10791SOL     OW33271   1.950   2.990   3.695
10791SOL    HW133272   1.973   2.926   3.769
10791SOL    HW233273   2.032   3.043   3.671
10792SOL     OW33274   3.151   0.533   1.571
10792SOL    HW133275   3.220   0.598   1.538
10792SOL    HW233276   3.191   0.473   1.640
10793SOL     OW33277   3.855   1.893   3.465
10793SOL    HW133278   3.785   1.867   3.399
10793SOL    HW233279   3.893   1.811   3.508
10794SOL     OW33280   4.851   2.701   0.478
10794SOL    HW133281   4.844   2.799   0.465
10794SOL    HW233282   4.934   2.680   0.530
10795SOL     OW33283   6.000   2.564   3.830
10795SOL    HW133284   6.083   2.514   3.854
10795SOL    HW233285   6.025   2.641   3.771
10796SOL     OW33286   6.921   1.679   6.813
10796SOL    HW133287   6.829   1.662   6.849
10796SOL    HW233288   6.924   1.654   6.716
10797SOL     OW33289   5.747   4.733   6.623
10797SOL    HW133290   5.758   4.637   6.649
10797SOL    HW233291   5.652   4.751   6.599
10798SOL     OW33292   3.197   5.813   0.663
10798SOL    HW133293   3.216   5.727   0.710
10798SOL    HW233294   3.182   5.885   0.731
10799SOL     OW33295   2.129   1.274   2.966
10799SOL    HW133296   2.175   1.240   3.048
10799SOL    HW233297   2.042   1.225   2.954
10800SOL     OW33298   0.973   0.599   5.070
10800SOL    HW133299   0.967   0.690   5.111
10800SOL    HW233300   1.001   0.533   5.139
10801SOL     OW33301   2.991   6.253   6.765
10801SOL    HW133302   2.981   6.182   6.696
10801SOL    HW233303   2.923   6.241   6.836
10802SOL     OW33304   1.095   5.130   3.176
10802SOL    HW133305   1.167   5.125   3.245
10802SOL    HW233306   1.115   5.066   3.101
10803SOL     OW33307   0.538   4.778   4.479
10803SOL    HW133308   0.459   4.785   4.418
10803SOL    HW233309   0.531   4.847   4.550
10804SOL     OW33310   5.246   5.238   6.171
10804SOL    HW133311   5.274   5.202   6.082
10804SOL    HW233312   5.326   5.269   6.221
10805SOL     OW33313   5.672   5.434   6.450
10805SOL    HW133314   5.662   5.341   6.417
10805SOL    HW233315   5.769   5.457   6.459
10806SOL     OW33316   6.802   2.882   5.409
10806SOL    HW133317   6.844   2.973   5.408
10806SOL    HW233318   6.769   2.861   5.501
10807SOL     OW33319   4.282   2.821   5.523
10807SOL    HW133320   4.377   2.853   5.527
10807SOL    HW233321   4.268   2.748   5.589
10808SOL     OW33322   0.172   2.690   0.866
10808SOL    HW133323   0.149   2.747   0.945
10808SOL    HW233324   0.103   2.619   0.854
10809SOL     OW33325   0.994   0.857   3.547
10809SOL    HW133326   1.014   0.955   3.552
10809SOL    HW233327   0.896   0.844   3.533
10810SOL     OW33328   1.716   1.724   6.047
10810SOL    HW133329   1.781   1.793   6.079
10810SOL    HW233330   1.765   1.644   6.013
10811SOL     OW33331   4.135   5.160   6.469
10811SOL    HW133332   4.040   5.140   6.494
10811SOL    HW233333   4.189   5.174   6.552
10812SOL     OW33334   6.356   3.202   2.359
10812SOL    HW133335   6.397   3.249   2.282
10812SOL    HW233336   6.400   3.231   2.444
10813SOL     OW33337   2.882   5.417   2.244
10813SOL    HW133338   2.958   5.425   2.309
10813SOL    HW233339   2.802   5.464   2.281
10814SOL     OW33340   1.554   5.977   4.266
10814SOL    HW133341   1.577   5.899   4.208
10814SOL    HW233342   1.568   6.062   4.213
10815SOL     OW33343   5.316   2.471   6.117
10815SOL    HW133344   5.335   2.569   6.123
10815SOL    HW233345   5.276   2.450   6.027
10816SOL     OW33346   2.289   2.115   1.276
10816SOL    HW133347   2.253   2.207   1.256
10816SOL    HW233348   2.227   2.067   1.337
10817SOL     OW33349   4.167   1.426   2.110
10817SOL    HW133350   4.081   1.453   2.067
10817SOL    HW233351   4.241   1.483   2.076
10818SOL     OW33352   4.732   3.510   5.630
10818SOL    HW133353   4.688   3.582   5.683
10818SOL    HW233354   4.662   3.451   5.589
10819SOL     OW33355   2.175   3.389   4.990
10819SOL    HW133356   2.176   3.292   4.967
10819SOL    HW233357   2.219   3.402   5.079
10820SOL     OW33358   0.898   6.165   5.033
10820SOL    HW133359   0.872   6.201   5.123
10820SOL    HW233360   0.889   6.065   5.033
10821SOL     OW33361   6.944   0.468   5.958
10821SOL    HW133362   6.870   0.440   6.019
10821SOL    HW233363   7.005   0.530   6.008
10822SOL     OW33364   0.524   5.930   6.468
10822SOL    HW133365   0.566   5.897   6.383
10822SOL    HW233366   0.426   5.910   6.467
10823SOL     OW33367   2.689   2.265   0.197
10823SOL    HW133368   2.712   2.210   0.278
10823SOL    HW233369   2.724   2.358   0.210
10824SOL     OW33370   5.127   1.487   4.314
10824SOL    HW133371   5.190   1.410   4.327
10824SOL    HW233372   5.067   1.494   4.394
10825SOL     OW33373   4.158   2.173   2.066
10825SOL    HW133374   4.164   2.214   2.157
10825SOL    HW233375   4.240   2.119   2.049
10826SOL     OW33376   0.029   3.441   0.597
10826SOL    HW133377   7.012   3.377   0.660
10826SOL    HW233378   0.012   3.535   0.628
10827SOL     OW33379   6.944   3.614   4.684
10827SOL    HW133380   6.959   3.531   4.737
10827SOL    HW233381   6.865   3.603   4.625
10828SOL     OW33382   2.852   4.408   0.130
10828SOL    HW133383   2.911   4.329   0.146
10828SOL    HW233384   2.816   4.404   0.037
10829SOL     OW33385   1.363   3.582   1.548
10829SOL    HW133386   1.359   3.675   1.584
10829SOL    HW233387   1.438   3.532   1.592
10830SOL     OW33388   6.311   0.528   3.585
10830SOL    HW133389   6.368   0.447   3.590
10830SOL    HW233390   6.216   0.501   3.565
10831SOL     OW33391   5.494   3.194   2.505
10831SOL    HW133392   5.456   3.197   2.412
10831SOL    HW233393   5.551   3.275   2.520
10832SOL     OW33394   1.635   2.928   2.256
10832SOL    HW133395   1.592   2.985   2.186
10832SOL    HW233396   1.704   2.981   2.305
10833SOL     OW33397   3.795   0.469   4.752
10833SOL    HW133398   3.708   0.481   4.800
10833SOL    HW233399   3.837   0.383   4.780
10834SOL     OW33400   0.014   2.153   6.051
10834SOL    HW133401   6.953   2.121   6.085
10834SOL    HW233402   0.079   2.077   6.047
10835SOL     OW33403   0.776   1.038   1.211
10835SOL    HW133404   0.764   1.131   1.178
10835SOL    HW233405   0.768   0.974   1.134
10836SOL     OW33406   6.373   1.250   1.551
10836SOL    HW133407   6.449   1.258   1.616
10836SOL    HW233408   6.293   1.212   1.598
10837SOL     OW33409   1.984   4.797   0.720
10837SOL    HW133410   2.042   4.878   0.713
10837SOL    HW233411   2.036   4.716   0.694
10838SOL     OW33412   6.311   6.664   1.215
10838SOL    HW133413   6.228   6.632   1.169
10838SOL    HW233414   6.331   6.758   1.186
10839SOL     OW33415   2.468   1.379   6.565
10839SOL    HW133416   2.370   1.396   6.556
10839SOL    HW233417   2.501   1.418   6.651
10840SOL     OW33418   1.039   0.511   3.793
10840SOL    HW133419   0.955   0.556   3.823
10840SOL    HW233420   1.085   0.569   3.726
10841SOL     OW33421   4.273   4.351   6.789
10841SOL    HW133422   4.244   4.329   6.696
10841SOL    HW233423   4.329   4.434   6.788
10842SOL     OW33424   5.843   2.081   2.663
10842SOL    HW133425   5.906   2.007   2.638
10842SOL    HW233426   5.779   2.096   2.587
10843SOL     OW33427   0.934   1.882   1.638
10843SOL    HW133428   0.895   1.826   1.711
10843SOL    HW233429   0.928   1.979   1.664
10844SOL     OW33430   4.148   6.480   3.285
10844SOL    HW133431   4.089   6.416   3.335
10844SOL    HW233432   4.109   6.572   3.289
10845SOL     OW33433   2.589   3.523   1.177
10845SOL    HW133434   2.583   3.431   1.216
10845SOL    HW233435   2.557   3.522   1.082
10846SOL     OW33436   3.433   1.230   2.105
10846SOL    HW133437   3.517   1.243   2.052
10846SOL    HW233438   3.408   1.316   2.151
10847SOL     OW33439   5.537   2.136   4.886
10847SOL    HW133440   5.458   2.077   4.902
10847SOL    HW233441   5.548   2.152   4.788
10848SOL     OW33442   2.211   0.281   6.195
10848SOL    HW133443   2.267   0.338   6.134
10848SOL    HW233444   2.117   0.317   6.196
10849SOL     OW33445   0.123   4.818   5.114
10849SOL    HW133446   0.178   4.820   5.030
10849SOL    HW233447   0.122   4.725   5.150
10850SOL     OW33448   6.209   0.728   3.840
10850SOL    HW133449   6.215   0.645   3.784
10850SOL    HW233450   6.295   0.742   3.888
10851SOL     OW33451   5.721   3.313   0.915
10851SOL    HW133452   5.702   3.230   0.968
10851SOL    HW233453   5.810   3.304   0.871
10852SOL     OW33454   5.681   1.740   5.574
10852SOL    HW133455   5.715   1.659   5.526
10852SOL    HW233456   5.697   1.821   5.518
10853SOL     OW33457   1.296   6.932   5.789
10853SOL    HW133458   1.218   6.959   5.733
10853SOL    HW233459   1.305   6.996   5.866
10854SOL     OW33460   6.186   6.205   6.697
10854SOL    HW133461   6.115   6.265   6.662
10854SOL    HW233462   6.176   6.196   6.796
10855SOL     OW33463   0.512   6.398   6.946
10855SOL    HW133464   0.503   6.313   6.999
10855SOL    HW233465   0.442   6.400   6.874
10856SOL     OW33466   4.289   6.727   7.013
10856SOL    HW133467   4.311   6.631   0.006
10856SOL    HW233468   4.233   6.732   6.931
10857SOL     OW33469   6.353   6.536   4.351
10857SOL    HW133470   6.339   6.439   4.370
10857SOL    HW233471   6.269   6.574   4.311
10858SOL     OW33472   1.237   2.794   1.587
10858SOL    HW133473   1.208   2.870   1.528
10858SOL    HW233474   1.327   2.762   1.558
10859SOL     OW33475   1.950   4.742   2.309
10859SOL    HW133476   1.952   4.643   2.320
10859SOL    HW233477   2.023   4.770   2.246
10860SOL     OW33478   5.450   1.030   2.736
10860SOL    HW133479   5.417   0.956   2.678
10860SOL    HW233480   5.464   1.112   2.680
10861SOL     OW33481   2.865   4.387   1.078
10861SOL    HW133482   2.903   4.354   0.992
10861SOL    HW233483   2.801   4.319   1.115
10862SOL     OW33484   3.534   4.446   5.616
10862SOL    HW133485   3.444   4.481   5.593
10862SOL    HW233486   3.538   4.348   5.595
10863SOL     OW33487   0.632   0.540   4.085
10863SOL    HW133488   0.616   0.508   4.179
10863SOL    HW233489   0.616   0.639   4.080
10864SOL     OW33490   2.994   3.233   2.101
10864SOL    HW133491   3.016   3.316   2.049
10864SOL    HW233492   3.075   3.204   2.152
10865SOL     OW33493   3.968   1.648   2.421
10865SOL    HW133494   3.972   1.748   2.425
10865SOL    HW233495   3.993   1.611   2.511
10866SOL     OW33496   0.311   3.277   5.220
10866SOL    HW133497   0.279   3.197   5.168
10866SOL    HW233498   0.401   3.258   5.258
10867SOL     OW33499   5.549   3.425   0.694
10867SOL    HW133500   5.461   3.379   0.707
10867SOL    HW233501   5.606   3.410   0.775
10868SOL     OW33502   6.926   0.206   5.740
10868SOL    HW133503   6.854   0.176   5.678
10868SOL    HW233504   6.945   0.303   5.724
10869NA      NA33505   6.435   1.585   6.899
10870NA      NA33506   4.801   4.539   4.673
10871NA      NA33507   1.183   4.483   3.019
10872NA      NA33508   6.206   3.571   3.783
10873NA      NA33509   4.172   2.242   5.173
10874NA      NA33510   2.552   3.706   6.755
10875NA      NA33511   1.941   5.273   0.467
10876NA      NA33512   4.362   4.792   1.917
10877NA      NA33513   5.471   3.738   1.105
10878NA      NA33514   3.740   2.153   0.591
10879NA      NA33515   4.849   6.021   1.502
10880NA      NA33516   3.057   6.386   3.897
10881NA      NA33517   3.939   5.678   3.000
10882NA      NA33518   4.714   4.901   5.614
   7.02672   7.02672   7.02672
