Generated by trjconv : CNT in water t= 408.00000
33518
    1C        C    1   2.841   2.768   4.750
    1C        C    2   2.897   2.714   4.868
    1C        C    3   2.836   2.767   4.983
    1C        C    4   2.849   2.771   4.261
    1C        C    5   2.903   2.726   4.384
    1C        C    6   2.845   2.770   4.505
    1C        C    7   3.011   2.642   4.630
    1C        C    8   2.894   2.721   4.628
    1C        C    9   3.076   2.604   4.750
    1C        C   10   3.011   2.632   4.873
    1C        C   11   3.183   2.482   4.977
    1C        C   12   3.065   2.558   4.979
    1C        C   13   2.848   2.771   3.770
    1C        C   14   2.899   2.722   3.893
    1C        C   15   2.850   2.771   4.016
    1C        C   16   3.019   2.645   4.137
    1C        C   17   2.903   2.726   4.139
    1C        C   18   3.080   2.613   4.261
    1C        C   19   3.021   2.648   4.384
    1C        C   20   3.207   2.556   4.506
    1C        C   21   3.078   2.615   4.509
    1C        C   22   3.277   2.529   4.626
    1C        C   23   3.206   2.546   4.747
    1C        C   24   3.411   2.477   4.865
    1C        C   25   3.269   2.494   4.863
    1C        C   26   3.486   2.481   4.983
    1C        C   27   2.851   2.771   3.283
    1C        C   28   2.906   2.726   3.405
    1C        C   29   2.851   2.771   3.527
    1C        C   30   3.015   2.637   3.651
    1C        C   31   2.902   2.722   3.649
    1C        C   32   3.077   2.606   3.774
    1C        C   33   3.014   2.640   3.896
    1C        C   34   3.212   2.555   4.018
    1C        C   35   3.079   2.604   4.016
    1C        C   36   3.280   2.538   4.141
    1C        C   37   3.212   2.563   4.262
    1C        C   38   3.417   2.516   4.384
    1C        C   39   3.277   2.540   4.385
    1C        C   40   3.488   2.510   4.506
    1C        C   41   3.416   2.507   4.628
    1C        C   42   3.631   2.484   4.748
    1C        C   43   3.489   2.480   4.746
    1C        C   44   3.704   2.489   4.869
    1C        C   45   3.625   2.489   4.985
    1C        C   46   2.835   2.749   2.794
    1C        C   47   2.893   2.708   2.916
    1C        C   48   2.845   2.762   3.038
    1C        C   49   3.018   2.640   3.161
    1C        C   50   2.903   2.723   3.160
    1C        C   51   3.080   2.605   3.283
    1C        C   52   3.019   2.642   3.406
    1C        C   53   3.206   2.548   3.529
    1C        C   54   3.075   2.601   3.529
    1C        C   55   3.274   2.530   3.651
    1C        C   56   3.208   2.551   3.774
    1C        C   57   3.417   2.511   3.894
    1C        C   58   3.276   2.529   3.895
    1C        C   59   3.486   2.509   4.017
    1C        C   60   3.418   2.508   4.140
    1C        C   61   3.628   2.490   4.262
    1C        C   62   3.487   2.500   4.263
    1C        C   63   3.700   2.504   4.382
    1C        C   64   3.629   2.507   4.504
    1C        C   65   3.835   2.544   4.622
    1C        C   66   3.700   2.504   4.627
    1C        C   67   3.904   2.565   4.744
    1C        C   68   3.840   2.526   4.864
    1C        C   69   4.052   2.587   4.981
    1C        C   70   3.921   2.536   4.977
    1C        C   71   2.818   2.732   2.311
    1C        C   72   2.881   2.692   2.431
    1C        C   73   2.829   2.744   2.552
    1C        C   74   3.010   2.627   2.672
    1C        C   75   2.888   2.699   2.673
    1C        C   76   3.074   2.596   2.794
    1C        C   77   3.012   2.632   2.916
    1C        C   78   3.208   2.551   3.038
    1C        C   79   3.077   2.603   3.038
    1C        C   80   3.279   2.535   3.159
    1C        C   81   3.211   2.553   3.282
    1C        C   82   3.413   2.501   3.405
    1C        C   83   3.274   2.529   3.406
    1C        C   84   3.485   2.502   3.527
    1C        C   85   3.414   2.507   3.649
    1C        C   86   3.627   2.507   3.773
    1C        C   87   3.486   2.504   3.771
    1C        C   88   3.697   2.516   3.895
    1C        C   89   3.628   2.508   4.018
    1C        C   90   3.835   2.549   4.136
    1C        C   91   3.699   2.510   4.141
    1C        C   92   3.905   2.566   4.258
    1C        C   93   3.837   2.541   4.378
    1C        C   94   4.027   2.635   4.502
    1C        C   95   3.902   2.570   4.500
    1C        C   96   4.093   2.669   4.623
    1C        C   97   4.032   2.626   4.742
    1C        C   98   4.191   2.766   4.864
    1C        C   99   4.099   2.656   4.864
    1C        C  100   4.212   2.841   4.981
    1C        C  101   2.823   2.726   2.071
    1C        C  102   2.990   2.593   2.191
    1C        C  103   2.875   2.679   2.192
    1C        C  104   3.062   2.574   2.312
    1C        C  105   2.997   2.613   2.431
    1C        C  106   3.198   2.530   2.550
    1C        C  107   3.069   2.588   2.550
    1C        C  108   3.269   2.515   2.671
    1C        C  109   3.203   2.539   2.794
    1C        C  110   3.412   2.498   2.916
    1C        C  111   3.273   2.523   2.916
    1C        C  112   3.486   2.496   3.036
    1C        C  113   3.418   2.514   3.159
    1C        C  114   3.625   2.501   3.280
    1C        C  115   3.484   2.497   3.283
    1C        C  116   3.694   2.513   3.403
    1C        C  117   3.626   2.510   3.527
    1C        C  118   3.832   2.548   3.647
    1C        C  119   3.695   2.514   3.650
    1C        C  120   3.898   2.571   3.770
    1C        C  121   3.834   2.551   3.894
    1C        C  122   4.028   2.639   4.015
    1C        C  123   3.901   2.577   4.015
    1C        C  124   4.091   2.673   4.137
    1C        C  125   4.028   2.635   4.258
    1C        C  126   4.198   2.763   4.375
    1C        C  127   4.087   2.674   4.380
    1C        C  128   4.247   2.812   4.498
    1C        C  129   4.192   2.770   4.621
    1C        C  130   4.324   2.937   4.742
    1C        C  131   4.241   2.821   4.743
    1C        C  132   4.357   3.004   4.862
    1C        C  133   4.284   2.960   4.973
    1C        C  134   3.174   2.483   2.079
    1C        C  135   3.036   2.505   2.088
    1C        C  136   3.258   2.479   2.191
    1C        C  137   3.193   2.518   2.310
    1C        C  138   3.407   2.484   2.428
    1C        C  139   3.267   2.506   2.429
    1C        C  140   3.479   2.483   2.550
    1C        C  141   3.408   2.492   2.672
    1C        C  142   3.622   2.495   2.790
    1C        C  143   3.481   2.488   2.793
    1C        C  144   3.693   2.507   2.912
    1C        C  145   3.627   2.493   3.036
    1C        C  146   3.833   2.535   3.157
    1C        C  147   3.696   2.500   3.159
    1C        C  148   3.899   2.566   3.279
    1C        C  149   3.830   2.551   3.402
    1C        C  150   4.027   2.629   3.524
    1C        C  151   3.899   2.569   3.524
    1C        C  152   4.086   2.666   3.647
    1C        C  153   4.025   2.633   3.770
    1C        C  154   4.196   2.762   3.888
    1C        C  155   4.085   2.674   3.891
    1C        C  156   4.246   2.814   4.009
    1C        C  157   4.200   2.763   4.132
    1C        C  158   4.339   2.924   4.256
    1C        C  159   4.249   2.815   4.254
    1C        C  160   4.375   2.982   4.379
    1C        C  161   4.332   2.924   4.501
    1C        C  162   4.437   3.115   4.616
    1C        C  163   4.369   2.991   4.620
    1C        C  164   4.465   3.183   4.736
    1C        C  165   4.433   3.123   4.860
    1C        C  166   4.531   3.316   4.969
    1C        C  167   4.483   3.186   4.974
    1C        C  168   3.474   2.441   2.073
    1C        C  169   3.397   2.455   2.190
    1C        C  170   3.617   2.463   2.308
    1C        C  171   3.475   2.461   2.307
    1C        C  172   3.693   2.479   2.426
    1C        C  173   3.620   2.483   2.547
    1C        C  174   3.827   2.541   2.667
    1C        C  175   3.692   2.502   2.667
    1C        C  176   3.895   2.560   2.789
    1C        C  177   3.831   2.536   2.913
    1C        C  178   4.024   2.627   3.033
    1C        C  179   3.900   2.559   3.035
    1C        C  180   4.084   2.663   3.156
    1C        C  181   4.027   2.625   3.279
    1C        C  182   4.197   2.752   3.398
    1C        C  183   4.089   2.661   3.401
    1C        C  184   4.243   2.806   3.520
    1C        C  185   4.195   2.756   3.644
    1C        C  186   4.335   2.919   3.765
    1C        C  187   4.247   2.808   3.765
    1C        C  188   4.374   2.978   3.887
    1C        C  189   4.333   2.926   4.012
    1C        C  190   4.449   3.104   4.131
    1C        C  191   4.379   2.981   4.133
    1C        C  192   4.467   3.174   4.253
    1C        C  193   4.440   3.108   4.374
    1C        C  194   4.506   3.314   4.493
    1C        C  195   4.465   3.179   4.494
    1C        C  196   4.520   3.389   4.612
    1C        C  197   4.503   3.320   4.733
    1C        C  198   4.550   3.536   4.850
    1C        C  199   4.530   3.394   4.852
    1C        C  200   4.576   3.620   4.962
    1C        C  201   3.613   2.427   2.074
    1C        C  202   3.828   2.510   2.182
    1C        C  203   3.692   2.465   2.187
    1C        C  204   3.899   2.538   2.302
    1C        C  205   3.830   2.515   2.423
    1C        C  206   4.016   2.625   2.542
    1C        C  207   3.892   2.559   2.542
    1C        C  208   4.078   2.660   2.664
    1C        C  209   4.020   2.625   2.789
    1C        C  210   4.198   2.744   2.907
    1C        C  211   4.081   2.666   2.910
    1C        C  212   4.251   2.793   3.029
    1C        C  213   4.197   2.748   3.151
    1C        C  214   4.334   2.908   3.274
    1C        C  215   4.247   2.797   3.273
    1C        C  216   4.369   2.971   3.396
    1C        C  217   4.331   2.916   3.520
    1C        C  218   4.433   3.105   3.641
    1C        C  219   4.367   2.979   3.641
    1C        C  220   4.469   3.165   3.763
    1C        C  221   4.441   3.103   3.886
    1C        C  222   4.504   3.306   4.003
    1C        C  223   4.469   3.169   4.008
    1C        C  224   4.512   3.380   4.123
    1C        C  225   4.500   3.311   4.246
    1C        C  226   4.516   3.522   4.368
    1C        C  227   4.515   3.381   4.368
    1C        C  228   4.512   3.597   4.488
    1C        C  229   4.524   3.531   4.612
    1C        C  230   4.502   3.747   4.729
    1C        C  231   4.536   3.609   4.729
    1C        C  232   4.495   3.822   4.848
    1C        C  233   4.544   3.756   4.961
    1C        C  234   4.014   2.616   2.063
    1C        C  235   3.892   2.550   2.064
    1C        C  236   4.083   2.649   2.180
    1C        C  237   4.024   2.605   2.301
    1C        C  238   4.198   2.735   2.423
    1C        C  239   4.084   2.651   2.421
    1C        C  240   4.254   2.783   2.543
    1C        C  241   4.194   2.741   2.664
    1C        C  242   4.336   2.902   2.786
    1C        C  243   4.248   2.791   2.784
    1C        C  244   4.378   2.962   2.907
    1C        C  245   4.338   2.905   3.030
    1C        C  246   4.437   3.092   3.149
    1C        C  247   4.377   2.964   3.152
    1C        C  248   4.453   3.161   3.271
    1C        C  249   4.427   3.100   3.396
    1C        C  250   4.492   3.305   3.514
    1C        C  251   4.455   3.169   3.517
    1C        C  252   4.506   3.374   3.637
    1C        C  253   4.500   3.303   3.759
    1C        C  254   4.516   3.516   3.879
    1C        C  255   4.516   3.375   3.880
    1C        C  256   4.515   3.588   4.000
    1C        C  257   4.517   3.521   4.124
    1C        C  258   4.487   3.732   4.242
    1C        C  259   4.510   3.593   4.246
    1C        C  260   4.468   3.804   4.362
    1C        C  261   4.484   3.735   4.484
    1C        C  262   4.422   3.940   4.604
    1C        C  263   4.470   3.807   4.605
    1C        C  264   4.403   4.014   4.723
    1C        C  265   4.439   3.952   4.844
    1C        C  266   4.313   4.128   4.960
    1C        C  267   4.393   4.014   4.961
    1C        C  268   4.264   2.773   2.064
    1C        C  269   4.195   2.735   2.180
    1C        C  270   4.345   2.889   2.299
    1C        C  271   4.249   2.784   2.300
    1C        C  272   4.384   2.951   2.419
    1C        C  273   4.344   2.893   2.541
    1C        C  274   4.440   3.084   2.661
    1C        C  275   4.375   2.958   2.662
    1C        C  276   4.470   3.150   2.782
    1C        C  277   4.447   3.085   2.906
    1C        C  278   4.506   3.291   3.024
    1C        C  279   4.472   3.154   3.027
    1C        C  280   4.509   3.365   3.145
    1C        C  281   4.491   3.297   3.267
    1C        C  282   4.505   3.510   3.387
    1C        C  283   4.503   3.369   3.389
    1C        C  284   4.506   3.582   3.509
    1C        C  285   4.511   3.515   3.633
    1C        C  286   4.486   3.724   3.753
    1C        C  287   4.510   3.585   3.755
    1C        C  288   4.473   3.794   3.875
    1C        C  289   4.492   3.728   3.999
    1C        C  290   4.426   3.933   4.116
    1C        C  291   4.474   3.800   4.119
    1C        C  292   4.393   4.000   4.236
    1C        C  293   4.420   3.937   4.360
    1C        C  294   4.322   4.127   4.477
    1C        C  295   4.390   4.003   4.482
    1C        C  296   4.283   4.186   4.599
    1C        C  297   4.323   4.132   4.723
    1C        C  298   4.202   4.316   4.837
    1C        C  299   4.280   4.196   4.842
    1C        C  300   4.165   4.398   4.948
    1C        C  301   4.351   2.882   2.061
    1C        C  302   4.470   3.066   2.176
    1C        C  303   4.399   2.942   2.178
    1C        C  304   4.479   3.143   2.295
    1C        C  305   4.445   3.078   2.416
    1C        C  306   4.510   3.281   2.538
    1C        C  307   4.473   3.144   2.538
    1C        C  308   4.511   3.356   2.657
    1C        C  309   4.502   3.288   2.780
    1C        C  310   4.515   3.501   2.900
    1C        C  311   4.518   3.359   2.901
    1C        C  312   4.509   3.574   3.020
    1C        C  313   4.512   3.506   3.144
    1C        C  314   4.488   3.719   3.265
    1C        C  315   4.513   3.580   3.265
    1C        C  316   4.472   3.791   3.386
    1C        C  317   4.489   3.722   3.508
    1C        C  318   4.424   3.925   3.627
    1C        C  319   4.468   3.790   3.629
    1C        C  320   4.395   3.991   3.749
    1C        C  321   4.420   3.925   3.871
    1C        C  322   4.319   4.113   3.991
    1C        C  323   4.393   3.993   3.992
    1C        C  324   4.281   4.175   4.112
    1C        C  325   4.326   4.124   4.236
    1C        C  326   4.190   4.291   4.352
    1C        C  327   4.288   4.189   4.355
    1C        C  328   4.141   4.344   4.474
    1C        C  329   4.197   4.298   4.595
    1C        C  330   4.028   4.438   4.714
    1C        C  331   4.146   4.358   4.713
    1C        C  332   3.969   4.495   4.829
    1C        C  333   4.050   4.478   4.942
    1C        C  334   4.553   3.266   2.064
    1C        C  335   4.535   3.127   2.064
    1C        C  336   4.535   3.350   2.175
    1C        C  337   4.507   3.282   2.296
    1C        C  338   4.528   3.494   2.415
    1C        C  339   4.522   3.353   2.417
    1C        C  340   4.520   3.571   2.533
    1C        C  341   4.515   3.498   2.654
    1C        C  342   4.485   3.708   2.775
    1C        C  343   4.508   3.568   2.776
    1C        C  344   4.466   3.779   2.896
    1C        C  345   4.485   3.713   3.019
    1C        C  346   4.431   3.919   3.137
    1C        C  347   4.472   3.784   3.141
    1C        C  348   4.402   3.989   3.257
    1C        C  349   4.431   3.926   3.380
    1C        C  350   4.326   4.108   3.503
    1C        C  351   4.401   3.989   3.504
    1C        C  352   4.275   4.164   3.622
    1C        C  353   4.318   4.109   3.744
    1C        C  354   4.180   4.269   3.866
    1C        C  355   4.276   4.165   3.867
    1C        C  356   4.129   4.322   3.986
    1C        C  357   4.181   4.275   4.109
    1C        C  358   4.011   4.404   4.231
    1C        C  359   4.127   4.323   4.230
    1C        C  360   3.955   4.451   4.351
    1C        C  361   4.022   4.419   4.472
    1C        C  362   3.829   4.513   4.593
    1C        C  363   3.959   4.458   4.592
    1C        C  364   3.762   4.553   4.711
    1C        C  365   3.837   4.545   4.830
    1C        C  366   3.630   4.594   4.948
    1C        C  367   3.767   4.570   4.948
    1C        C  368   4.507   3.564   2.056
    1C        C  369   4.526   3.491   2.174
    1C        C  370   4.506   3.706   2.290
    1C        C  371   4.522   3.566   2.293
    1C        C  372   4.483   3.779   2.409
    1C        C  373   4.500   3.711   2.532
    1C        C  374   4.424   3.911   2.649
    1C        C  375   4.471   3.778   2.653
    1C        C  376   4.397   3.980   2.769
    1C        C  377   4.423   3.913   2.891
    1C        C  378   4.328   4.101   3.012
    1C        C  379   4.401   3.981   3.014
    1C        C  380   4.282   4.161   3.132
    1C        C  381   4.323   4.106   3.255
    1C        C  382   4.181   4.260   3.380
    1C        C  383   4.281   4.160   3.379
    1C        C  384   4.125   4.311   3.498
    1C        C  385   4.176   4.265   3.622
    1C        C  386   4.010   4.397   3.743
    1C        C  387   4.124   4.313   3.744
    1C        C  388   3.947   4.433   3.865
    1C        C  389   4.009   4.397   3.986
    1C        C  390   3.821   4.493   4.107
    1C        C  391   3.951   4.440   4.108
    1C        C  392   3.753   4.513   4.230
    1C        C  393   3.822   4.498   4.352
    1C        C  394   3.618   4.554   4.476
    1C        C  395   3.758   4.533   4.473
    1C        C  396   3.547   4.566   4.597
    1C        C  397   3.621   4.569   4.717
    1C        C  398   3.408   4.553   4.842
    1C        C  399   3.546   4.580   4.836
    1C        C  400   3.339   4.523   4.960
    1C        C  401   4.506   3.703   2.055
    1C        C  402   4.454   3.916   2.166
    1C        C  403   4.493   3.780   2.171
    1C        C  404   4.416   3.982   2.285
    1C        C  405   4.435   3.912   2.407
    1C        C  406   4.329   4.099   2.524
    1C        C  407   4.401   3.978   2.527
    1C        C  408   4.287   4.158   2.645
    1C        C  409   4.323   4.100   2.769
    1C        C  410   4.180   4.256   2.889
    1C        C  411   4.281   4.157   2.891
    1C        C  412   4.124   4.299   3.012
    1C        C  413   4.181   4.260   3.135
    1C        C  414   4.004   4.374   3.254
    1C        C  415   4.127   4.305   3.257
    1C        C  416   3.944   4.419   3.375
    1C        C  417   4.005   4.386   3.498
    1C        C  418   3.814   4.475   3.620
    1C        C  419   3.945   4.424   3.620
    1C        C  420   3.748   4.506   3.741
    1C        C  421   3.817   4.488   3.863
    1C        C  422   3.611   4.531   3.988
    1C        C  423   3.750   4.510   3.986
    1C        C  424   3.542   4.536   4.111
    1C        C  425   3.613   4.536   4.233
    1C        C  426   3.403   4.546   4.357
    1C        C  427   3.544   4.553   4.355
    1C        C  428   3.331   4.549   4.478
    1C        C  429   3.406   4.558   4.597
    1C        C  430   3.197   4.520   4.722
    1C        C  431   3.337   4.545   4.720
    1C        C  432   3.127   4.495   4.843
    1C        C  433   3.202   4.495   4.961
    1C        C  434   4.386   4.124   2.050
    1C        C  435   4.442   3.996   2.051
    1C        C  436   4.302   4.162   2.159
    1C        C  437   4.335   4.098   2.282
    1C        C  438   4.178   4.247   2.400
    1C        C  439   4.285   4.154   2.401
    1C        C  440   4.129   4.295   2.523
    1C        C  441   4.185   4.257   2.647
    1C        C  442   4.007   4.378   2.764
    1C        C  443   4.127   4.302   2.767
    1C        C  444   3.945   4.412   2.886
    1C        C  445   4.005   4.375   3.008
    1C        C  446   3.814   4.465   3.130
    1C        C  447   3.942   4.406   3.131
    1C        C  448   3.747   4.488   3.252
    1C        C  449   3.813   4.471   3.376
    1C        C  450   3.607   4.523   3.499
    1C        C  451   3.745   4.492   3.498
    1C        C  452   3.540   4.537   3.622
    1C        C  453   3.609   4.532   3.745
    1C        C  454   3.397   4.536   3.867
    1C        C  455   3.538   4.540   3.867
    1C        C  456   3.328   4.522   3.989
    1C        C  457   3.401   4.530   4.110
    1C        C  458   3.197   4.496   4.239
    1C        C  459   3.335   4.523   4.235
    1C        C  460   3.125   4.488   4.361
    1C        C  461   3.194   4.516   4.481
    1C        C  462   2.997   4.437   4.605
    1C        C  463   3.125   4.496   4.603
    1C        C  464   2.930   4.406   4.725
    1C        C  465   2.992   4.448   4.846
    1C        C  466   2.803   4.335   4.961
    1C        C  467   2.908   4.428   4.960
    1C        C  468   4.127   4.292   2.039
    1C        C  469   4.189   4.250   2.157
    1C        C  470   4.013   4.376   2.277
    1C        C  471   4.132   4.299   2.277
    1C        C  472   3.947   4.404   2.399
    1C        C  473   4.009   4.370   2.521
    1C        C  474   3.813   4.461   2.643
    1C        C  475   3.944   4.407   2.641
    1C        C  476   3.744   4.484   2.764
    1C        C  477   3.814   4.465   2.886
    1C        C  478   3.607   4.513   3.010
    1C        C  479   3.745   4.482   3.008
    1C        C  480   3.537   4.520   3.132
    1C        C  481   3.609   4.521   3.254
    1C        C  482   3.397   4.530   3.376
    1C        C  483   3.538   4.532   3.376
    1C        C  484   3.328   4.528   3.499
    1C        C  485   3.398   4.536   3.621
    1C        C  486   3.190   4.502   3.745
    1C        C  487   3.328   4.532   3.743
    1C        C  488   3.123   4.481   3.868
    1C        C  489   3.189   4.499   3.992
    1C        C  490   3.001   4.416   4.114
    1C        C  491   3.127   4.479   4.117
    1C        C  492   2.944   4.382   4.238
    1C        C  493   2.998   4.426   4.361
    1C        C  494   2.831   4.301   4.483
    1C        C  495   2.938   4.392   4.485
    1C        C  496   2.776   4.257   4.606
    1C        C  497   2.817   4.319   4.726
    1C        C  498   2.665   4.166   4.844
    1C        C  499   2.752   4.277   4.844
    1C        C  500   2.600   4.118   4.958
    1C        C  501   4.005   4.361   2.039
    1C        C  502   3.816   4.464   2.156
    1C        C  503   3.943   4.402   2.157
    1C        C  504   3.748   4.481   2.279
    1C        C  505   3.814   4.452   2.400
    1C        C  506   3.608   4.509   2.520
    1C        C  507   3.745   4.476   2.520
    1C        C  508   3.536   4.516   2.642
    1C        C  509   3.606   4.511   2.764
    1C        C  510   3.396   4.515   2.887
    1C        C  511   3.537   4.522   2.888
    1C        C  512   3.325   4.516   3.009
    1C        C  513   3.396   4.525   3.131
    1C        C  514   3.190   4.493   3.254
    1C        C  515   3.326   4.528   3.254
    1C        C  516   3.123   4.469   3.377
    1C        C  517   3.190   4.497   3.499
    1C        C  518   2.998   4.413   3.625
    1C        C  519   3.124   4.476   3.622
    1C        C  520   2.940   4.376   3.748
    1C        C  521   2.997   4.418   3.870
    1C        C  522   2.832   4.286   3.996
    1C        C  523   2.937   4.381   3.993
    1C        C  524   2.789   4.235   4.120
    1C        C  525   2.834   4.294   4.241
    1C        C  526   2.693   4.135   4.364
    1C        C  527   2.783   4.244   4.363
    1C        C  528   2.656   4.077   4.487
    1C        C  529   2.692   4.144   4.606
    1C        C  530   2.592   3.956   4.732
    1C        C  531   2.645   4.088   4.727
    1C        C  532   2.542   3.902   4.854
    1C        C  533   2.528   3.998   4.959
    1C        C  534   3.618   4.563   2.043
    1C        C  535   3.749   4.512   2.043
    1C        C  536   3.537   4.539   2.159
    1C        C  537   3.609   4.511   2.278
    1C        C  538   3.394   4.515   2.400
    1C        C  539   3.535   4.515   2.399
    1C        C  540   3.323   4.509   2.523
    1C        C  541   3.394   4.511   2.645
    1C        C  542   3.184   4.477   2.768
    1C        C  543   3.323   4.504   2.766
    1C        C  544   3.117   4.467   2.891
    1C        C  545   3.187   4.487   3.012
    1C        C  546   2.992   4.404   3.132
    1C        C  547   3.121   4.463   3.135
    1C        C  548   2.938   4.369   3.257
    1C        C  549   2.997   4.405   3.380
    1C        C  550   2.828   4.285   3.504
    1C        C  551   2.936   4.376   3.504
    1C        C  552   2.779   4.238   3.628
    1C        C  553   2.826   4.292   3.749
    1C        C  554   2.698   4.127   3.875
    1C        C  555   2.779   4.243   3.873
    1C        C  556   2.660   4.068   3.997
    1C        C  557   2.698   4.126   4.120
    1C        C  558   2.597   3.944   4.246
    1C        C  559   2.656   4.072   4.243
    1C        C  560   2.573   3.878   4.369
    1C        C  561   2.596   3.950   4.489
    1C        C  562   2.535   3.749   4.615
    1C        C  563   2.571   3.885   4.612
    1C        C  564   2.516   3.682   4.738
    1C        C  565   2.517   3.761   4.856
    1C        C  566   2.524   3.544   4.974
    1C        C  567   2.518   3.683   4.973
    1C        C  568   3.330   4.473   2.044
    1C        C  569   3.397   4.519   2.158
    1C        C  570   3.183   4.485   2.281
    1C        C  571   3.322   4.516   2.279
    1C        C  572   3.114   4.464   2.403
    1C        C  573   3.184   4.485   2.524
    1C        C  574   2.987   4.406   2.646
    1C        C  575   3.114   4.467   2.646
    1C        C  576   2.929   4.368   2.769
    1C        C  577   2.989   4.408   2.891
    1C        C  578   2.819   4.277   3.015
    1C        C  579   2.927   4.369   3.012
    1C        C  580   2.773   4.228   3.139
    1C        C  581   2.829   4.278   3.259
    1C        C  582   2.692   4.120   3.384
    1C        C  583   2.778   4.232   3.383
    1C        C  584   2.659   4.061   3.507
    1C        C  585   2.697   4.123   3.628
    1C        C  586   2.601   3.938   3.756
    1C        C  587   2.662   4.065   3.753
    1C        C  588   2.578   3.872   3.879
    1C        C  589   2.602   3.939   4.001
    1C        C  590   2.540   3.739   4.129
    1C        C  591   2.574   3.876   4.125
    1C        C  592   2.530   3.669   4.251
    1C        C  593   2.537   3.741   4.372
    1C        C  594   2.514   3.534   4.496
    1C        C  595   2.520   3.675   4.495
    1C        C  596   2.517   3.465   4.620
    1C        C  597   2.509   3.540   4.739
    1C        C  598   2.526   3.326   4.862
    1C        C  599   2.509   3.466   4.859
    1C        C  600   2.521   3.247   4.978
    1C        C  601   3.196   4.441   2.045
    1C        C  602   2.981   4.402   2.160
    1C        C  603   3.118   4.446   2.162
    1C        C  604   2.926   4.365   2.285
    1C        C  605   2.987   4.403   2.406
    1C        C  606   2.818   4.269   2.527
    1C        C  607   2.926   4.361   2.527
    1C        C  608   2.771   4.221   2.651
    1C        C  609   2.824   4.274   2.771
    1C        C  610   2.685   4.112   2.896
    1C        C  611   2.775   4.222   2.893
    1C        C  612   2.644   4.058   3.019
    1C        C  613   2.686   4.117   3.141
    1C        C  614   2.596   3.927   3.267
    1C        C  615   2.651   4.057   3.264
    1C        C  616   2.572   3.864   3.391
    1C        C  617   2.599   3.933   3.512
    1C        C  618   2.542   3.732   3.642
    1C        C  619   2.575   3.869   3.636
    1C        C  620   2.536   3.663   3.765
    1C        C  621   2.544   3.735   3.886
    1C        C  622   2.516   3.525   4.010
    1C        C  623   2.530   3.666   4.008
    1C        C  624   2.515   3.455   4.133
    1C        C  625   2.519   3.528   4.253
    1C        C  626   2.537   3.320   4.380
    1C        C  627   2.514   3.459   4.377
    1C        C  628   2.553   3.252   4.503
    1C        C  629   2.536   3.325   4.623
    1C        C  630   2.592   3.117   4.746
    1C        C  631   2.551   3.253   4.743
    1C        C  632   2.617   3.048   4.868
    1C        C  633   2.556   3.112   4.981
    1C        C  634   2.781   4.308   2.052
    1C        C  635   2.893   4.392   2.048
    1C        C  636   2.756   4.232   2.167
    1C        C  637   2.813   4.278   2.288
    1C        C  638   2.677   4.110   2.407
    1C        C  639   2.760   4.225   2.407
    1C        C  640   2.642   4.050   2.530
    1C        C  641   2.684   4.110   2.651
    1C        C  642   2.585   3.925   2.779
    1C        C  643   2.646   4.052   2.774
    1C        C  644   2.565   3.858   2.901
    1C        C  645   2.588   3.928   3.022
    1C        C  646   2.534   3.724   3.149
    1C        C  647   2.570   3.861   3.145
    1C        C  648   2.518   3.658   3.273
    1C        C  649   2.530   3.730   3.394
    1C        C  650   2.517   3.522   3.521
    1C        C  651   2.527   3.663   3.519
    1C        C  652   2.519   3.452   3.644
    1C        C  653   2.524   3.522   3.767
    1C        C  654   2.541   3.312   3.893
    1C        C  655   2.521   3.452   3.889
    1C        C  656   2.550   3.244   4.016
    1C        C  657   2.538   3.316   4.137
    1C        C  658   2.603   3.115   4.260
    1C        C  659   2.559   3.249   4.260
    1C        C  660   2.633   3.052   4.383
    1C        C  661   2.600   3.118   4.504
    1C        C  662   2.705   2.935   4.627
    1C        C  663   2.626   3.052   4.625
    1C        C  664   2.749   2.876   4.748
    1C        C  665   2.703   2.933   4.870
    1C        C  666   2.740   2.867   4.988
    1C        C  667   2.687   4.026   2.053
    1C        C  668   2.691   4.107   2.167
    1C        C  669   2.592   3.914   2.291
    1C        C  670   2.644   4.046   2.286
    1C        C  671   2.566   3.848   2.414
    1C        C  672   2.583   3.922   2.533
    1C        C  673   2.523   3.722   2.658
    1C        C  674   2.554   3.860   2.657
    1C        C  675   2.515   3.651   2.780
    1C        C  676   2.529   3.721   2.902
    1C        C  677   2.511   3.514   3.030
    1C        C  678   2.519   3.655   3.026
    1C        C  679   2.517   3.446   3.154
    1C        C  680   2.511   3.517   3.275
    1C        C  681   2.538   3.311   3.401
    1C        C  682   2.511   3.450   3.400
    1C        C  683   2.558   3.243   3.523
    1C        C  684   2.540   3.313   3.645
    1C        C  685   2.601   3.113   3.773
    1C        C  686   2.558   3.247   3.769
    1C        C  687   2.634   3.050   3.895
    1C        C  688   2.606   3.114   4.018
    1C        C  689   2.713   2.930   4.140
    1C        C  690   2.637   3.049   4.139
    1C        C  691   2.755   2.877   4.264
    1C        C  692   2.709   2.933   4.385
    1C        C  693   2.758   2.881   4.507
    1C        C  694   2.631   3.898   2.057
    1C        C  695   2.533   3.705   2.173
    1C        C  696   2.576   3.840   2.172
    1C        C  697   2.514   3.641   2.297
    1C        C  698   2.531   3.711   2.418
    1C        C  699   2.497   3.505   2.543
    1C        C  700   2.506   3.646   2.541
    1C        C  701   2.509   3.436   2.665
    1C        C  702   2.510   3.510   2.786
    1C        C  703   2.532   3.301   2.912
    1C        C  704   2.516   3.441   2.909
    1C        C  705   2.547   3.235   3.036
    1C        C  706   2.537   3.306   3.157
    1C        C  707   2.602   3.105   3.280
    1C        C  708   2.556   3.239   3.280
    1C        C  709   2.631   3.043   3.404
    1C        C  710   2.605   3.110   3.525
    1C        C  711   2.713   2.935   3.650
    1C        C  712   2.632   3.050   3.650
    1C        C  713   2.753   2.876   3.772
    1C        C  714   2.711   2.932   3.895
    1C        C  715   2.754   2.874   4.017
    1C        C  716   2.448   3.503   2.067
    1C        C  717   2.500   3.632   2.058
    1C        C  718   2.463   3.422   2.184
    1C        C  719   2.493   3.500   2.299
    1C        C  720   2.520   3.292   2.424
    1C        C  721   2.496   3.431   2.422
    1C        C  722   2.539   3.224   2.546
    1C        C  723   2.535   3.297   2.667
    1C        C  724   2.596   3.098   2.793
    1C        C  725   2.548   3.230   2.791
    1C        C  726   2.620   3.031   2.915
    1C        C  727   2.597   3.103   3.035
    1C        C  728   2.701   2.919   3.158
    1C        C  729   2.629   3.041   3.158
    1C        C  730   2.755   2.874   3.281
    1C        C  731   2.711   2.926   3.405
    1C        C  732   2.754   2.874   3.529
    1C        C  733   2.487   3.195   2.074
    1C        C  734   2.487   3.281   2.184
    1C        C  735   2.584   3.086   2.307
    1C        C  736   2.528   3.217   2.304
    1C        C  737   2.618   3.022   2.428
    1C        C  738   2.594   3.094   2.547
    1C        C  739   2.696   2.911   2.673
    1C        C  740   2.625   3.033   2.671
    1C        C  741   2.738   2.852   2.794
    1C        C  742   2.696   2.911   2.915
    1C        C  743   2.744   2.861   3.037
    1C        C  744   2.542   3.067   2.074
    1C        C  745   2.681   2.895   2.185
    1C        C  746   2.609   3.017   2.186
    1C        C  747   2.725   2.839   2.307
    1C        C  748   2.687   2.899   2.429
    1C        C  749   2.738   2.852   2.552
    1C        C  750   2.737   2.836   2.071
    1C        C  751   3.667   2.326   1.979
    1C        O  752   3.685   2.204   2.003
    1C        O  753   3.687   2.356   1.844
    1C        C  754   4.647   3.062   1.993
    1C        O  755   4.628   2.988   1.893
    1C        O  756   4.774   3.044   2.049
    1C        C  757   4.472   4.237   2.007
    1C        O  758   4.566   4.281   2.079
    1C        O  759   4.517   4.253   1.875
    1C        C  760   3.596   4.689   1.969
    1C        O  761   3.644   4.799   2.007
    1C        O  762   3.534   4.691   1.843
    1C        C  763   2.877   4.507   1.956
    1C        O  764   2.869   4.484   1.832
    1C        O  765   2.842   4.637   1.996
    1C        C  766   2.350   3.475   1.959
    1C        O  767   2.394   3.438   1.847
    1C        O  768   2.233   3.550   1.944
    1C        C  769   4.693   3.591   5.048
    1C        O  770   4.682   3.583   5.173
    1C        O  771   4.829   3.616   5.024
    1C        C  772   4.256   4.413   5.064
    1C        O  773   4.209   4.415   5.181
    1C        O  774   4.335   4.529   5.059
    1C        C  775   4.144   2.525   5.078
    1C        O  776   4.222   2.433   5.043
    1C        O  777   4.108   2.509   5.213
    1C        C  778   2.890   4.542   5.052
    1C        O  779   2.785   4.613   5.048
    1C        O  780   2.937   4.535   5.184
    1C        C  781   2.469   3.032   5.071
    1C        O  782   2.348   3.013   5.041
    1C        O  783   2.500   3.006   5.204
    1C        C  784   2.414   4.004   5.053
    1C        O  785   2.296   4.033   5.019
    1C        O  786   2.430   4.003   5.192
    1C        C  787   2.939   2.406   2.036
    1C        O  788   2.850   2.438   1.954
    1C        O  789   2.939   2.270   2.067
    1C        C  790   3.190   2.374   5.078
    1C        O  791   3.155   2.256   5.052
    1C        O  792   3.188   2.407   5.214
    1C        H  793   4.252   3.035   5.042
    1C        H  794   4.206   2.788   5.074
    1C        H  795   4.475   3.135   5.068
    1C        H  796   4.518   3.377   5.056
    1C        H  797   4.525   3.799   5.058
    1C        H  798   4.418   3.977   5.058
    1C        H  799   4.257   4.146   5.049
    1C        H  800   4.067   4.573   4.990
    1C        H  801   3.818   4.589   5.040
    1C        H  802   3.585   4.623   5.041
    1C        H  803   3.394   4.485   5.043
    1C        H  804   3.162   4.438   5.042
    1C        H  805   3.880   2.509   5.072
    1C        H  806   3.672   2.468   5.079
    1C        H  807   2.991   2.538   5.053
    1C        H  808   3.436   2.476   5.077
    1C        H  809   2.869   2.734   5.079
    1C        H  810   2.678   2.871   5.075
    1C        H  811   2.461   3.286   5.058
    1C        H  812   2.562   3.507   5.067
    1C        H  813   2.501   3.732   5.067
    1C        H  814   2.566   4.192   5.028
    1C        H  815   2.788   4.288   5.056
    1C        H  816   2.723   2.884   1.977
    1C        H  817   2.882   2.707   1.984
    1C        H  818   3.210   2.439   1.988
    1C        H  819   3.426   2.431   1.978
    1C        H  820   3.876   2.481   1.984
    1C        H  821   4.079   2.601   1.979
    1C        H  822   4.307   2.691   2.010
    1C        H  823   4.353   2.940   1.971
    1C        H  824   4.525   3.308   1.970
    1C        H  825   4.463   3.519   1.970
    1C        H  826   4.547   3.744   1.965
    1C        H  827   3.775   4.457   1.955
    1C        H  828   3.987   4.416   1.949
    1C        H  829   4.196   4.322   1.963
    1C        H  830   4.430   3.947   1.957
    1C        H  831   2.684   3.832   1.991
    1C        H  832   2.729   4.063   1.962
    1C        H  833   2.691   4.345   2.006
    1C        H  834   3.376   4.480   1.948
    1C        H  835   3.140   4.449   1.954
    1C        H  836   2.526   3.010   1.985
    1C        H  837   2.459   3.233   1.978
    1C        H  838   2.548   3.654   1.964
    2V3OU   H29  839   2.811   3.541   4.702
    2V3OU   C27  840   2.799   3.508   4.808
    2V3OU   H27  841   2.741   3.574   4.878
    2V3OU   H28  842   2.745   3.409   4.807
    2V3OU   O11  843   2.918   3.476   4.881
    2V3OU   C15  844   2.923   3.396   4.993
    2V3OU   C13  845   3.052   3.373   5.045
    2V3OU   C14  846   3.071   3.268   5.136
    2V3OU   C16  847   2.970   3.182   5.176
    2V3OU    H6  848   2.989   3.096   5.241
    2V3OU   C12  849   3.210   3.228   5.170
    2V3OU    O2  850   3.237   3.128   5.240
    2V3OU   C10  851   3.325   3.306   5.123
    2V3OU    C8  852   3.458   3.267   5.132
    2V3OU   O10  853   3.486   3.152   5.199
    2V3OU   H26  854   3.400   3.112   5.220
    2V3OU    C6  855   3.566   3.347   5.082
    2V3OU    C5  856   3.537   3.470   5.025
    2V3OU    C4  857   3.705   3.295   5.088
    2V3OU    H4  858   3.725   3.229   5.178
    2V3OU    H5  859   3.705   3.229   4.996
    2V3OU    C2  860   3.816   3.400   5.077
    2V3OU    O6  861   3.813   3.479   5.196
    2V3OU   H21  862   3.769   3.560   5.165
    2V3OU    C3  863   3.783   3.499   4.966
    2V3OU    H2  864   3.861   3.579   4.953
    2V3OU    H3  865   3.784   3.440   4.870
    2V3OU   C25  866   3.951   3.330   5.061
    2V3OU    O7  867   3.999   3.298   4.953
    2V3OU   C26  868   4.026   3.293   5.188
    2V3OU   H22  869   4.069   3.386   5.235
    2V3OU   H23  870   4.119   3.235   5.163
    2V3OU    O8  871   3.966   3.207   5.282
    2V3OU   H24  872   3.915   3.258   5.348
    2V3OU    C1  873   3.646   3.563   4.979
    2V3OU    H1  874   3.628   3.621   4.884
    2V3OU    O3  875   3.659   3.655   5.089
    2V3OU   C19  876   3.620   3.792   5.078
    2V3OU    H9  877   3.523   3.797   5.021
    2V3OU    O4  878   3.716   3.853   4.995
    2V3OU   C20  879   3.845   3.876   5.052
    2V3OU   H10  880   3.900   3.781   5.081
    2V3OU   C24  881   3.614   3.856   5.217
    2V3OU   H16  882   3.543   3.797   5.280
    2V3OU   H17  883   3.567   3.957   5.205
    2V3OU   C23  884   3.750   3.874   5.286
    2V3OU   H15  885   3.791   3.771   5.309
    2V3OU    N1  886   3.734   3.952   5.407
    2V3OU   H19  887   3.803   3.924   5.473
    2V3OU   H20  888   3.653   3.927   5.461
    2V3OU   C21  889   3.843   3.949   5.187
    2V3OU   H11  890   3.949   3.928   5.220
    2V3OU    O5  891   3.818   4.089   5.198
    2V3OU   H18  892   3.784   4.101   5.288
    2V3OU   C22  893   3.916   3.951   4.940
    2V3OU   H12  894   3.860   4.046   4.921
    2V3OU   H13  895   3.907   3.892   4.845
    2V3OU   H14  896   4.025   3.959   4.964
    2V3OU   C11  897   3.159   3.470   5.020
    2V3OU    O1  898   3.131   3.589   4.994
    2V3OU    C9  899   3.297   3.424   5.048
    2V3OU    C7  900   3.400   3.504   5.002
    2V3OU    O9  901   3.387   3.625   4.936
    2V3OU   H25  902   3.291   3.625   4.916
    2V3OU   C17  903   2.820   3.312   5.042
    2V3OU    H7  904   2.718   3.349   5.035
    2V3OU   C18  905   2.840   3.208   5.132
    2V3OU    H8  906   2.751   3.149   5.159
    3SOL     OW  907   3.472   4.165   4.877
    3SOL    HW1  908   3.482   4.231   4.803
    3SOL    HW2  909   3.532   4.190   4.952
    4SOL     OW  910   6.555   0.095   0.303
    4SOL    HW1  911   6.620   0.103   0.379
    4SOL    HW2  912   6.497   0.015   0.319
    5SOL     OW  913   4.097   1.214   1.607
    5SOL    HW1  914   4.090   1.147   1.534
    5SOL    HW2  915   4.007   1.231   1.646
    6SOL     OW  916   5.581   0.549   3.155
    6SOL    HW1  917   5.545   0.564   3.248
    6SOL    HW2  918   5.622   0.633   3.121
    7SOL     OW  919   1.424   4.304   4.287
    7SOL    HW1  920   1.503   4.261   4.330
    7SOL    HW2  921   1.348   4.239   4.284
    8SOL     OW  922   2.048   3.341   5.887
    8SOL    HW1  923   1.974   3.348   5.954
    8SOL    HW2  924   2.136   3.345   5.935
    9SOL     OW  925   6.333   1.383   6.338
    9SOL    HW1  926   6.246   1.334   6.344
    9SOL    HW2  927   6.373   1.393   6.429
   10SOL     OW  928   4.948   4.740   3.301
   10SOL    HW1  929   4.964   4.743   3.202
   10SOL    HW2  930   4.901   4.656   3.325
   11SOL     OW  931   2.275   1.293   0.559
   11SOL    HW1  932   2.247   1.223   0.625
   11SOL    HW2  933   2.302   1.376   0.608
   12SOL     OW  934   3.096   4.889   3.542
   12SOL    HW1  935   3.023   4.907   3.475
   12SOL    HW2  936   3.174   4.848   3.496
   13SOL     OW  937   4.410   6.068   2.423
   13SOL    HW1  938   4.366   6.101   2.507
   13SOL    HW2  939   4.345   6.076   2.347
   14SOL     OW  940   4.851   4.905   4.896
   14SOL    HW1  941   4.762   4.873   4.927
   14SOL    HW2  942   4.923   4.865   4.952
   15SOL     OW  943   0.683   5.865   5.969
   15SOL    HW1  944   0.612   5.924   5.931
   15SOL    HW2  945   0.716   5.905   6.055
   16SOL     OW  946   6.829   2.920   5.913
   16SOL    HW1  947   6.902   2.971   5.866
   16SOL    HW2  948   6.863   2.829   5.937
   17SOL     OW  949   5.890   0.852   5.411
   17SOL    HW1  950   5.965   0.917   5.404
   17SOL    HW2  951   5.833   0.857   5.329
   18SOL     OW  952   3.424   6.747   4.968
   18SOL    HW1  953   3.337   6.736   4.921
   18SOL    HW2  954   3.499   6.746   4.901
   19SOL     OW  955   1.018   1.329   3.291
   19SOL    HW1  956   1.049   1.287   3.206
   19SOL    HW2  957   0.971   1.415   3.270
   20SOL     OW  958   5.539   2.460   5.119
   20SOL    HW1  959   5.534   2.547   5.168
   20SOL    HW2  960   5.623   2.412   5.144
   21SOL     OW  961   3.775   6.571   2.580
   21SOL    HW1  962   3.786   6.517   2.496
   21SOL    HW2  963   3.792   6.513   2.660
   22SOL     OW  964   2.527   6.655   4.791
   22SOL    HW1  965   2.592   6.671   4.865
   22SOL    HW2  966   2.434   6.661   4.827
   23SOL     OW  967   5.391   4.473   2.240
   23SOL    HW1  968   5.346   4.543   2.184
   23SOL    HW2  969   5.446   4.516   2.310
   24SOL     OW  970   4.408   0.707   1.105
   24SOL    HW1  971   4.464   0.789   1.118
   24SOL    HW2  972   4.316   0.734   1.075
   25SOL     OW  973   2.727   6.962   3.181
   25SOL    HW1  974   2.664   6.929   3.252
   25SOL    HW2  975   2.702   6.922   3.093
   26SOL     OW  976   0.537   2.822   6.444
   26SOL    HW1  977   0.569   2.876   6.523
   26SOL    HW2  978   0.464   2.761   6.474
   27SOL     OW  979   6.077   1.298   1.574
   27SOL    HW1  980   6.149   1.235   1.603
   27SOL    HW2  981   6.008   1.305   1.645
   28SOL     OW  982   1.870   0.477   4.121
   28SOL    HW1  983   1.889   0.496   4.217
   28SOL    HW2  984   1.872   0.378   4.106
   29SOL     OW  985   7.010   0.760   0.382
   29SOL    HW1  986   6.966   0.685   0.332
   29SOL    HW2  987   6.945   0.799   0.447
   30SOL     OW  988   4.390   0.661   5.056
   30SOL    HW1  989   4.332   0.735   5.021
   30SOL    HW2  990   4.358   0.634   5.147
   31SOL     OW  991   1.013   3.105   5.554
   31SOL    HW1  992   1.101   3.094   5.509
   31SOL    HW2  993   0.940   3.087   5.488
   32SOL     OW  994   1.717   0.287   1.075
   32SOL    HW1  995   1.662   0.369   1.093
   32SOL    HW2  996   1.784   0.275   1.149
   33SOL     OW  997   0.662   4.518   6.117
   33SOL    HW1  998   0.681   4.613   6.090
   33SOL    HW2  999   0.747   4.466   6.118
   34SOL     OW 1000   1.938   4.974   5.243
   34SOL    HW1 1001   1.840   4.994   5.253
   34SOL    HW2 1002   1.950   4.876   5.226
   35SOL     OW 1003   4.043   3.116   0.130
   35SOL    HW1 1004   4.095   3.120   0.045
   35SOL    HW2 1005   3.969   3.183   0.128
   36SOL     OW 1006   4.731   0.909   3.747
   36SOL    HW1 1007   4.785   0.970   3.805
   36SOL    HW2 1008   4.673   0.850   3.804
   37SOL     OW 1009   1.956   1.540   3.770
   37SOL    HW1 1010   1.925   1.617   3.714
   37SOL    HW2 1011   1.880   1.510   3.828
   38SOL     OW 1012   1.222   4.930   2.393
   38SOL    HW1 1013   1.293   4.861   2.378
   38SOL    HW2 1014   1.253   5.018   2.356
   39SOL     OW 1015   6.234   5.171   6.640
   39SOL    HW1 1016   6.330   5.146   6.653
   39SOL    HW2 1017   6.175   5.092   6.658
   40SOL     OW 1018   3.252   0.698   5.856
   40SOL    HW1 1019   3.303   0.713   5.772
   40SOL    HW2 1020   3.296   0.627   5.911
   41SOL     OW 1021   6.121   3.970   2.082
   41SOL    HW1 1022   6.062   4.026   2.139
   41SOL    HW2 1023   6.212   4.010   2.078
   42SOL     OW 1024   2.272   5.749   5.207
   42SOL    HW1 1025   2.290   5.652   5.220
   42SOL    HW2 1026   2.174   5.763   5.190
   43SOL     OW 1027   5.019   6.708   4.577
   43SOL    HW1 1028   4.988   6.622   4.616
   43SOL    HW2 1029   5.073   6.759   4.645
   44SOL     OW 1030   5.882   2.221   5.371
   44SOL    HW1 1031   5.981   2.234   5.370
   44SOL    HW2 1032   5.860   2.144   5.431
   45SOL     OW 1033   4.039   4.983   0.333
   45SOL    HW1 1034   4.035   5.073   0.288
   45SOL    HW2 1035   4.122   4.935   0.304
   46SOL     OW 1036   0.903   3.242   4.780
   46SOL    HW1 1037   0.862   3.178   4.715
   46SOL    HW2 1038   0.855   3.236   4.868
   47SOL     OW 1039   5.807   3.002   1.626
   47SOL    HW1 1040   5.748   2.966   1.699
   47SOL    HW2 1041   5.855   3.083   1.660
   48SOL     OW 1042   6.468   3.958   6.841
   48SOL    HW1 1043   6.525   4.007   6.907
   48SOL    HW2 1044   6.488   3.860   6.844
   49SOL     OW 1045   4.776   2.986   0.263
   49SOL    HW1 1046   4.874   2.971   0.252
   49SOL    HW2 1047   4.759   3.034   0.349
   50SOL     OW 1048   6.283   2.523   6.223
   50SOL    HW1 1049   6.217   2.580   6.271
   50SOL    HW2 1050   6.250   2.504   6.130
   51SOL     OW 1051   1.909   5.069   3.252
   51SOL    HW1 1052   1.907   4.969   3.252
   51SOL    HW2 1053   1.818   5.104   3.230
   52SOL     OW 1054   5.687   2.710   1.564
   52SOL    HW1 1055   5.751   2.786   1.577
   52SOL    HW2 1056   5.620   2.734   1.493
   53SOL     OW 1057   4.321   0.586   2.757
   53SOL    HW1 1058   4.318   0.672   2.706
   53SOL    HW2 1059   4.391   0.527   2.717
   54SOL     OW 1060   5.166   6.301   6.660
   54SOL    HW1 1061   5.218   6.284   6.576
   54SOL    HW2 1062   5.176   6.397   6.686
   55SOL     OW 1063   1.683   3.075   6.396
   55SOL    HW1 1064   1.635   3.160   6.374
   55SOL    HW2 1065   1.616   3.004   6.417
   56SOL     OW 1066   1.704   2.273   6.639
   56SOL    HW1 1067   1.801   2.286   6.661
   56SOL    HW2 1068   1.651   2.272   6.724
   57SOL     OW 1069   4.064   0.707   0.730
   57SOL    HW1 1070   4.045   0.804   0.722
   57SOL    HW2 1071   4.087   0.669   0.640
   58SOL     OW 1072   0.903   1.189   6.370
   58SOL    HW1 1073   0.901   1.242   6.285
   58SOL    HW2 1074   0.952   1.241   6.440
   59SOL     OW 1075   5.812   3.403   6.314
   59SOL    HW1 1076   5.762   3.396   6.400
   59SOL    HW2 1077   5.755   3.369   6.239
   60SOL     OW 1078   5.365   0.795   3.049
   60SOL    HW1 1079   5.273   0.765   3.021
   60SOL    HW2 1080   5.399   0.733   3.120
   61SOL     OW 1081   0.355   0.369   4.993
   61SOL    HW1 1082   0.418   0.447   4.990
   61SOL    HW2 1083   0.391   0.295   4.937
   62SOL     OW 1084   6.996   2.032   2.498
   62SOL    HW1 1085   0.000   1.937   2.494
   62SOL    HW2 1086   6.929   2.050   2.425
   63SOL     OW 1087   3.969   6.491   4.758
   63SOL    HW1 1088   3.927   6.406   4.726
   63SOL    HW2 1089   4.029   6.527   4.687
   64SOL     OW 1090   1.165   4.319   6.850
   64SOL    HW1 1091   1.218   4.235   6.863
   64SOL    HW2 1092   1.139   4.327   6.753
   65SOL     OW 1093   0.742   0.276   5.093
   65SOL    HW1 1094   0.840   0.281   5.114
   65SOL    HW2 1095   0.712   0.362   5.052
   66SOL     OW 1096   4.113   0.327   2.082
   66SOL    HW1 1097   4.160   0.299   2.165
   66SOL    HW2 1098   4.016   0.343   2.102
   67SOL     OW 1099   0.292   2.787   1.211
   67SOL    HW1 1100   0.223   2.756   1.276
   67SOL    HW2 1101   0.365   2.836   1.259
   68SOL     OW 1102   6.744   2.282   5.626
   68SOL    HW1 1103   6.771   2.263   5.532
   68SOL    HW2 1104   6.672   2.351   5.627
   69SOL     OW 1105   0.899   5.207   5.870
   69SOL    HW1 1106   0.893   5.226   5.968
   69SOL    HW2 1107   0.877   5.290   5.818
   70SOL     OW 1108   5.391   3.524   5.185
   70SOL    HW1 1109   5.365   3.571   5.270
   70SOL    HW2 1110   5.490   3.532   5.171
   71SOL     OW 1111   4.530   2.102   4.310
   71SOL    HW1 1112   4.505   2.186   4.262
   71SOL    HW2 1113   4.461   2.081   4.379
   72SOL     OW 1114   6.385   0.558   3.523
   72SOL    HW1 1115   6.412   0.653   3.510
   72SOL    HW2 1116   6.367   0.516   3.434
   73SOL     OW 1117   2.994   0.661   0.893
   73SOL    HW1 1118   2.986   0.561   0.894
   73SOL    HW2 1119   2.909   0.701   0.928
   74SOL     OW 1120   1.890   1.816   7.010
   74SOL    HW1 1121   1.868   1.844   0.079
   74SOL    HW2 1122   1.963   1.874   6.975
   75SOL     OW 1123   4.239   1.605   0.820
   75SOL    HW1 1124   4.312   1.672   0.836
   75SOL    HW2 1125   4.274   1.531   0.763
   76SOL     OW 1126   3.068   4.331   5.269
   76SOL    HW1 1127   3.165   4.352   5.256
   76SOL    HW2 1128   3.013   4.410   5.243
   77SOL     OW 1129   1.633   5.080   4.426
   77SOL    HW1 1130   1.721   5.043   4.456
   77SOL    HW2 1131   1.618   5.058   4.330
   78SOL     OW 1132   4.346   1.329   1.560
   78SOL    HW1 1133   4.251   1.303   1.577
   78SOL    HW2 1134   4.352   1.428   1.552
   79SOL     OW 1135   1.684   5.527   2.199
   79SOL    HW1 1136   1.690   5.519   2.100
   79SOL    HW2 1137   1.738   5.605   2.230
   80SOL     OW 1138   4.692   1.787   5.368
   80SOL    HW1 1139   4.764   1.769   5.435
   80SOL    HW2 1140   4.684   1.709   5.306
   81SOL     OW 1141   3.010   5.925   1.646
   81SOL    HW1 1142   2.953   5.855   1.690
   81SOL    HW2 1143   2.961   5.962   1.567
   82SOL     OW 1144   1.075   6.128   1.427
   82SOL    HW1 1145   1.045   6.162   1.516
   82SOL    HW2 1146   1.174   6.140   1.418
   83SOL     OW 1147   5.464   2.077   5.303
   83SOL    HW1 1148   5.452   2.160   5.358
   83SOL    HW2 1149   5.485   2.000   5.364
   84SOL     OW 1150   5.926   2.706   3.289
   84SOL    HW1 1151   5.948   2.733   3.196
   84SOL    HW2 1152   5.964   2.615   3.307
   85SOL     OW 1153   2.263   0.280   3.899
   85SOL    HW1 1154   2.167   0.256   3.895
   85SOL    HW2 1155   2.289   0.327   3.814
   86SOL     OW 1156   5.613   1.446   6.253
   86SOL    HW1 1157   5.619   1.538   6.290
   86SOL    HW2 1158   5.583   1.383   6.325
   87SOL     OW 1159   3.621   4.253   6.337
   87SOL    HW1 1160   3.663   4.341   6.360
   87SOL    HW2 1161   3.692   4.186   6.315
   88SOL     OW 1162   3.206   3.413   6.659
   88SOL    HW1 1163   3.163   3.435   6.746
   88SOL    HW2 1164   3.248   3.495   6.621
   89SOL     OW 1165   2.957   3.586   2.865
   89SOL    HW1 1166   2.936   3.489   2.880
   89SOL    HW2 1167   2.980   3.601   2.769
   90SOL     OW 1168   4.864   4.011   2.980
   90SOL    HW1 1169   4.804   4.090   2.967
   90SOL    HW2 1170   4.938   4.036   3.042
   91SOL     OW 1171   5.546   4.970   6.000
   91SOL    HW1 1172   5.555   5.044   6.067
   91SOL    HW2 1173   5.482   4.998   5.928
   92SOL     OW 1174   5.565   4.118   6.835
   92SOL    HW1 1175   5.570   4.094   6.737
   92SOL    HW2 1176   5.614   4.050   6.888
   93SOL     OW 1177   2.413   3.392   1.295
   93SOL    HW1 1178   2.365   3.351   1.373
   93SOL    HW2 1179   2.416   3.326   1.220
   94SOL     OW 1180   3.409   0.792   5.655
   94SOL    HW1 1181   3.332   0.853   5.642
   94SOL    HW2 1182   3.438   0.755   5.566
   95SOL     OW 1183   6.916   0.539   3.927
   95SOL    HW1 1184   6.960   0.553   3.838
   95SOL    HW2 1185   6.959   0.599   3.995
   96SOL     OW 1186   4.747   4.778   0.097
   96SOL    HW1 1187   4.730   4.865   0.144
   96SOL    HW2 1188   4.681   4.710   0.128
   97SOL     OW 1189   2.162   5.486   5.246
   97SOL    HW1 1190   2.215   5.403   5.230
   97SOL    HW2 1191   2.113   5.478   5.332
   98SOL     OW 1192   1.255   3.022   2.745
   98SOL    HW1 1193   1.269   3.067   2.657
   98SOL    HW2 1194   1.157   3.010   2.761
   99SOL     OW 1195   3.916   3.055   3.864
   99SOL    HW1 1196   3.877   3.031   3.775
   99SOL    HW2 1197   3.878   2.995   3.934
  100SOL     OW 1198   6.975   0.057   3.831
  100SOL    HW1 1199   6.989   0.141   3.780
  100SOL    HW2 1200   6.896   0.067   3.892
  101SOL     OW 1201   0.188   3.755   2.672
  101SOL    HW1 1202   0.170   3.842   2.626
  101SOL    HW2 1203   0.218   3.773   2.766
  102SOL     OW 1204   2.395   6.457   1.101
  102SOL    HW1 1205   2.368   6.495   1.013
  102SOL    HW2 1206   2.315   6.451   1.161
  103SOL     OW 1207   1.779   0.687   2.174
  103SOL    HW1 1208   1.865   0.638   2.157
  103SOL    HW2 1209   1.714   0.626   2.220
  104SOL     OW 1210   1.369   4.639   2.102
  104SOL    HW1 1211   1.359   4.690   2.187
  104SOL    HW2 1212   1.346   4.543   2.117
  105SOL     OW 1213   4.568   1.766   6.446
  105SOL    HW1 1214   4.483   1.820   6.442
  105SOL    HW2 1215   4.571   1.703   6.368
  106SOL     OW 1216   5.588   5.151   2.569
  106SOL    HW1 1217   5.588   5.076   2.504
  106SOL    HW2 1218   5.597   5.238   2.520
  107SOL     OW 1219   6.126   1.150   0.600
  107SOL    HW1 1220   6.076   1.188   0.677
  107SOL    HW2 1221   6.063   1.132   0.525
  108SOL     OW 1222   1.664   0.398   5.558
  108SOL    HW1 1223   1.734   0.469   5.567
  108SOL    HW2 1224   1.662   0.342   5.641
  109SOL     OW 1225   2.583   1.164   3.451
  109SOL    HW1 1226   2.552   1.089   3.509
  109SOL    HW2 1227   2.635   1.229   3.506
  110SOL     OW 1228   2.841   4.554   5.592
  110SOL    HW1 1229   2.771   4.563   5.662
  110SOL    HW2 1230   2.799   4.565   5.501
  111SOL     OW 1231   6.493   1.529   2.334
  111SOL    HW1 1232   6.428   1.601   2.358
  111SOL    HW2 1233   6.444   1.452   2.292
  112SOL     OW 1234   4.325   0.104   6.665
  112SOL    HW1 1235   4.251   0.064   6.611
  112SOL    HW2 1236   4.295   0.191   6.704
  113SOL     OW 1237   6.458   6.575   2.812
  113SOL    HW1 1238   6.383   6.551   2.750
  113SOL    HW2 1239   6.426   6.566   2.907
  114SOL     OW 1240   1.476   4.223   3.741
  114SOL    HW1 1241   1.520   4.246   3.828
  114SOL    HW2 1242   1.384   4.264   3.738
  115SOL     OW 1243   5.924   1.413   3.295
  115SOL    HW1 1244   5.833   1.424   3.254
  115SOL    HW2 1245   5.977   1.497   3.281
  116SOL     OW 1246   1.440   5.186   0.733
  116SOL    HW1 1247   1.442   5.176   0.633
  116SOL    HW2 1248   1.434   5.283   0.757
  117SOL     OW 1249   2.179   1.243   0.040
  117SOL    HW1 1250   2.239   1.164   0.056
  117SOL    HW2 1251   2.226   1.308   7.004
  118SOL     OW 1252   1.219   1.649   4.818
  118SOL    HW1 1253   1.227   1.689   4.727
  118SOL    HW2 1254   1.267   1.706   4.885
  119SOL     OW 1255   0.066   6.614   6.300
  119SOL    HW1 1256   0.119   6.676   6.242
  119SOL    HW2 1257   6.993   6.637   6.292
  120SOL     OW 1258   4.647   1.805   4.738
  120SOL    HW1 1259   4.731   1.850   4.770
  120SOL    HW2 1260   4.650   1.708   4.765
  121SOL     OW 1261   1.229   3.895   6.726
  121SOL    HW1 1262   1.226   3.895   6.826
  121SOL    HW2 1263   1.298   3.961   6.695
  122SOL     OW 1264   1.226   4.253   0.177
  122SOL    HW1 1265   1.183   4.292   0.258
  122SOL    HW2 1266   1.247   4.157   0.193
  123SOL     OW 1267   1.233   1.421   1.773
  123SOL    HW1 1268   1.277   1.333   1.787
  123SOL    HW2 1269   1.133   1.410   1.777
  124SOL     OW 1270   2.761   2.463   0.431
  124SOL    HW1 1271   2.727   2.383   0.481
  124SOL    HW2 1272   2.726   2.546   0.475
  125SOL     OW 1273   3.490   2.901   0.190
  125SOL    HW1 1274   3.581   2.884   0.229
  125SOL    HW2 1275   3.473   2.999   0.186
  126SOL     OW 1276   3.838   3.338   3.929
  126SOL    HW1 1277   3.888   3.310   4.011
  126SOL    HW2 1278   3.843   3.266   3.860
  127SOL     OW 1279   0.287   6.299   6.183
  127SOL    HW1 1280   0.310   6.370   6.250
  127SOL    HW2 1281   0.372   6.255   6.152
  128SOL     OW 1282   4.604   3.393   0.960
  128SOL    HW1 1283   4.514   3.425   0.931
  128SOL    HW2 1284   4.621   3.421   1.054
  129SOL     OW 1285   2.363   5.871   0.722
  129SOL    HW1 1286   2.363   5.813   0.641
  129SOL    HW2 1287   2.270   5.898   0.745
  130SOL     OW 1288   5.427   2.458   4.615
  130SOL    HW1 1289   5.422   2.438   4.713
  130SOL    HW2 1290   5.471   2.381   4.568
  131SOL     OW 1291   6.808   2.483   3.678
  131SOL    HW1 1292   6.888   2.529   3.716
  131SOL    HW2 1293   6.835   2.397   3.637
  132SOL     OW 1294   3.596   4.198   2.038
  132SOL    HW1 1295   3.590   4.239   1.947
  132SOL    HW2 1296   3.691   4.194   2.067
  133SOL     OW 1297   5.414   6.626   5.302
  133SOL    HW1 1298   5.439   6.722   5.320
  133SOL    HW2 1299   5.490   6.581   5.255
  134SOL     OW 1300   5.278   0.933   2.175
  134SOL    HW1 1301   5.294   0.954   2.272
  134SOL    HW2 1302   5.233   1.010   2.131
  135SOL     OW 1303   4.847   3.394   4.624
  135SOL    HW1 1304   4.908   3.428   4.553
  135SOL    HW2 1305   4.753   3.417   4.601
  136SOL     OW 1306   3.528   6.785   5.239
  136SOL    HW1 1307   3.502   6.780   5.143
  136SOL    HW2 1308   3.482   6.862   5.282
  137SOL     OW 1309   3.015   2.006   5.080
  137SOL    HW1 1310   3.046   1.936   5.015
  137SOL    HW2 1311   3.081   2.081   5.082
  138SOL     OW 1312   0.871   5.393   5.090
  138SOL    HW1 1313   0.921   5.455   5.151
  138SOL    HW2 1314   0.923   5.379   5.006
  139SOL     OW 1315   2.356   6.203   6.484
  139SOL    HW1 1316   2.410   6.120   6.472
  139SOL    HW2 1317   2.394   6.276   6.428
  140SOL     OW 1318   2.143   0.888   2.844
  140SOL    HW1 1319   2.097   0.846   2.766
  140SOL    HW2 1320   2.082   0.956   2.885
  141SOL     OW 1321   6.804   4.541   0.142
  141SOL    HW1 1322   6.868   4.587   0.204
  141SOL    HW2 1323   6.794   4.595   0.059
  142SOL     OW 1324   1.271   4.047   1.997
  142SOL    HW1 1325   1.191   4.082   1.948
  142SOL    HW2 1326   1.278   3.948   1.981
  143SOL     OW 1327   5.104   6.598   1.883
  143SOL    HW1 1328   5.159   6.644   1.952
  143SOL    HW2 1329   5.128   6.501   1.880
  144SOL     OW 1330   2.945   4.930   2.960
  144SOL    HW1 1331   3.013   4.924   2.887
  144SOL    HW2 1332   2.909   5.023   2.964
  145SOL     OW 1333   6.963   4.187   2.997
  145SOL    HW1 1334   0.032   4.158   3.015
  145SOL    HW2 1335   6.925   4.231   3.079
  146SOL     OW 1336   6.220   1.468   6.049
  146SOL    HW1 1337   6.292   1.404   6.073
  146SOL    HW2 1338   6.139   1.418   6.017
  147SOL     OW 1339   4.489   1.044   5.878
  147SOL    HW1 1340   4.418   0.974   5.880
  147SOL    HW2 1341   4.505   1.078   5.970
  148SOL     OW 1342   1.424   4.544   1.116
  148SOL    HW1 1343   1.381   4.473   1.062
  148SOL    HW2 1344   1.470   4.503   1.195
  149SOL     OW 1345   2.074   2.409   5.556
  149SOL    HW1 1346   2.116   2.326   5.520
  149SOL    HW2 1347   2.125   2.489   5.525
  150SOL     OW 1348   4.482   1.400   4.573
  150SOL    HW1 1349   4.465   1.318   4.517
  150SOL    HW2 1350   4.508   1.476   4.514
  151SOL     OW 1351   3.939   2.034   0.773
  151SOL    HW1 1352   3.977   1.943   0.759
  151SOL    HW2 1353   4.002   2.089   0.828
  152SOL     OW 1354   0.844   1.119   0.138
  152SOL    HW1 1355   0.943   1.126   0.154
  152SOL    HW2 1356   0.796   1.118   0.225
  153SOL     OW 1357   2.618   1.132   4.248
  153SOL    HW1 1358   2.547   1.106   4.184
  153SOL    HW2 1359   2.581   1.197   4.315
  154SOL     OW 1360   5.903   1.924   1.403
  154SOL    HW1 1361   5.890   1.966   1.493
  154SOL    HW2 1362   5.990   1.954   1.365
  155SOL     OW 1363   0.991   6.788   1.380
  155SOL    HW1 1364   0.967   6.693   1.400
  155SOL    HW2 1365   0.942   6.849   1.442
  156SOL     OW 1366   4.668   1.848   0.357
  156SOL    HW1 1367   4.703   1.941   0.366
  156SOL    HW2 1368   4.672   1.820   0.261
  157SOL     OW 1369   5.196   4.562   0.750
  157SOL    HW1 1370   5.274   4.500   0.763
  157SOL    HW2 1371   5.162   4.592   0.839
  158SOL     OW 1372   0.443   2.678   3.329
  158SOL    HW1 1373   0.468   2.773   3.348
  158SOL    HW2 1374   0.521   2.619   3.350
  159SOL     OW 1375   5.612   5.678   0.456
  159SOL    HW1 1376   5.624   5.696   0.359
  159SOL    HW2 1377   5.522   5.711   0.485
  160SOL     OW 1378   6.317   6.668   1.028
  160SOL    HW1 1379   6.346   6.723   0.950
  160SOL    HW2 1380   6.309   6.572   1.001
  161SOL     OW 1381   0.581   0.426   0.520
  161SOL    HW1 1382   0.598   0.354   0.453
  161SOL    HW2 1383   0.621   0.400   0.608
  162SOL     OW 1384   3.630   6.533   0.434
  162SOL    HW1 1385   3.603   6.453   0.489
  162SOL    HW2 1386   3.712   6.574   0.473
  163SOL     OW 1387   0.029   3.860   3.919
  163SOL    HW1 1388   6.976   3.898   3.969
  163SOL    HW2 1389   0.111   3.866   3.976
  164SOL     OW 1390   1.852   1.706   3.237
  164SOL    HW1 1391   1.821   1.802   3.236
  164SOL    HW2 1392   1.928   1.696   3.301
  165SOL     OW 1393   0.780   5.665   2.450
  165SOL    HW1 1394   0.769   5.764   2.452
  165SOL    HW2 1395   0.860   5.639   2.503
  166SOL     OW 1396   6.666   4.227   2.668
  166SOL    HW1 1397   6.681   4.217   2.766
  166SOL    HW2 1398   6.713   4.308   2.635
  167SOL     OW 1399   4.809   2.414   0.131
  167SOL    HW1 1400   4.716   2.380   0.144
  167SOL    HW2 1401   4.872   2.337   0.119
  168SOL     OW 1402   4.925   4.035   2.160
  168SOL    HW1 1403   4.952   4.122   2.120
  168SOL    HW2 1404   4.961   3.960   2.105
  169SOL     OW 1405   6.073   2.515   1.026
  169SOL    HW1 1406   6.016   2.475   1.097
  169SOL    HW2 1407   6.032   2.499   0.936
  170SOL     OW 1408   0.825   5.191   1.940
  170SOL    HW1 1409   0.906   5.192   1.881
  170SOL    HW2 1410   0.744   5.213   1.886
  171SOL     OW 1411   2.568   3.999   0.682
  171SOL    HW1 1412   2.619   3.974   0.600
  171SOL    HW2 1413   2.511   3.922   0.711
  172SOL     OW 1414   6.244   2.317   1.505
  172SOL    HW1 1415   6.340   2.299   1.523
  172SOL    HW2 1416   6.218   2.278   1.416
  173SOL     OW 1417   6.708   1.468   5.904
  173SOL    HW1 1418   6.652   1.385   5.910
  173SOL    HW2 1419   6.702   1.519   5.989
  174SOL     OW 1420   5.782   5.190   5.176
  174SOL    HW1 1421   5.764   5.286   5.199
  174SOL    HW2 1422   5.695   5.140   5.172
  175SOL     OW 1423   0.972   0.651   0.677
  175SOL    HW1 1424   0.991   0.567   0.729
  175SOL    HW2 1425   0.874   0.655   0.655
  176SOL     OW 1426   5.120   4.626   2.626
  176SOL    HW1 1427   5.200   4.602   2.680
  176SOL    HW2 1428   5.140   4.611   2.529
  177SOL     OW 1429   5.594   2.327   4.127
  177SOL    HW1 1430   5.542   2.336   4.212
  177SOL    HW2 1431   5.638   2.415   4.106
  178SOL     OW 1432   1.937   6.653   5.371
  178SOL    HW1 1433   1.947   6.655   5.470
  178SOL    HW2 1434   1.875   6.726   5.342
  179SOL     OW 1435   4.341   5.301   0.982
  179SOL    HW1 1436   4.287   5.231   0.935
  179SOL    HW2 1437   4.296   5.390   0.974
  180SOL     OW 1438   4.465   0.987   1.146
  180SOL    HW1 1439   4.474   1.037   1.232
  180SOL    HW2 1440   4.546   1.003   1.089
  181SOL     OW 1441   3.536   2.749   5.406
  181SOL    HW1 1442   3.456   2.708   5.363
  181SOL    HW2 1443   3.521   2.848   5.416
  182SOL     OW 1444   4.955   2.440   6.484
  182SOL    HW1 1445   5.025   2.507   6.508
  182SOL    HW2 1446   4.977   2.398   6.396
  183SOL     OW 1447   3.255   1.710   3.780
  183SOL    HW1 1448   3.252   1.658   3.866
  183SOL    HW2 1449   3.241   1.807   3.800
  184SOL     OW 1450   6.860   7.001   2.622
  184SOL    HW1 1451   6.905   6.985   2.710
  184SOL    HW2 1452   6.921   0.028   2.562
  185SOL     OW 1453   0.344   1.495   3.889
  185SOL    HW1 1454   0.266   1.434   3.879
  185SOL    HW2 1455   0.424   1.443   3.920
  186SOL     OW 1456   4.463   5.385   4.132
  186SOL    HW1 1457   4.453   5.484   4.141
  186SOL    HW2 1458   4.541   5.354   4.186
  187SOL     OW 1459   4.059   5.996   2.218
  187SOL    HW1 1460   4.120   6.073   2.198
  187SOL    HW2 1461   3.968   6.031   2.242
  188SOL     OW 1462   2.530   2.529   2.681
  188SOL    HW1 1463   2.505   2.434   2.704
  188SOL    HW2 1464   2.629   2.540   2.692
  189SOL     OW 1465   6.297   5.676   6.259
  189SOL    HW1 1466   6.361   5.716   6.194
  189SOL    HW2 1467   6.269   5.745   6.325
  190SOL     OW 1468   5.503   6.660   0.186
  190SOL    HW1 1469   5.405   6.650   0.168
  190SOL    HW2 1470   5.531   6.754   0.167
  191SOL     OW 1471   5.754   0.731   5.636
  191SOL    HW1 1472   5.822   0.736   5.563
  191SOL    HW2 1473   5.728   0.823   5.664
  192SOL     OW 1474   0.243   5.263   0.739
  192SOL    HW1 1475   0.220   5.358   0.719
  192SOL    HW2 1476   0.276   5.255   0.833
  193SOL     OW 1477   3.098   4.931   6.392
  193SOL    HW1 1478   3.019   4.870   6.402
  193SOL    HW2 1479   3.065   5.024   6.377
  194SOL     OW 1480   4.041   6.912   2.180
  194SOL    HW1 1481   4.106   6.865   2.239
  194SOL    HW2 1482   4.077   6.912   2.086
  195SOL     OW 1483   3.123   0.815   1.348
  195SOL    HW1 1484   3.149   0.863   1.264
  195SOL    HW2 1485   3.047   0.753   1.328
  196SOL     OW 1486   2.002   0.723   6.893
  196SOL    HW1 1487   1.963   0.632   6.904
  196SOL    HW2 1488   2.101   0.715   6.875
  197SOL     OW 1489   2.577   5.419   0.295
  197SOL    HW1 1490   2.651   5.352   0.303
  197SOL    HW2 1491   2.515   5.410   0.373
  198SOL     OW 1492   4.078   6.622   0.240
  198SOL    HW1 1493   4.060   6.597   0.145
  198SOL    HW2 1494   4.149   6.692   0.243
  199SOL     OW 1495   5.853   6.977   2.911
  199SOL    HW1 1496   5.846   0.044   2.951
  199SOL    HW2 1497   5.762   6.941   2.891
  200SOL     OW 1498   0.551   3.719   3.326
  200SOL    HW1 1499   0.532   3.746   3.232
  200SOL    HW2 1500   0.638   3.670   3.330
  201SOL     OW 1501   2.657   0.868   0.070
  201SOL    HW1 1502   2.731   0.919   0.115
  201SOL    HW2 1503   2.624   0.921   7.017
  202SOL     OW 1504   3.886   6.872   3.629
  202SOL    HW1 1505   3.843   6.879   3.719
  202SOL    HW2 1506   3.919   6.962   3.600
  203SOL     OW 1507   5.306   3.704   6.424
  203SOL    HW1 1508   5.211   3.676   6.438
  203SOL    HW2 1509   5.344   3.654   6.346
  204SOL     OW 1510   1.624   0.026   0.525
  204SOL    HW1 1511   1.624   0.037   0.426
  204SOL    HW2 1512   1.659   0.109   0.568
  205SOL     OW 1513   5.649   1.936   0.989
  205SOL    HW1 1514   5.692   2.017   1.028
  205SOL    HW2 1515   5.553   1.934   1.015
  206SOL     OW 1516   0.442   4.754   1.461
  206SOL    HW1 1517   0.537   4.725   1.451
  206SOL    HW2 1518   0.428   4.793   1.552
  207SOL     OW 1519   4.437   0.478   5.778
  207SOL    HW1 1520   4.382   0.527   5.710
  207SOL    HW2 1521   4.396   0.490   5.868
  208SOL     OW 1522   4.939   5.290   5.967
  208SOL    HW1 1523   5.007   5.353   5.930
  208SOL    HW2 1524   4.982   5.204   5.992
  209SOL     OW 1525   6.733   6.049   5.773
  209SOL    HW1 1526   6.742   6.020   5.677
  209SOL    HW2 1527   6.820   6.036   5.820
  210SOL     OW 1528   4.038   1.807   1.708
  210SOL    HW1 1529   4.089   1.724   1.730
  210SOL    HW2 1530   3.997   1.797   1.617
  211SOL     OW 1531   0.894   1.472   1.262
  211SOL    HW1 1532   0.842   1.558   1.261
  211SOL    HW2 1533   0.881   1.425   1.175
  212SOL     OW 1534   0.788   4.891   3.246
  212SOL    HW1 1535   0.820   4.972   3.295
  212SOL    HW2 1536   0.747   4.827   3.311
  213SOL     OW 1537   4.960   1.760   0.141
  213SOL    HW1 1538   4.948   1.737   0.238
  213SOL    HW2 1539   4.887   1.822   0.112
  214SOL     OW 1540   0.877   6.493   2.199
  214SOL    HW1 1541   0.876   6.493   2.099
  214SOL    HW2 1542   0.857   6.586   2.233
  215SOL     OW 1543   3.810   3.096   2.460
  215SOL    HW1 1544   3.769   3.013   2.498
  215SOL    HW2 1545   3.809   3.091   2.360
  216SOL     OW 1546   1.376   0.236   5.092
  216SOL    HW1 1547   1.341   0.248   5.000
  216SOL    HW2 1548   1.474   0.257   5.094
  217SOL     OW 1549   1.428   2.838   3.989
  217SOL    HW1 1550   1.359   2.766   3.990
  217SOL    HW2 1551   1.385   2.926   3.971
  218SOL     OW 1552   1.317   2.706   5.162
  218SOL    HW1 1553   1.228   2.677   5.125
  218SOL    HW2 1554   1.365   2.760   5.093
  219SOL     OW 1555   4.286   4.568   0.271
  219SOL    HW1 1556   4.325   4.476   0.283
  219SOL    HW2 1557   4.273   4.610   0.361
  220SOL     OW 1558   2.869   5.219   0.059
  220SOL    HW1 1559   2.875   5.299   7.024
  220SOL    HW2 1560   2.957   5.171   0.060
  221SOL     OW 1561   5.551   3.299   3.894
  221SOL    HW1 1562   5.473   3.317   3.954
  221SOL    HW2 1563   5.634   3.291   3.948
  222SOL     OW 1564   0.714   5.990   5.587
  222SOL    HW1 1565   0.766   5.905   5.597
  222SOL    HW2 1566   0.690   6.025   5.677
  223SOL     OW 1567   0.227   3.252   2.271
  223SOL    HW1 1568   0.213   3.187   2.195
  223SOL    HW2 1569   0.164   3.230   2.345
  224SOL     OW 1570   2.769   2.071   2.142
  224SOL    HW1 1571   2.845   2.119   2.100
  224SOL    HW2 1572   2.685   2.087   2.089
  225SOL     OW 1573   5.816   0.860   6.910
  225SOL    HW1 1574   5.782   0.866   6.816
  225SOL    HW2 1575   5.853   0.948   6.938
  226SOL     OW 1576   0.842   5.771   0.309
  226SOL    HW1 1577   0.864   5.857   0.355
  226SOL    HW2 1578   0.749   5.775   0.274
  227SOL     OW 1579   1.917   3.793   3.736
  227SOL    HW1 1580   1.934   3.892   3.741
  227SOL    HW2 1581   1.819   3.776   3.734
  228SOL     OW 1582   3.929   6.575   3.924
  228SOL    HW1 1583   4.019   6.616   3.911
  228SOL    HW2 1584   3.865   6.614   3.858
  229SOL     OW 1585   6.065   5.860   1.952
  229SOL    HW1 1586   6.013   5.872   2.036
  229SOL    HW2 1587   6.071   5.763   1.929
  230SOL     OW 1588   2.179   4.253   4.893
  230SOL    HW1 1589   2.131   4.199   4.825
  230SOL    HW2 1590   2.237   4.193   4.948
  231SOL     OW 1591   6.873   3.496   6.530
  231SOL    HW1 1592   6.893   3.547   6.614
  231SOL    HW2 1593   6.888   3.399   6.546
  232SOL     OW 1594   0.974   3.724   0.048
  232SOL    HW1 1595   0.923   3.746   6.989
  232SOL    HW2 1596   1.070   3.706   0.025
  233SOL     OW 1597   2.488   1.412   5.628
  233SOL    HW1 1598   2.579   1.397   5.588
  233SOL    HW2 1599   2.423   1.437   5.556
  234SOL     OW 1600   2.716   4.819   6.794
  234SOL    HW1 1601   2.752   4.751   6.858
  234SOL    HW2 1602   2.792   4.876   6.760
  235SOL     OW 1603   2.887   3.501   4.029
  235SOL    HW1 1604   2.888   3.594   3.993
  235SOL    HW2 1605   2.829   3.444   3.971
  236SOL     OW 1606   6.803   2.889   5.504
  236SOL    HW1 1607   6.779   2.934   5.418
  236SOL    HW2 1608   6.735   2.819   5.525
  237SOL     OW 1609   0.235   0.088   1.391
  237SOL    HW1 1610   0.252   0.115   1.296
  237SOL    HW2 1611   0.188   0.000   1.392
  238SOL     OW 1612   5.764   3.703   2.209
  238SOL    HW1 1613   5.756   3.605   2.192
  238SOL    HW2 1614   5.794   3.749   2.126
  239SOL     OW 1615   6.458   5.990   6.600
  239SOL    HW1 1616   6.474   5.906   6.652
  239SOL    HW2 1617   6.427   5.967   6.508
  240SOL     OW 1618   0.517   4.288   6.106
  240SOL    HW1 1619   0.590   4.350   6.133
  240SOL    HW2 1620   0.555   4.200   6.080
  241SOL     OW 1621   0.556   0.782   3.473
  241SOL    HW1 1622   0.584   0.855   3.535
  241SOL    HW2 1623   0.539   0.699   3.527
  242SOL     OW 1624   1.425   3.714   4.828
  242SOL    HW1 1625   1.359   3.763   4.886
  242SOL    HW2 1626   1.383   3.630   4.793
  243SOL     OW 1627   5.802   0.048   5.352
  243SOL    HW1 1628   5.780   0.007   5.263
  243SOL    HW2 1629   5.731   0.114   5.376
  244SOL     OW 1630   5.567   2.085   5.033
  244SOL    HW1 1631   5.552   2.089   5.132
  244SOL    HW2 1632   5.633   2.156   5.006
  245SOL     OW 1633   6.548   2.836   4.577
  245SOL    HW1 1634   6.639   2.845   4.538
  245SOL    HW2 1635   6.480   2.865   4.509
  246SOL     OW 1636   4.943   3.681   3.581
  246SOL    HW1 1637   4.867   3.698   3.519
  246SOL    HW2 1638   5.029   3.707   3.536
  247SOL     OW 1639   1.714   1.381   4.203
  247SOL    HW1 1640   1.773   1.440   4.259
  247SOL    HW2 1641   1.618   1.396   4.229
  248SOL     OW 1642   5.010   2.026   3.727
  248SOL    HW1 1643   4.939   2.086   3.762
  248SOL    HW2 1644   5.061   1.985   3.803
  249SOL     OW 1645   3.123   6.573   4.455
  249SOL    HW1 1646   3.197   6.554   4.390
  249SOL    HW2 1647   3.088   6.487   4.492
  250SOL     OW 1648   5.204   3.586   5.375
  250SOL    HW1 1649   5.120   3.624   5.337
  250SOL    HW2 1650   5.188   3.555   5.469
  251SOL     OW 1651   4.423   2.917   6.503
  251SOL    HW1 1652   4.425   2.874   6.593
  251SOL    HW2 1653   4.330   2.913   6.466
  252SOL     OW 1654   6.645   0.983   5.901
  252SOL    HW1 1655   6.592   0.898   5.911
  252SOL    HW2 1656   6.618   1.047   5.973
  253SOL     OW 1657   2.812   3.117   0.218
  253SOL    HW1 1658   2.795   3.042   0.282
  253SOL    HW2 1659   2.742   3.187   0.229
  254SOL     OW 1660   6.480   3.407   4.911
  254SOL    HW1 1661   6.531   3.493   4.903
  254SOL    HW2 1662   6.383   3.427   4.919
  255SOL     OW 1663   2.783   2.181   3.571
  255SOL    HW1 1664   2.718   2.258   3.567
  255SOL    HW2 1665   2.858   2.204   3.632
  256SOL     OW 1666   6.156   5.257   0.239
  256SOL    HW1 1667   6.083   5.257   0.171
  256SOL    HW2 1668   6.206   5.344   0.234
  257SOL     OW 1669   3.080   5.663   6.344
  257SOL    HW1 1670   3.094   5.696   6.437
  257SOL    HW2 1671   2.988   5.688   6.313
  258SOL     OW 1672   5.917   4.299   3.894
  258SOL    HW1 1673   5.844   4.232   3.907
  258SOL    HW2 1674   5.980   4.295   3.972
  259SOL     OW 1675   1.499   2.534   2.922
  259SOL    HW1 1676   1.596   2.513   2.928
  259SOL    HW2 1677   1.486   2.633   2.925
  260SOL     OW 1678   5.862   0.164   6.103
  260SOL    HW1 1679   5.777   0.180   6.053
  260SOL    HW2 1680   5.903   0.251   6.129
  261SOL     OW 1681   0.965   4.100   1.951
  261SOL    HW1 1682   0.887   4.093   1.889
  261SOL    HW2 1683   0.981   4.195   1.975
  262SOL     OW 1684   0.898   3.520   1.865
  262SOL    HW1 1685   0.828   3.536   1.935
  262SOL    HW2 1686   0.868   3.446   1.805
  263SOL     OW 1687   0.633   1.657   5.134
  263SOL    HW1 1688   0.622   1.744   5.087
  263SOL    HW2 1689   0.681   1.592   5.075
  264SOL     OW 1690   1.834   4.691   6.392
  264SOL    HW1 1691   1.763   4.734   6.337
  264SOL    HW2 1692   1.848   4.743   6.476
  265SOL     OW 1693   5.354   4.330   4.219
  265SOL    HW1 1694   5.270   4.282   4.245
  265SOL    HW2 1695   5.333   4.427   4.203
  266SOL     OW 1696   4.321   1.384   0.660
  266SOL    HW1 1697   4.230   1.344   0.648
  266SOL    HW2 1698   4.364   1.396   0.570
  267SOL     OW 1699   1.432   2.167   6.271
  267SOL    HW1 1700   1.502   2.230   6.306
  267SOL    HW2 1701   1.353   2.167   6.332
  268SOL     OW 1702   4.172   4.779   4.456
  268SOL    HW1 1703   4.184   4.800   4.553
  268SOL    HW2 1704   4.077   4.796   4.429
  269SOL     OW 1705   0.743   2.371   6.319
  269SOL    HW1 1706   0.725   2.282   6.276
  269SOL    HW2 1707   0.690   2.442   6.272
  270SOL     OW 1708   4.794   1.083   2.241
  270SOL    HW1 1709   4.832   0.991   2.240
  270SOL    HW2 1710   4.728   1.092   2.316
  271SOL     OW 1711   1.752   0.458   0.105
  271SOL    HW1 1712   1.710   0.421   0.187
  271SOL    HW2 1713   1.686   0.519   0.059
  272SOL     OW 1714   3.511   5.478   3.391
  272SOL    HW1 1715   3.424   5.429   3.382
  272SOL    HW2 1716   3.580   5.417   3.430
  273SOL     OW 1717   2.041   6.108   5.159
  273SOL    HW1 1718   1.989   6.155   5.088
  273SOL    HW2 1719   2.134   6.089   5.126
  274SOL     OW 1720   6.206   2.793   2.872
  274SOL    HW1 1721   6.119   2.795   2.922
  274SOL    HW2 1722   6.192   2.746   2.785
  275SOL     OW 1723   6.461   6.365   5.463
  275SOL    HW1 1724   6.555   6.362   5.427
  275SOL    HW2 1725   6.421   6.454   5.444
  276SOL     OW 1726   6.539   6.174   3.793
  276SOL    HW1 1727   6.483   6.256   3.800
  276SOL    HW2 1728   6.547   6.147   3.697
  277SOL     OW 1729   4.135   1.662   5.493
  277SOL    HW1 1730   4.182   1.741   5.453
  277SOL    HW2 1731   4.141   1.584   5.430
  278SOL     OW 1732   5.710   3.836   2.443
  278SOL    HW1 1733   5.711   3.773   2.366
  278SOL    HW2 1734   5.665   3.793   2.522
  279SOL     OW 1735   0.050   2.669   3.505
  279SOL    HW1 1736   0.144   2.667   3.540
  279SOL    HW2 1737   0.013   2.576   3.507
  280SOL     OW 1738   4.427   0.466   4.411
  280SOL    HW1 1739   4.406   0.371   4.386
  280SOL    HW2 1740   4.347   0.523   4.393
  281SOL     OW 1741   5.168   6.241   4.057
  281SOL    HW1 1742   5.136   6.326   4.014
  281SOL    HW2 1743   5.118   6.226   4.142
  282SOL     OW 1744   4.339   1.943   6.513
  282SOL    HW1 1745   4.341   2.017   6.580
  282SOL    HW2 1746   4.283   1.868   6.548
  283SOL     OW 1747   6.683   1.011   4.828
  283SOL    HW1 1748   6.725   0.921   4.838
  283SOL    HW2 1749   6.647   1.021   4.736
  284SOL     OW 1750   6.290   5.514   4.389
  284SOL    HW1 1751   6.263   5.417   4.395
  284SOL    HW2 1752   6.368   5.531   4.449
  285SOL     OW 1753   3.964   0.379   6.813
  285SOL    HW1 1754   3.952   0.281   6.798
  285SOL    HW2 1755   3.907   0.430   6.748
  286SOL     OW 1756   3.934   4.903   4.382
  286SOL    HW1 1757   3.863   4.871   4.320
  286SOL    HW2 1758   3.892   4.946   4.462
  287SOL     OW 1759   2.783   6.376   5.939
  287SOL    HW1 1760   2.870   6.369   5.890
  287SOL    HW2 1761   2.723   6.441   5.891
  288SOL     OW 1762   3.485   1.230   0.254
  288SOL    HW1 1763   3.539   1.311   0.230
  288SOL    HW2 1764   3.525   1.149   0.211
  289SOL     OW 1765   0.530   6.112   3.926
  289SOL    HW1 1766   0.508   6.209   3.926
  289SOL    HW2 1767   0.491   6.068   4.007
  290SOL     OW 1768   3.705   0.935   4.129
  290SOL    HW1 1769   3.787   0.929   4.072
  290SOL    HW2 1770   3.636   0.871   4.095
  291SOL     OW 1771   4.662   0.577   4.376
  291SOL    HW1 1772   4.574   0.531   4.390
  291SOL    HW2 1773   4.736   0.513   4.394
  292SOL     OW 1774   3.727   0.313   3.489
  292SOL    HW1 1775   3.669   0.271   3.558
  292SOL    HW2 1776   3.711   0.412   3.487
  293SOL     OW 1777   5.835   0.029   3.335
  293SOL    HW1 1778   5.893   0.093   3.284
  293SOL    HW2 1779   5.838   6.964   3.291
  294SOL     OW 1780   5.690   1.209   5.688
  294SOL    HW1 1781   5.659   1.119   5.719
  294SOL    HW2 1782   5.779   1.201   5.643
  295SOL     OW 1783   0.969   1.840   5.186
  295SOL    HW1 1784   1.041   1.900   5.220
  295SOL    HW2 1785   0.897   1.896   5.144
  296SOL     OW 1786   6.799   1.587   1.450
  296SOL    HW1 1787   6.848   1.670   1.478
  296SOL    HW2 1788   6.865   1.515   1.431
  297SOL     OW 1789   5.579   4.058   3.535
  297SOL    HW1 1790   5.589   3.997   3.613
  297SOL    HW2 1791   5.661   4.054   3.478
  298SOL     OW 1792   4.097   0.665   0.455
  298SOL    HW1 1793   4.121   0.574   0.423
  298SOL    HW2 1794   4.024   0.703   0.399
  299SOL     OW 1795   2.915   1.404   6.599
  299SOL    HW1 1796   3.007   1.366   6.583
  299SOL    HW2 1797   2.869   1.350   6.669
  300SOL     OW 1798   3.588   1.196   3.184
  300SOL    HW1 1799   3.563   1.143   3.103
  300SOL    HW2 1800   3.632   1.281   3.156
  301SOL     OW 1801   6.099   6.033   1.526
  301SOL    HW1 1802   6.160   5.954   1.522
  301SOL    HW2 1803   6.046   6.029   1.611
  302SOL     OW 1804   6.709   6.176   1.749
  302SOL    HW1 1805   6.669   6.249   1.694
  302SOL    HW2 1806   6.753   6.216   1.830
  303SOL     OW 1807   6.420   6.046   2.710
  303SOL    HW1 1808   6.392   6.124   2.766
  303SOL    HW2 1809   6.463   5.978   2.768
  304SOL     OW 1810   1.291   6.973   5.252
  304SOL    HW1 1811   1.208   6.935   5.210
  304SOL    HW2 1812   1.313   0.036   5.208
  305SOL     OW 1813   1.939   2.539   2.002
  305SOL    HW1 1814   1.881   2.494   2.069
  305SOL    HW2 1815   1.896   2.533   1.912
  306SOL     OW 1816   6.134   1.045   3.391
  306SOL    HW1 1817   6.136   1.144   3.408
  306SOL    HW2 1818   6.156   1.027   3.296
  307SOL     OW 1819   3.275   3.300   1.951
  307SOL    HW1 1820   3.239   3.365   1.883
  307SOL    HW2 1821   3.215   3.221   1.956
  308SOL     OW 1822   5.732   1.626   4.042
  308SOL    HW1 1823   5.658   1.608   4.107
  308SOL    HW2 1824   5.714   1.712   3.995
  309SOL     OW 1825   1.098   6.572   6.450
  309SOL    HW1 1826   1.083   6.538   6.543
  309SOL    HW2 1827   1.095   6.496   6.386
  310SOL     OW 1828   5.222   5.454   4.818
  310SOL    HW1 1829   5.145   5.513   4.843
  310SOL    HW2 1830   5.282   5.502   4.754
  311SOL     OW 1831   1.627   5.363   2.799
  311SOL    HW1 1832   1.688   5.437   2.773
  311SOL    HW2 1833   1.614   5.363   2.898
  312SOL     OW 1834   4.520   2.487   3.236
  312SOL    HW1 1835   4.489   2.535   3.318
  312SOL    HW2 1836   4.565   2.402   3.262
  313SOL     OW 1837   3.849   3.599   2.881
  313SOL    HW1 1838   3.831   3.501   2.870
  313SOL    HW2 1839   3.771   3.641   2.928
  314SOL     OW 1840   1.899   6.675   5.049
  314SOL    HW1 1841   1.957   6.732   5.108
  314SOL    HW2 1842   1.857   6.602   5.103
  315SOL     OW 1843   6.311   1.129   3.613
  315SOL    HW1 1844   6.407   1.144   3.633
  315SOL    HW2 1845   6.298   1.122   3.514
  316SOL     OW 1846   3.725   1.504   5.100
  316SOL    HW1 1847   3.760   1.537   5.012
  316SOL    HW2 1848   3.786   1.533   5.173
  317SOL     OW 1849   1.474   1.334   1.600
  317SOL    HW1 1850   1.530   1.414   1.580
  317SOL    HW2 1851   1.379   1.352   1.575
  318SOL     OW 1852   6.932   0.616   5.647
  318SOL    HW1 1853   6.976   0.531   5.618
  318SOL    HW2 1854   6.973   0.648   5.732
  319SOL     OW 1855   1.289   1.813   2.490
  319SOL    HW1 1856   1.374   1.857   2.463
  319SOL    HW2 1857   1.276   1.822   2.589
  320SOL     OW 1858   5.592   2.150   6.610
  320SOL    HW1 1859   5.603   2.229   6.550
  320SOL    HW2 1860   5.619   2.175   6.703
  321SOL     OW 1861   4.053   3.124   0.867
  321SOL    HW1 1862   4.101   3.050   0.821
  321SOL    HW2 1863   4.111   3.205   0.869
  322SOL     OW 1864   4.591   3.391   6.799
  322SOL    HW1 1865   4.642   3.346   6.726
  322SOL    HW2 1866   4.636   3.477   6.823
  323SOL     OW 1867   0.259   3.085   3.798
  323SOL    HW1 1868   0.230   3.173   3.835
  323SOL    HW2 1869   0.310   3.100   3.713
  324SOL     OW 1870   1.283   0.526   2.885
  324SOL    HW1 1871   1.293   0.625   2.884
  324SOL    HW2 1872   1.282   0.493   2.980
  325SOL     OW 1873   1.105   3.698   2.277
  325SOL    HW1 1874   1.197   3.704   2.314
  325SOL    HW2 1875   1.038   3.710   2.350
  326SOL     OW 1876   2.044   6.006   6.345
  326SOL    HW1 1877   2.118   5.979   6.284
  326SOL    HW2 1878   1.970   5.938   6.340
  327SOL     OW 1879   3.848   5.431   3.123
  327SOL    HW1 1880   3.829   5.365   3.196
  327SOL    HW2 1881   3.907   5.504   3.158
  328SOL     OW 1882   2.360   4.592   1.955
  328SOL    HW1 1883   2.369   4.498   1.987
  328SOL    HW2 1884   2.345   4.653   2.033
  329SOL     OW 1885   3.212   4.082   1.789
  329SOL    HW1 1886   3.172   4.168   1.756
  329SOL    HW2 1887   3.303   4.070   1.750
  330SOL     OW 1888   4.251   4.849   0.210
  330SOL    HW1 1889   4.335   4.900   0.223
  330SOL    HW2 1890   4.268   4.751   0.224
  331SOL     OW 1891   4.742   5.421   0.778
  331SOL    HW1 1892   4.837   5.435   0.804
  331SOL    HW2 1893   4.706   5.341   0.828
  332SOL     OW 1894   5.517   2.017   3.192
  332SOL    HW1 1895   5.529   2.115   3.181
  332SOL    HW2 1896   5.506   1.995   3.289
  333SOL     OW 1897   3.714   0.983   5.495
  333SOL    HW1 1898   3.696   0.978   5.593
  333SOL    HW2 1899   3.641   1.034   5.450
  334SOL     OW 1900   4.144   3.390   3.073
  334SOL    HW1 1901   4.188   3.340   3.147
  334SOL    HW2 1902   4.052   3.417   3.100
  335SOL     OW 1903   3.761   6.813   6.788
  335SOL    HW1 1904   3.673   6.858   6.777
  335SOL    HW2 1905   3.818   6.831   6.707
  336SOL     OW 1906   2.218   1.787   3.661
  336SOL    HW1 1907   2.268   1.800   3.575
  336SOL    HW2 1908   2.253   1.706   3.708
  337SOL     OW 1909   1.516   1.908   6.260
  337SOL    HW1 1910   1.593   1.905   6.323
  337SOL    HW2 1911   1.491   2.004   6.243
  338SOL     OW 1912   4.598   2.691   1.280
  338SOL    HW1 1913   4.518   2.652   1.324
  338SOL    HW2 1914   4.606   2.788   1.304
  339SOL     OW 1915   4.049   4.972   4.710
  339SOL    HW1 1916   4.131   4.931   4.671
  339SOL    HW2 1917   4.061   4.986   4.808
  340SOL     OW 1918   4.793   2.246   4.816
  340SOL    HW1 1919   4.719   2.238   4.883
  340SOL    HW2 1920   4.758   2.220   4.725
  341SOL     OW 1921   5.796   6.492   3.774
  341SOL    HW1 1922   5.767   6.400   3.801
  341SOL    HW2 1923   5.836   6.539   3.853
  342SOL     OW 1924   5.100   3.212   0.742
  342SOL    HW1 1925   5.027   3.153   0.775
  342SOL    HW2 1926   5.066   3.306   0.732
  343SOL     OW 1927   1.177   5.453   3.100
  343SOL    HW1 1928   1.088   5.410   3.116
  343SOL    HW2 1929   1.244   5.414   3.163
  344SOL     OW 1930   1.440   1.455   1.256
  344SOL    HW1 1931   1.418   1.367   1.214
  344SOL    HW2 1932   1.530   1.485   1.225
  345SOL     OW 1933   6.622   2.120   4.478
  345SOL    HW1 1934   6.691   2.060   4.436
  345SOL    HW2 1935   6.561   2.065   4.535
  346SOL     OW 1936   1.939   0.294   2.753
  346SOL    HW1 1937   1.983   0.213   2.716
  346SOL    HW2 1938   1.864   0.267   2.813
  347SOL     OW 1939   2.930   5.580   0.574
  347SOL    HW1 1940   3.005   5.551   0.633
  347SOL    HW2 1941   2.964   5.589   0.480
  348SOL     OW 1942   4.850   5.389   2.377
  348SOL    HW1 1943   4.910   5.449   2.431
  348SOL    HW2 1944   4.897   5.303   2.359
  349SOL     OW 1945   6.829   3.983   1.445
  349SOL    HW1 1946   6.915   3.933   1.432
  349SOL    HW2 1947   6.797   4.017   1.357
  350SOL     OW 1948   3.823   3.306   0.172
  350SOL    HW1 1949   3.837   3.386   0.114
  350SOL    HW2 1950   3.808   3.335   0.266
  351SOL     OW 1951   3.402   3.888   0.782
  351SOL    HW1 1952   3.361   3.822   0.718
  351SOL    HW2 1953   3.341   3.902   0.860
  352SOL     OW 1954   4.457   5.723   3.758
  352SOL    HW1 1955   4.523   5.772   3.701
  352SOL    HW2 1956   4.475   5.743   3.854
  353SOL     OW 1957   2.379   6.997   5.903
  353SOL    HW1 1958   2.438   6.918   5.920
  353SOL    HW2 1959   2.306   6.999   5.971
  354SOL     OW 1960   5.557   2.499   1.150
  354SOL    HW1 1961   5.614   2.507   1.232
  354SOL    HW2 1962   5.594   2.428   1.091
  355SOL     OW 1963   1.504   2.919   2.401
  355SOL    HW1 1964   1.502   3.018   2.387
  355SOL    HW2 1965   1.439   2.875   2.339
  356SOL     OW 1966   1.738   0.201   5.337
  356SOL    HW1 1967   1.663   0.137   5.356
  356SOL    HW2 1968   1.712   0.261   5.261
  357SOL     OW 1969   6.025   0.080   4.629
  357SOL    HW1 1970   5.986   0.144   4.695
  357SOL    HW2 1971   6.037   0.126   4.541
  358SOL     OW 1972   5.178   5.569   0.725
  358SOL    HW1 1973   5.149   5.484   0.679
  358SOL    HW2 1974   5.107   5.598   0.789
  359SOL     OW 1975   3.055   1.598   2.337
  359SOL    HW1 1976   3.079   1.580   2.432
  359SOL    HW2 1977   3.056   1.697   2.321
  360SOL     OW 1978   1.068   5.183   4.265
  360SOL    HW1 1979   1.062   5.104   4.204
  360SOL    HW2 1980   1.153   5.178   4.318
  361SOL     OW 1981   6.374   6.028   3.208
  361SOL    HW1 1982   6.357   6.018   3.306
  361SOL    HW2 1983   6.307   5.974   3.157
  362SOL     OW 1984   3.947   4.363   0.583
  362SOL    HW1 1985   3.898   4.295   0.639
  362SOL    HW2 1986   3.881   4.414   0.529
  363SOL     OW 1987   6.673   4.960   2.600
  363SOL    HW1 1988   6.631   4.878   2.560
  363SOL    HW2 1989   6.698   4.942   2.695
  364SOL     OW 1990   0.567   5.012   6.575
  364SOL    HW1 1991   0.614   5.081   6.629
  364SOL    HW2 1992   0.621   4.989   6.494
  365SOL     OW 1993   3.588   0.806   2.031
  365SOL    HW1 1994   3.574   0.720   1.983
  365SOL    HW2 1995   3.513   0.820   2.096
  366SOL     OW 1996   6.130   3.467   6.916
  366SOL    HW1 1997   6.093   3.387   6.963
  366SOL    HW2 1998   6.217   3.442   6.873
  367SOL     OW 1999   5.117   2.317   5.685
  367SOL    HW1 2000   5.130   2.280   5.593
  367SOL    HW2 2001   5.021   2.340   5.699
  368SOL     OW 2002   6.636   1.876   6.203
  368SOL    HW1 2003   6.585   1.946   6.252
  368SOL    HW2 2004   6.715   1.919   6.157
  369SOL     OW 2005   5.764   4.123   3.102
  369SOL    HW1 2006   5.668   4.144   3.119
  369SOL    HW2 2007   5.772   4.070   3.017
  370SOL     OW 2008   1.927   2.924   4.153
  370SOL    HW1 2009   1.833   2.948   4.129
  370SOL    HW2 2010   1.988   3.001   4.133
  371SOL     OW 2011   1.636   4.083   6.871
  371SOL    HW1 2012   1.699   4.025   6.922
  371SOL    HW2 2013   1.652   4.071   6.773
  372SOL     OW 2014   2.041   6.889   4.868
  372SOL    HW1 2015   1.959   6.838   4.842
  372SOL    HW2 2016   2.049   6.890   4.968
  373SOL     OW 2017   5.983   6.480   5.145
  373SOL    HW1 2018   5.938   6.549   5.088
  373SOL    HW2 2019   5.982   6.511   5.241
  374SOL     OW 2020   2.185   1.624   2.672
  374SOL    HW1 2021   2.237   1.688   2.615
  374SOL    HW2 2022   2.091   1.656   2.679
  375SOL     OW 2023   0.408   5.482   5.061
  375SOL    HW1 2024   0.487   5.540   5.041
  375SOL    HW2 2025   0.429   5.387   5.039
  376SOL     OW 2026   2.880   1.080   4.325
  376SOL    HW1 2027   2.783   1.087   4.304
  376SOL    HW2 2028   2.928   1.161   4.292
  377SOL     OW 2029   1.441   2.384   0.251
  377SOL    HW1 2030   1.375   2.309   0.259
  377SOL    HW2 2031   1.497   2.369   0.170
  378SOL     OW 2032   2.931   1.578   6.959
  378SOL    HW1 2033   3.014   1.551   6.910
  378SOL    HW2 2034   2.954   1.639   0.010
  379SOL     OW 2035   5.690   2.375   6.449
  379SOL    HW1 2036   5.766   2.361   6.385
  379SOL    HW2 2037   5.644   2.462   6.428
  380SOL     OW 2038   3.317   1.156   1.412
  380SOL    HW1 2039   3.355   1.201   1.492
  380SOL    HW2 2040   3.337   1.058   1.417
  381SOL     OW 2041   1.337   4.552   4.254
  381SOL    HW1 2042   1.297   4.558   4.162
  381SOL    HW2 2043   1.358   4.456   4.274
  382SOL     OW 2044   6.214   0.121   0.381
  382SOL    HW1 2045   6.128   0.159   0.415
  382SOL    HW2 2046   6.280   0.195   0.368
  383SOL     OW 2047   4.045   2.814   1.129
  383SOL    HW1 2048   4.064   2.763   1.045
  383SOL    HW2 2049   4.128   2.816   1.185
  384SOL     OW 2050   0.283   3.780   4.032
  384SOL    HW1 2051   0.314   3.731   4.114
  384SOL    HW2 2052   0.335   3.748   3.952
  385SOL     OW 2053   3.894   5.404   6.249
  385SOL    HW1 2054   3.982   5.449   6.263
  385SOL    HW2 2055   3.903   5.334   6.177
  386SOL     OW 2056   4.290   0.587   4.025
  386SOL    HW1 2057   4.292   0.687   4.019
  386SOL    HW2 2058   4.215   0.553   3.969
  387SOL     OW 2059   1.917   5.378   2.967
  387SOL    HW1 2060   2.000   5.342   3.009
  387SOL    HW2 2061   1.907   5.475   2.990
  388SOL     OW 2062   2.468   2.124   6.704
  388SOL    HW1 2063   2.456   2.034   6.745
  388SOL    HW2 2064   2.389   2.182   6.724
  389SOL     OW 2065   3.649   3.720   3.037
  389SOL    HW1 2066   3.567   3.711   3.095
  389SOL    HW2 2067   3.726   3.749   3.093
  390SOL     OW 2068   2.402   1.033   4.056
  390SOL    HW1 2069   2.373   1.125   4.031
  390SOL    HW2 2070   2.397   0.974   3.976
  391SOL     OW 2071   1.648   3.242   6.756
  391SOL    HW1 2072   1.658   3.211   6.850
  391SOL    HW2 2073   1.734   3.283   6.725
  392SOL     OW 2074   1.965   5.186   1.411
  392SOL    HW1 2075   1.924   5.254   1.351
  392SOL    HW2 2076   1.916   5.099   1.401
  393SOL     OW 2077   6.301   4.486   5.202
  393SOL    HW1 2078   6.321   4.427   5.280
  393SOL    HW2 2079   6.348   4.574   5.213
  394SOL     OW 2080   0.616   7.008   0.534
  394SOL    HW1 2081   0.605   7.004   0.633
  394SOL    HW2 2082   0.527   7.000   0.489
  395SOL     OW 2083   4.856   3.835   2.344
  395SOL    HW1 2084   4.906   3.903   2.290
  395SOL    HW2 2085   4.879   3.743   2.313
  396SOL     OW 2086   3.693   3.954   2.892
  396SOL    HW1 2087   3.706   3.868   2.940
  396SOL    HW2 2088   3.782   3.992   2.866
  397SOL     OW 2089   4.025   3.127   5.956
  397SOL    HW1 2090   4.109   3.103   6.004
  397SOL    HW2 2091   4.028   3.092   5.863
  398SOL     OW 2092   0.972   5.612   2.251
  398SOL    HW1 2093   0.934   5.534   2.201
  398SOL    HW2 2094   0.907   5.642   2.321
  399SOL     OW 2095   5.433   5.918   2.576
  399SOL    HW1 2096   5.433   5.965   2.664
  399SOL    HW2 2097   5.490   5.969   2.512
  400SOL     OW 2098   7.006   0.360   6.032
  400SOL    HW1 2099   7.000   0.262   6.052
  400SOL    HW2 2100   6.914   0.399   6.026
  401SOL     OW 2101   5.017   0.468   6.487
  401SOL    HW1 2102   5.111   0.434   6.489
  401SOL    HW2 2103   4.999   0.520   6.571
  402SOL     OW 2104   6.322   6.724   3.084
  402SOL    HW1 2105   6.329   6.821   3.058
  402SOL    HW2 2106   6.263   6.677   3.018
  403SOL     OW 2107   4.662   2.423   5.901
  403SOL    HW1 2108   4.655   2.423   6.001
  403SOL    HW2 2109   4.633   2.334   5.866
  404SOL     OW 2110   1.533   6.949   3.343
  404SOL    HW1 2111   1.516   0.014   3.386
  404SOL    HW2 2112   1.453   6.891   3.355
  405SOL     OW 2113   1.911   2.037   1.580
  405SOL    HW1 2114   1.965   2.113   1.543
  405SOL    HW2 2115   1.864   1.990   1.506
  406SOL     OW 2116   1.128   2.828   4.014
  406SOL    HW1 2117   1.052   2.808   4.075
  406SOL    HW2 2118   1.184   2.902   4.053
  407SOL     OW 2119   2.407   0.097   4.075
  407SOL    HW1 2120   2.338   0.169   4.067
  407SOL    HW2 2121   2.498   0.137   4.082
  408SOL     OW 2122   1.471   0.842   3.203
  408SOL    HW1 2123   1.439   0.928   3.163
  408SOL    HW2 2124   1.501   0.858   3.297
  409SOL     OW 2125   5.884   3.191   2.558
  409SOL    HW1 2126   5.867   3.093   2.552
  409SOL    HW2 2127   5.834   3.238   2.485
  410SOL     OW 2128   2.447   0.145   0.144
  410SOL    HW1 2129   2.540   0.133   0.110
  410SOL    HW2 2130   2.387   0.076   0.104
  411SOL     OW 2131   5.833   6.150   6.461
  411SOL    HW1 2132   5.853   6.200   6.377
  411SOL    HW2 2133   5.785   6.210   6.525
  412SOL     OW 2134   4.076   6.913   2.691
  412SOL    HW1 2135   4.159   6.893   2.742
  412SOL    HW2 2136   4.007   6.843   2.710
  413SOL     OW 2137   4.077   4.518   1.074
  413SOL    HW1 2138   4.103   4.433   1.028
  413SOL    HW2 2139   4.010   4.567   1.018
  414SOL     OW 2140   4.161   5.128   2.629
  414SOL    HW1 2141   4.068   5.142   2.663
  414SOL    HW2 2142   4.205   5.217   2.616
  415SOL     OW 2143   1.675   5.696   0.436
  415SOL    HW1 2144   1.711   5.715   0.345
  415SOL    HW2 2145   1.717   5.759   0.502
  416SOL     OW 2146   4.588   5.488   4.957
  416SOL    HW1 2147   4.584   5.484   5.057
  416SOL    HW2 2148   4.527   5.560   4.924
  417SOL     OW 2149   3.130   6.795   1.055
  417SOL    HW1 2150   3.227   6.819   1.064
  417SOL    HW2 2151   3.115   6.703   1.090
  418SOL     OW 2152   4.956   6.250   0.233
  418SOL    HW1 2153   5.046   6.207   0.239
  418SOL    HW2 2154   4.967   6.347   0.210
  419SOL     OW 2155   0.908   0.176   1.231
  419SOL    HW1 2156   0.910   0.082   1.195
  419SOL    HW2 2157   1.000   0.216   1.224
  420SOL     OW 2158   6.228   3.803   1.131
  420SOL    HW1 2159   6.189   3.790   1.222
  420SOL    HW2 2160   6.326   3.784   1.133
  421SOL     OW 2161   0.763   5.005   6.198
  421SOL    HW1 2162   0.795   4.936   6.132
  421SOL    HW2 2163   0.786   4.975   6.291
  422SOL     OW 2164   6.311   5.637   0.805
  422SOL    HW1 2165   6.219   5.606   0.827
  422SOL    HW2 2166   6.355   5.673   0.888
  423SOL     OW 2167   6.404   3.366   6.888
  423SOL    HW1 2168   6.439   3.280   6.850
  423SOL    HW2 2169   6.439   3.377   6.981
  424SOL     OW 2170   3.058   3.398   1.001
  424SOL    HW1 2171   3.148   3.385   1.043
  424SOL    HW2 2172   3.054   3.344   0.917
  425SOL     OW 2173   5.106   1.097   2.017
  425SOL    HW1 2174   5.153   1.103   1.929
  425SOL    HW2 2175   5.026   1.157   2.015
  426SOL     OW 2176   5.843   2.539   5.155
  426SOL    HW1 2177   5.928   2.516   5.203
  426SOL    HW2 2178   5.800   2.455   5.124
  427SOL     OW 2179   5.627   5.160   2.835
  427SOL    HW1 2180   5.554   5.115   2.887
  427SOL    HW2 2181   5.606   5.156   2.738
  428SOL     OW 2182   4.728   0.255   5.296
  428SOL    HW1 2183   4.690   0.271   5.387
  428SOL    HW2 2184   4.719   0.338   5.241
  429SOL     OW 2185   2.962   5.120   1.172
  429SOL    HW1 2186   2.924   5.048   1.229
  429SOL    HW2 2187   2.914   5.206   1.190
  430SOL     OW 2188   0.889   6.491   3.920
  430SOL    HW1 2189   0.844   6.449   3.841
  430SOL    HW2 2190   0.909   6.420   3.987
  431SOL     OW 2191   3.495   0.980   0.100
  431SOL    HW1 2192   3.569   0.917   0.077
  431SOL    HW2 2193   3.407   0.934   0.090
  432SOL     OW 2194   6.851   2.620   0.949
  432SOL    HW1 2195   6.919   2.679   0.905
  432SOL    HW2 2196   6.833   2.541   0.890
  433SOL     OW 2197   2.798   6.784   3.522
  433SOL    HW1 2198   2.773   6.819   3.612
  433SOL    HW2 2199   2.736   6.710   3.496
  434SOL     OW 2200   4.995   4.912   1.622
  434SOL    HW1 2201   5.074   4.854   1.601
  434SOL    HW2 2202   4.912   4.870   1.586
  435SOL     OW 2203   3.744   2.616   5.574
  435SOL    HW1 2204   3.659   2.654   5.538
  435SOL    HW2 2205   3.820   2.640   5.513
  436SOL     OW 2206   2.136   6.599   1.247
  436SOL    HW1 2207   2.203   6.664   1.211
  436SOL    HW2 2208   2.051   6.606   1.194
  437SOL     OW 2209   0.526   0.057   6.551
  437SOL    HW1 2210   0.559   0.151   6.553
  437SOL    HW2 2211   0.435   0.054   6.593
  438SOL     OW 2212   1.298   3.211   2.037
  438SOL    HW1 2213   1.357   3.245   2.110
  438SOL    HW2 2214   1.202   3.214   2.067
  439SOL     OW 2215   6.127   4.188   3.447
  439SOL    HW1 2216   6.108   4.203   3.545
  439SOL    HW2 2217   6.212   4.235   3.422
  440SOL     OW 2218   0.995   2.011   4.628
  440SOL    HW1 2219   1.079   2.007   4.682
  440SOL    HW2 2220   1.015   2.053   4.539
  441SOL     OW 2221   0.752   1.840   3.025
  441SOL    HW1 2222   0.799   1.918   2.984
  441SOL    HW2 2223   0.815   1.763   3.034
  442SOL     OW 2224   1.997   4.942   0.012
  442SOL    HW1 2225   1.919   4.890   7.001
  442SOL    HW2 2226   2.045   4.888   0.081
  443SOL     OW 2227   1.244   4.039   4.716
  443SOL    HW1 2228   1.149   4.061   4.738
  443SOL    HW2 2229   1.248   3.984   4.633
  444SOL     OW 2230   5.294   2.060   6.047
  444SOL    HW1 2231   5.329   2.135   5.991
  444SOL    HW2 2232   5.301   2.085   6.144
  445SOL     OW 2233   1.431   5.630   3.062
  445SOL    HW1 2234   1.509   5.637   3.000
  445SOL    HW2 2235   1.415   5.533   3.084
  446SOL     OW 2236   4.341   4.714   3.304
  446SOL    HW1 2237   4.342   4.805   3.345
  446SOL    HW2 2238   4.292   4.718   3.217
  447SOL     OW 2239   0.273   3.490   0.016
  447SOL    HW1 2240   0.273   3.437   6.956
  447SOL    HW2 2241   0.196   3.462   0.073
  448SOL     OW 2242   3.603   0.538   4.829
  448SOL    HW1 2243   3.674   0.500   4.888
  448SOL    HW2 2244   3.513   0.510   4.863
  449SOL     OW 2245   4.535   1.003   5.010
  449SOL    HW1 2246   4.634   1.012   5.020
  449SOL    HW2 2247   4.511   0.907   5.010
  450SOL     OW 2248   0.702   6.079   2.933
  450SOL    HW1 2249   0.774   6.083   3.003
  450SOL    HW2 2250   0.673   6.172   2.910
  451SOL     OW 2251   1.560   2.260   2.857
  451SOL    HW1 2252   1.473   2.309   2.855
  451SOL    HW2 2253   1.635   2.324   2.838
  452SOL     OW 2254   6.024   5.708   0.555
  452SOL    HW1 2255   5.959   5.729   0.628
  452SOL    HW2 2256   5.993   5.627   0.506
  453SOL     OW 2257   3.152   0.286   5.134
  453SOL    HW1 2258   3.063   0.275   5.089
  453SOL    HW2 2259   3.223   0.245   5.077
  454SOL     OW 2260   0.271   5.324   5.953
  454SOL    HW1 2261   0.222   5.238   5.938
  454SOL    HW2 2262   0.340   5.335   5.881
  455SOL     OW 2263   6.988   0.811   4.362
  455SOL    HW1 2264   6.959   0.765   4.278
  455SOL    HW2 2265   0.023   0.888   4.338
  456SOL     OW 2266   4.309   5.742   4.463
  456SOL    HW1 2267   4.379   5.718   4.530
  456SOL    HW2 2268   4.231   5.679   4.472
  457SOL     OW 2269   2.009   3.597   3.462
  457SOL    HW1 2270   1.949   3.579   3.384
  457SOL    HW2 2271   2.046   3.690   3.455
  458SOL     OW 2272   4.803   5.962   4.714
  458SOL    HW1 2273   4.882   5.900   4.721
  458SOL    HW2 2274   4.800   6.002   4.623
  459SOL     OW 2275   1.360   0.532   4.162
  459SOL    HW1 2276   1.358   0.615   4.106
  459SOL    HW2 2277   1.451   0.491   4.159
  460SOL     OW 2278   1.007   1.035   2.414
  460SOL    HW1 2279   1.089   0.979   2.408
  460SOL    HW2 2280   1.024   1.124   2.371
  461SOL     OW 2281   5.877   6.660   4.974
  461SOL    HW1 2282   5.792   6.658   4.921
  461SOL    HW2 2283   5.948   6.706   4.921
  462SOL     OW 2284   4.326   2.139   5.917
  462SOL    HW1 2285   4.291   2.185   5.836
  462SOL    HW2 2286   4.257   2.076   5.952
  463SOL     OW 2287   6.334   6.294   3.117
  463SOL    HW1 2288   6.254   6.338   3.157
  463SOL    HW2 2289   6.367   6.223   3.180
  464SOL     OW 2290   2.787   2.149   6.277
  464SOL    HW1 2291   2.859   2.107   6.333
  464SOL    HW2 2292   2.828   2.220   6.219
  465SOL     OW 2293   1.486   2.527   4.599
  465SOL    HW1 2294   1.451   2.574   4.517
  465SOL    HW2 2295   1.508   2.432   4.575
  466SOL     OW 2296   1.050   5.704   3.078
  466SOL    HW1 2297   1.114   5.627   3.079
  466SOL    HW2 2298   0.957   5.669   3.083
  467SOL     OW 2299   1.133   0.943   6.574
  467SOL    HW1 2300   1.042   0.904   6.558
  467SOL    HW2 2301   1.168   0.910   6.662
  468SOL     OW 2302   2.798   6.411   0.490
  468SOL    HW1 2303   2.874   6.433   0.429
  468SOL    HW2 2304   2.832   6.358   0.567
  469SOL     OW 2305   2.605   4.586   0.733
  469SOL    HW1 2306   2.667   4.529   0.786
  469SOL    HW2 2307   2.649   4.673   0.712
  470SOL     OW 2308   3.632   0.422   2.284
  470SOL    HW1 2309   3.539   0.457   2.285
  470SOL    HW2 2310   3.685   0.465   2.358
  471SOL     OW 2311   1.764   2.610   4.520
  471SOL    HW1 2312   1.837   2.616   4.588
  471SOL    HW2 2313   1.685   2.565   4.561
  472SOL     OW 2314   4.918   3.862   6.823
  472SOL    HW1 2315   4.973   3.782   6.848
  472SOL    HW2 2316   4.845   3.833   6.761
  473SOL     OW 2317   0.783   3.039   1.600
  473SOL    HW1 2318   0.719   3.064   1.528
  473SOL    HW2 2319   0.841   2.963   1.567
  474SOL     OW 2320   4.587   5.106   3.713
  474SOL    HW1 2321   4.593   5.200   3.681
  474SOL    HW2 2322   4.652   5.049   3.663
  475SOL     OW 2323   6.094   1.244   6.305
  475SOL    HW1 2324   6.087   1.145   6.318
  475SOL    HW2 2325   6.020   1.275   6.246
  476SOL     OW 2326   0.728   4.153   2.231
  476SOL    HW1 2327   0.754   4.103   2.313
  476SOL    HW2 2328   0.737   4.094   2.150
  477SOL     OW 2329   2.208   4.578   5.097
  477SOL    HW1 2330   2.193   4.674   5.076
  477SOL    HW2 2331   2.267   4.537   5.027
  478SOL     OW 2332   2.970   6.735   2.545
  478SOL    HW1 2333   3.051   6.758   2.598
  478SOL    HW2 2334   2.990   6.740   2.447
  479SOL     OW 2335   4.363   2.219   0.001
  479SOL    HW1 2336   4.362   2.312   6.990
  479SOL    HW2 2337   4.294   2.164   6.978
  480SOL     OW 2338   2.165   0.830   0.438
  480SOL    HW1 2339   2.178   0.867   0.530
  480SOL    HW2 2340   2.218   0.746   0.429
  481SOL     OW 2341   1.876   7.000   7.007
  481SOL    HW1 2342   1.852   6.967   0.073
  481SOL    HW2 2343   1.915   0.068   7.015
  482SOL     OW 2344   4.503   4.980   2.907
  482SOL    HW1 2345   4.565   5.054   2.880
  482SOL    HW2 2346   4.466   4.935   2.826
  483SOL     OW 2347   6.482   1.851   2.187
  483SOL    HW1 2348   6.555   1.783   2.197
  483SOL    HW2 2349   6.404   1.825   2.243
  484SOL     OW 2350   0.892   2.729   5.197
  484SOL    HW1 2351   0.825   2.676   5.146
  484SOL    HW2 2352   0.867   2.731   5.294
  485SOL     OW 2353   4.284   5.622   2.152
  485SOL    HW1 2354   4.259   5.537   2.199
  485SOL    HW2 2355   4.379   5.617   2.123
  486SOL     OW 2356   6.979   1.079   1.270
  486SOL    HW1 2357   0.019   1.135   1.321
  486SOL    HW2 2358   6.888   1.121   1.274
  487SOL     OW 2359   0.954   2.109   0.855
  487SOL    HW1 2360   1.016   2.032   0.869
  487SOL    HW2 2361   1.004   2.195   0.865
  488SOL     OW 2362   0.574   1.232   1.798
  488SOL    HW1 2363   0.596   1.164   1.728
  488SOL    HW2 2364   0.509   1.298   1.760
  489SOL     OW 2365   3.314   6.564   6.419
  489SOL    HW1 2366   3.412   6.585   6.420
  489SOL    HW2 2367   3.266   6.632   6.475
  490SOL     OW 2368   0.107   6.271   3.393
  490SOL    HW1 2369   0.089   6.173   3.397
  490SOL    HW2 2370   0.024   6.319   3.362
  491SOL     OW 2371   0.235   3.083   2.552
  491SOL    HW1 2372   0.196   3.031   2.628
  491SOL    HW2 2373   0.161   3.112   2.491
  492SOL     OW 2374   3.206   0.459   4.670
  492SOL    HW1 2375   3.113   0.425   4.665
  492SOL    HW2 2376   3.242   0.475   4.578
  493SOL     OW 2377   5.627   6.460   5.245
  493SOL    HW1 2378   5.682   6.378   5.228
  493SOL    HW2 2379   5.686   6.541   5.243
  494SOL     OW 2380   0.284   0.105   7.008
  494SOL    HW1 2381   0.221   0.049   0.037
  494SOL    HW2 2382   0.374   0.107   0.028
  495SOL     OW 2383   5.247   6.036   3.154
  495SOL    HW1 2384   5.168   5.986   3.119
  495SOL    HW2 2385   5.225   6.134   3.156
  496SOL     OW 2386   5.331   3.720   2.702
  496SOL    HW1 2387   5.310   3.663   2.623
  496SOL    HW2 2388   5.357   3.812   2.671
  497SOL     OW 2389   3.187   1.441   5.201
  497SOL    HW1 2390   3.271   1.393   5.176
  497SOL    HW2 2391   3.110   1.404   5.148
  498SOL     OW 2392   1.562   3.868   1.607
  498SOL    HW1 2393   1.495   3.809   1.562
  498SOL    HW2 2394   1.652   3.824   1.607
  499SOL     OW 2395   3.184   0.399   4.345
  499SOL    HW1 2396   3.140   0.313   4.319
  499SOL    HW2 2397   3.115   0.470   4.355
  500SOL     OW 2398   1.259   3.468   2.522
  500SOL    HW1 2399   1.258   3.543   2.455
  500SOL    HW2 2400   1.352   3.434   2.533
  501SOL     OW 2401   3.003   0.078   0.259
  501SOL    HW1 2402   2.951   0.099   0.341
  501SOL    HW2 2403   3.026   0.162   0.211
  502SOL     OW 2404   6.698   4.528   6.371
  502SOL    HW1 2405   6.741   4.598   6.314
  502SOL    HW2 2406   6.607   4.508   6.337
  503SOL     OW 2407   5.602   5.729   5.634
  503SOL    HW1 2408   5.544   5.654   5.601
  503SOL    HW2 2409   5.547   5.793   5.687
  504SOL     OW 2410   2.295   5.629   3.081
  504SOL    HW1 2411   2.219   5.611   3.018
  504SOL    HW2 2412   2.280   5.715   3.128
  505SOL     OW 2413   3.669   6.435   5.607
  505SOL    HW1 2414   3.671   6.336   5.595
  505SOL    HW2 2415   3.598   6.474   5.549
  506SOL     OW 2416   1.215   5.476   4.574
  506SOL    HW1 2417   1.146   5.546   4.555
  506SOL    HW2 2418   1.299   5.520   4.606
  507SOL     OW 2419   3.414   0.951   3.691
  507SOL    HW1 2420   3.383   1.041   3.659
  507SOL    HW2 2421   3.483   0.963   3.762
  508SOL     OW 2422   6.265   3.553   2.847
  508SOL    HW1 2423   6.187   3.586   2.794
  508SOL    HW2 2424   6.257   3.454   2.859
  509SOL     OW 2425   2.872   1.018   0.615
  509SOL    HW1 2426   2.772   1.014   0.613
  509SOL    HW2 2427   2.909   0.964   0.539
  510SOL     OW 2428   6.561   4.859   5.753
  510SOL    HW1 2429   6.520   4.912   5.827
  510SOL    HW2 2430   6.658   4.882   5.746
  511SOL     OW 2431   7.001   6.718   6.736
  511SOL    HW1 2432   0.061   6.698   6.685
  511SOL    HW2 2433   6.984   6.816   6.735
  512SOL     OW 2434   0.276   2.686   0.364
  512SOL    HW1 2435   0.274   2.752   0.439
  512SOL    HW2 2436   0.189   2.690   0.314
  513SOL     OW 2437   5.691   6.438   2.903
  513SOL    HW1 2438   5.785   6.408   2.921
  513SOL    HW2 2439   5.638   6.361   2.868
  514SOL     OW 2440   6.925   2.897   3.612
  514SOL    HW1 2441   6.972   2.825   3.563
  514SOL    HW2 2442   6.929   2.982   3.560
  515SOL     OW 2443   1.703   0.691   6.615
  515SOL    HW1 2444   1.681   0.733   6.527
  515SOL    HW2 2445   1.670   0.596   6.615
  516SOL     OW 2446   2.890   4.646   1.625
  516SOL    HW1 2447   2.870   4.592   1.706
  516SOL    HW2 2448   2.988   4.643   1.606
  517SOL     OW 2449   4.968   5.943   1.768
  517SOL    HW1 2450   4.921   5.968   1.852
  517SOL    HW2 2451   5.065   5.965   1.776
  518SOL     OW 2452   3.072   2.175   2.490
  518SOL    HW1 2453   3.000   2.242   2.471
  518SOL    HW2 2454   3.118   2.150   2.405
  519SOL     OW 2455   0.409   0.775   4.713
  519SOL    HW1 2456   0.429   0.853   4.654
  519SOL    HW2 2457   0.467   0.779   4.795
  520SOL     OW 2458   6.109   4.943   6.764
  520SOL    HW1 2459   6.050   5.013   6.805
  520SOL    HW2 2460   6.072   4.853   6.783
  521SOL     OW 2461   6.531   3.174   6.722
  521SOL    HW1 2462   6.550   3.257   6.669
  521SOL    HW2 2463   6.502   3.101   6.660
  522SOL     OW 2464   3.396   3.422   5.434
  522SOL    HW1 2465   3.358   3.336   5.470
  522SOL    HW2 2466   3.325   3.470   5.382
  523SOL     OW 2467   0.429   4.437   2.451
  523SOL    HW1 2468   0.506   4.386   2.489
  523SOL    HW2 2469   0.450   4.535   2.455
  524SOL     OW 2470   1.716   0.994   0.032
  524SOL    HW1 2471   1.728   1.082   0.077
  524SOL    HW2 2472   1.771   0.992   6.972
  525SOL     OW 2473   2.725   3.607   6.772
  525SOL    HW1 2474   2.792   3.671   6.734
  525SOL    HW2 2475   2.653   3.658   6.817
  526SOL     OW 2476   2.655   0.323   4.567
  526SOL    HW1 2477   2.661   0.415   4.530
  526SOL    HW2 2478   2.715   0.262   4.515
  527SOL     OW 2479   5.893   3.218   5.890
  527SOL    HW1 2480   5.954   3.241   5.966
  527SOL    HW2 2481   5.858   3.302   5.849
  528SOL     OW 2482   0.854   2.096   4.262
  528SOL    HW1 2483   0.870   2.053   4.173
  528SOL    HW2 2484   0.847   2.195   4.249
  529SOL     OW 2485   0.810   5.752   4.375
  529SOL    HW1 2486   0.885   5.815   4.357
  529SOL    HW2 2487   0.774   5.717   4.288
  530SOL     OW 2488   2.693   2.986   5.372
  530SOL    HW1 2489   2.609   3.005   5.321
  530SOL    HW2 2490   2.719   2.890   5.359
  531SOL     OW 2491   0.087   0.593   2.051
  531SOL    HW1 2492   0.086   0.510   2.107
  531SOL    HW2 2493   0.037   0.577   1.966
  532SOL     OW 2494   1.047   2.304   6.798
  532SOL    HW1 2495   1.085   2.312   6.706
  532SOL    HW2 2496   0.955   2.264   6.793
  533SOL     OW 2497   3.823   6.125   4.070
  533SOL    HW1 2498   3.786   6.218   4.062
  533SOL    HW2 2499   3.820   6.081   3.980
  534SOL     OW 2500   5.261   4.985   3.450
  534SOL    HW1 2501   5.345   4.955   3.406
  534SOL    HW2 2502   5.273   5.077   3.487
  535SOL     OW 2503   1.015   3.725   4.799
  535SOL    HW1 2504   1.010   3.772   4.887
  535SOL    HW2 2505   0.956   3.771   4.733
  536SOL     OW 2506   0.221   4.835   2.088
  536SOL    HW1 2507   0.157   4.854   2.013
  536SOL    HW2 2508   0.307   4.881   2.070
  537SOL     OW 2509   1.875   6.534   3.599
  537SOL    HW1 2510   1.854   6.479   3.518
  537SOL    HW2 2511   1.864   6.477   3.681
  538SOL     OW 2512   2.142   5.461   3.771
  538SOL    HW1 2513   2.104   5.518   3.844
  538SOL    HW2 2514   2.071   5.401   3.735
  539SOL     OW 2515   0.617   5.829   0.181
  539SOL    HW1 2516   0.543   5.795   0.239
  539SOL    HW2 2517   0.585   5.833   0.086
  540SOL     OW 2518   0.029   1.092   2.026
  540SOL    HW1 2519   0.040   1.015   2.089
  540SOL    HW2 2520   0.108   1.097   1.965
  541SOL     OW 2521   2.911   0.026   4.761
  541SOL    HW1 2522   2.935   0.002   4.856
  541SOL    HW2 2523   2.933   6.973   4.701
  542SOL     OW 2524   6.974   0.451   0.461
  542SOL    HW1 2525   0.001   0.404   0.533
  542SOL    HW2 2526   6.891   0.490   0.500
  543SOL     OW 2527   0.643   5.314   5.393
  543SOL    HW1 2528   0.641   5.214   5.395
  543SOL    HW2 2529   0.577   5.348   5.326
  544SOL     OW 2530   2.106   4.094   1.121
  544SOL    HW1 2531   2.010   4.109   1.147
  544SOL    HW2 2532   2.165   4.132   1.192
  545SOL     OW 2533   3.366   1.382   3.390
  545SOL    HW1 2534   3.355   1.461   3.450
  545SOL    HW2 2535   3.287   1.376   3.329
  546SOL     OW 2536   1.419   3.310   0.720
  546SOL    HW1 2537   1.509   3.354   0.712
  546SOL    HW2 2538   1.354   3.356   0.659
  547SOL     OW 2539   3.044   1.168   6.385
  547SOL    HW1 2540   3.101   1.196   6.463
  547SOL    HW2 2541   2.997   1.082   6.408
  548SOL     OW 2542   3.689   3.012   2.959
  548SOL    HW1 2543   3.750   2.986   2.884
  548SOL    HW2 2544   3.606   2.956   2.956
  549SOL     OW 2545   4.387   3.377   1.333
  549SOL    HW1 2546   4.465   3.388   1.395
  549SOL    HW2 2547   4.349   3.467   1.311
  550SOL     OW 2548   6.551   4.035   3.532
  550SOL    HW1 2549   6.630   4.096   3.523
  550SOL    HW2 2550   6.568   3.952   3.479
  551SOL     OW 2551   6.908   0.751   1.180
  551SOL    HW1 2552   6.835   0.816   1.201
  551SOL    HW2 2553   6.906   0.730   1.082
  552SOL     OW 2554   4.534   5.117   0.656
  552SOL    HW1 2555   4.478   5.040   0.625
  552SOL    HW2 2556   4.530   5.191   0.588
  553SOL     OW 2557   1.918   0.060   1.901
  553SOL    HW1 2558   1.840   0.090   1.955
  553SOL    HW2 2559   1.887   7.023   1.828
  554SOL     OW 2560   4.754   6.470   6.400
  554SOL    HW1 2561   4.663   6.446   6.434
  554SOL    HW2 2562   4.814   6.391   6.406
  555SOL     OW 2563   2.345   5.058   4.345
  555SOL    HW1 2564   2.253   5.065   4.385
  555SOL    HW2 2565   2.363   5.139   4.289
  556SOL     OW 2566   6.310   1.968   4.434
  556SOL    HW1 2567   6.381   1.902   4.459
  556SOL    HW2 2568   6.350   2.059   4.427
  557SOL     OW 2569   0.439   5.674   6.383
  557SOL    HW1 2570   0.372   5.723   6.438
  557SOL    HW2 2571   0.396   5.640   6.299
  558SOL     OW 2572   3.914   4.074   4.459
  558SOL    HW1 2573   3.873   4.086   4.369
  558SOL    HW2 2574   3.893   4.154   4.516
  559SOL     OW 2575   6.071   5.911   0.046
  559SOL    HW1 2576   6.066   5.857   6.985
  559SOL    HW2 2577   6.141   5.981   0.037
  560SOL     OW 2578   3.970   6.467   0.688
  560SOL    HW1 2579   3.937   6.525   0.762
  560SOL    HW2 2580   3.996   6.377   0.725
  561SOL     OW 2581   6.401   0.123   6.775
  561SOL    HW1 2582   6.304   0.102   6.782
  561SOL    HW2 2583   6.445   0.112   6.865
  562SOL     OW 2584   4.707   0.335   6.714
  562SOL    HW1 2585   4.636   0.404   6.706
  562SOL    HW2 2586   4.667   0.249   6.746
  563SOL     OW 2587   3.028   0.201   3.171
  563SOL    HW1 2588   2.983   0.288   3.190
  563SOL    HW2 2589   3.101   0.186   3.238
  564SOL     OW 2590   2.811   2.427   6.146
  564SOL    HW1 2591   2.740   2.414   6.216
  564SOL    HW2 2592   2.774   2.403   6.056
  565SOL     OW 2593   4.385   3.221   5.469
  565SOL    HW1 2594   4.297   3.174   5.474
  565SOL    HW2 2595   4.369   3.317   5.446
  566SOL     OW 2596   4.817   4.053   3.617
  566SOL    HW1 2597   4.808   4.009   3.527
  566SOL    HW2 2598   4.863   3.991   3.680
  567SOL     OW 2599   3.120   3.744   3.521
  567SOL    HW1 2600   3.101   3.821   3.460
  567SOL    HW2 2601   3.168   3.673   3.470
  568SOL     OW 2602   3.480   2.310   1.023
  568SOL    HW1 2603   3.577   2.300   1.046
  568SOL    HW2 2604   3.466   2.286   0.926
  569SOL     OW 2605   1.468   3.127   0.399
  569SOL    HW1 2606   1.372   3.153   0.410
  569SOL    HW2 2607   1.496   3.068   0.475
  570SOL     OW 2608   1.870   6.690   6.538
  570SOL    HW1 2609   1.778   6.693   6.579
  570SOL    HW2 2610   1.861   6.696   6.438
  571SOL     OW 2611   3.650   6.543   2.997
  571SOL    HW1 2612   3.569   6.484   2.999
  571SOL    HW2 2613   3.623   6.634   2.967
  572SOL     OW 2614   2.944   5.014   5.950
  572SOL    HW1 2615   2.981   4.969   6.031
  572SOL    HW2 2616   3.019   5.060   5.902
  573SOL     OW 2617   3.886   2.118   5.043
  573SOL    HW1 2618   3.905   2.124   4.945
  573SOL    HW2 2619   3.846   2.029   5.064
  574SOL     OW 2620   2.214   2.246   4.123
  574SOL    HW1 2621   2.203   2.312   4.197
  574SOL    HW2 2622   2.148   2.266   4.051
  575SOL     OW 2623   6.136   3.985   6.140
  575SOL    HW1 2624   6.194   3.960   6.218
  575SOL    HW2 2625   6.193   3.993   6.058
  576SOL     OW 2626   1.686   1.896   1.967
  576SOL    HW1 2627   1.705   1.987   2.005
  576SOL    HW2 2628   1.598   1.898   1.919
  577SOL     OW 2629   1.856   1.772   3.629
  577SOL    HW1 2630   1.796   1.811   3.699
  577SOL    HW2 2631   1.926   1.838   3.605
  578SOL     OW 2632   6.804   3.222   3.708
  578SOL    HW1 2633   6.742   3.161   3.758
  578SOL    HW2 2634   6.875   3.255   3.769
  579SOL     OW 2635   3.263   2.411   1.179
  579SOL    HW1 2636   3.186   2.413   1.116
  579SOL    HW2 2637   3.339   2.361   1.137
  580SOL     OW 2638   0.546   4.828   5.989
  580SOL    HW1 2639   0.513   4.859   6.078
  580SOL    HW2 2640   0.484   4.759   5.952
  581SOL     OW 2641   3.192   3.217   2.766
  581SOL    HW1 2642   3.256   3.278   2.720
  581SOL    HW2 2643   3.130   3.177   2.698
  582SOL     OW 2644   5.700   4.908   2.402
  582SOL    HW1 2645   5.718   4.823   2.451
  582SOL    HW2 2646   5.679   4.888   2.306
  583SOL     OW 2647   2.764   4.492   6.571
  583SOL    HW1 2648   2.740   4.424   6.502
  583SOL    HW2 2649   2.684   4.513   6.627
  584SOL     OW 2650   0.604   5.086   5.884
  584SOL    HW1 2651   0.577   4.998   5.922
  584SOL    HW2 2652   0.700   5.083   5.857
  585SOL     OW 2653   6.593   2.748   6.165
  585SOL    HW1 2654   6.573   2.732   6.261
  585SOL    HW2 2655   6.622   2.843   6.152
  586SOL     OW 2656   3.277   6.936   0.209
  586SOL    HW1 2657   3.230   7.023   0.199
  586SOL    HW2 2658   3.224   6.864   0.164
  587SOL     OW 2659   1.927   2.253   5.285
  587SOL    HW1 2660   1.923   2.352   5.271
  587SOL    HW2 2661   1.857   2.225   5.351
  588SOL     OW 2662   3.459   6.388   1.068
  588SOL    HW1 2663   3.417   6.378   0.978
  588SOL    HW2 2664   3.459   6.484   1.094
  589SOL     OW 2665   3.935   5.127   1.874
  589SOL    HW1 2666   3.863   5.191   1.903
  589SOL    HW2 2667   3.902   5.033   1.888
  590SOL     OW 2668   6.821   2.945   2.258
  590SOL    HW1 2669   6.753   2.986   2.319
  590SOL    HW2 2670   6.773   2.893   2.186
  591SOL     OW 2671   3.769   6.866   3.861
  591SOL    HW1 2672   3.684   6.828   3.897
  591SOL    HW2 2673   3.819   6.911   3.935
  592SOL     OW 2674   4.382   1.089   0.684
  592SOL    HW1 2675   4.339   1.026   0.620
  592SOL    HW2 2676   4.336   1.082   0.773
  593SOL     OW 2677   4.474   2.146   3.761
  593SOL    HW1 2678   4.502   2.059   3.802
  593SOL    HW2 2679   4.521   2.158   3.674
  594SOL     OW 2680   4.141   2.829   6.494
  594SOL    HW1 2681   4.057   2.826   6.439
  594SOL    HW2 2682   4.130   2.772   6.575
  595SOL     OW 2683   4.504   6.549   3.926
  595SOL    HW1 2684   4.507   6.459   3.970
  595SOL    HW2 2685   4.574   6.552   3.854
  596SOL     OW 2686   1.319   4.200   1.427
  596SOL    HW1 2687   1.306   4.147   1.511
  596SOL    HW2 2688   1.301   4.142   1.348
  597SOL     OW 2689   4.129   6.537   5.917
  597SOL    HW1 2690   4.034   6.568   5.928
  597SOL    HW2 2691   4.130   6.438   5.907
  598SOL     OW 2692   3.552   4.076   0.650
  598SOL    HW1 2693   3.511   4.002   0.702
  598SOL    HW2 2694   3.485   4.114   0.587
  599SOL     OW 2695   0.461   0.871   2.913
  599SOL    HW1 2696   0.499   0.920   2.834
  599SOL    HW2 2697   0.419   0.937   2.976
  600SOL     OW 2698   0.650   6.993   0.800
  600SOL    HW1 2699   0.613   6.990   0.892
  600SOL    HW2 2700   0.694   6.905   0.779
  601SOL     OW 2701   3.151   5.775   3.143
  601SOL    HW1 2702   3.217   5.765   3.068
  601SOL    HW2 2703   3.073   5.828   3.111
  602SOL     OW 2704   0.844   1.242   0.744
  602SOL    HW1 2705   0.941   1.264   0.756
  602SOL    HW2 2706   0.832   1.187   0.662
  603SOL     OW 2707   3.911   1.553   4.002
  603SOL    HW1 2708   3.982   1.557   3.932
  603SOL    HW2 2709   3.848   1.630   3.989
  604SOL     OW 2710   0.948   3.055   0.306
  604SOL    HW1 2711   1.028   3.107   0.273
  604SOL    HW2 2712   0.961   3.032   0.402
  605SOL     OW 2713   6.684   5.946   3.434
  605SOL    HW1 2714   6.660   5.862   3.385
  605SOL    HW2 2715   6.778   5.939   3.467
  606SOL     OW 2716   4.667   0.661   5.774
  606SOL    HW1 2717   4.595   0.603   5.811
  606SOL    HW2 2718   4.699   0.724   5.844
  607SOL     OW 2719   5.640   1.221   4.488
  607SOL    HW1 2720   5.740   1.219   4.480
  607SOL    HW2 2721   5.608   1.137   4.530
  608SOL     OW 2722   3.214   0.063   0.487
  608SOL    HW1 2723   3.162   0.146   0.467
  608SOL    HW2 2724   3.214   0.004   0.406
  609SOL     OW 2725   3.424   3.205   4.729
  609SOL    HW1 2726   3.401   3.264   4.806
  609SOL    HW2 2727   3.442   3.112   4.762
  610SOL     OW 2728   5.853   2.196   2.717
  610SOL    HW1 2729   5.854   2.189   2.817
  610SOL    HW2 2730   5.765   2.233   2.688
  611SOL     OW 2731   0.571   0.805   0.038
  611SOL    HW1 2732   0.474   0.801   0.012
  611SOL    HW2 2733   0.627   0.826   6.983
  612SOL     OW 2734   3.494   5.757   5.855
  612SOL    HW1 2735   3.475   5.780   5.760
  612SOL    HW2 2736   3.467   5.663   5.873
  613SOL     OW 2737   4.200   1.177   5.265
  613SOL    HW1 2738   4.215   1.264   5.219
  613SOL    HW2 2739   4.285   1.146   5.307
  614SOL     OW 2740   6.036   5.074   1.137
  614SOL    HW1 2741   6.106   5.138   1.107
  614SOL    HW2 2742   6.075   4.982   1.141
  615SOL     OW 2743   0.917   0.476   6.688
  615SOL    HW1 2744   0.843   0.512   6.744
  615SOL    HW2 2745   0.950   0.391   6.727
  616SOL     OW 2746   5.902   1.923   3.603
  616SOL    HW1 2747   5.917   1.825   3.618
  616SOL    HW2 2748   5.860   1.936   3.513
  617SOL     OW 2749   0.429   4.622   6.510
  617SOL    HW1 2750   0.413   4.566   6.429
  617SOL    HW2 2751   0.351   4.683   6.524
  618SOL     OW 2752   5.921   3.563   1.337
  618SOL    HW1 2753   6.015   3.528   1.341
  618SOL    HW2 2754   5.868   3.525   1.413
  619SOL     OW 2755   3.462   6.768   6.818
  619SOL    HW1 2756   3.375   6.719   6.812
  619SOL    HW2 2757   3.471   6.829   6.740
  620SOL     OW 2758   5.813   3.466   1.774
  620SOL    HW1 2759   5.864   3.551   1.756
  620SOL    HW2 2760   5.725   3.489   1.816
  621SOL     OW 2761   2.410   0.184   4.855
  621SOL    HW1 2762   2.375   0.100   4.897
  621SOL    HW2 2763   2.504   0.168   4.823
  622SOL     OW 2764   0.555   2.573   5.604
  622SOL    HW1 2765   0.510   2.488   5.574
  622SOL    HW2 2766   0.642   2.552   5.647
  623SOL     OW 2767   6.260   6.537   5.135
  623SOL    HW1 2768   6.183   6.473   5.132
  623SOL    HW2 2769   6.341   6.492   5.098
  624SOL     OW 2770   6.618   1.224   0.119
  624SOL    HW1 2771   6.569   1.143   0.085
  624SOL    HW2 2772   6.580   1.251   0.207
  625SOL     OW 2773   1.935   0.793   0.284
  625SOL    HW1 2774   2.022   0.807   0.331
  625SOL    HW2 2775   1.930   0.854   0.205
  626SOL     OW 2776   1.281   5.716   3.322
  626SOL    HW1 2777   1.293   5.679   3.231
  626SOL    HW2 2778   1.234   5.805   3.316
  627SOL     OW 2779   6.472   6.104   0.533
  627SOL    HW1 2780   6.468   6.053   0.620
  627SOL    HW2 2781   6.486   6.201   0.552
  628SOL     OW 2782   5.428   3.777   4.966
  628SOL    HW1 2783   5.389   3.717   5.036
  628SOL    HW2 2784   5.487   3.845   5.010
  629SOL     OW 2785   0.261   1.336   0.132
  629SOL    HW1 2786   0.320   1.300   0.204
  629SOL    HW2 2787   0.282   1.433   0.118
  630SOL     OW 2788   6.364   0.809   0.866
  630SOL    HW1 2789   6.374   0.906   0.844
  630SOL    HW2 2790   6.275   0.793   0.907
  631SOL     OW 2791   2.641   2.337   4.594
  631SOL    HW1 2792   2.704   2.328   4.671
  631SOL    HW2 2793   2.582   2.256   4.590
  632SOL     OW 2794   4.754   3.055   0.529
  632SOL    HW1 2795   4.851   3.075   0.520
  632SOL    HW2 2796   4.742   2.960   0.558
  633SOL     OW 2797   2.252   5.080   0.960
  633SOL    HW1 2798   2.276   4.987   0.931
  633SOL    HW2 2799   2.232   5.080   1.058
  634SOL     OW 2800   3.637   3.436   3.174
  634SOL    HW1 2801   3.565   3.386   3.125
  634SOL    HW2 2802   3.710   3.374   3.199
  635SOL     OW 2803   4.647   0.663   0.184
  635SOL    HW1 2804   4.629   0.666   0.086
  635SOL    HW2 2805   4.576   0.714   0.233
  636SOL     OW 2806   3.325   0.413   4.919
  636SOL    HW1 2807   3.255   0.438   4.987
  636SOL    HW2 2808   3.286   0.420   4.827
  637SOL     OW 2809   6.192   1.677   2.736
  637SOL    HW1 2810   6.163   1.756   2.682
  637SOL    HW2 2811   6.132   1.599   2.716
  638SOL     OW 2812   5.981   3.403   4.026
  638SOL    HW1 2813   5.949   3.495   4.004
  638SOL    HW2 2814   5.902   3.344   4.043
  639SOL     OW 2815   5.501   4.853   3.349
  639SOL    HW1 2816   5.554   4.867   3.433
  639SOL    HW2 2817   5.551   4.891   3.271
  640SOL     OW 2818   0.389   3.493   3.326
  640SOL    HW1 2819   0.474   3.469   3.372
  640SOL    HW2 2820   0.410   3.527   3.234
  641SOL     OW 2821   1.623   4.350   5.591
  641SOL    HW1 2822   1.529   4.325   5.568
  641SOL    HW2 2823   1.686   4.286   5.547
  642SOL     OW 2824   1.161   3.253   4.659
  642SOL    HW1 2825   1.081   3.259   4.719
  642SOL    HW2 2826   1.131   3.244   4.564
  643SOL     OW 2827   6.523   6.328   0.074
  643SOL    HW1 2828   6.564   6.419   0.079
  643SOL    HW2 2829   6.457   6.325   7.023
  644SOL     OW 2830   0.444   0.535   4.574
  644SOL    HW1 2831   0.510   0.559   4.502
  644SOL    HW2 2832   0.409   0.619   4.616
  645SOL     OW 2833   3.379   4.992   3.047
  645SOL    HW1 2834   3.444   4.953   3.113
  645SOL    HW2 2835   3.312   5.048   3.096
  646SOL     OW 2836   3.965   0.741   4.782
  646SOL    HW1 2837   3.967   0.732   4.682
  646SOL    HW2 2838   3.892   0.805   4.808
  647SOL     OW 2839   4.783   2.055   5.079
  647SOL    HW1 2840   4.712   2.124   5.066
  647SOL    HW2 2841   4.814   2.022   4.990
  648SOL     OW 2842   6.313   2.851   3.472
  648SOL    HW1 2843   6.324   2.752   3.467
  648SOL    HW2 2844   6.218   2.875   3.451
  649SOL     OW 2845   2.185   4.159   0.152
  649SOL    HW1 2846   2.271   4.210   0.156
  649SOL    HW2 2847   2.122   4.194   0.222
  650SOL     OW 2848   6.482   5.407   0.682
  650SOL    HW1 2849   6.580   5.427   0.684
  650SOL    HW2 2850   6.432   5.478   0.731
  651SOL     OW 2851   1.915   0.622   6.044
  651SOL    HW1 2852   2.010   0.623   6.013
  651SOL    HW2 2853   1.856   0.649   5.968
  652SOL     OW 2854   4.170   6.937   1.933
  652SOL    HW1 2855   4.205   6.891   1.852
  652SOL    HW2 2856   4.125   7.022   1.907
  653SOL     OW 2857   0.449   6.500   0.363
  653SOL    HW1 2858   0.458   6.423   0.299
  653SOL    HW2 2859   0.537   6.517   0.406
  654SOL     OW 2860   0.152   6.255   5.615
  654SOL    HW1 2861   0.190   6.323   5.553
  654SOL    HW2 2862   0.141   6.168   5.567
  655SOL     OW 2863   6.940   5.465   2.032
  655SOL    HW1 2864   6.908   5.373   2.008
  655SOL    HW2 2865   7.018   5.489   1.975
  656SOL     OW 2866   2.918   6.446   0.902
  656SOL    HW1 2867   2.946   6.393   0.983
  656SOL    HW2 2868   2.821   6.427   0.882
  657SOL     OW 2869   2.938   3.157   1.530
  657SOL    HW1 2870   2.889   3.083   1.575
  657SOL    HW2 2871   2.889   3.243   1.543
  658SOL     OW 2872   1.653   4.409   4.629
  658SOL    HW1 2873   1.723   4.369   4.570
  658SOL    HW2 2874   1.587   4.338   4.655
  659SOL     OW 2875   3.092   5.796   5.283
  659SOL    HW1 2876   3.028   5.848   5.339
  659SOL    HW2 2877   3.127   5.718   5.335
  660SOL     OW 2878   4.675   5.189   2.503
  660SOL    HW1 2879   4.614   5.204   2.425
  660SOL    HW2 2880   4.766   5.223   2.482
  661SOL     OW 2881   5.070   4.009   4.354
  661SOL    HW1 2882   5.139   4.013   4.426
  661SOL    HW2 2883   5.058   4.100   4.315
  662SOL     OW 2884   4.685   2.069   6.785
  662SOL    HW1 2885   4.716   2.164   6.774
  662SOL    HW2 2886   4.645   2.037   6.699
  663SOL     OW 2887   0.326   5.338   6.671
  663SOL    HW1 2888   0.348   5.370   6.579
  663SOL    HW2 2889   0.411   5.320   6.721
  664SOL     OW 2890   2.185   5.422   6.984
  664SOL    HW1 2891   2.097   5.378   7.002
  664SOL    HW2 2892   2.250   5.396   0.031
  665SOL     OW 2893   4.124   5.173   1.697
  665SOL    HW1 2894   4.047   5.164   1.759
  665SOL    HW2 2895   4.107   5.248   1.632
  666SOL     OW 2896   3.483   1.768   0.376
  666SOL    HW1 2897   3.449   1.859   0.398
  666SOL    HW2 2898   3.452   1.741   0.285
  667SOL     OW 2899   0.054   2.557   4.373
  667SOL    HW1 2900   0.075   2.615   4.294
  667SOL    HW2 2901   0.000   2.610   4.439
  668SOL     OW 2902   4.405   5.776   6.842
  668SOL    HW1 2903   4.486   5.776   6.783
  668SOL    HW2 2904   4.336   5.715   6.804
  669SOL     OW 2905   1.675   6.860   3.099
  669SOL    HW1 2906   1.641   6.896   3.187
  669SOL    HW2 2907   1.617   6.784   3.070
  670SOL     OW 2908   2.971   3.870   3.256
  670SOL    HW1 2909   2.921   3.818   3.325
  670SOL    HW2 2910   3.019   3.946   3.300
  671SOL     OW 2911   2.409   5.833   6.123
  671SOL    HW1 2912   2.313   5.856   6.108
  671SOL    HW2 2913   2.448   5.795   6.039
  672SOL     OW 2914   0.859   3.451   3.682
  672SOL    HW1 2915   0.830   3.547   3.682
  672SOL    HW2 2916   0.868   3.419   3.588
  673SOL     OW 2917   4.578   6.843   6.854
  673SOL    HW1 2918   4.579   6.805   6.947
  673SOL    HW2 2919   4.654   6.805   6.802
  674SOL     OW 2920   0.645   2.836   4.328
  674SOL    HW1 2921   0.556   2.881   4.333
  674SOL    HW2 2922   0.657   2.776   4.407
  675SOL     OW 2923   1.224   1.992   4.774
  675SOL    HW1 2924   1.249   1.911   4.828
  675SOL    HW2 2925   1.254   2.074   4.823
  676SOL     OW 2926   3.123   4.939   4.249
  676SOL    HW1 2927   3.111   4.989   4.335
  676SOL    HW2 2928   3.056   4.865   4.243
  677SOL     OW 2929   5.765   0.576   6.921
  677SOL    HW1 2930   5.859   0.542   6.922
  677SOL    HW2 2931   5.764   0.672   6.947
  678SOL     OW 2932   2.528   1.639   5.374
  678SOL    HW1 2933   2.452   1.610   5.317
  678SOL    HW2 2934   2.497   1.709   5.439
  679SOL     OW 2935   4.051   1.353   4.129
  679SOL    HW1 2936   4.147   1.345   4.102
  679SOL    HW2 2937   4.007   1.424   4.075
  680SOL     OW 2938   5.977   4.440   6.083
  680SOL    HW1 2939   5.941   4.419   5.992
  680SOL    HW2 2940   5.940   4.375   6.149
  681SOL     OW 2941   6.879   6.509   0.570
  681SOL    HW1 2942   6.963   6.558   0.594
  681SOL    HW2 2943   6.815   6.571   0.524
  682SOL     OW 2944   2.285   0.055   6.323
  682SOL    HW1 2945   2.274   6.980   6.332
  682SOL    HW2 2946   2.377   0.080   6.352
  683SOL     OW 2947   3.882   0.598   5.719
  683SOL    HW1 2948   3.878   0.522   5.654
  683SOL    HW2 2949   3.943   0.668   5.684
  684SOL     OW 2950   6.753   1.046   6.290
  684SOL    HW1 2951   6.822   1.113   6.318
  684SOL    HW2 2952   6.799   0.965   6.254
  685SOL     OW 2953   5.214   0.484   5.994
  685SOL    HW1 2954   5.305   0.458   5.961
  685SOL    HW2 2955   5.220   0.572   6.042
  686SOL     OW 2956   5.698   3.130   3.261
  686SOL    HW1 2957   5.682   3.044   3.309
  686SOL    HW2 2958   5.788   3.127   3.217
  687SOL     OW 2959   0.051   3.082   6.326
  687SOL    HW1 2960   0.040   2.983   6.327
  687SOL    HW2 2961   7.011   3.124   6.390
  688SOL     OW 2962   1.995   3.752   0.070
  688SOL    HW1 2963   1.957   3.659   0.077
  688SOL    HW2 2964   2.045   3.761   7.008
  689SOL     OW 2965   1.337   4.330   5.575
  689SOL    HW1 2966   1.289   4.411   5.609
  689SOL    HW2 2967   1.317   4.252   5.635
  690SOL     OW 2968   0.869   2.889   3.186
  690SOL    HW1 2969   0.910   2.976   3.216
  690SOL    HW2 2970   0.911   2.813   3.236
  691SOL     OW 2971   1.759   2.451   6.242
  691SOL    HW1 2972   1.690   2.381   6.258
  691SOL    HW2 2973   1.758   2.518   6.316
  692SOL     OW 2974   3.156   6.851   3.458
  692SOL    HW1 2975   3.104   6.766   3.460
  692SOL    HW2 2976   3.215   6.853   3.378
  693SOL     OW 2977   6.624   1.722   3.345
  693SOL    HW1 2978   6.571   1.748   3.264
  693SOL    HW2 2979   6.564   1.677   3.411
  694SOL     OW 2980   3.852   5.556   1.626
  694SOL    HW1 2981   3.847   5.653   1.647
  694SOL    HW2 2982   3.783   5.534   1.556
  695SOL     OW 2983   4.771   5.119   4.742
  695SOL    HW1 2984   4.787   5.029   4.782
  695SOL    HW2 2985   4.677   5.148   4.763
  696SOL     OW 2986   3.157   5.297   2.202
  696SOL    HW1 2987   3.171   5.390   2.170
  696SOL    HW2 2988   3.082   5.255   2.150
  697SOL     OW 2989   1.101   3.505   5.523
  697SOL    HW1 2990   1.151   3.591   5.516
  697SOL    HW2 2991   1.003   3.523   5.523
  698SOL     OW 2992   5.174   0.192   4.214
  698SOL    HW1 2993   5.178   0.092   4.213
  698SOL    HW2 2994   5.213   0.227   4.129
  699SOL     OW 2995   1.878   4.406   0.834
  699SOL    HW1 2996   1.805   4.347   0.870
  699SOL    HW2 2997   1.959   4.397   0.892
  700SOL     OW 2998   2.564   2.036   3.357
  700SOL    HW1 2999   2.552   2.096   3.278
  700SOL    HW2 3000   2.639   2.070   3.413
  701SOL     OW 3001   1.310   4.710   6.895
  701SOL    HW1 3002   1.276   4.777   6.828
  701SOL    HW2 3003   1.238   4.643   6.914
  702SOL     OW 3004   5.326   5.979   5.574
  702SOL    HW1 3005   5.308   5.889   5.534
  702SOL    HW2 3006   5.267   6.048   5.531
  703SOL     OW 3007   4.289   3.514   0.118
  703SOL    HW1 3008   4.262   3.557   0.205
  703SOL    HW2 3009   4.365   3.565   0.078
  704SOL     OW 3010   1.186   1.273   5.987
  704SOL    HW1 3011   1.285   1.274   5.988
  704SOL    HW2 3012   1.153   1.270   5.892
  705SOL     OW 3013   4.759   0.400   3.570
  705SOL    HW1 3014   4.719   0.366   3.485
  705SOL    HW2 3015   4.810   0.484   3.551
  706SOL     OW 3016   4.019   1.679   3.463
  706SOL    HW1 3017   4.020   1.645   3.369
  706SOL    HW2 3018   3.943   1.638   3.513
  707SOL     OW 3019   4.500   0.027   1.840
  707SOL    HW1 3020   4.407   0.051   1.814
  707SOL    HW2 3021   4.506   6.953   1.856
  708SOL     OW 3022   4.741   0.425   0.769
  708SOL    HW1 3023   4.711   0.506   0.820
  708SOL    HW2 3024   4.679   0.349   0.787
  709SOL     OW 3025   1.325   5.148   1.453
  709SOL    HW1 3026   1.265   5.210   1.403
  709SOL    HW2 3027   1.348   5.187   1.541
  710SOL     OW 3028   3.481   4.153   2.914
  710SOL    HW1 3029   3.416   4.077   2.912
  710SOL    HW2 3030   3.575   4.118   2.912
  711SOL     OW 3031   0.111   2.612   5.714
  711SOL    HW1 3032   0.190   2.565   5.755
  711SOL    HW2 3033   0.070   2.673   5.781
  712SOL     OW 3034   1.610   3.905   1.278
  712SOL    HW1 3035   1.634   3.971   1.348
  712SOL    HW2 3036   1.636   3.813   1.308
  713SOL     OW 3037   3.453   3.749   1.651
  713SOL    HW1 3038   3.364   3.709   1.674
  713SOL    HW2 3039   3.520   3.676   1.640
  714SOL     OW 3040   5.424   4.263   5.518
  714SOL    HW1 3041   5.501   4.202   5.535
  714SOL    HW2 3042   5.443   4.353   5.556
  715SOL     OW 3043   4.914   5.951   0.028
  715SOL    HW1 3044   4.920   5.874   6.989
  715SOL    HW2 3045   4.925   6.036   7.002
  716SOL     OW 3046   0.748   5.372   1.199
  716SOL    HW1 3047   0.773   5.468   1.183
  716SOL    HW2 3048   0.798   5.314   1.134
  717SOL     OW 3049   6.404   4.768   6.253
  717SOL    HW1 3050   6.417   4.669   6.260
  717SOL    HW2 3051   6.484   4.809   6.211
  718SOL     OW 3052   4.128   2.316   6.278
  718SOL    HW1 3053   4.178   2.233   6.300
  718SOL    HW2 3054   4.166   2.393   6.328
  719SOL     OW 3055   6.457   2.632   1.250
  719SOL    HW1 3056   6.454   2.694   1.328
  719SOL    HW2 3057   6.366   2.621   1.211
  720SOL     OW 3058   2.577   1.749   5.959
  720SOL    HW1 3059   2.668   1.752   6.000
  720SOL    HW2 3060   2.526   1.670   5.995
  721SOL     OW 3061   1.618   0.935   5.014
  721SOL    HW1 3062   1.715   0.926   4.990
  721SOL    HW2 3063   1.570   0.850   4.995
  722SOL     OW 3064   4.257   6.661   5.046
  722SOL    HW1 3065   4.171   6.691   5.088
  722SOL    HW2 3066   4.247   6.657   4.947
  723SOL     OW 3067   1.903   2.893   2.089
  723SOL    HW1 3068   1.869   2.925   2.178
  723SOL    HW2 3069   1.996   2.926   2.075
  724SOL     OW 3070   1.584   1.635   5.734
  724SOL    HW1 3071   1.543   1.607   5.648
  724SOL    HW2 3072   1.547   1.724   5.761
  725SOL     OW 3073   2.728   5.018   2.190
  725SOL    HW1 3074   2.773   5.012   2.279
  725SOL    HW2 3075   2.647   5.075   2.197
  726SOL     OW 3076   3.730   4.745   0.424
  726SOL    HW1 3077   3.672   4.802   0.366
  726SOL    HW2 3078   3.806   4.709   0.370
  727SOL     OW 3079   3.956   6.121   4.347
  727SOL    HW1 3080   3.895   6.136   4.269
  727SOL    HW2 3081   4.051   6.130   4.318
  728SOL     OW 3082   6.859   3.813   5.214
  728SOL    HW1 3083   6.875   3.879   5.140
  728SOL    HW2 3084   6.923   3.737   5.203
  729SOL     OW 3085   2.287   0.552   0.663
  729SOL    HW1 3086   2.384   0.554   0.641
  729SOL    HW2 3087   2.241   0.483   0.607
  730SOL     OW 3088   5.466   0.865   3.374
  730SOL    HW1 3089   5.506   0.949   3.338
  730SOL    HW2 3090   5.434   0.880   3.467
  731SOL     OW 3091   5.320   3.253   5.768
  731SOL    HW1 3092   5.228   3.289   5.778
  731SOL    HW2 3093   5.321   3.181   5.698
  732SOL     OW 3094   0.798   3.223   1.134
  732SOL    HW1 3095   0.758   3.286   1.067
  732SOL    HW2 3096   0.896   3.213   1.116
  733SOL     OW 3097   5.615   4.246   4.259
  733SOL    HW1 3098   5.516   4.261   4.256
  733SOL    HW2 3099   5.648   4.225   4.167
  734SOL     OW 3100   6.985   5.435   2.286
  734SOL    HW1 3101   0.009   5.348   2.302
  734SOL    HW2 3102   6.968   5.445   2.188
  735SOL     OW 3103   2.665   3.022   0.965
  735SOL    HW1 3104   2.620   3.107   0.936
  735SOL    HW2 3105   2.632   2.946   0.909
  736SOL     OW 3106   6.595   6.912   2.644
  736SOL    HW1 3107   6.590   6.862   2.557
  736SOL    HW2 3108   6.687   6.950   2.654
  737SOL     OW 3109   5.015   3.371   1.131
  737SOL    HW1 3110   5.113   3.389   1.137
  737SOL    HW2 3111   4.976   3.426   1.057
  738SOL     OW 3112   1.327   5.013   4.082
  738SOL    HW1 3113   1.399   5.077   4.055
  738SOL    HW2 3114   1.358   4.959   4.160
  739SOL     OW 3115   4.836   6.646   5.499
  739SOL    HW1 3116   4.879   6.654   5.588
  739SOL    HW2 3117   4.775   6.724   5.484
  740SOL     OW 3118   5.299   0.368   0.773
  740SOL    HW1 3119   5.285   0.269   0.763
  740SOL    HW2 3120   5.270   0.397   0.865
  741SOL     OW 3121   1.839   6.476   3.089
  741SOL    HW1 3122   1.938   6.486   3.078
  741SOL    HW2 3123   1.793   6.505   3.005
  742SOL     OW 3124   2.383   0.011   2.144
  742SOL    HW1 3125   2.301   0.029   2.089
  742SOL    HW2 3126   2.435   0.096   2.155
  743SOL     OW 3127   1.851   4.285   4.150
  743SOL    HW1 3128   1.892   4.218   4.088
  743SOL    HW2 3129   1.755   4.264   4.164
  744SOL     OW 3130   6.849   6.537   6.588
  744SOL    HW1 3131   6.916   6.489   6.532
  744SOL    HW2 3132   6.896   6.605   6.645
  745SOL     OW 3133   1.195   6.210   3.732
  745SOL    HW1 3134   1.264   6.238   3.666
  745SOL    HW2 3135   1.203   6.111   3.749
  746SOL     OW 3136   0.176   6.412   5.379
  746SOL    HW1 3137   0.273   6.404   5.400
  746SOL    HW2 3138   0.157   6.501   5.339
  747SOL     OW 3139   4.637   4.898   4.237
  747SOL    HW1 3140   4.551   4.871   4.281
  747SOL    HW2 3141   4.617   4.949   4.154
  748SOL     OW 3142   4.387   5.111   2.054
  748SOL    HW1 3143   4.434   5.083   1.970
  748SOL    HW2 3144   4.322   5.184   2.033
  749SOL     OW 3145   0.038   3.289   4.994
  749SOL    HW1 3146   0.103   3.362   5.013
  749SOL    HW2 3147   6.969   3.322   5.010
  750SOL     OW 3148   2.338   3.059   0.536
  750SOL    HW1 3149   2.242   3.058   0.509
  750SOL    HW2 3150   2.355   3.138   0.596
  751SOL     OW 3151   4.268   2.062   6.265
  751SOL    HW1 3152   4.256   2.020   6.355
  751SOL    HW2 3153   4.280   1.989   6.197
  752SOL     OW 3154   4.625   2.718   1.656
  752SOL    HW1 3155   4.582   2.645   1.709
  752SOL    HW2 3156   4.567   2.799   1.657
  753SOL     OW 3157   2.198   3.179   4.267
  753SOL    HW1 3158   2.290   3.141   4.278
  753SOL    HW2 3159   2.164   3.158   4.176
  754SOL     OW 3160   5.557   3.765   6.756
  754SOL    HW1 3161   5.460   3.782   6.773
  754SOL    HW2 3162   5.579   3.670   6.779
  755SOL     OW 3163   0.953   5.738   6.819
  755SOL    HW1 3164   0.964   5.732   6.918
  755SOL    HW2 3165   1.015   5.808   6.783
  756SOL     OW 3166   5.054   0.326   1.487
  756SOL    HW1 3167   5.026   0.231   1.479
  756SOL    HW2 3168   5.151   0.334   1.464
  757SOL     OW 3169   0.548   6.347   2.864
  757SOL    HW1 3170   0.578   6.357   2.959
  757SOL    HW2 3171   0.497   6.429   2.836
  758SOL     OW 3172   3.531   1.110   1.727
  758SOL    HW1 3173   3.622   1.081   1.754
  758SOL    HW2 3174   3.470   1.108   1.806
  759SOL     OW 3175   6.819   0.942   0.529
  759SOL    HW1 3176   6.737   0.885   0.520
  759SOL    HW2 3177   6.795   1.038   0.515
  760SOL     OW 3178   4.477   1.403   6.243
  760SOL    HW1 3179   4.568   1.431   6.273
  760SOL    HW2 3180   4.415   1.481   6.250
  761SOL     OW 3181   5.266   3.470   6.864
  761SOL    HW1 3182   5.173   3.494   6.837
  761SOL    HW2 3183   5.286   3.507   6.955
  762SOL     OW 3184   1.976   6.082   3.412
  762SOL    HW1 3185   1.919   6.068   3.331
  762SOL    HW2 3186   1.931   6.043   3.492
  763SOL     OW 3187   4.163   5.481   6.600
  763SOL    HW1 3188   4.165   5.491   6.500
  763SOL    HW2 3189   4.174   5.571   6.643
  764SOL     OW 3190   3.991   7.001   4.329
  764SOL    HW1 3191   3.994   0.076   4.342
  764SOL    HW2 3192   4.077   6.961   4.361
  765SOL     OW 3193   1.402   6.395   1.093
  765SOL    HW1 3194   1.347   6.475   1.069
  765SOL    HW2 3195   1.385   6.322   1.027
  766SOL     OW 3196   6.896   1.514   7.007
  766SOL    HW1 3197   6.900   1.476   6.914
  766SOL    HW2 3198   6.825   1.585   7.012
  767SOL     OW 3199   0.981   6.230   2.077
  767SOL    HW1 3200   1.062   6.185   2.040
  767SOL    HW2 3201   0.999   6.328   2.088
  768SOL     OW 3202   2.086   0.740   2.623
  768SOL    HW1 3203   2.155   0.758   2.553
  768SOL    HW2 3204   1.995   0.750   2.584
  769SOL     OW 3205   2.909   6.590   4.273
  769SOL    HW1 3206   2.989   6.591   4.334
  769SOL    HW2 3207   2.832   6.547   4.319
  770SOL     OW 3208   2.151   4.643   3.080
  770SOL    HW1 3209   2.228   4.701   3.054
  770SOL    HW2 3210   2.184   4.553   3.108
  771SOL     OW 3211   1.972   5.630   2.404
  771SOL    HW1 3212   2.053   5.642   2.460
  771SOL    HW2 3213   1.991   5.562   2.333
  772SOL     OW 3214   6.615   5.159   0.691
  772SOL    HW1 3215   6.568   5.236   0.648
  772SOL    HW2 3216   6.588   5.153   0.787
  773SOL     OW 3217   0.605   2.987   3.485
  773SOL    HW1 3218   0.633   3.015   3.393
  773SOL    HW2 3219   0.672   3.019   3.551
  774SOL     OW 3220   1.347   1.658   1.702
  774SOL    HW1 3221   1.338   1.559   1.714
  774SOL    HW2 3222   1.355   1.679   1.604
  775SOL     OW 3223   1.289   2.492   3.947
  775SOL    HW1 3224   1.359   2.430   3.913
  775SOL    HW2 3225   1.292   2.495   4.047
  776SOL     OW 3226   0.322   0.548   6.055
  776SOL    HW1 3227   0.362   0.585   6.139
  776SOL    HW2 3228   0.376   0.469   6.025
  777SOL     OW 3229   3.747   0.566   0.845
  777SOL    HW1 3230   3.669   0.522   0.889
  777SOL    HW2 3231   3.802   0.497   0.799
  778SOL     OW 3232   3.603   1.553   3.658
  778SOL    HW1 3233   3.519   1.585   3.613
  778SOL    HW2 3234   3.617   1.604   3.743
  779SOL     OW 3235   0.319   1.739   2.285
  779SOL    HW1 3236   0.296   1.836   2.281
  779SOL    HW2 3237   0.407   1.727   2.330
  780SOL     OW 3238   5.515   3.171   4.811
  780SOL    HW1 3239   5.501   3.245   4.745
  780SOL    HW2 3240   5.462   3.190   4.893
  781SOL     OW 3241   5.910   1.361   5.873
  781SOL    HW1 3242   5.993   1.308   5.856
  781SOL    HW2 3243   5.836   1.325   5.817
  782SOL     OW 3244   1.687   4.348   0.495
  782SOL    HW1 3245   1.710   4.288   0.572
  782SOL    HW2 3246   1.771   4.381   0.453
  783SOL     OW 3247   3.727   4.496   0.514
  783SOL    HW1 3248   3.664   4.446   0.455
  783SOL    HW2 3249   3.737   4.590   0.481
  784SOL     OW 3250   5.025   0.197   5.464
  784SOL    HW1 3251   5.083   0.122   5.430
  784SOL    HW2 3252   4.932   0.164   5.476
  785SOL     OW 3253   6.546   2.074   2.992
  785SOL    HW1 3254   6.640   2.041   2.985
  785SOL    HW2 3255   6.506   2.081   2.901
  786SOL     OW 3256   0.635   0.939   0.576
  786SOL    HW1 3257   0.602   0.951   0.483
  786SOL    HW2 3258   0.571   0.980   0.640
  787SOL     OW 3259   3.102   0.920   5.932
  787SOL    HW1 3260   3.139   0.844   5.879
  787SOL    HW2 3261   3.165   0.997   5.930
  788SOL     OW 3262   2.424   2.682   4.645
  788SOL    HW1 3263   2.465   2.663   4.556
  788SOL    HW2 3264   2.476   2.636   4.716
  789SOL     OW 3265   6.090   4.132   1.786
  789SOL    HW1 3266   6.032   4.210   1.811
  789SOL    HW2 3267   6.117   4.083   1.868
  790SOL     OW 3268   2.230   1.742   4.292
  790SOL    HW1 3269   2.130   1.739   4.299
  790SOL    HW2 3270   2.257   1.816   4.231
  791SOL     OW 3271   3.539   6.743   4.013
  791SOL    HW1 3272   3.574   6.766   4.104
  791SOL    HW2 3273   3.452   6.789   3.998
  792SOL     OW 3274   6.699   6.916   1.297
  792SOL    HW1 3275   6.679   7.006   1.260
  792SOL    HW2 3276   6.706   6.922   1.397
  793SOL     OW 3277   4.736   6.439   1.972
  793SOL    HW1 3278   4.760   6.346   1.946
  793SOL    HW2 3279   4.653   6.439   2.027
  794SOL     OW 3280   2.237   3.986   5.398
  794SOL    HW1 3281   2.245   4.070   5.452
  794SOL    HW2 3282   2.301   3.989   5.322
  795SOL     OW 3283   3.054   5.132   5.074
  795SOL    HW1 3284   3.072   5.039   5.041
  795SOL    HW2 3285   3.119   5.195   5.033
  796SOL     OW 3286   0.372   2.458   6.236
  796SOL    HW1 3287   0.416   2.481   6.150
  796SOL    HW2 3288   0.405   2.519   6.308
  797SOL     OW 3289   5.162   2.618   2.423
  797SOL    HW1 3290   5.169   2.715   2.445
  797SOL    HW2 3291   5.182   2.563   2.505
  798SOL     OW 3292   4.847   0.372   1.040
  798SOL    HW1 3293   4.788   0.305   1.085
  798SOL    HW2 3294   4.823   0.378   0.943
  799SOL     OW 3295   6.584   1.206   3.659
  799SOL    HW1 3296   6.558   1.297   3.627
  799SOL    HW2 3297   6.666   1.213   3.715
  800SOL     OW 3298   5.482   0.744   2.341
  800SOL    HW1 3299   5.558   0.754   2.276
  800SOL    HW2 3300   5.438   0.832   2.355
  801SOL     OW 3301   1.468   3.627   2.886
  801SOL    HW1 3302   1.383   3.579   2.865
  801SOL    HW2 3303   1.486   3.622   2.985
  802SOL     OW 3304   4.591   1.204   0.582
  802SOL    HW1 3305   4.526   1.141   0.626
  802SOL    HW2 3306   4.630   1.265   0.650
  803SOL     OW 3307   6.762   5.909   4.996
  803SOL    HW1 3308   6.732   5.912   4.900
  803SOL    HW2 3309   6.789   5.816   5.019
  804SOL     OW 3310   6.393   5.824   6.904
  804SOL    HW1 3311   6.339   5.772   6.839
  804SOL    HW2 3312   6.489   5.825   6.875
  805SOL     OW 3313   4.254   2.304   5.697
  805SOL    HW1 3314   4.210   2.376   5.751
  805SOL    HW2 3315   4.254   2.330   5.601
  806SOL     OW 3316   3.513   2.128   4.893
  806SOL    HW1 3317   3.515   2.218   4.937
  806SOL    HW2 3318   3.558   2.133   4.804
  807SOL     OW 3319   0.938   2.007   3.631
  807SOL    HW1 3320   0.881   1.936   3.589
  807SOL    HW2 3321   1.031   2.000   3.596
  808SOL     OW 3322   5.345   3.091   6.476
  808SOL    HW1 3323   5.320   3.188   6.467
  808SOL    HW2 3324   5.308   3.041   6.398
  809SOL     OW 3325   1.441   4.870   1.629
  809SOL    HW1 3326   1.463   4.813   1.550
  809SOL    HW2 3327   1.520   4.926   1.653
  810SOL     OW 3328   4.093   2.701   0.854
  810SOL    HW1 3329   3.993   2.697   0.844
  810SOL    HW2 3330   4.129   2.771   0.792
  811SOL     OW 3331   4.815   5.095   3.498
  811SOL    HW1 3332   4.887   5.165   3.505
  811SOL    HW2 3333   4.851   5.007   3.530
  812SOL     OW 3334   0.300   0.776   1.959
  812SOL    HW1 3335   0.242   0.836   1.904
  812SOL    HW2 3336   0.245   0.731   2.029
  813SOL     OW 3337   4.034   5.329   3.635
  813SOL    HW1 3338   4.046   5.253   3.572
  813SOL    HW2 3339   3.937   5.337   3.660
  814SOL     OW 3340   4.869   6.570   3.341
  814SOL    HW1 3341   4.859   6.627   3.423
  814SOL    HW2 3342   4.966   6.555   3.323
  815SOL     OW 3343   6.443   2.973   2.334
  815SOL    HW1 3344   6.527   3.001   2.381
  815SOL    HW2 3345   6.392   3.054   2.306
  816SOL     OW 3346   0.355   6.661   0.104
  816SOL    HW1 3347   0.371   6.570   0.141
  816SOL    HW2 3348   0.259   6.670   0.078
  817SOL     OW 3349   1.884   3.844   2.307
  817SOL    HW1 3350   1.839   3.903   2.241
  817SOL    HW2 3351   1.975   3.880   2.328
  818SOL     OW 3352   0.019   2.764   0.837
  818SOL    HW1 3353   0.082   2.828   0.881
  818SOL    HW2 3354   0.035   2.764   0.738
  819SOL     OW 3355   5.995   2.943   4.168
  819SOL    HW1 3356   6.029   3.037   4.162
  819SOL    HW2 3357   5.934   2.925   4.091
  820SOL     OW 3358   1.391   2.684   5.647
  820SOL    HW1 3359   1.348   2.761   5.694
  820SOL    HW2 3360   1.418   2.712   5.555
  821SOL     OW 3361   2.741   4.352   0.513
  821SOL    HW1 3362   2.698   4.438   0.487
  821SOL    HW2 3363   2.699   4.276   0.463
  822SOL     OW 3364   0.950   5.408   4.333
  822SOL    HW1 3365   0.959   5.467   4.253
  822SOL    HW2 3366   0.988   5.317   4.312
  823SOL     OW 3367   4.447   4.105   6.464
  823SOL    HW1 3368   4.388   4.110   6.544
  823SOL    HW2 3369   4.541   4.130   6.489
  824SOL     OW 3370   5.282   1.080   5.235
  824SOL    HW1 3371   5.233   1.028   5.305
  824SOL    HW2 3372   5.306   1.019   5.159
  825SOL     OW 3373   2.143   2.999   2.089
  825SOL    HW1 3374   2.145   3.097   2.070
  825SOL    HW2 3375   2.194   2.981   2.173
  826SOL     OW 3376   6.268   4.255   0.783
  826SOL    HW1 3377   6.266   4.238   0.882
  826SOL    HW2 3378   6.174   4.263   0.749
  827SOL     OW 3379   3.231   5.298   5.546
  827SOL    HW1 3380   3.235   5.226   5.476
  827SOL    HW2 3381   3.145   5.291   5.596
  828SOL     OW 3382   6.159   0.505   5.141
  828SOL    HW1 3383   6.122   0.565   5.070
  828SOL    HW2 3384   6.190   0.420   5.099
  829SOL     OW 3385   2.926   3.435   4.305
  829SOL    HW1 3386   2.948   3.518   4.356
  829SOL    HW2 3387   2.890   3.459   4.216
  830SOL     OW 3388   5.042   4.424   6.091
  830SOL    HW1 3389   4.977   4.499   6.079
  830SOL    HW2 3390   5.096   4.412   6.008
  831SOL     OW 3391   0.063   0.084   4.531
  831SOL    HW1 3392   0.150   0.060   4.574
  831SOL    HW2 3393   0.080   0.145   4.453
  832SOL     OW 3394   1.984   1.245   0.239
  832SOL    HW1 3395   1.892   1.244   0.200
  832SOL    HW2 3396   2.051   1.233   0.166
  833SOL     OW 3397   0.458   5.623   6.009
  833SOL    HW1 3398   0.425   5.562   5.936
  833SOL    HW2 3399   0.516   5.693   5.969
  834SOL     OW 3400   3.781   3.784   2.342
  834SOL    HW1 3401   3.860   3.729   2.316
  834SOL    HW2 3402   3.811   3.866   2.390
  835SOL     OW 3403   4.064   6.617   4.248
  835SOL    HW1 3404   3.964   6.611   4.244
  835SOL    HW2 3405   4.099   6.645   4.158
  836SOL     OW 3406   3.055   6.478   6.784
  836SOL    HW1 3407   2.957   6.474   6.762
  836SOL    HW2 3408   3.095   6.387   6.773
  837SOL     OW 3409   4.800   0.544   6.923
  837SOL    HW1 3410   4.723   0.596   6.887
  837SOL    HW2 3411   4.836   0.484   6.852
  838SOL     OW 3412   1.018   0.136   4.981
  838SOL    HW1 3413   1.092   0.194   4.945
  838SOL    HW2 3414   0.949   0.122   4.911
  839SOL     OW 3415   2.945   1.267   2.748
  839SOL    HW1 3416   2.904   1.357   2.734
  839SOL    HW2 3417   3.044   1.276   2.757
  840SOL     OW 3418   6.179   1.173   5.493
  840SOL    HW1 3419   6.223   1.090   5.458
  840SOL    HW2 3420   6.245   1.225   5.546
  841SOL     OW 3421   6.041   4.364   0.238
  841SOL    HW1 3422   5.949   4.398   0.253
  841SOL    HW2 3423   6.106   4.417   0.292
  842SOL     OW 3424   4.445   5.171   3.334
  842SOL    HW1 3425   4.406   5.185   3.242
  842SOL    HW2 3426   4.489   5.255   3.365
  843SOL     OW 3427   5.391   2.035   0.065
  843SOL    HW1 3428   5.393   2.000   0.158
  843SOL    HW2 3429   5.436   1.971   0.003
  844SOL     OW 3430   4.539   6.423   0.375
  844SOL    HW1 3431   4.565   6.327   0.372
  844SOL    HW2 3432   4.441   6.432   0.357
  845SOL     OW 3433   6.159   2.727   4.832
  845SOL    HW1 3434   6.245   2.698   4.790
  845SOL    HW2 3435   6.167   2.721   4.931
  846SOL     OW 3436   5.279   1.377   6.277
  846SOL    HW1 3437   5.251   1.351   6.370
  846SOL    HW2 3438   5.251   1.471   6.260
  847SOL     OW 3439   6.280   3.191   0.818
  847SOL    HW1 3440   6.372   3.178   0.856
  847SOL    HW2 3441   6.216   3.214   0.891
  848SOL     OW 3442   5.900   1.058   6.115
  848SOL    HW1 3443   5.845   1.137   6.143
  848SOL    HW2 3444   5.983   1.054   6.171
  849SOL     OW 3445   7.013   5.706   5.219
  849SOL    HW1 3446   0.058   5.710   5.147
  849SOL    HW2 3447   0.021   5.648   5.294
  850SOL     OW 3448   4.477   0.624   3.476
  850SOL    HW1 3449   4.457   0.528   3.496
  850SOL    HW2 3450   4.572   0.644   3.499
  851SOL     OW 3451   0.431   1.263   0.381
  851SOL    HW1 3452   0.383   1.211   0.452
  851SOL    HW2 3453   0.425   1.361   0.402
  852SOL     OW 3454   2.363   2.425   6.997
  852SOL    HW1 3455   2.443   2.435   6.938
  852SOL    HW2 3456   2.376   2.346   0.033
  853SOL     OW 3457   0.917   3.711   3.382
  853SOL    HW1 3458   0.914   3.723   3.282
  853SOL    HW2 3459   1.010   3.687   3.410
  854SOL     OW 3460   4.965   6.377   2.303
  854SOL    HW1 3461   5.050   6.327   2.290
  854SOL    HW2 3462   4.957   6.449   2.234
  855SOL     OW 3463   6.241   0.062   1.225
  855SOL    HW1 3464   6.258   6.995   1.187
  855SOL    HW2 3465   6.142   0.080   1.225
  856SOL     OW 3466   1.878   0.897   4.921
  856SOL    HW1 3467   1.913   0.819   4.974
  856SOL    HW2 3468   1.951   0.963   4.906
  857SOL     OW 3469   5.728   5.115   1.554
  857SOL    HW1 3470   5.800   5.167   1.508
  857SOL    HW2 3471   5.759   5.091   1.646
  858SOL     OW 3472   2.765   4.900   1.923
  858SOL    HW1 3473   2.765   4.955   2.006
  858SOL    HW2 3474   2.787   4.805   1.945
  859SOL     OW 3475   5.880   5.103   6.840
  859SOL    HW1 3476   5.893   5.202   6.832
  859SOL    HW2 3477   5.814   5.073   6.771
  860SOL     OW 3478   4.688   3.770   0.480
  860SOL    HW1 3479   4.767   3.767   0.419
  860SOL    HW2 3480   4.686   3.688   0.537
  861SOL     OW 3481   2.445   6.953   4.398
  861SOL    HW1 3482   2.472   6.975   4.491
  861SOL    HW2 3483   2.484   7.019   4.335
  862SOL     OW 3484   5.960   4.368   5.170
  862SOL    HW1 3485   6.024   4.292   5.182
  862SOL    HW2 3486   5.953   4.392   5.073
  863SOL     OW 3487   1.011   7.020   0.825
  863SOL    HW1 3488   1.044   0.044   0.744
  863SOL    HW2 3489   0.945   0.053   0.873
  864SOL     OW 3490   5.098   4.409   3.798
  864SOL    HW1 3491   5.126   4.374   3.709
  864SOL    HW2 3492   5.115   4.508   3.802
  865SOL     OW 3493   0.850   6.765   4.065
  865SOL    HW1 3494   0.843   6.679   4.014
  865SOL    HW2 3495   0.791   6.759   4.146
  866SOL     OW 3496   2.644   1.491   2.193
  866SOL    HW1 3497   2.661   1.475   2.096
  866SOL    HW2 3498   2.685   1.578   2.220
  867SOL     OW 3499   3.263   2.585   0.563
  867SOL    HW1 3500   3.245   2.488   0.550
  867SOL    HW2 3501   3.291   2.625   0.475
  868SOL     OW 3502   6.087   0.037   1.660
  868SOL    HW1 3503   6.168   0.075   1.615
  868SOL    HW2 3504   6.035   7.007   1.594
  869SOL     OW 3505   6.859   5.738   3.186
  869SOL    HW1 3506   6.844   5.694   3.274
  869SOL    HW2 3507   6.772   5.775   3.152
  870SOL     OW 3508   6.202   3.528   1.315
  870SOL    HW1 3509   6.221   3.605   1.375
  870SOL    HW2 3510   6.191   3.445   1.370
  871SOL     OW 3511   0.009   3.072   1.503
  871SOL    HW1 3512   0.087   3.008   1.497
  871SOL    HW2 3513   0.041   3.161   1.535
  872SOL     OW 3514   6.251   3.029   4.592
  872SOL    HW1 3515   6.257   3.011   4.690
  872SOL    HW2 3516   6.166   2.991   4.556
  873SOL     OW 3517   4.080   0.486   2.819
  873SOL    HW1 3518   4.172   0.524   2.809
  873SOL    HW2 3519   4.014   0.545   2.773
  874SOL     OW 3520   1.913   4.111   5.254
  874SOL    HW1 3521   1.951   4.198   5.222
  874SOL    HW2 3522   1.971   4.036   5.223
  875SOL     OW 3523   4.968   4.564   1.051
  875SOL    HW1 3524   5.019   4.643   1.017
  875SOL    HW2 3525   4.959   4.496   0.979
  876SOL     OW 3526   6.655   4.147   3.254
  876SOL    HW1 3527   6.592   4.084   3.209
  876SOL    HW2 3528   6.643   4.239   3.217
  877SOL     OW 3529   4.806   4.810   6.832
  877SOL    HW1 3530   4.799   4.763   6.920
  877SOL    HW2 3531   4.784   4.747   6.758
  878SOL     OW 3532   3.670   5.290   6.963
  878SOL    HW1 3533   3.737   5.298   6.888
  878SOL    HW2 3534   3.587   5.247   6.928
  879SOL     OW 3535   4.111   1.912   2.620
  879SOL    HW1 3536   4.097   1.922   2.522
  879SOL    HW2 3537   4.091   1.998   2.667
  880SOL     OW 3538   3.410   4.422   6.955
  880SOL    HW1 3539   3.344   4.497   6.966
  880SOL    HW2 3540   3.368   4.336   6.980
  881SOL     OW 3541   4.359   4.778   4.959
  881SOL    HW1 3542   4.303   4.839   5.016
  881SOL    HW2 3543   4.352   4.685   4.994
  882SOL     OW 3544   1.919   1.407   4.859
  882SOL    HW1 3545   1.848   1.397   4.790
  882SOL    HW2 3546   2.006   1.427   4.815
  883SOL     OW 3547   4.117   5.077   5.381
  883SOL    HW1 3548   4.163   5.166   5.385
  883SOL    HW2 3549   4.023   5.087   5.414
  884SOL     OW 3550   6.487   3.297   1.783
  884SOL    HW1 3551   6.405   3.247   1.810
  884SOL    HW2 3552   6.488   3.306   1.683
  885SOL     OW 3553   5.740   6.513   0.082
  885SOL    HW1 3554   5.815   6.481   0.140
  885SOL    HW2 3555   5.681   6.575   0.134
  886SOL     OW 3556   3.988   1.149   6.937
  886SOL    HW1 3557   4.077   1.107   6.955
  886SOL    HW2 3558   3.940   1.165   7.023
  887SOL     OW 3559   3.798   6.641   6.115
  887SOL    HW1 3560   3.822   6.549   6.147
  887SOL    HW2 3561   3.718   6.636   6.056
  888SOL     OW 3562   6.909   6.430   3.342
  888SOL    HW1 3563   6.878   6.502   3.404
  888SOL    HW2 3564   6.829   6.386   3.300
  889SOL     OW 3565   6.988   6.450   5.888
  889SOL    HW1 3566   6.993   6.382   5.815
  889SOL    HW2 3567   6.941   6.410   5.967
  890SOL     OW 3568   2.832   4.743   2.245
  890SOL    HW1 3569   2.807   4.835   2.217
  890SOL    HW2 3570   2.834   4.683   2.164
  891SOL     OW 3571   5.572   3.653   1.458
  891SOL    HW1 3572   5.600   3.558   1.475
  891SOL    HW2 3573   5.563   3.701   1.544
  892SOL     OW 3574   3.020   3.756   0.724
  892SOL    HW1 3575   2.993   3.752   0.820
  892SOL    HW2 3576   3.108   3.710   0.712
  893SOL     OW 3577   1.615   0.373   0.314
  893SOL    HW1 3578   1.616   0.445   0.384
  893SOL    HW2 3579   1.529   0.322   0.320
  894SOL     OW 3580   1.319   4.849   4.300
  894SOL    HW1 3581   1.372   4.764   4.298
  894SOL    HW2 3582   1.260   4.849   4.380
  895SOL     OW 3583   2.286   6.888   4.145
  895SOL    HW1 3584   2.336   6.962   4.100
  895SOL    HW2 3585   2.271   6.911   4.241
  896SOL     OW 3586   5.773   6.333   4.053
  896SOL    HW1 3587   5.711   6.340   4.131
  896SOL    HW2 3588   5.860   6.377   4.075
  897SOL     OW 3589   4.908   1.716   0.395
  897SOL    HW1 3590   4.930   1.703   0.492
  897SOL    HW2 3591   4.838   1.786   0.386
  898SOL     OW 3592   5.650   6.262   3.829
  898SOL    HW1 3593   5.620   6.167   3.830
  898SOL    HW2 3594   5.695   6.285   3.915
  899SOL     OW 3595   0.544   5.182   6.980
  899SOL    HW1 3596   0.636   5.148   6.999
  899SOL    HW2 3597   0.523   5.259   0.015
  900SOL     OW 3598   6.201   5.815   2.292
  900SOL    HW1 3599   6.253   5.898   2.307
  900SOL    HW2 3600   6.261   5.743   2.257
  901SOL     OW 3601   0.100   1.397   4.195
  901SOL    HW1 3602   0.026   1.366   4.254
  901SOL    HW2 3603   0.173   1.436   4.251
  902SOL     OW 3604   6.619   0.366   6.645
  902SOL    HW1 3605   6.519   0.363   6.645
  902SOL    HW2 3606   6.653   0.362   6.550
  903SOL     OW 3607   6.665   4.869   0.934
  903SOL    HW1 3608   6.699   4.808   0.863
  903SOL    HW2 3609   6.606   4.818   0.997
  904SOL     OW 3610   1.315   1.594   3.607
  904SOL    HW1 3611   1.296   1.673   3.549
  904SOL    HW2 3612   1.333   1.514   3.549
  905SOL     OW 3613   4.863   2.152   6.386
  905SOL    HW1 3614   4.861   2.247   6.419
  905SOL    HW2 3615   4.857   2.151   6.286
  906SOL     OW 3616   0.367   4.606   0.332
  906SOL    HW1 3617   0.284   4.573   0.376
  906SOL    HW2 3618   0.343   4.677   0.265
  907SOL     OW 3619   6.103   2.181   2.651
  907SOL    HW1 3620   6.122   2.157   2.556
  907SOL    HW2 3621   6.004   2.186   2.665
  908SOL     OW 3622   1.237   6.783   4.014
  908SOL    HW1 3623   1.181   6.820   4.089
  908SOL    HW2 3624   1.178   6.732   3.951
  909SOL     OW 3625   2.414   0.849   0.218
  909SOL    HW1 3626   2.512   0.848   0.197
  909SOL    HW2 3627   2.395   0.781   0.288
  910SOL     OW 3628   1.248   0.587   0.486
  910SOL    HW1 3629   1.241   0.507   0.426
  910SOL    HW2 3630   1.164   0.596   0.539
  911SOL     OW 3631   7.017   4.881   1.606
  911SOL    HW1 3632   0.065   4.898   1.538
  911SOL    HW2 3633   0.031   4.888   1.698
  912SOL     OW 3634   0.047   1.550   5.727
  912SOL    HW1 3635   7.000   1.615   5.700
  912SOL    HW2 3636   0.129   1.601   5.756
  913SOL     OW 3637   2.025   0.402   3.723
  913SOL    HW1 3638   1.979   0.409   3.634
  913SOL    HW2 3639   2.044   0.493   3.758
  914SOL     OW 3640   2.447   5.864   4.213
  914SOL    HW1 3641   2.421   5.788   4.273
  914SOL    HW2 3642   2.542   5.889   4.230
  915SOL     OW 3643   0.385   3.538   0.255
  915SOL    HW1 3644   0.332   3.603   0.309
  915SOL    HW2 3645   0.353   3.539   0.160
  916SOL     OW 3646   2.514   1.864   2.764
  916SOL    HW1 3647   2.507   1.774   2.808
  916SOL    HW2 3648   2.485   1.857   2.669
  917SOL     OW 3649   3.770   0.681   1.380
  917SOL    HW1 3650   3.687   0.729   1.351
  917SOL    HW2 3651   3.827   0.742   1.435
  918SOL     OW 3652   2.816   6.207   6.163
  918SOL    HW1 3653   2.796   6.275   6.092
  918SOL    HW2 3654   2.768   6.122   6.142
  919SOL     OW 3655   1.354   5.358   1.986
  919SOL    HW1 3656   1.353   5.434   2.051
  919SOL    HW2 3657   1.352   5.272   2.035
  920SOL     OW 3658   2.719   0.432   2.635
  920SOL    HW1 3659   2.768   0.440   2.722
  920SOL    HW2 3660   2.667   0.346   2.635
  921SOL     OW 3661   6.217   4.780   4.192
  921SOL    HW1 3662   6.297   4.744   4.143
  921SOL    HW2 3663   6.206   4.730   4.278
  922SOL     OW 3664   3.212   3.906   0.078
  922SOL    HW1 3665   3.287   3.954   0.033
  922SOL    HW2 3666   3.125   3.950   0.052
  923SOL     OW 3667   2.844   5.845   0.617
  923SOL    HW1 3668   2.901   5.911   0.569
  923SOL    HW2 3669   2.882   5.753   0.607
  924SOL     OW 3670   5.700   3.311   2.365
  924SOL    HW1 3671   5.636   3.240   2.337
  924SOL    HW2 3672   5.745   3.349   2.284
  925SOL     OW 3673   0.228   1.764   5.810
  925SOL    HW1 3674   0.271   1.736   5.896
  925SOL    HW2 3675   0.265   1.852   5.781
  926SOL     OW 3676   5.984   6.699   0.790
  926SOL    HW1 3677   5.981   6.607   0.751
  926SOL    HW2 3678   6.065   6.747   0.757
  927SOL     OW 3679   4.784   3.968   4.001
  927SOL    HW1 3680   4.812   3.923   4.086
  927SOL    HW2 3681   4.829   3.923   3.924
  928SOL     OW 3682   1.372   0.175   0.691
  928SOL    HW1 3683   1.368   0.084   0.650
  928SOL    HW2 3684   1.279   0.207   0.709
  929SOL     OW 3685   0.266   2.816   2.189
  929SOL    HW1 3686   0.350   2.768   2.165
  929SOL    HW2 3687   0.222   2.771   2.266
  930SOL     OW 3688   5.400   4.749   4.239
  930SOL    HW1 3689   5.472   4.681   4.255
  930SOL    HW2 3690   5.415   4.828   4.299
  931SOL     OW 3691   0.681   2.570   2.903
  931SOL    HW1 3692   0.763   2.622   2.929
  931SOL    HW2 3693   0.627   2.623   2.838
  932SOL     OW 3694   3.876   5.819   1.713
  932SOL    HW1 3695   3.778   5.814   1.735
  932SOL    HW2 3696   3.890   5.892   1.646
  933SOL     OW 3697   1.305   4.612   3.123
  933SOL    HW1 3698   1.261   4.592   3.035
  933SOL    HW2 3699   1.404   4.610   3.112
  934SOL     OW 3700   3.402   1.000   4.715
  934SOL    HW1 3701   3.366   0.920   4.764
  934SOL    HW2 3702   3.407   0.981   4.618
  935SOL     OW 3703   4.770   3.550   6.221
  935SOL    HW1 3704   4.670   3.559   6.230
  935SOL    HW2 3705   4.791   3.487   6.146
  936SOL     OW 3706   0.874   6.934   1.172
  936SOL    HW1 3707   0.912   6.888   1.253
  936SOL    HW2 3708   0.899   6.883   1.090
  937SOL     OW 3709   5.138   1.740   4.277
  937SOL    HW1 3710   5.230   1.776   4.292
  937SOL    HW2 3711   5.092   1.797   4.208
  938SOL     OW 3712   6.828   4.137   5.874
  938SOL    HW1 3713   6.729   4.123   5.864
  938SOL    HW2 3714   6.865   4.068   5.936
  939SOL     OW 3715   4.878   1.131   6.207
  939SOL    HW1 3716   4.833   1.045   6.230
  939SOL    HW2 3717   4.951   1.114   6.141
  940SOL     OW 3718   0.102   0.879   2.471
  940SOL    HW1 3719   0.004   0.879   2.487
  940SOL    HW2 3720   0.120   0.905   2.376
  941SOL     OW 3721   5.478   1.587   3.764
  941SOL    HW1 3722   5.530   1.505   3.787
  941SOL    HW2 3723   5.529   1.641   3.697
  942SOL     OW 3724   5.273   6.981   5.005
  942SOL    HW1 3725   5.301   6.899   4.955
  942SOL    HW2 3726   5.349   0.021   5.009
  943SOL     OW 3727   6.625   3.421   2.677
  943SOL    HW1 3728   6.570   3.343   2.707
  943SOL    HW2 3729   6.567   3.487   2.630
  944SOL     OW 3730   6.111   3.314   4.591
  944SOL    HW1 3731   6.013   3.296   4.591
  944SOL    HW2 3732   6.160   3.228   4.606
  945SOL     OW 3733   4.570   4.500   4.086
  945SOL    HW1 3734   4.551   4.515   4.183
  945SOL    HW2 3735   4.589   4.403   4.070
  946SOL     OW 3736   5.954   2.355   6.283
  946SOL    HW1 3737   5.947   2.335   6.185
  946SOL    HW2 3738   5.982   2.450   6.296
  947SOL     OW 3739   3.385   3.571   6.471
  947SOL    HW1 3740   3.337   3.614   6.395
  947SOL    HW2 3741   3.418   3.480   6.443
  948SOL     OW 3742   3.305   0.987   0.467
  948SOL    HW1 3743   3.326   0.920   0.538
  948SOL    HW2 3744   3.303   1.079   0.507
  949SOL     OW 3745   6.085   5.557   6.399
  949SOL    HW1 3746   6.137   5.614   6.335
  949SOL    HW2 3747   6.145   5.528   6.474
  950SOL     OW 3748   4.146   4.899   1.652
  950SOL    HW1 3749   4.179   4.991   1.673
  950SOL    HW2 3750   4.188   4.834   1.715
  951SOL     OW 3751   0.795   0.664   1.284
  951SOL    HW1 3752   0.885   0.700   1.309
  951SOL    HW2 3753   0.800   0.565   1.272
  952SOL     OW 3754   5.048   1.143   2.635
  952SOL    HW1 3755   4.969   1.204   2.644
  952SOL    HW2 3756   5.126   1.182   2.684
  953SOL     OW 3757   4.464   6.283   5.523
  953SOL    HW1 3758   4.546   6.341   5.526
  953SOL    HW2 3759   4.418   6.295   5.435
  954SOL     OW 3760   6.460   0.171   1.359
  954SOL    HW1 3761   6.514   0.224   1.294
  954SOL    HW2 3762   6.384   0.126   1.311
  955SOL     OW 3763   0.849   5.099   3.772
  955SOL    HW1 3764   0.789   5.026   3.740
  955SOL    HW2 3765   0.936   5.095   3.722
  956SOL     OW 3766   1.089   1.619   1.548
  956SOL    HW1 3767   1.136   1.679   1.483
  956SOL    HW2 3768   1.154   1.555   1.588
  957SOL     OW 3769   1.481   5.133   5.670
  957SOL    HW1 3770   1.495   5.037   5.694
  957SOL    HW2 3771   1.434   5.138   5.582
  958SOL     OW 3772   4.915   2.053   0.930
  958SOL    HW1 3773   5.008   2.068   0.963
  958SOL    HW2 3774   4.849   2.081   1.000
  959SOL     OW 3775   2.810   4.737   2.776
  959SOL    HW1 3776   2.846   4.795   2.849
  959SOL    HW2 3777   2.880   4.724   2.706
  960SOL     OW 3778   1.912   5.630   4.254
  960SOL    HW1 3779   1.912   5.565   4.331
  960SOL    HW2 3780   1.919   5.723   4.290
  961SOL     OW 3781   4.358   6.774   2.258
  961SOL    HW1 3782   4.450   6.735   2.253
  961SOL    HW2 3783   4.291   6.703   2.237
  962SOL     OW 3784   1.859   1.030   3.428
  962SOL    HW1 3785   1.884   1.064   3.518
  962SOL    HW2 3786   1.813   1.102   3.377
  963SOL     OW 3787   6.389   6.902   0.860
  963SOL    HW1 3788   6.302   6.949   0.845
  963SOL    HW2 3789   6.442   6.902   0.776
  964SOL     OW 3790   5.601   2.970   0.729
  964SOL    HW1 3791   5.594   2.875   0.698
  964SOL    HW2 3792   5.568   3.031   0.657
  965SOL     OW 3793   6.220   1.380   0.903
  965SOL    HW1 3794   6.151   1.443   0.868
  965SOL    HW2 3795   6.256   1.415   0.990
  966SOL     OW 3796   6.533   1.812   3.111
  966SOL    HW1 3797   6.491   1.898   3.082
  966SOL    HW2 3798   6.587   1.774   3.036
  967SOL     OW 3799   1.512   5.463   0.429
  967SOL    HW1 3800   1.564   5.548   0.439
  967SOL    HW2 3801   1.523   5.427   0.336
  968SOL     OW 3802   4.973   2.853   2.646
  968SOL    HW1 3803   5.053   2.816   2.693
  968SOL    HW2 3804   4.893   2.847   2.705
  969SOL     OW 3805   3.903   6.416   6.252
  969SOL    HW1 3806   3.940   6.348   6.187
  969SOL    HW2 3807   3.863   6.368   6.330
  970SOL     OW 3808   4.132   1.877   5.277
  970SOL    HW1 3809   4.098   1.815   5.206
  970SOL    HW2 3810   4.056   1.905   5.335
  971SOL     OW 3811   6.968   1.186   2.571
  971SOL    HW1 3812   6.890   1.140   2.529
  971SOL    HW2 3813   6.946   1.282   2.586
  972SOL     OW 3814   6.195   4.825   0.722
  972SOL    HW1 3815   6.266   4.757   0.704
  972SOL    HW2 3816   6.119   4.812   0.659
  973SOL     OW 3817   0.675   4.602   6.635
  973SOL    HW1 3818   0.716   4.676   6.689
  973SOL    HW2 3819   0.585   4.631   6.603
  974SOL     OW 3820   3.364   0.550   2.446
  974SOL    HW1 3821   3.426   0.622   2.477
  974SOL    HW2 3822   3.319   0.508   2.524
  975SOL     OW 3823   3.072   6.273   6.256
  975SOL    HW1 3824   3.143   6.203   6.261
  975SOL    HW2 3825   2.988   6.234   6.219
  976SOL     OW 3826   6.993   2.704   2.364
  976SOL    HW1 3827   0.019   2.723   2.448
  976SOL    HW2 3828   6.948   2.788   2.333
  977SOL     OW 3829   1.527   1.180   3.984
  977SOL    HW1 3830   1.626   1.187   3.968
  977SOL    HW2 3831   1.480   1.177   3.896
  978SOL     OW 3832   5.734   4.310   4.495
  978SOL    HW1 3833   5.658   4.370   4.517
  978SOL    HW2 3834   5.711   4.256   4.413
  979SOL     OW 3835   6.332   1.502   3.384
  979SOL    HW1 3836   6.420   1.456   3.380
  979SOL    HW2 3837   6.343   1.591   3.428
  980SOL     OW 3838   5.621   2.343   3.417
  980SOL    HW1 3839   5.532   2.329   3.459
  980SOL    HW2 3840   5.692   2.336   3.488
  981SOL     OW 3841   1.359   1.809   4.959
  981SOL    HW1 3842   1.387   1.901   4.984
  981SOL    HW2 3843   1.437   1.761   4.917
  982SOL     OW 3844   1.670   2.744   2.054
  982SOL    HW1 3845   1.756   2.795   2.044
  982SOL    HW2 3846   1.659   2.716   2.149
  983SOL     OW 3847   5.883   2.272   3.277
  983SOL    HW1 3848   5.961   2.334   3.284
  983SOL    HW2 3849   5.799   2.322   3.296
  984SOL     OW 3850   4.138   0.988   5.463
  984SOL    HW1 3851   4.149   0.917   5.394
  984SOL    HW2 3852   4.136   1.078   5.419
  985SOL     OW 3853   4.485   5.037   0.017
  985SOL    HW1 3854   4.576   5.032   6.999
  985SOL    HW2 3855   4.489   4.998   0.109
  986SOL     OW 3856   5.467   5.737   6.341
  986SOL    HW1 3857   5.451   5.650   6.293
  986SOL    HW2 3858   5.389   5.797   6.327
  987SOL     OW 3859   3.776   6.449   1.497
  987SOL    HW1 3860   3.749   6.499   1.580
  987SOL    HW2 3861   3.872   6.469   1.476
  988SOL     OW 3862   3.801   2.512   0.989
  988SOL    HW1 3863   3.823   2.445   1.060
  988SOL    HW2 3864   3.743   2.470   0.920
  989SOL     OW 3865   0.425   0.631   6.306
  989SOL    HW1 3866   0.396   0.723   6.278
  989SOL    HW2 3867   0.403   0.617   6.402
  990SOL     OW 3868   4.578   6.889   3.987
  990SOL    HW1 3869   4.549   6.864   3.895
  990SOL    HW2 3870   4.511   6.855   4.053
  991SOL     OW 3871   1.575   2.351   4.900
  991SOL    HW1 3872   1.531   2.421   4.845
  991SOL    HW2 3873   1.530   2.263   4.885
  992SOL     OW 3874   0.458   2.784   6.839
  992SOL    HW1 3875   0.453   2.686   6.854
  992SOL    HW2 3876   0.365   2.822   6.837
  993SOL     OW 3877   2.508   5.485   2.534
  993SOL    HW1 3878   2.415   5.473   2.498
  993SOL    HW2 3879   2.554   5.559   2.483
  994SOL     OW 3880   3.450   4.161   2.620
  994SOL    HW1 3881   3.461   4.070   2.661
  994SOL    HW2 3882   3.460   4.231   2.691
  995SOL     OW 3883   1.677   2.554   6.007
  995SOL    HW1 3884   1.727   2.557   5.920
  995SOL    HW2 3885   1.743   2.554   6.083
  996SOL     OW 3886   1.609   3.437   3.734
  996SOL    HW1 3887   1.590   3.475   3.824
  996SOL    HW2 3888   1.705   3.450   3.712
  997SOL     OW 3889   0.405   0.242   1.510
  997SOL    HW1 3890   0.339   0.179   1.469
  997SOL    HW2 3891   0.461   0.193   1.577
  998SOL     OW 3892   4.320   6.855   2.907
  998SOL    HW1 3893   4.392   6.912   2.867
  998SOL    HW2 3894   4.317   6.868   3.006
  999SOL     OW 3895   5.599   5.850   1.339
  999SOL    HW1 3896   5.581   5.764   1.292
  999SOL    HW2 3897   5.529   5.917   1.313
 1000SOL     OW 3898   1.849   1.746   2.568
 1000SOL    HW1 3899   1.816   1.664   2.521
 1000SOL    HW2 3900   1.930   1.780   2.520
 1001SOL     OW 3901   4.052   6.219   6.548
 1001SOL    HW1 3902   4.095   6.263   6.469
 1001SOL    HW2 3903   4.114   6.150   6.585
 1002SOL     OW 3904   5.454   1.403   6.493
 1002SOL    HW1 3905   5.400   1.416   6.409
 1002SOL    HW2 3906   5.415   1.459   6.566
 1003SOL     OW 3907   2.245   6.884   1.861
 1003SOL    HW1 3908   2.339   6.851   1.860
 1003SOL    HW2 3909   2.229   6.936   1.945
 1004SOL     OW 3910   6.476   0.389   6.984
 1004SOL    HW1 3911   6.464   0.294   6.955
 1004SOL    HW2 3912   6.390   0.423   7.021
 1005SOL     OW 3913   0.069   0.813   2.736
 1005SOL    HW1 3914   0.101   0.838   2.644
 1005SOL    HW2 3915   0.044   0.716   2.737
 1006SOL     OW 3916   2.416   5.770   1.590
 1006SOL    HW1 3917   2.349   5.714   1.542
 1006SOL    HW2 3918   2.409   5.865   1.557
 1007SOL     OW 3919   6.206   0.838   3.595
 1007SOL    HW1 3920   6.301   0.836   3.564
 1007SOL    HW2 3921   6.155   0.907   3.543
 1008SOL     OW 3922   0.948   2.743   4.200
 1008SOL    HW1 3923   0.991   2.664   4.243
 1008SOL    HW2 3924   0.850   2.724   4.187
 1009SOL     OW 3925   6.564   5.362   3.541
 1009SOL    HW1 3926   6.597   5.420   3.466
 1009SOL    HW2 3927   6.561   5.416   3.625
 1010SOL     OW 3928   3.970   2.142   0.067
 1010SOL    HW1 3929   3.950   2.099   0.154
 1010SOL    HW2 3930   4.064   2.120   0.039
 1011SOL     OW 3931   3.043   5.571   3.634
 1011SOL    HW1 3932   3.018   5.474   3.634
 1011SOL    HW2 3933   3.104   5.589   3.557
 1012SOL     OW 3934   5.920   5.308   0.108
 1012SOL    HW1 3935   5.930   5.391   0.161
 1012SOL    HW2 3936   5.837   5.260   0.137
 1013SOL     OW 3937   0.488   1.151   7.020
 1013SOL    HW1 3938   0.545   1.213   0.050
 1013SOL    HW2 3939   0.406   1.127   0.047
 1014SOL     OW 3940   5.496   5.449   6.277
 1014SOL    HW1 3941   5.440   5.391   6.336
 1014SOL    HW2 3942   5.583   5.468   6.322
 1015SOL     OW 3943   3.761   6.670   4.772
 1015SOL    HW1 3944   3.836   6.607   4.794
 1015SOL    HW2 3945   3.679   6.617   4.748
 1016SOL     OW 3946   2.803   2.680   0.852
 1016SOL    HW1 3947   2.768   2.587   0.855
 1016SOL    HW2 3948   2.790   2.723   0.942
 1017SOL     OW 3949   5.301   2.498   1.152
 1017SOL    HW1 3950   5.397   2.523   1.165
 1017SOL    HW2 3951   5.249   2.519   1.235
 1018SOL     OW 3952   1.837   3.353   4.374
 1018SOL    HW1 3953   1.756   3.409   4.360
 1018SOL    HW2 3954   1.902   3.403   4.431
 1019SOL     OW 3955   0.248   1.136   0.555
 1019SOL    HW1 3956   0.263   1.055   0.498
 1019SOL    HW2 3957   0.160   1.128   0.602
 1020SOL     OW 3958   1.211   6.741   0.411
 1020SOL    HW1 3959   1.123   6.769   0.374
 1020SOL    HW2 3960   1.266   6.822   0.432
 1021SOL     OW 3961   5.578   1.261   1.875
 1021SOL    HW1 3962   5.569   1.312   1.961
 1021SOL    HW2 3963   5.594   1.164   1.894
 1022SOL     OW 3964   4.045   4.958   6.229
 1022SOL    HW1 3965   3.976   4.886   6.233
 1022SOL    HW2 3966   4.131   4.920   6.193
 1023SOL     OW 3967   6.689   0.116   2.097
 1023SOL    HW1 3968   6.727   0.205   2.123
 1023SOL    HW2 3969   6.620   0.088   2.165
 1024SOL     OW 3970   6.712   2.690   4.378
 1024SOL    HW1 3971   6.627   2.637   4.380
 1024SOL    HW2 3972   6.781   2.643   4.433
 1025SOL     OW 3973   3.973   4.691   0.301
 1025SOL    HW1 3974   3.987   4.767   0.364
 1025SOL    HW2 3975   3.999   4.719   0.208
 1026SOL     OW 3976   1.221   1.155   0.746
 1026SOL    HW1 3977   1.302   1.111   0.706
 1026SOL    HW2 3978   1.142   1.095   0.733
 1027SOL     OW 3979   2.900   5.580   1.494
 1027SOL    HW1 3980   2.995   5.604   1.515
 1027SOL    HW2 3981   2.839   5.625   1.560
 1028SOL     OW 3982   3.158   5.812   0.448
 1028SOL    HW1 3983   3.144   5.761   0.533
 1028SOL    HW2 3984   3.116   5.761   0.372
 1029SOL     OW 3985   2.112   0.455   0.481
 1029SOL    HW1 3986   2.024   0.469   0.527
 1029SOL    HW2 3987   2.115   0.506   0.396
 1030SOL     OW 3988   3.449   2.867   3.450
 1030SOL    HW1 3989   3.392   2.808   3.508
 1030SOL    HW2 3990   3.536   2.885   3.496
 1031SOL     OW 3991   4.204   5.521   1.826
 1031SOL    HW1 3992   4.176   5.494   1.734
 1031SOL    HW2 3993   4.137   5.583   1.865
 1032SOL     OW 3994   2.294   1.483   5.253
 1032SOL    HW1 3995   2.286   1.390   5.289
 1032SOL    HW2 3996   2.356   1.483   5.174
 1033SOL     OW 3997   1.967   5.943   1.165
 1033SOL    HW1 3998   1.971   5.870   1.234
 1033SOL    HW2 3999   2.046   6.003   1.176
 1034SOL     OW 4000   1.702   6.219   4.570
 1034SOL    HW1 4001   1.705   6.294   4.636
 1034SOL    HW2 4002   1.772   6.152   4.593
 1035SOL     OW 4003   2.690   1.986   3.760
 1035SOL    HW1 4004   2.715   2.047   3.684
 1035SOL    HW2 4005   2.608   2.021   3.805
 1036SOL     OW 4006   3.824   0.861   0.849
 1036SOL    HW1 4007   3.750   0.900   0.795
 1036SOL    HW2 4008   3.813   0.761   0.853
 1037SOL     OW 4009   1.133   1.217   1.197
 1037SOL    HW1 4010   1.048   1.164   1.196
 1037SOL    HW2 4011   1.142   1.265   1.284
 1038SOL     OW 4012   0.464   1.160   5.716
 1038SOL    HW1 4013   0.459   1.237   5.780
 1038SOL    HW2 4014   0.491   1.194   5.626
 1039SOL     OW 4015   4.295   2.034   5.137
 1039SOL    HW1 4016   4.253   1.964   5.195
 1039SOL    HW2 4017   4.374   1.995   5.090
 1040SOL     OW 4018   5.465   3.522   3.356
 1040SOL    HW1 4019   5.487   3.619   3.367
 1040SOL    HW2 4020   5.543   3.467   3.386
 1041SOL     OW 4021   6.423   0.143   4.116
 1041SOL    HW1 4022   6.392   0.228   4.157
 1041SOL    HW2 4023   6.344   0.087   4.091
 1042SOL     OW 4024   3.931   4.847   2.519
 1042SOL    HW1 4025   4.020   4.828   2.479
 1042SOL    HW2 4026   3.862   4.851   2.447
 1043SOL     OW 4027   3.924   1.105   6.347
 1043SOL    HW1 4028   3.970   1.162   6.416
 1043SOL    HW2 4029   3.850   1.053   6.391
 1044SOL     OW 4030   3.526   2.546   1.479
 1044SOL    HW1 4031   3.437   2.540   1.433
 1044SOL    HW2 4032   3.545   2.459   1.526
 1045SOL     OW 4033   3.285   0.537   1.721
 1045SOL    HW1 4034   3.303   0.634   1.739
 1045SOL    HW2 4035   3.282   0.486   1.807
 1046SOL     OW 4036   2.524   0.126   6.448
 1046SOL    HW1 4037   2.616   0.091   6.425
 1046SOL    HW2 4038   2.512   0.126   6.547
 1047SOL     OW 4039   1.162   5.361   2.402
 1047SOL    HW1 4040   1.223   5.381   2.479
 1047SOL    HW2 4041   1.081   5.419   2.407
 1048SOL     OW 4042   5.057   5.883   5.250
 1048SOL    HW1 4043   4.999   5.947   5.199
 1048SOL    HW2 4044   5.150   5.919   5.254
 1049SOL     OW 4045   6.962   3.641   4.925
 1049SOL    HW1 4046   0.012   3.709   4.928
 1049SOL    HW2 4047   6.913   3.649   4.839
 1050SOL     OW 4048   4.042   6.230   0.829
 1050SOL    HW1 4049   4.097   6.221   0.912
 1050SOL    HW2 4050   3.950   6.195   0.847
 1051SOL     OW 4051   4.207   4.537   0.009
 1051SOL    HW1 4052   4.149   4.456   0.007
 1051SOL    HW2 4053   4.237   4.555   0.103
 1052SOL     OW 4054   3.920   0.774   4.525
 1052SOL    HW1 4055   3.913   0.763   4.426
 1052SOL    HW2 4056   3.926   0.872   4.547
 1053SOL     OW 4057   6.111   6.358   3.244
 1053SOL    HW1 4058   6.058   6.287   3.198
 1053SOL    HW2 4059   6.159   6.319   3.323
 1054SOL     OW 4060   2.316   5.238   5.495
 1054SOL    HW1 4061   2.398   5.240   5.552
 1054SOL    HW2 4062   2.320   5.158   5.435
 1055SOL     OW 4063   5.715   6.128   4.462
 1055SOL    HW1 4064   5.654   6.055   4.430
 1055SOL    HW2 4065   5.803   6.089   4.487
 1056SOL     OW 4066   1.437   6.484   5.345
 1056SOL    HW1 4067   1.485   6.518   5.426
 1056SOL    HW2 4068   1.500   6.483   5.267
 1057SOL     OW 4069   3.389   3.799   3.431
 1057SOL    HW1 4070   3.310   3.765   3.482
 1057SOL    HW2 4071   3.461   3.730   3.431
 1058SOL     OW 4072   4.749   1.470   2.095
 1058SOL    HW1 4073   4.660   1.437   2.125
 1058SOL    HW2 4074   4.816   1.455   2.168
 1059SOL     OW 4075   3.717   0.488   1.590
 1059SOL    HW1 4076   3.619   0.472   1.596
 1059SOL    HW2 4077   3.735   0.566   1.529
 1060SOL     OW 4078   6.850   3.685   6.107
 1060SOL    HW1 4079   6.790   3.690   6.187
 1060SOL    HW2 4080   6.796   3.664   6.026
 1061SOL     OW 4081   3.844   4.059   1.008
 1061SOL    HW1 4082   3.795   4.141   1.038
 1061SOL    HW2 4083   3.880   4.074   0.916
 1062SOL     OW 4084   6.677   6.137   5.291
 1062SOL    HW1 4085   6.630   6.057   5.253
 1062SOL    HW2 4086   6.716   6.192   5.216
 1063SOL     OW 4087   1.250   4.021   0.844
 1063SOL    HW1 4088   1.201   4.031   0.757
 1063SOL    HW2 4089   1.273   3.925   0.859
 1064SOL     OW 4090   1.362   3.706   2.402
 1064SOL    HW1 4091   1.417   3.751   2.332
 1064SOL    HW2 4092   1.394   3.733   2.493
 1065SOL     OW 4093   4.955   0.547   4.220
 1065SOL    HW1 4094   4.921   0.630   4.177
 1065SOL    HW2 4095   4.936   0.468   4.161
 1066SOL     OW 4096   5.235   0.555   4.320
 1066SOL    HW1 4097   5.248   0.482   4.388
 1066SOL    HW2 4098   5.137   0.567   4.303
 1067SOL     OW 4099   1.415   2.967   0.864
 1067SOL    HW1 4100   1.485   2.969   0.793
 1067SOL    HW2 4101   1.396   3.061   0.894
 1068SOL     OW 4102   0.350   3.860   1.961
 1068SOL    HW1 4103   0.266   3.913   1.974
 1068SOL    HW2 4104   0.360   3.794   2.036
 1069SOL     OW 4105   4.384   4.337   0.888
 1069SOL    HW1 4106   4.286   4.315   0.893
 1069SOL    HW2 4107   4.410   4.393   0.966
 1070SOL     OW 4108   1.811   0.894   6.785
 1070SOL    HW1 4109   1.739   0.844   6.737
 1070SOL    HW2 4110   1.889   0.833   6.801
 1071SOL     OW 4111   3.956   0.162   3.355
 1071SOL    HW1 4112   3.925   0.153   3.260
 1071SOL    HW2 4113   3.887   0.211   3.408
 1072SOL     OW 4114   2.578   5.789   2.079
 1072SOL    HW1 4115   2.623   5.859   2.135
 1072SOL    HW2 4116   2.506   5.831   2.024
 1073SOL     OW 4117   3.746   5.628   1.916
 1073SOL    HW1 4118   3.679   5.565   1.955
 1073SOL    HW2 4119   3.700   5.714   1.893
 1074SOL     OW 4120   1.569   5.695   1.694
 1074SOL    HW1 4121   1.631   5.740   1.758
 1074SOL    HW2 4122   1.474   5.711   1.723
 1075SOL     OW 4123   4.893   5.021   3.138
 1075SOL    HW1 4124   4.820   5.014   3.205
 1075SOL    HW2 4125   4.919   4.930   3.107
 1076SOL     OW 4126   1.045   4.163   4.987
 1076SOL    HW1 4127   1.052   4.235   4.918
 1076SOL    HW2 4128   1.068   4.200   5.077
 1077SOL     OW 4129   5.850   6.852   0.127
 1077SOL    HW1 4130   5.850   6.781   0.197
 1077SOL    HW2 4131   5.890   6.935   0.163
 1078SOL     OW 4132   2.082   1.038   2.570
 1078SOL    HW1 4133   1.996   0.987   2.571
 1078SOL    HW2 4134   2.064   1.133   2.595
 1079SOL     OW 4135   2.294   5.259   3.354
 1079SOL    HW1 4136   2.299   5.283   3.451
 1079SOL    HW2 4137   2.365   5.309   3.303
 1080SOL     OW 4138   2.723   5.391   3.151
 1080SOL    HW1 4139   2.791   5.461   3.172
 1080SOL    HW2 4140   2.724   5.322   3.223
 1081SOL     OW 4141   1.168   1.227   5.716
 1081SOL    HW1 4142   1.069   1.223   5.703
 1081SOL    HW2 4143   1.212   1.158   5.660
 1082SOL     OW 4144   1.351   6.842   5.719
 1082SOL    HW1 4145   1.400   6.928   5.725
 1082SOL    HW2 4146   1.416   6.766   5.728
 1083SOL     OW 4147   4.070   3.346   2.234
 1083SOL    HW1 4148   3.976   3.354   2.267
 1083SOL    HW2 4149   4.100   3.434   2.197
 1084SOL     OW 4150   6.316   5.593   1.208
 1084SOL    HW1 4151   6.221   5.604   1.180
 1084SOL    HW2 4152   6.324   5.605   1.307
 1085SOL     OW 4153   2.189   4.594   3.945
 1085SOL    HW1 4154   2.219   4.660   4.013
 1085SOL    HW2 4155   2.266   4.568   3.887
 1086SOL     OW 4156   6.147   5.558   3.503
 1086SOL    HW1 4157   6.086   5.625   3.461
 1086SOL    HW2 4158   6.184   5.497   3.432
 1087SOL     OW 4159   5.081   2.871   4.938
 1087SOL    HW1 4160   5.129   2.902   4.856
 1087SOL    HW2 4161   4.984   2.896   4.931
 1088SOL     OW 4162   5.217   4.310   3.552
 1088SOL    HW1 4163   5.227   4.293   3.454
 1088SOL    HW2 4164   5.304   4.292   3.598
 1089SOL     OW 4165   0.249   0.329   4.478
 1089SOL    HW1 4166   0.165   0.345   4.427
 1089SOL    HW2 4167   0.291   0.417   4.501
 1090SOL     OW 4168   3.119   1.242   4.933
 1090SOL    HW1 4169   3.033   1.287   4.909
 1090SOL    HW2 4170   3.192   1.279   4.875
 1091SOL     OW 4171   1.536   2.328   4.115
 1091SOL    HW1 4172   1.565   2.233   4.129
 1091SOL    HW2 4173   1.607   2.377   4.064
 1092SOL     OW 4174   2.443   3.890   1.160
 1092SOL    HW1 4175   2.369   3.881   1.227
 1092SOL    HW2 4176   2.528   3.858   1.202
 1093SOL     OW 4177   1.514   1.651   2.278
 1093SOL    HW1 4178   1.511   1.750   2.271
 1093SOL    HW2 4179   1.429   1.613   2.241
 1094SOL     OW 4180   0.083   6.901   1.456
 1094SOL    HW1 4181   0.002   6.842   1.452
 1094SOL    HW2 4182   0.115   6.906   1.551
 1095SOL     OW 4183   6.326   2.247   6.368
 1095SOL    HW1 4184   6.249   2.199   6.326
 1095SOL    HW2 4185   6.336   2.338   6.327
 1096SOL     OW 4186   3.838   5.162   1.530
 1096SOL    HW1 4187   3.828   5.082   1.590
 1096SOL    HW2 4188   3.931   5.166   1.495
 1097SOL     OW 4189   1.313   5.210   4.921
 1097SOL    HW1 4190   1.342   5.300   4.953
 1097SOL    HW2 4191   1.346   5.195   4.828
 1098SOL     OW 4192   5.345   2.448   0.854
 1098SOL    HW1 4193   5.307   2.525   0.803
 1098SOL    HW2 4194   5.335   2.464   0.952
 1099SOL     OW 4195   3.987   2.037   4.499
 1099SOL    HW1 4196   3.953   2.008   4.588
 1099SOL    HW2 4197   4.054   2.110   4.511
 1100SOL     OW 4198   0.627   1.442   6.463
 1100SOL    HW1 4199   0.528   1.452   6.448
 1100SOL    HW2 4200   0.658   1.355   6.424
 1101SOL     OW 4201   5.713   3.690   1.227
 1101SOL    HW1 4202   5.802   3.658   1.258
 1101SOL    HW2 4203   5.654   3.708   1.306
 1102SOL     OW 4204   0.979   4.716   4.314
 1102SOL    HW1 4205   0.965   4.790   4.248
 1102SOL    HW2 4206   1.004   4.633   4.265
 1103SOL     OW 4207   1.929   1.492   2.094
 1103SOL    HW1 4208   1.891   1.573   2.137
 1103SOL    HW2 4209   1.856   1.429   2.068
 1104SOL     OW 4210   2.135   4.255   5.797
 1104SOL    HW1 4211   2.126   4.337   5.854
 1104SOL    HW2 4212   2.044   4.221   5.772
 1105SOL     OW 4213   4.947   4.148   6.730
 1105SOL    HW1 4214   4.906   4.066   6.768
 1105SOL    HW2 4215   5.036   4.125   6.690
 1106SOL     OW 4216   0.631   2.113   6.302
 1106SOL    HW1 4217   0.623   2.023   6.346
 1106SOL    HW2 4218   0.546   2.165   6.317
 1107SOL     OW 4219   0.700   0.265   6.933
 1107SOL    HW1 4220   0.797   0.286   6.927
 1107SOL    HW2 4221   0.649   0.349   6.954
 1108SOL     OW 4222   2.528   0.683   4.916
 1108SOL    HW1 4223   2.562   0.730   4.997
 1108SOL    HW2 4224   2.447   0.629   4.940
 1109SOL     OW 4225   3.646   5.498   4.616
 1109SOL    HW1 4226   3.571   5.564   4.623
 1109SOL    HW2 4227   3.712   5.530   4.548
 1110SOL     OW 4228   2.827   2.540   1.297
 1110SOL    HW1 4229   2.764   2.610   1.331
 1110SOL    HW2 4230   2.918   2.580   1.284
 1111SOL     OW 4231   5.066   6.765   6.514
 1111SOL    HW1 4232   5.078   6.863   6.527
 1111SOL    HW2 4233   4.970   6.745   6.497
 1112SOL     OW 4234   6.017   1.009   2.671
 1112SOL    HW1 4235   6.108   0.993   2.711
 1112SOL    HW2 4236   5.967   0.922   2.667
 1113SOL     OW 4237   6.122   3.281   2.433
 1113SOL    HW1 4238   6.048   3.270   2.499
 1113SOL    HW2 4239   6.113   3.370   2.388
 1114SOL     OW 4240   4.890   0.363   6.228
 1114SOL    HW1 4241   4.933   0.278   6.197
 1114SOL    HW2 4242   4.941   0.400   6.305
 1115SOL     OW 4243   3.925   1.859   0.494
 1115SOL    HW1 4244   4.001   1.918   0.466
 1115SOL    HW2 4245   3.962   1.769   0.521
 1116SOL     OW 4246   5.328   5.640   4.044
 1116SOL    HW1 4247   5.252   5.689   4.085
 1116SOL    HW2 4248   5.319   5.542   4.063
 1117SOL     OW 4249   2.442   2.750   1.343
 1117SOL    HW1 4250   2.410   2.796   1.260
 1117SOL    HW2 4251   2.428   2.651   1.334
 1118SOL     OW 4252   1.697   4.851   3.218
 1118SOL    HW1 4253   1.697   4.929   3.155
 1118SOL    HW2 4254   1.790   4.814   3.226
 1119SOL     OW 4255   4.413   4.071   1.703
 1119SOL    HW1 4256   4.429   4.133   1.779
 1119SOL    HW2 4257   4.324   4.089   1.663
 1120SOL     OW 4258   5.085   6.504   5.786
 1120SOL    HW1 4259   5.137   6.501   5.871
 1120SOL    HW2 4260   5.147   6.511   5.708
 1121SOL     OW 4261   4.933   2.666   2.019
 1121SOL    HW1 4262   4.840   2.699   2.003
 1121SOL    HW2 4263   4.970   2.708   2.102
 1122SOL     OW 4264   5.711   2.838   6.810
 1122SOL    HW1 4265   5.767   2.919   6.824
 1122SOL    HW2 4266   5.768   2.762   6.779
 1123SOL     OW 4267   5.017   1.364   1.645
 1123SOL    HW1 4268   4.988   1.414   1.726
 1123SOL    HW2 4269   4.936   1.329   1.597
 1124SOL     OW 4270   6.616   3.663   4.939
 1124SOL    HW1 4271   6.549   3.686   5.009
 1124SOL    HW2 4272   6.708   3.687   4.971
 1125SOL     OW 4273   2.729   2.419   5.085
 1125SOL    HW1 4274   2.769   2.381   5.169
 1125SOL    HW2 4275   2.647   2.472   5.108
 1126SOL     OW 4276   4.490   6.714   0.083
 1126SOL    HW1 4277   4.547   6.658   0.143
 1126SOL    HW2 4278   4.396   6.680   0.086
 1127SOL     OW 4279   2.512   4.064   6.229
 1127SOL    HW1 4280   2.568   4.111   6.160
 1127SOL    HW2 4281   2.417   4.095   6.221
 1128SOL     OW 4282   4.468   2.513   4.094
 1128SOL    HW1 4283   4.565   2.523   4.113
 1128SOL    HW2 4284   4.455   2.484   3.999
 1129SOL     OW 4285   4.324   0.234   0.438
 1129SOL    HW1 4286   4.340   0.275   0.349
 1129SOL    HW2 4287   4.343   0.301   0.510
 1130SOL     OW 4288   1.720   4.210   1.484
 1130SOL    HW1 4289   1.685   4.151   1.558
 1130SOL    HW2 4290   1.793   4.267   1.519
 1131SOL     OW 4291   0.351   6.183   5.787
 1131SOL    HW1 4292   0.254   6.185   5.764
 1131SOL    HW2 4293   0.396   6.265   5.749
 1132SOL     OW 4294   5.280   6.874   5.869
 1132SOL    HW1 4295   5.212   6.855   5.940
 1132SOL    HW2 4296   5.317   6.787   5.835
 1133SOL     OW 4297   0.462   2.448   1.952
 1133SOL    HW1 4298   0.435   2.465   1.857
 1133SOL    HW2 4299   0.514   2.363   1.956
 1134SOL     OW 4300   5.850   2.400   6.714
 1134SOL    HW1 4301   5.937   2.440   6.687
 1134SOL    HW2 4302   5.799   2.372   6.632
 1135SOL     OW 4303   2.987   2.069   3.428
 1135SOL    HW1 4304   2.901   2.093   3.474
 1135SOL    HW2 4305   3.007   2.137   3.358
 1136SOL     OW 4306   2.329   5.319   3.648
 1136SOL    HW1 4307   2.334   5.249   3.719
 1136SOL    HW2 4308   2.249   5.377   3.664
 1137SOL     OW 4309   0.646   1.949   6.910
 1137SOL    HW1 4310   0.604   2.019   6.968
 1137SOL    HW2 4311   0.712   1.896   6.964
 1138SOL     OW 4312   2.324   3.423   5.953
 1138SOL    HW1 4313   2.392   3.389   5.889
 1138SOL    HW2 4314   2.367   3.488   6.016
 1139SOL     OW 4315   1.674   6.166   3.401
 1139SOL    HW1 4316   1.689   6.073   3.435
 1139SOL    HW2 4317   1.583   6.172   3.360
 1140SOL     OW 4318   3.770   2.142   3.194
 1140SOL    HW1 4319   3.846   2.194   3.232
 1140SOL    HW2 4320   3.805   2.078   3.125
 1141SOL     OW 4321   5.242   5.600   5.725
 1141SOL    HW1 4322   5.324   5.579   5.671
 1141SOL    HW2 4323   5.218   5.522   5.781
 1142SOL     OW 4324   4.979   0.098   4.393
 1142SOL    HW1 4325   4.990   0.001   4.413
 1142SOL    HW2 4326   5.035   0.123   4.314
 1143SOL     OW 4327   4.174   2.215   2.516
 1143SOL    HW1 4328   4.128   2.195   2.602
 1143SOL    HW2 4329   4.125   2.170   2.441
 1144SOL     OW 4330   0.121   4.578   4.222
 1144SOL    HW1 4331   0.216   4.555   4.242
 1144SOL    HW2 4332   0.101   4.558   4.126
 1145SOL     OW 4333   6.906   5.681   3.489
 1145SOL    HW1 4334   6.978   5.676   3.419
 1145SOL    HW2 4335   6.934   5.744   3.561
 1146SOL     OW 4336   5.610   1.957   0.722
 1146SOL    HW1 4337   5.645   1.959   0.816
 1146SOL    HW2 4338   5.517   1.993   0.721
 1147SOL     OW 4339   1.049   3.643   1.527
 1147SOL    HW1 4340   1.058   3.646   1.626
 1147SOL    HW2 4341   1.030   3.549   1.498
 1148SOL     OW 4342   3.402   6.041   6.302
 1148SOL    HW1 4343   3.474   6.016   6.367
 1148SOL    HW2 4344   3.420   5.997   6.214
 1149SOL     OW 4345   6.332   3.343   3.165
 1149SOL    HW1 4346   6.424   3.316   3.136
 1149SOL    HW2 4347   6.313   3.306   3.256
 1150SOL     OW 4348   2.469   4.698   1.144
 1150SOL    HW1 4349   2.515   4.611   1.164
 1150SOL    HW2 4350   2.538   4.767   1.122
 1151SOL     OW 4351   5.678   5.818   6.170
 1151SOL    HW1 4352   5.668   5.751   6.243
 1151SOL    HW2 4353   5.639   5.905   6.200
 1152SOL     OW 4354   1.227   0.470   4.492
 1152SOL    HW1 4355   1.179   0.452   4.578
 1152SOL    HW2 4356   1.222   0.389   4.434
 1153SOL     OW 4357   2.438   6.298   3.114
 1153SOL    HW1 4358   2.536   6.307   3.093
 1153SOL    HW2 4359   2.393   6.250   3.038
 1154SOL     OW 4360   0.208   3.634   1.761
 1154SOL    HW1 4361   0.252   3.587   1.685
 1154SOL    HW2 4362   0.232   3.589   1.847
 1155SOL     OW 4363   3.516   6.171   0.458
 1155SOL    HW1 4364   3.514   6.154   0.557
 1155SOL    HW2 4365   3.422   6.172   0.423
 1156SOL     OW 4366   2.164   0.225   3.527
 1156SOL    HW1 4367   2.211   0.313   3.532
 1156SOL    HW2 4368   2.099   0.218   3.602
 1157SOL     OW 4369   6.782   2.368   5.102
 1157SOL    HW1 4370   6.815   2.361   5.196
 1157SOL    HW2 4371   6.852   2.409   5.045
 1158SOL     OW 4372   5.616   4.807   5.689
 1158SOL    HW1 4373   5.604   4.791   5.591
 1158SOL    HW2 4374   5.526   4.814   5.733
 1159SOL     OW 4375   3.863   6.735   2.768
 1159SOL    HW1 4376   3.833   6.692   2.682
 1159SOL    HW2 4377   3.793   6.720   2.838
 1160SOL     OW 4378   3.641   4.059   2.321
 1160SOL    HW1 4379   3.663   4.091   2.413
 1160SOL    HW2 4380   3.724   4.058   2.266
 1161SOL     OW 4381   5.236   0.464   4.896
 1161SOL    HW1 4382   5.267   0.379   4.856
 1161SOL    HW2 4383   5.154   0.496   4.848
 1162SOL     OW 4384   3.435   2.945   1.019
 1162SOL    HW1 4385   3.523   2.951   1.065
 1162SOL    HW2 4386   3.406   2.849   1.014
 1163SOL     OW 4387   5.137   2.372   1.819
 1163SOL    HW1 4388   5.043   2.376   1.854
 1163SOL    HW2 4389   5.144   2.427   1.736
 1164SOL     OW 4390   5.342   2.967   2.905
 1164SOL    HW1 4391   5.293   2.888   2.867
 1164SOL    HW2 4392   5.392   3.013   2.832
 1165SOL     OW 4393   1.148   3.476   3.721
 1165SOL    HW1 4394   1.058   3.509   3.690
 1165SOL    HW2 4395   1.139   3.381   3.753
 1166SOL     OW 4396   3.895   1.606   6.433
 1166SOL    HW1 4397   3.943   1.529   6.391
 1166SOL    HW2 4398   3.808   1.621   6.386
 1167SOL     OW 4399   3.672   0.426   5.179
 1167SOL    HW1 4400   3.630   0.347   5.133
 1167SOL    HW2 4401   3.751   0.395   5.232
 1168SOL     OW 4402   6.150   0.183   3.073
 1168SOL    HW1 4403   6.136   0.196   3.171
 1168SOL    HW2 4404   6.063   0.161   3.029
 1169SOL     OW 4405   0.325   3.322   0.827
 1169SOL    HW1 4406   0.389   3.398   0.831
 1169SOL    HW2 4407   0.233   3.356   0.814
 1170SOL     OW 4408   3.737   1.097   2.433
 1170SOL    HW1 4409   3.813   1.100   2.498
 1170SOL    HW2 4410   3.742   1.013   2.379
 1171SOL     OW 4411   2.955   6.031   0.921
 1171SOL    HW1 4412   2.926   6.068   0.833
 1171SOL    HW2 4413   2.987   5.937   0.909
 1172SOL     OW 4414   3.966   3.933   4.026
 1172SOL    HW1 4415   3.966   4.024   3.986
 1172SOL    HW2 4416   4.018   3.870   3.968
 1173SOL     OW 4417   3.576   0.122   5.272
 1173SOL    HW1 4418   3.517   0.199   5.296
 1173SOL    HW2 4419   3.576   0.109   5.173
 1174SOL     OW 4420   2.556   5.602   0.709
 1174SOL    HW1 4421   2.511   5.648   0.632
 1174SOL    HW2 4422   2.591   5.671   0.772
 1175SOL     OW 4423   6.073   4.632   0.036
 1175SOL    HW1 4424   6.080   4.730   0.056
 1175SOL    HW2 4425   6.126   4.581   0.103
 1176SOL     OW 4426   5.572   4.991   1.008
 1176SOL    HW1 4427   5.541   5.086   1.005
 1176SOL    HW2 4428   5.664   4.987   1.046
 1177SOL     OW 4429   6.899   2.733   5.288
 1177SOL    HW1 4430   6.891   2.796   5.366
 1177SOL    HW2 4431   6.842   2.653   5.303
 1178SOL     OW 4432   4.695   4.222   2.534
 1178SOL    HW1 4433   4.710   4.223   2.435
 1178SOL    HW2 4434   4.711   4.130   2.569
 1179SOL     OW 4435   1.728   3.991   0.942
 1179SOL    HW1 4436   1.763   4.049   1.016
 1179SOL    HW2 4437   1.747   4.034   0.854
 1180SOL     OW 4438   2.168   1.394   3.602
 1180SOL    HW1 4439   2.085   1.425   3.649
 1180SOL    HW2 4440   2.144   1.360   3.511
 1181SOL     OW 4441   1.098   4.917   4.516
 1181SOL    HW1 4442   1.166   4.898   4.587
 1181SOL    HW2 4443   1.055   4.831   4.488
 1182SOL     OW 4444   2.324   4.335   3.673
 1182SOL    HW1 4445   2.232   4.354   3.639
 1182SOL    HW2 4446   2.384   4.314   3.596
 1183SOL     OW 4447   4.589   5.314   1.705
 1183SOL    HW1 4448   4.515   5.249   1.724
 1183SOL    HW2 4449   4.562   5.405   1.735
 1184SOL     OW 4450   3.297   3.171   5.550
 1184SOL    HW1 4451   3.249   3.218   5.624
 1184SOL    HW2 4452   3.243   3.092   5.521
 1185SOL     OW 4453   2.363   0.586   0.368
 1185SOL    HW1 4454   2.388   0.529   0.289
 1185SOL    HW2 4455   2.435   0.580   0.437
 1186SOL     OW 4456   6.105   0.208   5.054
 1186SOL    HW1 4457   6.094   0.211   5.153
 1186SOL    HW2 4458   6.193   0.167   5.031
 1187SOL     OW 4459   5.408   6.002   4.734
 1187SOL    HW1 4460   5.374   6.062   4.661
 1187SOL    HW2 4461   5.506   5.988   4.722
 1188SOL     OW 4462   2.402   6.563   5.676
 1188SOL    HW1 4463   2.370   6.490   5.737
 1188SOL    HW2 4464   2.324   6.621   5.650
 1189SOL     OW 4465   5.136   1.344   2.287
 1189SOL    HW1 4466   5.171   1.377   2.200
 1189SOL    HW2 4467   5.081   1.416   2.331
 1190SOL     OW 4468   3.783   5.230   3.318
 1190SOL    HW1 4469   3.831   5.150   3.284
 1190SOL    HW2 4470   3.756   5.216   3.413
 1191SOL     OW 4471   3.421   5.199   6.200
 1191SOL    HW1 4472   3.499   5.176   6.142
 1191SOL    HW2 4473   3.360   5.120   6.207
 1192SOL     OW 4474   5.677   4.567   3.375
 1192SOL    HW1 4475   5.579   4.565   3.396
 1192SOL    HW2 4476   5.726   4.615   3.447
 1193SOL     OW 4477   5.446   7.012   4.198
 1193SOL    HW1 4478   5.524   0.048   4.182
 1193SOL    HW2 4479   5.472   6.941   4.263
 1194SOL     OW 4480   6.776   0.516   0.611
 1194SOL    HW1 4481   6.714   0.588   0.643
 1194SOL    HW2 4482   6.761   0.433   0.664
 1195SOL     OW 4483   6.311   0.840   6.095
 1195SOL    HW1 4484   6.338   0.926   6.139
 1195SOL    HW2 4485   6.392   0.783   6.080
 1196SOL     OW 4486   0.204   5.043   2.275
 1196SOL    HW1 4487   0.273   5.112   2.253
 1196SOL    HW2 4488   0.203   4.973   2.204
 1197SOL     OW 4489   3.804   5.960   5.414
 1197SOL    HW1 4490   3.726   5.900   5.397
 1197SOL    HW2 4491   3.889   5.910   5.396
 1198SOL     OW 4492   2.793   2.205   2.402
 1198SOL    HW1 4493   2.790   2.109   2.430
 1198SOL    HW2 4494   2.781   2.211   2.303
 1199SOL     OW 4495   3.085   3.946   2.462
 1199SOL    HW1 4496   3.070   3.930   2.560
 1199SOL    HW2 4497   3.175   3.911   2.437
 1200SOL     OW 4498   4.213   3.904   5.259
 1200SOL    HW1 4499   4.306   3.909   5.295
 1200SOL    HW2 4500   4.167   3.992   5.273
 1201SOL     OW 4501   1.645   1.754   5.156
 1201SOL    HW1 4502   1.576   1.702   5.107
 1201SOL    HW2 4503   1.734   1.739   5.114
 1202SOL     OW 4504   5.780   6.899   5.992
 1202SOL    HW1 4505   5.781   6.935   6.085
 1202SOL    HW2 4506   5.699   6.932   5.944
 1203SOL     OW 4507   5.261   0.235   1.085
 1203SOL    HW1 4508   5.222   0.325   1.066
 1203SOL    HW2 4509   5.191   0.177   1.127
 1204SOL     OW 4510   3.673   1.461   0.656
 1204SOL    HW1 4511   3.646   1.523   0.583
 1204SOL    HW2 4512   3.769   1.475   0.679
 1205SOL     OW 4513   5.540   2.640   6.425
 1205SOL    HW1 4514   5.634   2.672   6.412
 1205SOL    HW2 4515   5.487   2.710   6.474
 1206SOL     OW 4516   2.033   1.523   5.181
 1206SOL    HW1 4517   2.127   1.523   5.216
 1206SOL    HW2 4518   1.996   1.430   5.186
 1207SOL     OW 4519   6.633   6.397   0.396
 1207SOL    HW1 4520   6.579   6.336   0.338
 1207SOL    HW2 4521   6.709   6.346   0.436
 1208SOL     OW 4522   3.427   3.602   2.854
 1208SOL    HW1 4523   3.438   3.531   2.924
 1208SOL    HW2 4524   3.496   3.673   2.868
 1209SOL     OW 4525   6.467   5.540   5.357
 1209SOL    HW1 4526   6.384   5.520   5.305
 1209SOL    HW2 4527   6.447   5.607   5.427
 1210SOL     OW 4528   3.812   0.517   2.515
 1210SOL    HW1 4529   3.747   0.499   2.589
 1210SOL    HW2 4530   3.851   0.430   2.484
 1211SOL     OW 4531   1.119   3.198   3.725
 1211SOL    HW1 4532   1.215   3.188   3.749
 1211SOL    HW2 4533   1.090   3.119   3.671
 1212SOL     OW 4534   1.283   3.151   5.915
 1212SOL    HW1 4535   1.219   3.112   5.981
 1212SOL    HW2 4536   1.234   3.212   5.853
 1213SOL     OW 4537   6.594   2.945   5.244
 1213SOL    HW1 4538   6.614   2.916   5.150
 1213SOL    HW2 4539   6.551   2.870   5.294
 1214SOL     OW 4540   1.923   3.507   4.738
 1214SOL    HW1 4541   2.019   3.480   4.730
 1214SOL    HW2 4542   1.866   3.425   4.733
 1215SOL     OW 4543   2.325   4.496   2.843
 1215SOL    HW1 4544   2.376   4.475   2.760
 1215SOL    HW2 4545   2.334   4.593   2.865
 1216SOL     OW 4546   0.997   6.508   1.443
 1216SOL    HW1 4547   0.960   6.420   1.474
 1216SOL    HW2 4548   1.096   6.510   1.457
 1217SOL     OW 4549   1.107   6.480   6.739
 1217SOL    HW1 4550   1.206   6.471   6.746
 1217SOL    HW2 4551   1.063   6.410   6.796
 1218SOL     OW 4552   1.247   3.339   5.358
 1218SOL    HW1 4553   1.194   3.399   5.418
 1218SOL    HW2 4554   1.197   3.325   5.273
 1219SOL     OW 4555   4.760   5.020   0.270
 1219SOL    HW1 4556   4.807   5.022   0.358
 1219SOL    HW2 4557   4.793   5.096   0.213
 1220SOL     OW 4558   5.739   3.453   2.629
 1220SOL    HW1 4559   5.824   3.431   2.676
 1220SOL    HW2 4560   5.728   3.393   2.550
 1221SOL     OW 4561   5.959   3.913   0.141
 1221SOL    HW1 4562   6.017   3.865   0.075
 1221SOL    HW2 4563   6.016   3.965   0.204
 1222SOL     OW 4564   6.991   6.767   0.811
 1222SOL    HW1 4565   0.046   6.752   0.753
 1222SOL    HW2 4566   6.965   6.682   0.857
 1223SOL     OW 4567   5.863   0.188   6.743
 1223SOL    HW1 4568   5.884   0.090   6.746
 1223SOL    HW2 4569   5.945   0.240   6.769
 1224SOL     OW 4570   4.149   5.820   0.004
 1224SOL    HW1 4571   4.186   5.851   0.092
 1224SOL    HW2 4572   4.219   5.831   6.958
 1225SOL     OW 4573   4.009   1.607   1.211
 1225SOL    HW1 4574   3.916   1.571   1.217
 1225SOL    HW2 4575   4.050   1.611   1.302
 1226SOL     OW 4576   5.984   6.589   1.041
 1226SOL    HW1 4577   5.981   6.494   1.011
 1226SOL    HW2 4578   6.003   6.649   0.963
 1227SOL     OW 4579   5.662   4.534   5.788
 1227SOL    HW1 4580   5.611   4.616   5.814
 1227SOL    HW2 4581   5.640   4.510   5.694
 1228SOL     OW 4582   3.594   3.048   1.950
 1228SOL    HW1 4583   3.664   2.980   1.930
 1228SOL    HW2 4584   3.613   3.091   2.038
 1229SOL     OW 4585   1.445   6.629   2.095
 1229SOL    HW1 4586   1.499   6.603   2.014
 1229SOL    HW2 4587   1.360   6.577   2.095
 1230SOL     OW 4588   5.451   5.375   2.722
 1230SOL    HW1 4589   5.461   5.474   2.735
 1230SOL    HW2 4590   5.492   5.327   2.799
 1231SOL     OW 4591   1.779   2.825   6.315
 1231SOL    HW1 4592   1.768   2.911   6.365
 1231SOL    HW2 4593   1.729   2.831   6.228
 1232SOL     OW 4594   3.879   1.108   4.696
 1232SOL    HW1 4595   3.808   1.060   4.645
 1232SOL    HW2 4596   3.899   1.196   4.652
 1233SOL     OW 4597   1.382   4.683   3.732
 1233SOL    HW1 4598   1.472   4.728   3.736
 1233SOL    HW2 4599   1.379   4.622   3.653
 1234SOL     OW 4600   6.952   3.376   6.841
 1234SOL    HW1 4601   6.948   3.453   6.905
 1234SOL    HW2 4602   6.868   3.322   6.849
 1235SOL     OW 4603   5.994   4.869   0.182
 1235SOL    HW1 4604   6.088   4.897   0.200
 1235SOL    HW2 4605   5.934   4.907   0.252
 1236SOL     OW 4606   3.239   1.414   0.041
 1236SOL    HW1 4607   3.286   1.327   0.058
 1236SOL    HW2 4608   3.280   1.486   0.096
 1237SOL     OW 4609   1.525   0.582   4.454
 1237SOL    HW1 4610   1.620   0.553   4.438
 1237SOL    HW2 4611   1.465   0.502   4.452
 1238SOL     OW 4612   0.376   0.336   2.820
 1238SOL    HW1 4613   0.320   0.383   2.751
 1238SOL    HW2 4614   0.316   0.284   2.881
 1239SOL     OW 4615   0.232   5.099   4.342
 1239SOL    HW1 4616   0.270   5.126   4.430
 1239SOL    HW2 4617   0.240   5.000   4.331
 1240SOL     OW 4618   6.025   5.761   2.941
 1240SOL    HW1 4619   5.970   5.687   2.903
 1240SOL    HW2 4620   6.118   5.756   2.905
 1241SOL     OW 4621   6.873   5.446   4.283
 1241SOL    HW1 4622   6.940   5.382   4.321
 1241SOL    HW2 4623   6.846   5.416   4.192
 1242SOL     OW 4624   1.248   3.591   0.020
 1242SOL    HW1 4625   1.220   3.551   0.107
 1242SOL    HW2 4626   1.301   3.525   6.992
 1243SOL     OW 4627   0.796   3.481   5.827
 1243SOL    HW1 4628   0.886   3.501   5.864
 1243SOL    HW2 4629   0.796   3.391   5.783
 1244SOL     OW 4630   5.708   6.744   5.241
 1244SOL    HW1 4631   5.642   6.818   5.248
 1244SOL    HW2 4632   5.756   6.750   5.153
 1245SOL     OW 4633   5.193   5.751   1.170
 1245SOL    HW1 4634   5.218   5.831   1.116
 1245SOL    HW2 4635   5.100   5.722   1.146
 1246SOL     OW 4636   4.742   1.281   0.845
 1246SOL    HW1 4637   4.685   1.362   0.836
 1246SOL    HW2 4638   4.830   1.306   0.885
 1247SOL     OW 4639   6.950   6.859   3.683
 1247SOL    HW1 4640   6.884   6.805   3.735
 1247SOL    HW2 4641   6.974   6.942   3.734
 1248SOL     OW 4642   0.060   6.769   4.691
 1248SOL    HW1 4643   0.020   6.790   4.602
 1248SOL    HW2 4644   0.066   6.853   4.746
 1249SOL     OW 4645   0.451   4.705   1.199
 1249SOL    HW1 4646   0.408   4.745   1.280
 1249SOL    HW2 4647   0.508   4.627   1.227
 1250SOL     OW 4648   5.805   3.881   5.047
 1250SOL    HW1 4649   5.831   3.953   4.983
 1250SOL    HW2 4650   5.884   3.824   5.068
 1251SOL     OW 4651   2.289   1.416   3.200
 1251SOL    HW1 4652   2.306   1.460   3.112
 1251SOL    HW2 4653   2.329   1.472   3.273
 1252SOL     OW 4654   3.047   5.615   0.034
 1252SOL    HW1 4655   3.114   5.667   7.006
 1252SOL    HW2 4656   3.010   5.542   7.002
 1253SOL     OW 4657   3.176   0.314   0.714
 1253SOL    HW1 4658   3.235   0.262   0.653
 1253SOL    HW2 4659   3.135   0.390   0.664
 1254SOL     OW 4660   6.215   1.754   3.006
 1254SOL    HW1 4661   6.222   1.853   3.021
 1254SOL    HW2 4662   6.211   1.736   2.908
 1255SOL     OW 4663   5.764   2.667   4.913
 1255SOL    HW1 4664   5.672   2.691   4.883
 1255SOL    HW2 4665   5.761   2.634   5.007
 1256SOL     OW 4666   6.772   5.716   3.814
 1256SOL    HW1 4667   6.724   5.804   3.815
 1256SOL    HW2 4668   6.860   5.725   3.861
 1257SOL     OW 4669   1.046   4.444   3.513
 1257SOL    HW1 4670   1.024   4.490   3.599
 1257SOL    HW2 4671   1.004   4.495   3.437
 1258SOL     OW 4672   1.816   5.937   3.555
 1258SOL    HW1 4673   1.760   5.943   3.638
 1258SOL    HW2 4674   1.867   5.851   3.556
 1259SOL     OW 4675   4.714   0.485   5.143
 1259SOL    HW1 4676   4.692   0.564   5.199
 1259SOL    HW2 4677   4.649   0.480   5.067
 1260SOL     OW 4678   2.726   0.623   2.090
 1260SOL    HW1 4679   2.681   0.683   2.156
 1260SOL    HW2 4680   2.751   0.675   2.009
 1261SOL     OW 4681   0.259   3.722   6.561
 1261SOL    HW1 4682   0.181   3.672   6.599
 1261SOL    HW2 4683   0.235   3.818   6.550
 1262SOL     OW 4684   4.534   5.041   1.150
 1262SOL    HW1 4685   4.612   5.081   1.101
 1262SOL    HW2 4686   4.495   5.108   1.213
 1263SOL     OW 4687   6.643   2.265   1.130
 1263SOL    HW1 4688   6.672   2.251   1.035
 1263SOL    HW2 4689   6.634   2.176   1.176
 1264SOL     OW 4690   0.620   4.526   3.295
 1264SOL    HW1 4691   0.528   4.492   3.313
 1264SOL    HW2 4692   0.657   4.481   3.214
 1265SOL     OW 4693   0.373   3.634   4.288
 1265SOL    HW1 4694   0.368   3.556   4.350
 1265SOL    HW2 4695   0.465   3.673   4.290
 1266SOL     OW 4696   2.727   1.458   5.332
 1266SOL    HW1 4697   2.739   1.416   5.422
 1266SOL    HW2 4698   2.650   1.521   5.335
 1267SOL     OW 4699   0.059   5.389   2.823
 1267SOL    HW1 4700   0.064   5.489   2.816
 1267SOL    HW2 4701   0.103   5.347   2.744
 1268SOL     OW 4702   5.334   2.005   6.615
 1268SOL    HW1 4703   5.390   2.085   6.639
 1268SOL    HW2 4704   5.238   2.026   6.633
 1269SOL     OW 4705   6.836   6.688   5.232
 1269SOL    HW1 4706   6.874   6.731   5.150
 1269SOL    HW2 4707   6.808   6.758   5.297
 1270SOL     OW 4708   2.228   3.989   4.268
 1270SOL    HW1 4709   2.188   3.922   4.330
 1270SOL    HW2 4710   2.229   4.079   4.311
 1271SOL     OW 4711   3.404   1.885   3.101
 1271SOL    HW1 4712   3.335   1.955   3.084
 1271SOL    HW2 4713   3.359   1.800   3.126
 1272SOL     OW 4714   0.332   5.600   0.979
 1272SOL    HW1 4715   0.429   5.613   0.956
 1272SOL    HW2 4716   0.315   5.504   1.000
 1273SOL     OW 4717   2.043   4.105   0.502
 1273SOL    HW1 4718   2.051   4.200   0.473
 1273SOL    HW2 4719   2.126   4.055   0.475
 1274SOL     OW 4720   0.372   2.885   1.703
 1274SOL    HW1 4721   0.303   2.827   1.746
 1274SOL    HW2 4722   0.453   2.889   1.761
 1275SOL     OW 4723   4.359   0.700   3.775
 1275SOL    HW1 4724   4.451   0.667   3.796
 1275SOL    HW2 4725   4.344   0.695   3.676
 1276SOL     OW 4726   6.679   0.549   3.009
 1276SOL    HW1 4727   6.694   0.463   2.961
 1276SOL    HW2 4728   6.625   0.532   3.091
 1277SOL     OW 4729   0.576   1.110   4.925
 1277SOL    HW1 4730   0.577   1.020   4.968
 1277SOL    HW2 4731   0.626   1.175   4.982
 1278SOL     OW 4732   2.170   1.955   5.856
 1278SOL    HW1 4733   2.132   2.030   5.910
 1278SOL    HW2 4734   2.095   1.903   5.815
 1279SOL     OW 4735   2.570   6.990   0.573
 1279SOL    HW1 4736   2.556   6.952   0.665
 1279SOL    HW2 4737   2.666   7.016   0.562
 1280SOL     OW 4738   2.381   0.524   2.688
 1280SOL    HW1 4739   2.293   0.550   2.727
 1280SOL    HW2 4740   2.390   0.562   2.596
 1281SOL     OW 4741   1.113   5.959   2.986
 1281SOL    HW1 4742   1.093   5.868   3.022
 1281SOL    HW2 4743   1.051   6.026   3.027
 1282SOL     OW 4744   0.520   1.358   1.181
 1282SOL    HW1 4745   0.548   1.275   1.133
 1282SOL    HW2 4746   0.596   1.423   1.181
 1283SOL     OW 4747   5.461   3.685   5.536
 1283SOL    HW1 4748   5.402   3.605   5.537
 1283SOL    HW2 4749   5.425   3.755   5.597
 1284SOL     OW 4750   2.925   2.526   1.719
 1284SOL    HW1 4751   2.892   2.483   1.803
 1284SOL    HW2 4752   3.025   2.521   1.715
 1285SOL     OW 4753   5.985   3.339   6.531
 1285SOL    HW1 4754   6.007   3.424   6.578
 1285SOL    HW2 4755   5.890   3.343   6.499
 1286SOL     OW 4756   4.947   4.510   2.361
 1286SOL    HW1 4757   4.985   4.482   2.449
 1286SOL    HW2 4758   4.873   4.448   2.335
 1287SOL     OW 4759   6.209   4.910   6.388
 1287SOL    HW1 4760   6.296   4.872   6.357
 1287SOL    HW2 4761   6.139   4.838   6.388
 1288SOL     OW 4762   0.602   2.821   0.493
 1288SOL    HW1 4763   0.628   2.849   0.400
 1288SOL    HW2 4764   0.684   2.801   0.546
 1289SOL     OW 4765   0.097   5.824   1.725
 1289SOL    HW1 4766   0.045   5.896   1.678
 1289SOL    HW2 4767   0.138   5.862   1.808
 1290SOL     OW 4768   0.227   0.773   6.766
 1290SOL    HW1 4769   0.312   0.792   6.716
 1290SOL    HW2 4770   0.248   0.750   6.861
 1291SOL     OW 4771   2.291   4.739   6.660
 1291SOL    HW1 4772   2.356   4.781   6.597
 1291SOL    HW2 4773   2.258   4.809   6.724
 1292SOL     OW 4774   6.758   4.599   2.139
 1292SOL    HW1 4775   6.830   4.600   2.209
 1292SOL    HW2 4776   6.690   4.530   2.163
 1293SOL     OW 4777   2.582   1.085   6.128
 1293SOL    HW1 4778   2.638   1.111   6.049
 1293SOL    HW2 4779   2.559   0.988   6.121
 1294SOL     OW 4780   0.392   3.227   1.562
 1294SOL    HW1 4781   0.471   3.197   1.615
 1294SOL    HW2 4782   0.363   3.154   1.501
 1295SOL     OW 4783   6.203   3.947   2.718
 1295SOL    HW1 4784   6.233   4.006   2.793
 1295SOL    HW2 4785   6.162   3.863   2.755
 1296SOL     OW 4786   3.477   1.949   5.967
 1296SOL    HW1 4787   3.426   1.866   5.946
 1296SOL    HW2 4788   3.443   2.025   5.911
 1297SOL     OW 4789   6.021   1.746   5.651
 1297SOL    HW1 4790   6.018   1.843   5.675
 1297SOL    HW2 4791   5.928   1.712   5.641
 1298SOL     OW 4792   5.946   3.362   3.434
 1298SOL    HW1 4793   6.019   3.298   3.414
 1298SOL    HW2 4794   5.969   3.452   3.399
 1299SOL     OW 4795   2.032   4.375   3.245
 1299SOL    HW1 4796   2.113   4.320   3.223
 1299SOL    HW2 4797   2.022   4.380   3.345
 1300SOL     OW 4798   3.106   3.739   2.016
 1300SOL    HW1 4799   3.081   3.808   2.084
 1300SOL    HW2 4800   3.026   3.719   1.959
 1301SOL     OW 4801   1.335   6.369   2.444
 1301SOL    HW1 4802   1.389   6.417   2.374
 1301SOL    HW2 4803   1.243   6.351   2.408
 1302SOL     OW 4804   2.191   6.892   4.480
 1302SOL    HW1 4805   2.287   6.915   4.467
 1302SOL    HW2 4806   2.152   6.946   4.555
 1303SOL     OW 4807   4.090   1.217   0.913
 1303SOL    HW1 4808   4.172   1.171   0.948
 1303SOL    HW2 4809   4.087   1.310   0.949
 1304SOL     OW 4810   1.287   0.982   6.339
 1304SOL    HW1 4811   1.227   0.954   6.414
 1304SOL    HW2 4812   1.232   1.025   6.267
 1305SOL     OW 4813   5.432   5.832   5.073
 1305SOL    HW1 4814   5.402   5.809   4.981
 1305SOL    HW2 4815   5.459   5.749   5.121
 1306SOL     OW 4816   1.082   3.641   5.242
 1306SOL    HW1 4817   1.068   3.542   5.233
 1306SOL    HW2 4818   1.009   3.689   5.194
 1307SOL     OW 4819   1.798   3.014   4.862
 1307SOL    HW1 4820   1.805   3.070   4.944
 1307SOL    HW2 4821   1.887   2.972   4.843
 1308SOL     OW 4822   4.178   5.983   4.578
 1308SOL    HW1 4823   4.202   5.896   4.534
 1308SOL    HW2 4824   4.167   6.054   4.509
 1309SOL     OW 4825   5.688   3.313   5.528
 1309SOL    HW1 4826   5.764   3.248   5.539
 1309SOL    HW2 4827   5.643   3.297   5.440
 1310SOL     OW 4828   5.712   3.962   5.379
 1310SOL    HW1 4829   5.745   4.056   5.367
 1310SOL    HW2 4830   5.781   3.898   5.347
 1311SOL     OW 4831   5.976   6.768   4.117
 1311SOL    HW1 4832   6.010   6.675   4.111
 1311SOL    HW2 4833   5.961   6.804   4.024
 1312SOL     OW 4834   0.679   0.854   6.824
 1312SOL    HW1 4835   0.744   0.927   6.846
 1312SOL    HW2 4836   0.638   0.872   6.734
 1313SOL     OW 4837   2.628   5.823   5.469
 1313SOL    HW1 4838   2.560   5.878   5.518
 1313SOL    HW2 4839   2.601   5.727   5.471
 1314SOL     OW 4840   1.869   1.275   5.788
 1314SOL    HW1 4841   1.833   1.186   5.760
 1314SOL    HW2 4842   1.798   1.327   5.835
 1315SOL     OW 4843   1.099   1.382   0.679
 1315SOL    HW1 4844   1.145   1.421   0.600
 1315SOL    HW2 4845   1.155   1.307   0.716
 1316SOL     OW 4846   1.895   0.025   3.115
 1316SOL    HW1 4847   1.826   6.977   3.117
 1316SOL    HW2 4848   1.893   0.076   3.201
 1317SOL     OW 4849   0.844   4.574   4.827
 1317SOL    HW1 4850   0.747   4.555   4.841
 1317SOL    HW2 4851   0.860   4.672   4.837
 1318SOL     OW 4852   0.607   1.213   0.903
 1318SOL    HW1 4853   0.694   1.215   0.853
 1318SOL    HW2 4854   0.559   1.128   0.882
 1319SOL     OW 4855   5.961   1.081   6.906
 1319SOL    HW1 4856   5.973   1.157   6.842
 1319SOL    HW2 4857   6.045   1.067   6.957
 1320SOL     OW 4858   5.594   4.347   0.066
 1320SOL    HW1 4859   5.597   4.427   0.126
 1320SOL    HW2 4860   5.669   4.352   0.000
 1321SOL     OW 4861   4.425   3.282   0.217
 1321SOL    HW1 4862   4.375   3.367   0.200
 1321SOL    HW2 4863   4.430   3.229   0.132
 1322SOL     OW 4864   5.152   1.334   3.027
 1322SOL    HW1 4865   5.229   1.320   3.089
 1322SOL    HW2 4866   5.182   1.390   2.950
 1323SOL     OW 4867   5.455   1.570   5.215
 1323SOL    HW1 4868   5.468   1.476   5.186
 1323SOL    HW2 4869   5.539   1.603   5.259
 1324SOL     OW 4870   1.699   2.062   2.244
 1324SOL    HW1 4871   1.658   1.995   2.306
 1324SOL    HW2 4872   1.732   2.140   2.297
 1325SOL     OW 4873   2.109   0.099   2.726
 1325SOL    HW1 4874   2.171   0.176   2.742
 1325SOL    HW2 4875   2.125   0.029   2.796
 1326SOL     OW 4876   4.976   2.746   4.663
 1326SOL    HW1 4877   5.071   2.760   4.635
 1326SOL    HW2 4878   4.933   2.835   4.679
 1327SOL     OW 4879   2.352   5.356   2.942
 1327SOL    HW1 4880   2.422   5.424   2.964
 1327SOL    HW2 4881   2.280   5.358   3.012
 1328SOL     OW 4882   1.165   2.132   6.995
 1328SOL    HW1 4883   1.083   2.176   6.959
 1328SOL    HW2 4884   1.238   2.134   6.926
 1329SOL     OW 4885   6.634   1.483   0.733
 1329SOL    HW1 4886   6.682   1.487   0.646
 1329SOL    HW2 4887   6.537   1.503   0.719
 1330SOL     OW 4888   6.593   6.655   0.884
 1330SOL    HW1 4889   6.585   6.560   0.914
 1330SOL    HW2 4890   6.650   6.706   0.949
 1331SOL     OW 4891   5.258   1.496   2.831
 1331SOL    HW1 4892   5.302   1.460   2.749
 1331SOL    HW2 4893   5.163   1.521   2.809
 1332SOL     OW 4894   3.989   0.611   1.214
 1332SOL    HW1 4895   3.905   0.620   1.268
 1332SOL    HW2 4896   4.065   0.654   1.263
 1333SOL     OW 4897   3.634   4.255   5.089
 1333SOL    HW1 4898   3.703   4.201   5.136
 1333SOL    HW2 4899   3.670   4.345   5.068
 1334SOL     OW 4900   1.081   2.578   5.080
 1334SOL    HW1 4901   1.023   2.659   5.087
 1334SOL    HW2 4902   1.043   2.515   5.012
 1335SOL     OW 4903   2.424   6.601   2.363
 1335SOL    HW1 4904   2.513   6.557   2.362
 1335SOL    HW2 4905   2.432   6.692   2.404
 1336SOL     OW 4906   1.233   1.315   6.957
 1336SOL    HW1 4907   1.241   1.414   6.943
 1336SOL    HW2 4908   1.241   1.269   6.869
 1337SOL     OW 4909   1.461   2.777   5.393
 1337SOL    HW1 4910   1.410   2.744   5.313
 1337SOL    HW2 4911   1.508   2.862   5.369
 1338SOL     OW 4912   4.269   3.899   6.327
 1338SOL    HW1 4913   4.292   3.805   6.349
 1338SOL    HW2 4914   4.337   3.961   6.368
 1339SOL     OW 4915   0.089   5.112   6.585
 1339SOL    HW1 4916   0.095   5.022   6.627
 1339SOL    HW2 4917   0.103   5.183   6.655
 1340SOL     OW 4918   1.102   2.066   1.230
 1340SOL    HW1 4919   1.170   2.077   1.157
 1340SOL    HW2 4920   1.104   1.972   1.263
 1341SOL     OW 4921   4.013   1.305   5.003
 1341SOL    HW1 4922   4.066   1.265   4.928
 1341SOL    HW2 4923   3.968   1.232   5.055
 1342SOL     OW 4924   1.688   5.837   6.096
 1342SOL    HW1 4925   1.593   5.811   6.078
 1342SOL    HW2 4926   1.732   5.864   6.011
 1343SOL     OW 4927   3.641   6.508   2.312
 1343SOL    HW1 4928   3.699   6.587   2.291
 1343SOL    HW2 4929   3.545   6.533   2.296
 1344SOL     OW 4930   6.439   2.413   3.279
 1344SOL    HW1 4931   6.514   2.463   3.322
 1344SOL    HW2 4932   6.469   2.320   3.256
 1345SOL     OW 4933   0.640   1.393   3.590
 1345SOL    HW1 4934   0.711   1.340   3.636
 1345SOL    HW2 4935   0.611   1.468   3.648
 1346SOL     OW 4936   1.027   6.402   3.025
 1346SOL    HW1 4937   0.972   6.482   2.999
 1346SOL    HW2 4938   0.994   6.321   2.977
 1347SOL     OW 4939   6.354   6.642   3.368
 1347SOL    HW1 4940   6.434   6.689   3.405
 1347SOL    HW2 4941   6.327   6.685   3.282
 1348SOL     OW 4942   5.924   5.377   4.089
 1348SOL    HW1 4943   5.856   5.324   4.039
 1348SOL    HW2 4944   6.011   5.373   4.042
 1349SOL     OW 4945   4.827   2.930   6.541
 1349SOL    HW1 4946   4.780   2.980   6.469
 1349SOL    HW2 4947   4.922   2.912   6.513
 1350SOL     OW 4948   3.630   4.944   6.773
 1350SOL    HW1 4949   3.611   5.016   6.707
 1350SOL    HW2 4950   3.546   4.894   6.793
 1351SOL     OW 4951   1.101   0.714   3.129
 1351SOL    HW1 4952   1.168   0.747   3.063
 1351SOL    HW2 4953   1.039   0.650   3.084
 1352SOL     OW 4954   7.002   0.261   3.668
 1352SOL    HW1 4955   0.048   0.309   3.615
 1352SOL    HW2 4956   6.912   0.289   3.636
 1353SOL     OW 4957   6.775   4.830   5.504
 1353SOL    HW1 4958   6.806   4.893   5.576
 1353SOL    HW2 4959   6.739   4.882   5.427
 1354SOL     OW 4960   6.657   1.078   0.975
 1354SOL    HW1 4961   6.661   1.177   0.983
 1354SOL    HW2 4962   6.565   1.051   0.946
 1355SOL     OW 4963   5.228   4.008   0.507
 1355SOL    HW1 4964   5.317   3.965   0.492
 1355SOL    HW2 4965   5.188   3.974   0.592
 1356SOL     OW 4966   3.795   4.019   3.221
 1356SOL    HW1 4967   3.779   4.008   3.123
 1356SOL    HW2 4968   3.707   4.034   3.267
 1357SOL     OW 4969   3.178   3.115   6.226
 1357SOL    HW1 4970   3.181   3.068   6.314
 1357SOL    HW2 4971   3.085   3.148   6.209
 1358SOL     OW 4972   2.141   2.685   6.241
 1358SOL    HW1 4973   2.128   2.692   6.340
 1358SOL    HW2 4974   2.125   2.591   6.212
 1359SOL     OW 4975   6.589   3.658   1.752
 1359SOL    HW1 4976   6.595   3.569   1.798
 1359SOL    HW2 4977   6.669   3.669   1.693
 1360SOL     OW 4978   4.049   3.837   2.605
 1360SOL    HW1 4979   4.021   3.746   2.572
 1360SOL    HW2 4980   4.123   3.872   2.548
 1361SOL     OW 4981   0.630   0.174   5.769
 1361SOL    HW1 4982   0.717   0.210   5.738
 1361SOL    HW2 4983   0.645   0.093   5.825
 1362SOL     OW 4984   2.991   3.378   5.502
 1362SOL    HW1 4985   2.965   3.282   5.491
 1362SOL    HW2 4986   3.034   3.390   5.592
 1363SOL     OW 4987   6.572   6.168   3.531
 1363SOL    HW1 4988   6.611   6.257   3.507
 1363SOL    HW2 4989   6.624   6.095   3.486
 1364SOL     OW 4990   0.196   2.964   0.515
 1364SOL    HW1 4991   0.269   2.962   0.583
 1364SOL    HW2 4992   0.185   3.057   0.480
 1365SOL     OW 4993   1.288   3.714   5.558
 1365SOL    HW1 4994   1.233   3.746   5.634
 1365SOL    HW2 4995   1.285   3.781   5.483
 1366SOL     OW 4996   0.280   3.140   1.242
 1366SOL    HW1 4997   0.327   3.064   1.288
 1366SOL    HW2 4998   0.185   3.114   1.223
 1367SOL     OW 4999   1.062   5.177   3.600
 1367SOL    HW1 5000   1.085   5.133   3.513
 1367SOL    HW2 5001   1.145   5.186   3.655
 1368SOL     OW 5002   6.800   6.688   4.199
 1368SOL    HW1 5003   6.884   6.687   4.145
 1368SOL    HW2 5004   6.800   6.768   4.260
 1369SOL     OW 5005   2.380   6.230   1.378
 1369SOL    HW1 5006   2.453   6.221   1.311
 1369SOL    HW2 5007   2.413   6.282   1.457
 1370SOL     OW 5008   0.380   2.384   3.852
 1370SOL    HW1 5009   0.321   2.347   3.923
 1370SOL    HW2 5010   0.469   2.407   3.891
 1371SOL     OW 5011   5.350   0.925   5.003
 1371SOL    HW1 5012   5.319   0.830   5.000
 1371SOL    HW2 5013   5.298   0.978   4.936
 1372SOL     OW 5014   6.433   2.532   0.651
 1372SOL    HW1 5015   6.399   2.598   0.584
 1372SOL    HW2 5016   6.387   2.548   0.739
 1373SOL     OW 5017   4.682   2.308   0.805
 1373SOL    HW1 5018   4.664   2.211   0.790
 1373SOL    HW2 5019   4.767   2.319   0.857
 1374SOL     OW 5020   5.557   4.256   0.529
 1374SOL    HW1 5021   5.549   4.187   0.457
 1374SOL    HW2 5022   5.525   4.219   0.616
 1375SOL     OW 5023   0.001   5.944   6.226
 1375SOL    HW1 5024   6.966   5.928   6.147
 1375SOL    HW2 5025   6.981   5.911   6.308
 1376SOL     OW 5026   3.059   4.598   6.006
 1376SOL    HW1 5027   3.068   4.610   6.105
 1376SOL    HW2 5028   3.121   4.526   5.975
 1377SOL     OW 5029   1.319   2.446   4.225
 1377SOL    HW1 5030   1.398   2.394   4.190
 1377SOL    HW2 5031   1.352   2.516   4.288
 1378SOL     OW 5032   4.428   2.470   4.828
 1378SOL    HW1 5033   4.336   2.453   4.864
 1378SOL    HW2 5034   4.465   2.552   4.872
 1379SOL     OW 5035   5.139   6.141   2.420
 1379SOL    HW1 5036   5.057   6.106   2.465
 1379SOL    HW2 5037   5.201   6.180   2.488
 1380SOL     OW 5038   6.610   6.507   2.549
 1380SOL    HW1 5039   6.557   6.547   2.624
 1380SOL    HW2 5040   6.617   6.574   2.475
 1381SOL     OW 5041   5.532   2.215   6.270
 1381SOL    HW1 5042   5.558   2.235   6.364
 1381SOL    HW2 5043   5.518   2.116   6.259
 1382SOL     OW 5044   4.797   3.549   1.847
 1382SOL    HW1 5045   4.723   3.493   1.884
 1382SOL    HW2 5046   4.766   3.644   1.838
 1383SOL     OW 5047   1.244   6.406   1.557
 1383SOL    HW1 5048   1.286   6.365   1.476
 1383SOL    HW2 5049   1.284   6.365   1.639
 1384SOL     OW 5050   4.368   6.942   1.212
 1384SOL    HW1 5051   4.430   6.872   1.177
 1384SOL    HW2 5052   4.380   0.002   1.159
 1385SOL     OW 5053   2.349   5.158   3.884
 1385SOL    HW1 5054   2.403   5.237   3.911
 1385SOL    HW2 5055   2.359   5.085   3.951
 1386SOL     OW 5056   2.905   6.470   3.292
 1386SOL    HW1 5057   2.896   6.465   3.392
 1386SOL    HW2 5058   2.896   6.565   3.262
 1387SOL     OW 5059   3.229   6.104   1.741
 1387SOL    HW1 5060   3.149   6.052   1.709
 1387SOL    HW2 5061   3.294   6.113   1.666
 1388SOL     OW 5062   6.426   6.316   1.129
 1388SOL    HW1 5063   6.437   6.410   1.161
 1388SOL    HW2 5064   6.474   6.254   1.190
 1389SOL     OW 5065   5.834   1.524   3.003
 1389SOL    HW1 5066   5.841   1.538   2.904
 1389SOL    HW2 5067   5.767   1.452   3.021
 1390SOL     OW 5068   0.233   3.777   0.233
 1390SOL    HW1 5069   0.291   3.818   0.162
 1390SOL    HW2 5070   0.137   3.783   0.204
 1391SOL     OW 5071   6.587   0.429   4.112
 1391SOL    HW1 5072   6.594   0.376   4.027
 1391SOL    HW2 5073   6.490   0.439   4.137
 1392SOL     OW 5074   5.061   5.806   6.087
 1392SOL    HW1 5075   5.100   5.789   6.178
 1392SOL    HW2 5076   5.130   5.788   6.017
 1393SOL     OW 5077   6.304   5.376   4.945
 1393SOL    HW1 5078   6.380   5.422   4.993
 1393SOL    HW2 5079   6.269   5.436   4.873
 1394SOL     OW 5080   3.143   5.834   4.917
 1394SOL    HW1 5081   3.135   5.821   5.016
 1394SOL    HW2 5082   3.234   5.867   4.894
 1395SOL     OW 5083   2.411   4.495   6.352
 1395SOL    HW1 5084   2.399   4.527   6.258
 1395SOL    HW2 5085   2.440   4.571   6.410
 1396SOL     OW 5086   2.114   0.919   4.527
 1396SOL    HW1 5087   2.147   0.933   4.434
 1396SOL    HW2 5088   2.184   0.870   4.580
 1397SOL     OW 5089   0.441   0.362   4.001
 1397SOL    HW1 5090   0.395   0.374   3.913
 1397SOL    HW2 5091   0.539   0.346   3.986
 1398SOL     OW 5092   2.146   0.989   6.175
 1398SOL    HW1 5093   2.201   1.072   6.187
 1398SOL    HW2 5094   2.076   1.006   6.105
 1399SOL     OW 5095   4.148   6.834   1.034
 1399SOL    HW1 5096   4.206   6.758   1.004
 1399SOL    HW2 5097   4.194   6.882   1.109
 1400SOL     OW 5098   6.661   1.764   2.863
 1400SOL    HW1 5099   6.584   1.785   2.803
 1400SOL    HW2 5100   6.722   1.843   2.869
 1401SOL     OW 5101   0.100   1.763   4.682
 1401SOL    HW1 5102   0.080   1.861   4.673
 1401SOL    HW2 5103   0.114   1.741   4.779
 1402SOL     OW 5104   0.639   4.303   0.690
 1402SOL    HW1 5105   0.730   4.325   0.724
 1402SOL    HW2 5106   0.610   4.375   0.626
 1403SOL     OW 5107   3.052   1.773   1.640
 1403SOL    HW1 5108   3.076   1.843   1.708
 1403SOL    HW2 5109   3.049   1.816   1.550
 1404SOL     OW 5110   5.266   6.786   6.980
 1404SOL    HW1 5111   5.359   6.757   6.958
 1404SOL    HW2 5112   5.242   6.866   6.926
 1405SOL     OW 5113   2.232   3.583   1.129
 1405SOL    HW1 5114   2.313   3.539   1.168
 1405SOL    HW2 5115   2.183   3.634   1.200
 1406SOL     OW 5116   1.460   5.417   1.444
 1406SOL    HW1 5117   1.383   5.454   1.496
 1406SOL    HW2 5118   1.442   5.428   1.346
 1407SOL     OW 5119   0.739   2.098   2.150
 1407SOL    HW1 5120   0.716   2.023   2.212
 1407SOL    HW2 5121   0.838   2.104   2.139
 1408SOL     OW 5122   5.076   0.870   5.748
 1408SOL    HW1 5123   5.141   0.914   5.687
 1408SOL    HW2 5124   5.088   0.770   5.743
 1409SOL     OW 5125   0.778   6.788   5.063
 1409SOL    HW1 5126   0.721   6.870   5.072
 1409SOL    HW2 5127   0.750   6.721   5.131
 1410SOL     OW 5128   2.184   3.802   6.633
 1410SOL    HW1 5129   2.247   3.808   6.556
 1410SOL    HW2 5130   2.194   3.882   6.692
 1411SOL     OW 5131   2.853   6.479   2.556
 1411SOL    HW1 5132   2.851   6.579   2.546
 1411SOL    HW2 5133   2.918   6.441   2.490
 1412SOL     OW 5134   0.448   2.263   1.102
 1412SOL    HW1 5135   0.429   2.171   1.067
 1412SOL    HW2 5136   0.376   2.291   1.165
 1413SOL     OW 5137   2.341   1.096   4.914
 1413SOL    HW1 5138   2.433   1.059   4.925
 1413SOL    HW2 5139   2.343   1.194   4.935
 1414SOL     OW 5140   2.601   0.789   1.291
 1414SOL    HW1 5141   2.572   0.864   1.231
 1414SOL    HW2 5142   2.530   0.771   1.359
 1415SOL     OW 5143   2.616   0.747   4.661
 1415SOL    HW1 5144   2.704   0.796   4.666
 1415SOL    HW2 5145   2.586   0.724   4.754
 1416SOL     OW 5146   4.544   4.555   4.361
 1416SOL    HW1 5147   4.541   4.545   4.461
 1416SOL    HW2 5148   4.485   4.630   4.333
 1417SOL     OW 5149   2.674   1.612   6.955
 1417SOL    HW1 5150   2.773   1.603   6.950
 1417SOL    HW2 5151   2.651   1.706   6.981
 1418SOL     OW 5152   2.931   3.715   3.862
 1418SOL    HW1 5153   2.997   3.779   3.824
 1418SOL    HW2 5154   2.884   3.667   3.788
 1419SOL     OW 5155   2.794   6.608   4.637
 1419SOL    HW1 5156   2.783   6.576   4.543
 1419SOL    HW2 5157   2.705   6.636   4.673
 1420SOL     OW 5158   2.251   6.951   1.286
 1420SOL    HW1 5159   2.164   6.904   1.271
 1420SOL    HW2 5160   2.298   6.909   1.364
 1421SOL     OW 5161   1.673   3.265   3.330
 1421SOL    HW1 5162   1.747   3.217   3.283
 1421SOL    HW2 5163   1.648   3.215   3.414
 1422SOL     OW 5164   2.308   3.949   1.772
 1422SOL    HW1 5165   2.236   3.970   1.706
 1422SOL    HW2 5166   2.338   4.034   1.817
 1423SOL     OW 5167   5.141   6.561   3.227
 1423SOL    HW1 5168   5.173   6.607   3.144
 1423SOL    HW2 5169   5.216   6.555   3.293
 1424SOL     OW 5170   6.891   4.251   4.940
 1424SOL    HW1 5171   6.978   4.291   4.968
 1424SOL    HW2 5172   6.870   4.278   4.846
 1425SOL     OW 5173   1.083   6.326   4.556
 1425SOL    HW1 5174   1.044   6.398   4.614
 1425SOL    HW2 5175   1.106   6.364   4.467
 1426SOL     OW 5176   0.931   2.066   5.975
 1426SOL    HW1 5177   0.976   2.019   6.051
 1426SOL    HW2 5178   0.839   2.093   6.002
 1427SOL     OW 5179   0.189   0.113   3.349
 1427SOL    HW1 5180   0.188   0.213   3.339
 1427SOL    HW2 5181   0.279   0.078   3.322
 1428SOL     OW 5182   5.566   2.702   0.580
 1428SOL    HW1 5183   5.522   2.766   0.518
 1428SOL    HW2 5184   5.571   2.611   0.537
 1429SOL     OW 5185   5.427   1.970   0.327
 1429SOL    HW1 5186   5.461   1.892   0.379
 1429SOL    HW2 5187   5.409   2.046   0.389
 1430SOL     OW 5188   1.907   4.821   4.257
 1430SOL    HW1 5189   1.821   4.771   4.247
 1430SOL    HW2 5190   1.896   4.890   4.329
 1431SOL     OW 5191   2.174   1.953   0.939
 1431SOL    HW1 5192   2.222   1.945   1.027
 1431SOL    HW2 5193   2.090   1.899   0.942
 1432SOL     OW 5194   3.559   1.371   2.902
 1432SOL    HW1 5195   3.638   1.429   2.922
 1432SOL    HW2 5196   3.476   1.416   2.934
 1433SOL     OW 5197   4.168   1.569   4.430
 1433SOL    HW1 5198   4.253   1.586   4.380
 1433SOL    HW2 5199   4.162   1.472   4.455
 1434SOL     OW 5200   0.060   0.924   6.041
 1434SOL    HW1 5201   7.018   0.956   6.109
 1434SOL    HW2 5202   0.047   0.976   5.956
 1435SOL     OW 5203   5.841   0.632   2.315
 1435SOL    HW1 5204   5.809   0.540   2.340
 1435SOL    HW2 5205   5.914   0.661   2.377
 1436SOL     OW 5206   5.994   3.900   0.589
 1436SOL    HW1 5207   5.921   3.915   0.521
 1436SOL    HW2 5208   6.075   3.864   0.543
 1437SOL     OW 5209   2.386   2.334   3.443
 1437SOL    HW1 5210   2.326   2.261   3.477
 1437SOL    HW2 5211   2.338   2.421   3.447
 1438SOL     OW 5212   3.403   6.647   1.157
 1438SOL    HW1 5213   3.413   6.743   1.129
 1438SOL    HW2 5214   3.380   6.644   1.254
 1439SOL     OW 5215   6.971   5.600   1.325
 1439SOL    HW1 5216   6.913   5.665   1.275
 1439SOL    HW2 5217   0.020   5.650   1.371
 1440SOL     OW 5218   3.020   3.931   0.511
 1440SOL    HW1 5219   3.094   3.884   0.463
 1440SOL    HW2 5220   2.993   3.878   0.591
 1441SOL     OW 5221   5.986   0.807   3.045
 1441SOL    HW1 5222   5.992   0.712   3.014
 1441SOL    HW2 5223   6.078   0.842   3.062
 1442SOL     OW 5224   6.893   5.714   0.012
 1442SOL    HW1 5225   6.872   5.629   0.060
 1442SOL    HW2 5226   6.878   5.702   6.939
 1443SOL     OW 5227   0.598   2.597   2.405
 1443SOL    HW1 5228   0.605   2.513   2.351
 1443SOL    HW2 5229   0.552   2.667   2.352
 1444SOL     OW 5230   5.182   6.109   0.827
 1444SOL    HW1 5231   5.195   6.207   0.841
 1444SOL    HW2 5232   5.117   6.094   0.752
 1445SOL     OW 5233   0.877   3.090   2.261
 1445SOL    HW1 5234   0.793   3.066   2.212
 1445SOL    HW2 5235   0.906   3.013   2.318
 1446SOL     OW 5236   6.080   0.990   6.316
 1446SOL    HW1 5237   6.100   0.898   6.284
 1446SOL    HW2 5238   6.064   0.989   6.415
 1447SOL     OW 5239   5.889   5.827   4.061
 1447SOL    HW1 5240   5.923   5.808   4.154
 1447SOL    HW2 5241   5.882   5.926   4.049
 1448SOL     OW 5242   6.828   3.138   5.297
 1448SOL    HW1 5243   6.867   3.222   5.259
 1448SOL    HW2 5244   6.896   3.064   5.291
 1449SOL     OW 5245   1.444   3.970   5.505
 1449SOL    HW1 5246   1.533   4.006   5.476
 1449SOL    HW2 5247   1.392   3.940   5.425
 1450SOL     OW 5248   1.031   1.924   0.077
 1450SOL    HW1 5249   0.947   1.966   0.112
 1450SOL    HW2 5250   1.083   1.991   0.025
 1451SOL     OW 5251   1.552   6.515   2.313
 1451SOL    HW1 5252   1.533   6.571   2.233
 1451SOL    HW2 5253   1.647   6.528   2.342
 1452SOL     OW 5254   4.246   2.782   5.340
 1452SOL    HW1 5255   4.332   2.833   5.348
 1452SOL    HW2 5256   4.169   2.845   5.333
 1453SOL     OW 5257   0.295   4.262   5.663
 1453SOL    HW1 5258   0.208   4.223   5.693
 1453SOL    HW2 5259   0.368   4.230   5.722
 1454SOL     OW 5260   1.293   1.809   2.044
 1454SOL    HW1 5261   1.353   1.845   1.973
 1454SOL    HW2 5262   1.248   1.726   2.012
 1455SOL     OW 5263   1.739   7.020   2.181
 1455SOL    HW1 5264   1.707   0.017   2.274
 1455SOL    HW2 5265   1.728   0.076   2.123
 1456SOL     OW 5266   6.587   6.787   6.155
 1456SOL    HW1 5267   6.489   6.803   6.149
 1456SOL    HW2 5268   6.609   6.700   6.113
 1457SOL     OW 5269   1.866   5.488   0.244
 1457SOL    HW1 5270   1.891   5.419   0.177
 1457SOL    HW2 5271   1.836   5.571   0.197
 1458SOL     OW 5272   5.804   4.678   5.252
 1458SOL    HW1 5273   5.898   4.699   5.225
 1458SOL    HW2 5274   5.759   4.629   5.178
 1459SOL     OW 5275   3.997   6.741   5.504
 1459SOL    HW1 5276   4.053   6.791   5.569
 1459SOL    HW2 5277   3.901   6.766   5.516
 1460SOL     OW 5278   2.078   6.854   5.162
 1460SOL    HW1 5279   2.062   6.949   5.190
 1460SOL    HW2 5280   2.176   6.834   5.168
 1461SOL     OW 5281   6.886   4.024   3.326
 1461SOL    HW1 5282   6.909   3.957   3.255
 1461SOL    HW2 5283   6.810   4.080   3.296
 1462SOL     OW 5284   1.237   1.185   6.692
 1462SOL    HW1 5285   1.205   1.119   6.624
 1462SOL    HW2 5286   1.335   1.202   6.679
 1463SOL     OW 5287   1.132   4.798   5.825
 1463SOL    HW1 5288   1.041   4.834   5.802
 1463SOL    HW2 5289   1.124   4.736   5.903
 1464SOL     OW 5290   6.682   5.100   2.261
 1464SOL    HW1 5291   6.767   5.082   2.311
 1464SOL    HW2 5292   6.616   5.027   2.281
 1465SOL     OW 5293   1.438   1.333   4.227
 1465SOL    HW1 5294   1.417   1.251   4.173
 1465SOL    HW2 5295   1.360   1.354   4.286
 1466SOL     OW 5296   3.744   1.821   1.993
 1466SOL    HW1 5297   3.674   1.884   2.026
 1466SOL    HW2 5298   3.790   1.862   1.913
 1467SOL     OW 5299   2.035   1.329   3.919
 1467SOL    HW1 5300   2.025   1.419   3.877
 1467SOL    HW2 5301   1.960   1.314   3.983
 1468SOL     OW 5302   2.347   5.854   1.939
 1468SOL    HW1 5303   2.308   5.870   1.848
 1468SOL    HW2 5304   2.344   5.939   1.991
 1469SOL     OW 5305   6.837   6.679   2.596
 1469SOL    HW1 5306   6.887   6.763   2.614
 1469SOL    HW2 5307   6.783   6.655   2.676
 1470SOL     OW 5308   0.108   1.638   2.128
 1470SOL    HW1 5309   0.168   1.594   2.062
 1470SOL    HW2 5310   0.161   1.701   2.185
 1471SOL     OW 5311   0.983   0.057   0.139
 1471SOL    HW1 5312   0.969   0.010   0.052
 1471SOL    HW2 5313   1.043   0.136   0.125
 1472SOL     OW 5314   3.359   5.582   0.398
 1472SOL    HW1 5315   3.376   5.581   0.497
 1472SOL    HW2 5316   3.331   5.674   0.370
 1473SOL     OW 5317   2.506   6.185   5.268
 1473SOL    HW1 5318   2.519   6.101   5.215
 1473SOL    HW2 5319   2.508   6.264   5.206
 1474SOL     OW 5320   4.440   4.389   1.164
 1474SOL    HW1 5321   4.416   4.367   1.259
 1474SOL    HW2 5322   4.455   4.304   1.114
 1475SOL     OW 5323   5.347   1.027   0.177
 1475SOL    HW1 5324   5.394   0.950   0.135
 1475SOL    HW2 5325   5.307   0.999   0.264
 1476SOL     OW 5326   2.216   1.214   1.084
 1476SOL    HW1 5327   2.194   1.274   1.161
 1476SOL    HW2 5328   2.313   1.189   1.087
 1477SOL     OW 5329   3.152   6.720   6.785
 1477SOL    HW1 5330   3.147   6.757   6.692
 1477SOL    HW2 5331   3.104   6.632   6.788
 1478SOL     OW 5332   6.203   5.628   5.157
 1478SOL    HW1 5333   6.296   5.601   5.134
 1478SOL    HW2 5334   6.200   5.727   5.172
 1479SOL     OW 5335   3.224   3.141   1.607
 1479SOL    HW1 5336   3.143   3.097   1.569
 1479SOL    HW2 5337   3.306   3.093   1.577
 1480SOL     OW 5338   2.653   0.129   4.759
 1480SOL    HW1 5339   2.745   0.092   4.764
 1480SOL    HW2 5340   2.652   0.207   4.696
 1481SOL     OW 5341   5.883   3.508   5.459
 1481SOL    HW1 5342   5.810   3.561   5.503
 1481SOL    HW2 5343   5.859   3.411   5.461
 1482SOL     OW 5344   4.530   0.815   1.402
 1482SOL    HW1 5345   4.543   0.839   1.306
 1482SOL    HW2 5346   4.561   0.890   1.460
 1483SOL     OW 5347   5.755   2.278   5.100
 1483SOL    HW1 5348   5.789   2.254   5.191
 1483SOL    HW2 5349   5.819   2.247   5.030
 1484SOL     OW 5350   4.757   4.840   3.744
 1484SOL    HW1 5351   4.849   4.825   3.707
 1484SOL    HW2 5352   4.737   4.771   3.813
 1485SOL     OW 5353   5.317   0.803   4.232
 1485SOL    HW1 5354   5.288   0.707   4.242
 1485SOL    HW2 5355   5.403   0.807   4.181
 1486SOL     OW 5356   4.820   0.729   3.065
 1486SOL    HW1 5357   4.739   0.721   3.123
 1486SOL    HW2 5358   4.794   0.722   2.969
 1487SOL     OW 5359   6.882   1.899   0.327
 1487SOL    HW1 5360   6.889   1.892   0.426
 1487SOL    HW2 5361   6.812   1.836   0.293
 1488SOL     OW 5362   4.445   0.168   3.434
 1488SOL    HW1 5363   4.366   0.181   3.374
 1488SOL    HW2 5364   4.450   0.244   3.498
 1489SOL     OW 5365   4.022   4.627   5.955
 1489SOL    HW1 5366   4.093   4.643   5.887
 1489SOL    HW2 5367   3.978   4.714   5.979
 1490SOL     OW 5368   0.644   3.594   0.830
 1490SOL    HW1 5369   0.675   3.529   0.761
 1490SOL    HW2 5370   0.581   3.660   0.788
 1491SOL     OW 5371   6.599   4.212   2.960
 1491SOL    HW1 5372   6.592   4.112   2.953
 1491SOL    HW2 5373   6.513   4.253   2.931
 1492SOL     OW 5374   6.033   0.325   2.515
 1492SOL    HW1 5375   6.028   0.234   2.473
 1492SOL    HW2 5376   5.949   0.376   2.493
 1493SOL     OW 5377   3.595   0.517   6.196
 1493SOL    HW1 5378   3.554   0.544   6.109
 1493SOL    HW2 5379   3.597   0.596   6.258
 1494SOL     OW 5380   5.942   2.745   6.548
 1494SOL    HW1 5381   6.003   2.824   6.540
 1494SOL    HW2 5382   5.948   2.708   6.640
 1495SOL     OW 5383   6.988   4.311   5.222
 1495SOL    HW1 5384   6.970   4.381   5.292
 1495SOL    HW2 5385   6.976   4.220   5.263
 1496SOL     OW 5386   1.088   0.408   0.352
 1496SOL    HW1 5387   0.997   0.438   0.381
 1496SOL    HW2 5388   1.079   0.352   0.269
 1497SOL     OW 5389   5.195   3.055   2.005
 1497SOL    HW1 5390   5.119   2.996   1.978
 1497SOL    HW2 5391   5.189   3.073   2.104
 1498SOL     OW 5392   2.571   4.461   1.171
 1498SOL    HW1 5393   2.583   4.374   1.123
 1498SOL    HW2 5394   2.644   4.474   1.238
 1499SOL     OW 5395   0.244   3.344   6.028
 1499SOL    HW1 5396   0.306   3.268   6.049
 1499SOL    HW2 5397   0.255   3.416   6.096
 1500SOL     OW 5398   0.440   6.639   6.857
 1500SOL    HW1 5399   0.519   6.682   6.900
 1500SOL    HW2 5400   0.365   6.633   6.923
 1501SOL     OW 5401   5.830   1.818   6.053
 1501SOL    HW1 5402   5.883   1.739   6.024
 1501SOL    HW2 5403   5.872   1.859   6.133
 1502SOL     OW 5404   4.945   1.137   6.477
 1502SOL    HW1 5405   4.864   1.191   6.500
 1502SOL    HW2 5406   4.933   1.098   6.385
 1503SOL     OW 5407   0.863   3.326   2.426
 1503SOL    HW1 5408   0.820   3.236   2.420
 1503SOL    HW2 5409   0.810   3.392   2.372
 1504SOL     OW 5410   0.863   6.955   3.246
 1504SOL    HW1 5411   0.859   0.009   3.308
 1504SOL    HW2 5412   0.869   6.988   3.151
 1505SOL     OW 5413   5.125   6.878   5.579
 1505SOL    HW1 5414   5.131   6.925   5.491
 1505SOL    HW2 5415   5.119   6.946   5.652
 1506SOL     OW 5416   0.964   6.972   6.929
 1506SOL    HW1 5417   0.874   6.980   6.886
 1506SOL    HW2 5418   1.022   6.911   6.874
 1507SOL     OW 5419   0.127   2.011   5.393
 1507SOL    HW1 5420   0.133   2.095   5.339
 1507SOL    HW2 5421   0.207   2.003   5.452
 1508SOL     OW 5422   6.415   1.572   1.349
 1508SOL    HW1 5423   6.450   1.570   1.443
 1508SOL    HW2 5424   6.322   1.536   1.348
 1509SOL     OW 5425   4.857   1.966   4.829
 1509SOL    HW1 5426   4.928   1.901   4.801
 1509SOL    HW2 5427   4.865   2.050   4.775
 1510SOL     OW 5428   5.759   6.999   4.483
 1510SOL    HW1 5429   5.716   6.914   4.512
 1510SOL    HW2 5430   5.852   7.004   4.519
 1511SOL     OW 5431   3.979   3.208   4.115
 1511SOL    HW1 5432   3.991   3.135   4.048
 1511SOL    HW2 5433   3.973   3.169   4.206
 1512SOL     OW 5434   6.467   5.452   1.642
 1512SOL    HW1 5435   6.544   5.388   1.638
 1512SOL    HW2 5436   6.499   5.541   1.674
 1513SOL     OW 5437   3.695   0.419   4.506
 1513SOL    HW1 5438   3.620   0.362   4.540
 1513SOL    HW2 5439   3.747   0.455   4.584
 1514SOL     OW 5440   4.207   2.877   6.091
 1514SOL    HW1 5441   4.174   2.822   6.014
 1514SOL    HW2 5442   4.256   2.818   6.155
 1515SOL     OW 5443   6.038   1.209   2.496
 1515SOL    HW1 5444   5.964   1.200   2.431
 1515SOL    HW2 5445   6.038   1.129   2.557
 1516SOL     OW 5446   5.299   5.140   5.316
 1516SOL    HW1 5447   5.389   5.125   5.357
 1516SOL    HW2 5448   5.283   5.239   5.307
 1517SOL     OW 5449   4.293   6.086   2.855
 1517SOL    HW1 5450   4.321   6.182   2.856
 1517SOL    HW2 5451   4.300   6.049   2.948
 1518SOL     OW 5452   6.958   2.905   0.584
 1518SOL    HW1 5453   0.028   2.937   0.583
 1518SOL    HW2 5454   6.903   2.965   0.642
 1519SOL     OW 5455   6.495   4.534   1.153
 1519SOL    HW1 5456   6.561   4.459   1.147
 1519SOL    HW2 5457   6.529   4.604   1.216
 1520SOL     OW 5458   0.711   4.764   1.489
 1520SOL    HW1 5459   0.766   4.750   1.407
 1520SOL    HW2 5460   0.722   4.686   1.550
 1521SOL     OW 5461   2.215   4.902   6.870
 1521SOL    HW1 5462   2.279   4.972   6.841
 1521SOL    HW2 5463   2.132   4.945   6.905
 1522SOL     OW 5464   6.254   5.545   4.744
 1522SOL    HW1 5465   6.283   5.638   4.720
 1522SOL    HW2 5466   6.155   5.539   4.741
 1523SOL     OW 5467   3.417   6.374   6.837
 1523SOL    HW1 5468   3.431   6.368   6.936
 1523SOL    HW2 5469   3.501   6.347   6.791
 1524SOL     OW 5470   2.582   1.608   2.815
 1524SOL    HW1 5471   2.574   1.511   2.839
 1524SOL    HW2 5472   2.617   1.615   2.721
 1525SOL     OW 5473   5.797   2.872   0.490
 1525SOL    HW1 5474   5.793   2.780   0.531
 1525SOL    HW2 5475   5.705   2.902   0.468
 1526SOL     OW 5476   6.967   0.854   6.790
 1526SOL    HW1 5477   0.041   0.843   6.804
 1526SOL    HW2 5478   6.922   0.872   6.878
 1527SOL     OW 5479   3.247   1.095   3.999
 1527SOL    HW1 5480   3.190   1.019   3.968
 1527SOL    HW2 5481   3.338   1.086   3.959
 1528SOL     OW 5482   4.049   4.703   1.978
 1528SOL    HW1 5483   4.087   4.678   2.067
 1528SOL    HW2 5484   4.107   4.665   1.906
 1529SOL     OW 5485   4.831   1.009   6.800
 1529SOL    HW1 5486   4.877   1.097   6.786
 1529SOL    HW2 5487   4.891   0.947   6.850
 1530SOL     OW 5488   3.524   1.404   1.339
 1530SOL    HW1 5489   3.431   1.417   1.375
 1530SOL    HW2 5490   3.578   1.352   1.406
 1531SOL     OW 5491   4.944   0.534   5.026
 1531SOL    HW1 5492   4.928   0.535   4.927
 1531SOL    HW2 5493   4.865   0.495   5.072
 1532SOL     OW 5494   3.741   4.253   5.938
 1532SOL    HW1 5495   3.672   4.324   5.926
 1532SOL    HW2 5496   3.700   4.163   5.926
 1533SOL     OW 5497   5.550   5.693   0.186
 1533SOL    HW1 5498   5.469   5.743   0.154
 1533SOL    HW2 5499   5.533   5.595   0.181
 1534SOL     OW 5500   3.186   5.892   6.207
 1534SOL    HW1 5501   3.243   5.935   6.276
 1534SOL    HW2 5502   3.150   5.805   6.243
 1535SOL     OW 5503   5.366   5.591   4.620
 1535SOL    HW1 5504   5.344   5.665   4.556
 1535SOL    HW2 5505   5.453   5.549   4.594
 1536SOL     OW 5506   4.134   5.023   6.477
 1536SOL    HW1 5507   4.110   4.974   6.393
 1536SOL    HW2 5508   4.080   4.988   6.553
 1537SOL     OW 5509   4.467   5.818   4.009
 1537SOL    HW1 5510   4.404   5.771   4.071
 1537SOL    HW2 5511   4.553   5.836   4.057
 1538SOL     OW 5512   3.715   6.546   6.668
 1538SOL    HW1 5513   3.809   6.510   6.672
 1538SOL    HW2 5514   3.716   6.643   6.693
 1539SOL     OW 5515   4.887   3.588   2.153
 1539SOL    HW1 5516   4.964   3.554   2.208
 1539SOL    HW2 5517   4.826   3.512   2.132
 1540SOL     OW 5518   0.337   6.903   5.478
 1540SOL    HW1 5519   0.276   6.965   5.528
 1540SOL    HW2 5520   0.329   6.919   5.380
 1541SOL     OW 5521   3.496   3.296   4.038
 1541SOL    HW1 5522   3.534   3.364   4.101
 1541SOL    HW2 5523   3.441   3.343   3.968
 1542SOL     OW 5524   6.784   0.299   1.801
 1542SOL    HW1 5525   6.754   0.391   1.775
 1542SOL    HW2 5526   6.715   0.232   1.774
 1543SOL     OW 5527   3.741   5.000   4.899
 1543SOL    HW1 5528   3.721   5.087   4.945
 1543SOL    HW2 5529   3.702   5.002   4.806
 1544SOL     OW 5530   3.666   4.077   3.527
 1544SOL    HW1 5531   3.608   4.029   3.593
 1544SOL    HW2 5532   3.620   4.079   3.438
 1545SOL     OW 5533   4.366   0.596   3.035
 1545SOL    HW1 5534   4.279   0.620   3.078
 1545SOL    HW2 5535   4.371   0.640   2.945
 1546SOL     OW 5536   5.429   6.342   5.434
 1546SOL    HW1 5537   5.484   6.413   5.391
 1546SOL    HW2 5538   5.466   6.252   5.411
 1547SOL     OW 5539   1.325   3.762   0.936
 1547SOL    HW1 5540   1.310   3.739   1.032
 1547SOL    HW2 5541   1.410   3.720   0.904
 1548SOL     OW 5542   5.334   4.122   6.975
 1548SOL    HW1 5543   5.418   4.103   6.925
 1548SOL    HW2 5544   5.297   4.210   6.944
 1549SOL     OW 5545   3.552   1.300   1.963
 1549SOL    HW1 5546   3.579   1.237   1.891
 1549SOL    HW2 5547   3.452   1.304   1.969
 1550SOL     OW 5548   3.377   3.761   1.385
 1550SOL    HW1 5549   3.393   3.761   1.483
 1550SOL    HW2 5550   3.317   3.684   1.361
 1551SOL     OW 5551   1.981   4.750   6.721
 1551SOL    HW1 5552   1.974   4.846   6.695
 1551SOL    HW2 5553   2.077   4.723   6.724
 1552SOL     OW 5554   1.694   5.337   1.044
 1552SOL    HW1 5555   1.778   5.390   1.057
 1552SOL    HW2 5556   1.713   5.240   1.060
 1553SOL     OW 5557   6.664   1.639   6.673
 1553SOL    HW1 5558   6.638   1.591   6.589
 1553SOL    HW2 5559   6.615   1.727   6.677
 1554SOL     OW 5560   3.140   1.954   3.615
 1554SOL    HW1 5561   3.231   1.994   3.602
 1554SOL    HW2 5562   3.076   1.994   3.549
 1555SOL     OW 5563   5.679   3.365   0.063
 1555SOL    HW1 5564   5.708   3.269   0.065
 1555SOL    HW2 5565   5.594   3.375   0.115
 1556SOL     OW 5566   1.748   1.827   6.399
 1556SOL    HW1 5567   1.791   1.815   6.310
 1556SOL    HW2 5568   1.800   1.776   6.468
 1557SOL     OW 5569   2.050   2.946   5.612
 1557SOL    HW1 5570   2.109   2.986   5.541
 1557SOL    HW2 5571   2.007   3.020   5.664
 1558SOL     OW 5572   6.219   0.733   4.935
 1558SOL    HW1 5573   6.269   0.688   4.861
 1558SOL    HW2 5574   6.284   0.767   5.003
 1559SOL     OW 5575   1.507   2.902   6.513
 1559SOL    HW1 5576   1.455   2.948   6.585
 1559SOL    HW2 5577   1.489   2.804   6.518
 1560SOL     OW 5578   0.055   0.633   5.871
 1560SOL    HW1 5579   0.074   0.681   5.957
 1560SOL    HW2 5580   0.069   0.535   5.885
 1561SOL     OW 5581   5.104   6.050   3.862
 1561SOL    HW1 5582   5.087   6.121   3.794
 1561SOL    HW2 5583   5.102   6.091   3.954
 1562SOL     OW 5584   4.925   6.091   2.623
 1562SOL    HW1 5585   4.963   6.180   2.647
 1562SOL    HW2 5586   4.826   6.099   2.608
 1563SOL     OW 5587   2.763   0.465   4.927
 1563SOL    HW1 5588   2.819   0.541   4.893
 1563SOL    HW2 5589   2.668   0.495   4.937
 1564SOL     OW 5590   1.518   0.899   3.442
 1564SOL    HW1 5591   1.438   0.844   3.469
 1564SOL    HW2 5592   1.572   0.921   3.523
 1565SOL     OW 5593   4.975   4.295   3.360
 1565SOL    HW1 5594   4.944   4.390   3.369
 1565SOL    HW2 5595   4.972   4.250   3.450
 1566SOL     OW 5596   5.508   4.432   2.680
 1566SOL    HW1 5597   5.542   4.517   2.722
 1566SOL    HW2 5598   5.486   4.366   2.752
 1567SOL     OW 5599   6.938   5.893   0.966
 1567SOL    HW1 5600   6.985   5.805   0.957
 1567SOL    HW2 5601   6.971   5.956   0.896
 1568SOL     OW 5602   1.368   6.971   0.250
 1568SOL    HW1 5603   1.406   6.883   0.223
 1568SOL    HW2 5604   1.373   0.010   0.173
 1569SOL     OW 5605   4.163   6.009   3.470
 1569SOL    HW1 5606   4.072   5.996   3.432
 1569SOL    HW2 5607   4.201   5.920   3.497
 1570SOL     OW 5608   1.568   6.747   0.470
 1570SOL    HW1 5609   1.635   6.674   0.458
 1570SOL    HW2 5610   1.613   6.836   0.462
 1571SOL     OW 5611   5.686   2.668   0.841
 1571SOL    HW1 5612   5.636   2.584   0.861
 1571SOL    HW2 5613   5.707   2.672   0.743
 1572SOL     OW 5614   0.343   0.452   1.696
 1572SOL    HW1 5615   0.262   0.416   1.650
 1572SOL    HW2 5616   0.422   0.443   1.635
 1573SOL     OW 5617   5.415   1.803   1.998
 1573SOL    HW1 5618   5.442   1.891   1.959
 1573SOL    HW2 5619   5.315   1.800   2.008
 1574SOL     OW 5620   6.279   1.370   1.942
 1574SOL    HW1 5621   6.198   1.325   1.980
 1574SOL    HW2 5622   6.282   1.465   1.971
 1575SOL     OW 5623   3.093   1.617   0.782
 1575SOL    HW1 5624   3.025   1.633   0.712
 1575SOL    HW2 5625   3.063   1.542   0.842
 1576SOL     OW 5626   6.386   6.807   4.262
 1576SOL    HW1 5627   6.313   6.859   4.305
 1576SOL    HW2 5628   6.424   6.743   4.329
 1577SOL     OW 5629   2.992   1.796   4.476
 1577SOL    HW1 5630   2.951   1.843   4.554
 1577SOL    HW2 5631   3.082   1.834   4.458
 1578SOL     OW 5632   6.357   3.644   5.608
 1578SOL    HW1 5633   6.441   3.696   5.590
 1578SOL    HW2 5634   6.380   3.550   5.631
 1579SOL     OW 5635   0.022   1.313   3.375
 1579SOL    HW1 5636   0.060   1.384   3.435
 1579SOL    HW2 5637   6.957   1.285   3.409
 1580SOL     OW 5638   2.826   3.745   5.262
 1580SOL    HW1 5639   2.868   3.779   5.177
 1580SOL    HW2 5640   2.735   3.784   5.272
 1581SOL     OW 5641   0.273   4.587   4.747
 1581SOL    HW1 5642   0.236   4.497   4.723
 1581SOL    HW2 5643   0.231   4.619   4.831
 1582SOL     OW 5644   1.507   6.752   4.439
 1582SOL    HW1 5645   1.506   6.654   4.460
 1582SOL    HW2 5646   1.590   6.774   4.387
 1583SOL     OW 5647   1.101   3.093   4.397
 1583SOL    HW1 5648   1.029   3.057   4.338
 1583SOL    HW2 5649   1.096   3.193   4.398
 1584SOL     OW 5650   1.571   6.663   4.878
 1584SOL    HW1 5651   1.647   6.728   4.875
 1584SOL    HW2 5652   1.488   6.708   4.844
 1585SOL     OW 5653   6.081   1.671   3.431
 1585SOL    HW1 5654   6.049   1.680   3.337
 1585SOL    HW2 5655   6.177   1.644   3.431
 1586SOL     OW 5656   3.701   4.051   1.636
 1586SOL    HW1 5657   3.758   4.076   1.557
 1586SOL    HW2 5658   3.759   4.020   1.711
 1587SOL     OW 5659   3.029   4.811   0.001
 1587SOL    HW1 5660   2.959   4.747   6.993
 1587SOL    HW2 5661   3.069   4.776   0.086
 1588SOL     OW 5662   4.395   1.639   3.127
 1588SOL    HW1 5663   4.374   1.544   3.150
 1588SOL    HW2 5664   4.487   1.644   3.086
 1589SOL     OW 5665   5.768   4.018   3.359
 1589SOL    HW1 5666   5.793   4.112   3.334
 1589SOL    HW2 5667   5.781   3.958   3.279
 1590SOL     OW 5668   2.217   6.796   5.665
 1590SOL    HW1 5669   2.133   6.830   5.707
 1590SOL    HW2 5670   2.296   6.834   5.713
 1591SOL     OW 5671   1.318   5.076   3.077
 1591SOL    HW1 5672   1.315   5.129   3.161
 1591SOL    HW2 5673   1.242   5.012   3.074
 1592SOL     OW 5674   2.319   4.442   1.496
 1592SOL    HW1 5675   2.404   4.400   1.527
 1592SOL    HW2 5676   2.255   4.448   1.572
 1593SOL     OW 5677   0.945   6.336   3.321
 1593SOL    HW1 5678   0.888   6.355   3.401
 1593SOL    HW2 5679   1.006   6.413   3.304
 1594SOL     OW 5680   0.419   4.989   2.962
 1594SOL    HW1 5681   0.355   5.055   2.923
 1594SOL    HW2 5682   0.512   5.010   2.932
 1595SOL     OW 5683   0.496   4.984   6.198
 1595SOL    HW1 5684   0.596   4.978   6.192
 1595SOL    HW2 5685   0.470   5.079   6.216
 1596SOL     OW 5686   1.214   3.329   5.715
 1596SOL    HW1 5687   1.301   3.371   5.687
 1596SOL    HW2 5688   1.145   3.347   5.646
 1597SOL     OW 5689   3.010   5.406   0.822
 1597SOL    HW1 5690   3.077   5.478   0.808
 1597SOL    HW2 5691   3.056   5.319   0.840
 1598SOL     OW 5692   0.663   4.215   0.302
 1598SOL    HW1 5693   0.590   4.283   0.308
 1598SOL    HW2 5694   0.737   4.241   0.364
 1599SOL     OW 5695   4.644   3.607   5.861
 1599SOL    HW1 5696   4.732   3.559   5.854
 1599SOL    HW2 5697   4.574   3.543   5.891
 1600SOL     OW 5698   5.321   2.065   4.865
 1600SOL    HW1 5699   5.396   2.067   4.932
 1600SOL    HW2 5700   5.235   2.047   4.913
 1601SOL     OW 5701   0.672   5.179   4.744
 1601SOL    HW1 5702   0.749   5.149   4.688
 1601SOL    HW2 5703   0.594   5.119   4.728
 1602SOL     OW 5704   2.162   5.729   4.477
 1602SOL    HW1 5705   2.089   5.662   4.468
 1602SOL    HW2 5706   2.248   5.689   4.444
 1603SOL     OW 5707   0.972   6.173   1.673
 1603SOL    HW1 5708   0.971   6.088   1.725
 1603SOL    HW2 5709   0.892   6.228   1.699
 1604SOL     OW 5710   5.815   4.885   6.620
 1604SOL    HW1 5711   5.786   4.854   6.710
 1604SOL    HW2 5712   5.860   4.810   6.571
 1605SOL     OW 5713   6.439   6.991   1.850
 1605SOL    HW1 5714   6.421   7.022   1.756
 1605SOL    HW2 5715   6.535   6.961   1.857
 1606SOL     OW 5716   4.663   0.700   5.283
 1606SOL    HW1 5717   4.609   0.717   5.365
 1606SOL    HW2 5718   4.697   0.787   5.246
 1607SOL     OW 5719   4.926   2.637   0.918
 1607SOL    HW1 5720   4.829   2.660   0.917
 1607SOL    HW2 5721   4.978   2.711   0.959
 1608SOL     OW 5722   1.439   0.086   5.686
 1608SOL    HW1 5723   1.346   0.116   5.709
 1608SOL    HW2 5724   1.505   0.154   5.717
 1609SOL     OW 5725   4.717   1.282   6.548
 1609SOL    HW1 5726   4.637   1.323   6.593
 1609SOL    HW2 5727   4.789   1.350   6.540
 1610SOL     OW 5728   5.629   4.091   5.606
 1610SOL    HW1 5729   5.648   4.030   5.530
 1610SOL    HW2 5730   5.714   4.111   5.655
 1611SOL     OW 5731   3.774   3.619   1.985
 1611SOL    HW1 5732   3.774   3.546   1.916
 1611SOL    HW2 5733   3.711   3.691   1.958
 1612SOL     OW 5734   2.869   0.849   5.517
 1612SOL    HW1 5735   2.803   0.782   5.550
 1612SOL    HW2 5736   2.933   0.804   5.453
 1613SOL     OW 5737   2.102   5.903   0.790
 1613SOL    HW1 5738   2.050   5.945   0.864
 1613SOL    HW2 5739   2.046   5.836   0.742
 1614SOL     OW 5740   6.666   4.391   0.468
 1614SOL    HW1 5741   6.603   4.398   0.391
 1614SOL    HW2 5742   6.622   4.425   0.551
 1615SOL     OW 5743   6.337   4.763   1.359
 1615SOL    HW1 5744   6.416   4.742   1.416
 1615SOL    HW2 5745   6.357   4.843   1.302
 1616SOL     OW 5746   4.587   2.159   5.841
 1616SOL    HW1 5747   4.629   2.071   5.817
 1616SOL    HW2 5748   4.490   2.145   5.858
 1617SOL     OW 5749   5.831   6.937   1.302
 1617SOL    HW1 5750   5.753   6.943   1.365
 1617SOL    HW2 5751   5.871   6.845   1.306
 1618SOL     OW 5752   0.680   3.610   1.347
 1618SOL    HW1 5753   0.587   3.622   1.312
 1618SOL    HW2 5754   0.738   3.683   1.312
 1619SOL     OW 5755   1.620   2.823   4.394
 1619SOL    HW1 5756   1.672   2.908   4.400
 1619SOL    HW2 5757   1.681   2.745   4.405
 1620SOL     OW 5758   1.833   5.750   0.996
 1620SOL    HW1 5759   1.838   5.772   1.094
 1620SOL    HW2 5760   1.778   5.820   0.949
 1621SOL     OW 5761   0.576   0.928   0.309
 1621SOL    HW1 5762   0.476   0.927   0.303
 1621SOL    HW2 5763   0.615   0.913   0.218
 1622SOL     OW 5764   1.678   1.982   4.680
 1622SOL    HW1 5765   1.691   2.020   4.771
 1622SOL    HW2 5766   1.716   2.045   4.612
 1623SOL     OW 5767   2.603   2.751   5.999
 1623SOL    HW1 5768   2.674   2.694   5.958
 1623SOL    HW2 5769   2.513   2.713   5.976
 1624SOL     OW 5770   2.722   0.809   5.879
 1624SOL    HW1 5771   2.759   0.766   5.797
 1624SOL    HW2 5772   2.744   0.907   5.879
 1625SOL     OW 5773   1.027   5.161   2.288
 1625SOL    HW1 5774   1.091   5.232   2.318
 1625SOL    HW2 5775   1.078   5.087   2.245
 1626SOL     OW 5776   2.258   1.602   6.773
 1626SOL    HW1 5777   2.315   1.549   6.710
 1626SOL    HW2 5778   2.307   1.612   6.860
 1627SOL     OW 5779   6.841   2.359   4.684
 1627SOL    HW1 5780   6.782   2.279   4.697
 1627SOL    HW2 5781   6.829   2.395   4.592
 1628SOL     OW 5782   4.387   4.896   6.554
 1628SOL    HW1 5783   4.369   4.903   6.652
 1628SOL    HW2 5784   4.301   4.874   6.507
 1629SOL     OW 5785   2.797   2.261   3.989
 1629SOL    HW1 5786   2.863   2.254   4.064
 1629SOL    HW2 5787   2.722   2.197   4.004
 1630SOL     OW 5788   0.389   6.053   6.036
 1630SOL    HW1 5789   0.466   6.112   6.059
 1630SOL    HW2 5790   0.367   6.062   5.939
 1631SOL     OW 5791   6.577   0.738   6.126
 1631SOL    HW1 5792   6.646   0.708   6.059
 1631SOL    HW2 5793   6.605   0.707   6.217
 1632SOL     OW 5794   0.132   1.199   6.968
 1632SOL    HW1 5795   0.185   1.260   0.003
 1632SOL    HW2 5796   0.035   1.215   6.982
 1633SOL     OW 5797   5.304   2.462   3.216
 1633SOL    HW1 5798   5.268   2.386   3.270
 1633SOL    HW2 5799   5.252   2.545   3.236
 1634SOL     OW 5800   4.485   5.667   5.221
 1634SOL    HW1 5801   4.571   5.617   5.211
 1634SOL    HW2 5802   4.498   5.760   5.186
 1635SOL     OW 5803   6.493   5.541   4.575
 1635SOL    HW1 5804   6.529   5.448   4.582
 1635SOL    HW2 5805   6.430   5.558   4.651
 1636SOL     OW 5806   2.135   4.483   1.232
 1636SOL    HW1 5807   2.049   4.523   1.262
 1636SOL    HW2 5808   2.211   4.527   1.280
 1637SOL     OW 5809   6.626   1.457   2.884
 1637SOL    HW1 5810   6.652   1.553   2.885
 1637SOL    HW2 5811   6.581   1.435   2.798
 1638SOL     OW 5812   1.049   3.644   3.969
 1638SOL    HW1 5813   1.102   3.662   3.887
 1638SOL    HW2 5814   1.094   3.574   4.024
 1639SOL     OW 5815   4.834   6.464   2.557
 1639SOL    HW1 5816   4.866   6.435   2.467
 1639SOL    HW2 5817   4.829   6.563   2.561
 1640SOL     OW 5818   5.962   1.862   0.511
 1640SOL    HW1 5819   5.932   1.920   0.435
 1640SOL    HW2 5820   6.000   1.919   0.583
 1641SOL     OW 5821   5.960   2.677   3.588
 1641SOL    HW1 5822   5.897   2.623   3.644
 1641SOL    HW2 5823   5.929   2.678   3.494
 1642SOL     OW 5824   6.746   3.246   0.387
 1642SOL    HW1 5825   6.805   3.327   0.389
 1642SOL    HW2 5826   6.721   3.226   0.292
 1643SOL     OW 5827   2.931   6.126   4.224
 1643SOL    HW1 5828   2.880   6.211   4.208
 1643SOL    HW2 5829   3.004   6.117   4.156
 1644SOL     OW 5830   2.008   2.490   0.967
 1644SOL    HW1 5831   2.003   2.486   1.066
 1644SOL    HW2 5832   2.093   2.448   0.936
 1645SOL     OW 5833   3.113   6.308   5.231
 1645SOL    HW1 5834   3.176   6.257   5.173
 1645SOL    HW2 5835   3.026   6.319   5.182
 1646SOL     OW 5836   2.580   5.010   1.221
 1646SOL    HW1 5837   2.582   5.108   1.199
 1646SOL    HW2 5838   2.633   4.960   1.154
 1647SOL     OW 5839   5.552   2.647   4.420
 1647SOL    HW1 5840   5.581   2.651   4.516
 1647SOL    HW2 5841   5.523   2.554   4.398
 1648SOL     OW 5842   5.910   6.471   1.911
 1648SOL    HW1 5843   6.004   6.456   1.940
 1648SOL    HW2 5844   5.855   6.391   1.935
 1649SOL     OW 5845   3.263   0.461   3.198
 1649SOL    HW1 5846   3.316   0.479   3.115
 1649SOL    HW2 5847   3.221   0.545   3.231
 1650SOL     OW 5848   3.030   6.752   4.106
 1650SOL    HW1 5849   2.964   6.693   4.154
 1650SOL    HW2 5850   3.101   6.781   4.170
 1651SOL     OW 5851   0.534   0.634   1.150
 1651SOL    HW1 5852   0.611   0.613   1.210
 1651SOL    HW2 5853   0.500   0.726   1.169
 1652SOL     OW 5854   1.703   2.154   1.697
 1652SOL    HW1 5855   1.780   2.115   1.647
 1652SOL    HW2 5856   1.619   2.142   1.644
 1653SOL     OW 5857   0.818   5.839   1.355
 1653SOL    HW1 5858   0.741   5.859   1.295
 1653SOL    HW2 5859   0.888   5.910   1.344
 1654SOL     OW 5860   0.101   3.284   1.651
 1654SOL    HW1 5861   0.101   3.376   1.689
 1654SOL    HW2 5862   0.193   3.246   1.659
 1655SOL     OW 5863   5.293   3.816   6.072
 1655SOL    HW1 5864   5.375   3.759   6.076
 1655SOL    HW2 5865   5.315   3.904   6.030
 1656SOL     OW 5866   1.818   4.191   3.297
 1656SOL    HW1 5867   1.730   4.208   3.341
 1656SOL    HW2 5868   1.868   4.278   3.289
 1657SOL     OW 5869   0.055   1.274   4.718
 1657SOL    HW1 5870   0.153   1.293   4.720
 1657SOL    HW2 5871   0.006   1.350   4.761
 1658SOL     OW 5872   6.945   0.204   2.800
 1658SOL    HW1 5873   6.976   0.160   2.884
 1658SOL    HW2 5874   6.849   0.231   2.811
 1659SOL     OW 5875   3.940   2.023   6.270
 1659SOL    HW1 5876   4.033   2.055   6.248
 1659SOL    HW2 5877   3.920   1.941   6.217
 1660SOL     OW 5878   0.782   5.319   3.908
 1660SOL    HW1 5879   0.868   5.360   3.939
 1660SOL    HW2 5880   0.801   5.234   3.860
 1661SOL     OW 5881   3.429   1.807   1.895
 1661SOL    HW1 5882   3.528   1.801   1.889
 1661SOL    HW2 5883   3.393   1.855   1.815
 1662SOL     OW 5884   6.104   1.178   3.771
 1662SOL    HW1 5885   6.184   1.153   3.717
 1662SOL    HW2 5886   6.129   1.185   3.867
 1663SOL     OW 5887   2.387   0.780   3.043
 1663SOL    HW1 5888   2.315   0.818   2.985
 1663SOL    HW2 5889   2.426   0.853   3.098
 1664SOL     OW 5890   1.510   0.740   3.940
 1664SOL    HW1 5891   1.459   0.819   3.906
 1664SOL    HW2 5892   1.556   0.764   4.026
 1665SOL     OW 5893   0.099   1.747   3.291
 1665SOL    HW1 5894   0.020   1.703   3.250
 1665SOL    HW2 5895   0.126   1.697   3.374
 1666SOL     OW 5896   6.079   2.744   0.761
 1666SOL    HW1 5897   6.152   2.805   0.732
 1666SOL    HW2 5898   6.057   2.679   0.688
 1667SOL     OW 5899   5.230   6.408   0.440
 1667SOL    HW1 5900   5.146   6.422   0.492
 1667SOL    HW2 5901   5.298   6.476   0.468
 1668SOL     OW 5902   4.927   6.645   5.245
 1668SOL    HW1 5903   4.890   6.648   5.338
 1668SOL    HW2 5904   4.992   6.720   5.232
 1669SOL     OW 5905   5.906   6.747   0.390
 1669SOL    HW1 5906   5.983   6.778   0.446
 1669SOL    HW2 5907   5.852   6.681   0.442
 1670SOL     OW 5908   6.976   5.773   5.746
 1670SOL    HW1 5909   6.967   5.773   5.646
 1670SOL    HW2 5910   0.044   5.801   5.771
 1671SOL     OW 5911   4.024   2.357   1.113
 1671SOL    HW1 5912   3.967   2.303   1.175
 1671SOL    HW2 5913   4.094   2.405   1.166
 1672SOL     OW 5914   1.737   3.919   2.786
 1672SOL    HW1 5915   1.791   4.004   2.790
 1672SOL    HW2 5916   1.669   3.919   2.860
 1673SOL     OW 5917   0.717   2.385   4.590
 1673SOL    HW1 5918   0.714   2.335   4.677
 1673SOL    HW2 5919   0.656   2.341   4.525
 1674SOL     OW 5920   1.903   3.931   1.428
 1674SOL    HW1 5921   1.948   3.896   1.346
 1674SOL    HW2 5922   1.860   3.854   1.476
 1675SOL     OW 5923   4.118   0.020   6.515
 1675SOL    HW1 5924   4.043   0.071   6.473
 1675SOL    HW2 5925   4.175   7.004   6.444
 1676SOL     OW 5926   3.218   1.269   2.775
 1676SOL    HW1 5927   3.275   1.190   2.800
 1676SOL    HW2 5928   3.244   1.302   2.685
 1677SOL     OW 5929   4.718   2.328   5.432
 1677SOL    HW1 5930   4.742   2.389   5.358
 1677SOL    HW2 5931   4.726   2.233   5.402
 1678SOL     OW 5932   5.759   4.783   4.162
 1678SOL    HW1 5933   5.747   4.875   4.200
 1678SOL    HW2 5934   5.685   4.765   4.097
 1679SOL     OW 5935   1.920   3.555   5.314
 1679SOL    HW1 5936   1.913   3.503   5.400
 1679SOL    HW2 5937   2.010   3.541   5.274
 1680SOL     OW 5938   0.986   1.536   4.191
 1680SOL    HW1 5939   1.043   1.532   4.109
 1680SOL    HW2 5940   0.898   1.492   4.173
 1681SOL     OW 5941   6.819   5.803   1.198
 1681SOL    HW1 5942   6.727   5.801   1.160
 1681SOL    HW2 5943   6.880   5.850   1.134
 1682SOL     OW 5944   0.503   3.212   4.852
 1682SOL    HW1 5945   0.431   3.233   4.786
 1682SOL    HW2 5946   0.508   3.113   4.865
 1683SOL     OW 5947   4.102   5.128   0.877
 1683SOL    HW1 5948   4.022   5.159   0.930
 1683SOL    HW2 5949   4.132   5.039   0.912
 1684SOL     OW 5950   1.297   6.429   3.089
 1684SOL    HW1 5951   1.337   6.437   2.998
 1684SOL    HW2 5952   1.198   6.415   3.081
 1685SOL     OW 5953   1.837   1.271   6.854
 1685SOL    HW1 5954   1.891   1.340   6.805
 1685SOL    HW2 5955   1.822   1.192   6.794
 1686SOL     OW 5956   2.145   5.548   5.867
 1686SOL    HW1 5957   2.158   5.531   5.965
 1686SOL    HW2 5958   2.079   5.483   5.830
 1687SOL     OW 5959   1.917   3.037   1.655
 1687SOL    HW1 5960   1.846   3.047   1.725
 1687SOL    HW2 5961   1.992   2.983   1.692
 1688SOL     OW 5962   1.541   1.867   3.532
 1688SOL    HW1 5963   1.465   1.923   3.566
 1688SOL    HW2 5964   1.603   1.845   3.607
 1689SOL     OW 5965   3.352   1.062   1.944
 1689SOL    HW1 5966   3.364   0.988   2.010
 1689SOL    HW2 5967   3.268   1.112   1.965
 1690SOL     OW 5968   1.488   2.708   3.297
 1690SOL    HW1 5969   1.411   2.746   3.246
 1690SOL    HW2 5970   1.499   2.758   3.383
 1691SOL     OW 5971   5.129   3.898   3.221
 1691SOL    HW1 5972   5.198   3.856   3.162
 1691SOL    HW2 5973   5.112   3.992   3.191
 1692SOL     OW 5974   6.897   0.138   1.152
 1692SOL    HW1 5975   6.884   0.132   1.252
 1692SOL    HW2 5976   6.941   0.055   1.119
 1693SOL     OW 5977   1.735   2.851   3.007
 1693SOL    HW1 5978   1.673   2.895   3.072
 1693SOL    HW2 5979   1.830   2.863   3.038
 1694SOL     OW 5980   3.711   6.387   4.054
 1694SOL    HW1 5981   3.639   6.413   3.990
 1694SOL    HW2 5982   3.786   6.453   4.049
 1695SOL     OW 5983   2.704   1.290   4.596
 1695SOL    HW1 5984   2.792   1.305   4.549
 1695SOL    HW2 5985   2.651   1.374   4.596
 1696SOL     OW 5986   5.103   5.330   0.632
 1696SOL    HW1 5987   5.106   5.296   0.538
 1696SOL    HW2 5988   5.111   5.252   0.695
 1697SOL     OW 5989   0.253   6.751   1.254
 1697SOL    HW1 5990   0.198   6.791   1.328
 1697SOL    HW2 5991   0.270   6.655   1.273
 1698SOL     OW 5992   4.575   1.630   1.390
 1698SOL    HW1 5993   4.597   1.554   1.330
 1698SOL    HW2 5994   4.636   1.707   1.371
 1699SOL     OW 5995   2.909   1.723   2.002
 1699SOL    HW1 5996   2.975   1.797   1.997
 1699SOL    HW2 5997   2.954   1.641   2.040
 1700SOL     OW 5998   6.255   2.426   3.670
 1700SOL    HW1 5999   6.348   2.392   3.689
 1700SOL    HW2 6000   6.189   2.373   3.724
 1701SOL     OW 6001   5.283   2.972   4.760
 1701SOL    HW1 6002   5.339   3.043   4.717
 1701SOL    HW2 6003   5.251   2.909   4.689
 1702SOL     OW 6004   6.428   3.367   0.332
 1702SOL    HW1 6005   6.416   3.394   0.428
 1702SOL    HW2 6006   6.453   3.271   0.327
 1703SOL     OW 6007   3.338   3.928   2.985
 1703SOL    HW1 6008   3.344   3.853   3.051
 1703SOL    HW2 6009   3.262   3.912   2.922
 1704SOL     OW 6010   0.403   1.377   0.917
 1704SOL    HW1 6011   0.462   1.300   0.941
 1704SOL    HW2 6012   0.440   1.424   0.836
 1705SOL     OW 6013   3.292   2.048   2.032
 1705SOL    HW1 6014   3.305   2.117   1.960
 1705SOL    HW2 6015   3.380   2.025   2.072
 1706SOL     OW 6016   4.033   6.816   1.549
 1706SOL    HW1 6017   4.105   6.881   1.525
 1706SOL    HW2 6018   3.977   6.797   1.469
 1707SOL     OW 6019   4.245   1.666   2.227
 1707SOL    HW1 6020   4.300   1.639   2.306
 1707SOL    HW2 6021   4.163   1.609   2.222
 1708SOL     OW 6022   5.909   6.306   2.989
 1708SOL    HW1 6023   5.983   6.243   2.968
 1708SOL    HW2 6024   5.909   6.326   3.087
 1709SOL     OW 6025   2.721   6.312   2.005
 1709SOL    HW1 6026   2.765   6.285   1.919
 1709SOL    HW2 6027   2.622   6.307   1.995
 1710SOL     OW 6028   6.486   4.428   4.029
 1710SOL    HW1 6029   6.507   4.345   4.080
 1710SOL    HW2 6030   6.403   4.414   3.976
 1711SOL     OW 6031   1.679   4.356   5.232
 1711SOL    HW1 6032   1.603   4.419   5.214
 1711SOL    HW2 6033   1.666   4.314   5.322
 1712SOL     OW 6034   0.514   3.335   6.318
 1712SOL    HW1 6035   0.554   3.388   6.243
 1712SOL    HW2 6036   0.550   3.368   6.405
 1713SOL     OW 6037   2.844   2.026   1.289
 1713SOL    HW1 6038   2.888   1.955   1.344
 1713SOL    HW2 6039   2.881   2.115   1.313
 1714SOL     OW 6040   3.740   1.564   6.188
 1714SOL    HW1 6041   3.743   1.464   6.190
 1714SOL    HW2 6042   3.694   1.593   6.105
 1715SOL     OW 6043   6.678   3.564   2.924
 1715SOL    HW1 6044   6.645   3.655   2.897
 1715SOL    HW2 6045   6.651   3.497   2.854
 1716SOL     OW 6046   5.805   6.312   1.473
 1716SOL    HW1 6047   5.706   6.306   1.459
 1716SOL    HW2 6048   5.851   6.253   1.407
 1717SOL     OW 6049   2.456   6.491   6.384
 1717SOL    HW1 6050   2.544   6.514   6.343
 1717SOL    HW2 6051   2.383   6.511   6.318
 1718SOL     OW 6052   1.834   2.498   0.776
 1718SOL    HW1 6053   1.913   2.488   0.836
 1718SOL    HW2 6054   1.866   2.513   0.682
 1719SOL     OW 6055   2.616   3.974   1.646
 1719SOL    HW1 6056   2.536   4.005   1.697
 1719SOL    HW2 6057   2.662   4.053   1.605
 1720SOL     OW 6058   6.412   1.823   1.620
 1720SOL    HW1 6059   6.446   1.738   1.659
 1720SOL    HW2 6060   6.489   1.882   1.595
 1721SOL     OW 6061   1.492   6.886   2.126
 1721SOL    HW1 6062   1.588   6.903   2.144
 1721SOL    HW2 6063   1.479   6.789   2.106
 1722SOL     OW 6064   5.309   1.231   3.225
 1722SOL    HW1 6065   5.377   1.263   3.291
 1722SOL    HW2 6066   5.352   1.168   3.161
 1723SOL     OW 6067   6.582   2.228   3.507
 1723SOL    HW1 6068   6.542   2.236   3.416
 1723SOL    HW2 6069   6.622   2.137   3.519
 1724SOL     OW 6070   5.980   1.262   0.960
 1724SOL    HW1 6071   5.933   1.269   1.048
 1724SOL    HW2 6072   6.077   1.284   0.972
 1725SOL     OW 6073   3.283   4.332   0.299
 1725SOL    HW1 6074   3.217   4.387   0.350
 1725SOL    HW2 6075   3.247   4.311   0.208
 1726SOL     OW 6076   0.120   4.403   5.043
 1726SOL    HW1 6077   0.075   4.365   5.124
 1726SOL    HW2 6078   0.107   4.502   5.041
 1727SOL     OW 6079   3.635   3.064   3.970
 1727SOL    HW1 6080   3.600   3.157   3.986
 1727SOL    HW2 6081   3.613   3.006   4.048
 1728SOL     OW 6082   5.242   4.755   4.478
 1728SOL    HW1 6083   5.145   4.763   4.458
 1728SOL    HW2 6084   5.270   4.659   4.471
 1729SOL     OW 6085   2.218   3.870   3.781
 1729SOL    HW1 6086   2.148   3.824   3.836
 1729SOL    HW2 6087   2.301   3.814   3.780
 1730SOL     OW 6088   6.419   0.797   5.139
 1730SOL    HW1 6089   6.456   0.750   5.059
 1730SOL    HW2 6090   6.454   0.891   5.141
 1731SOL     OW 6091   0.835   5.134   2.482
 1731SOL    HW1 6092   0.746   5.113   2.442
 1731SOL    HW2 6093   0.900   5.158   2.409
 1732SOL     OW 6094   2.144   4.091   6.274
 1732SOL    HW1 6095   2.161   4.087   6.175
 1732SOL    HW2 6096   2.102   4.179   6.297
 1733SOL     OW 6097   1.467   3.366   2.190
 1733SOL    HW1 6098   1.484   3.400   2.097
 1733SOL    HW2 6099   1.469   3.442   2.254
 1734SOL     OW 6100   4.709   3.069   1.602
 1734SOL    HW1 6101   4.709   3.007   1.680
 1734SOL    HW2 6102   4.724   3.163   1.635
 1735SOL     OW 6103   5.935   5.674   1.447
 1735SOL    HW1 6104   5.982   5.710   1.366
 1735SOL    HW2 6105   5.886   5.749   1.492
 1736SOL     OW 6106   4.768   1.937   0.073
 1736SOL    HW1 6107   4.715   1.980   7.024
 1736SOL    HW2 6108   4.833   2.003   0.110
 1737SOL     OW 6109   2.879   0.352   4.077
 1737SOL    HW1 6110   2.789   0.330   4.116
 1737SOL    HW2 6111   2.879   0.448   4.048
 1738SOL     OW 6112   2.436   2.665   3.686
 1738SOL    HW1 6113   2.495   2.743   3.662
 1738SOL    HW2 6114   2.414   2.668   3.783
 1739SOL     OW 6115   4.810   2.542   5.262
 1739SOL    HW1 6116   4.745   2.617   5.249
 1739SOL    HW2 6117   4.837   2.505   5.174
 1740SOL     OW 6118   0.353   1.163   6.792
 1740SOL    HW1 6119   0.445   1.172   6.828
 1740SOL    HW2 6120   0.287   1.170   6.867
 1741SOL     OW 6121   2.443   1.203   2.549
 1741SOL    HW1 6122   2.429   1.121   2.606
 1741SOL    HW2 6123   2.539   1.208   2.522
 1742SOL     OW 6124   3.762   5.852   5.798
 1742SOL    HW1 6125   3.815   5.776   5.760
 1742SOL    HW2 6126   3.665   5.830   5.796
 1743SOL     OW 6127   2.200   1.353   2.488
 1743SOL    HW1 6128   2.257   1.290   2.541
 1743SOL    HW2 6129   2.256   1.430   2.456
 1744SOL     OW 6130   1.248   6.640   1.715
 1744SOL    HW1 6131   1.270   6.572   1.645
 1744SOL    HW2 6132   1.332   6.671   1.759
 1745SOL     OW 6133   6.786   1.293   4.892
 1745SOL    HW1 6134   6.802   1.199   4.863
 1745SOL    HW2 6135   6.873   1.337   4.913
 1746SOL     OW 6136   2.482   6.038   5.579
 1746SOL    HW1 6137   2.423   5.989   5.642
 1746SOL    HW2 6138   2.451   6.023   5.485
 1747SOL     OW 6139   4.858   6.731   2.674
 1747SOL    HW1 6140   4.958   6.727   2.681
 1747SOL    HW2 6141   4.832   6.781   2.591
 1748SOL     OW 6142   0.091   1.001   4.036
 1748SOL    HW1 6143   0.010   1.042   4.079
 1748SOL    HW2 6144   0.162   0.986   4.105
 1749SOL     OW 6145   3.520   6.534   5.369
 1749SOL    HW1 6146   3.532   6.486   5.282
 1749SOL    HW2 6147   3.521   6.633   5.353
 1750SOL     OW 6148   5.592   1.300   3.927
 1750SOL    HW1 6149   5.631   1.342   4.009
 1750SOL    HW2 6150   5.521   1.235   3.954
 1751SOL     OW 6151   3.047   5.221   4.447
 1751SOL    HW1 6152   3.065   5.124   4.464
 1751SOL    HW2 6153   2.966   5.250   4.497
 1752SOL     OW 6154   6.524   2.294   1.636
 1752SOL    HW1 6155   6.535   2.346   1.551
 1752SOL    HW2 6156   6.583   2.213   1.632
 1753SOL     OW 6157   0.723   1.258   0.347
 1753SOL    HW1 6158   0.781   1.197   0.400
 1753SOL    HW2 6159   0.631   1.260   0.387
 1754SOL     OW 6160   3.799   3.017   0.826
 1754SOL    HW1 6161   3.888   3.046   0.862
 1754SOL    HW2 6162   3.805   3.006   0.727
 1755SOL     OW 6163   5.560   5.054   2.121
 1755SOL    HW1 6164   5.503   5.129   2.155
 1755SOL    HW2 6165   5.637   5.091   2.070
 1756SOL     OW 6166   4.968   4.410   5.620
 1756SOL    HW1 6167   5.054   4.439   5.662
 1756SOL    HW2 6168   4.895   4.415   5.688
 1757SOL     OW 6169   2.454   6.475   4.585
 1757SOL    HW1 6170   2.440   6.520   4.497
 1757SOL    HW2 6171   2.472   6.545   4.655
 1758SOL     OW 6172   2.829   0.534   3.684
 1758SOL    HW1 6173   2.811   0.610   3.622
 1758SOL    HW2 6174   2.746   0.478   3.693
 1759SOL     OW 6175   0.814   5.553   6.395
 1759SOL    HW1 6176   0.776   5.472   6.351
 1759SOL    HW2 6177   0.753   5.631   6.378
 1760SOL     OW 6178   6.141   1.437   1.357
 1760SOL    HW1 6179   6.145   1.385   1.442
 1760SOL    HW2 6180   6.150   1.534   1.377
 1761SOL     OW 6181   6.807   6.913   0.602
 1761SOL    HW1 6182   6.767   7.004   0.590
 1761SOL    HW2 6183   6.861   6.911   0.686
 1762SOL     OW 6184   6.667   1.746   5.044
 1762SOL    HW1 6185   6.752   1.784   5.008
 1762SOL    HW2 6186   6.604   1.729   4.968
 1763SOL     OW 6187   1.606   3.545   4.523
 1763SOL    HW1 6188   1.584   3.624   4.465
 1763SOL    HW2 6189   1.685   3.566   4.580
 1764SOL     OW 6190   1.706   3.571   2.769
 1764SOL    HW1 6191   1.628   3.605   2.821
 1764SOL    HW2 6192   1.690   3.587   2.671
 1765SOL     OW 6193   3.499   2.284   6.652
 1765SOL    HW1 6194   3.529   2.360   6.594
 1765SOL    HW2 6195   3.532   2.198   6.615
 1766SOL     OW 6196   5.078   2.983   4.071
 1766SOL    HW1 6197   5.090   2.995   4.170
 1766SOL    HW2 6198   5.166   2.959   4.031
 1767SOL     OW 6199   5.409   4.212   2.837
 1767SOL    HW1 6200   5.320   4.246   2.808
 1767SOL    HW2 6201   5.398   4.133   2.896
 1768SOL     OW 6202   4.068   0.614   5.020
 1768SOL    HW1 6203   4.050   0.670   4.939
 1768SOL    HW2 6204   4.049   0.668   5.102
 1769SOL     OW 6205   4.158   2.154   4.107
 1769SOL    HW1 6206   4.163   2.172   4.009
 1769SOL    HW2 6207   4.211   2.222   4.157
 1770SOL     OW 6208   1.648   5.765   4.969
 1770SOL    HW1 6209   1.728   5.825   4.964
 1770SOL    HW2 6210   1.569   5.817   5.002
 1771SOL     OW 6211   3.043   5.477   6.691
 1771SOL    HW1 6212   2.977   5.538   6.646
 1771SOL    HW2 6213   3.124   5.530   6.717
 1772SOL     OW 6214   3.548   6.311   3.632
 1772SOL    HW1 6215   3.462   6.260   3.635
 1772SOL    HW2 6216   3.546   6.384   3.700
 1773SOL     OW 6217   2.073   4.977   5.740
 1773SOL    HW1 6218   2.134   4.904   5.707
 1773SOL    HW2 6219   2.039   5.030   5.663
 1774SOL     OW 6220   4.666   5.980   1.706
 1774SOL    HW1 6221   4.706   6.064   1.742
 1774SOL    HW2 6222   4.739   5.914   1.686
 1775SOL     OW 6223   1.785   4.108   3.725
 1775SOL    HW1 6224   1.691   4.132   3.702
 1775SOL    HW2 6225   1.836   4.090   3.641
 1776SOL     OW 6226   3.183   6.916   3.762
 1776SOL    HW1 6227   3.162   7.013   3.771
 1776SOL    HW2 6228   3.197   6.894   3.665
 1777SOL     OW 6229   3.481   5.501   5.976
 1777SOL    HW1 6230   3.553   5.453   5.925
 1777SOL    HW2 6231   3.523   5.549   6.053
 1778SOL     OW 6232   4.286   3.466   5.421
 1778SOL    HW1 6233   4.226   3.512   5.356
 1778SOL    HW2 6234   4.342   3.534   5.469
 1779SOL     OW 6235   4.279   1.028   4.394
 1779SOL    HW1 6236   4.250   0.974   4.473
 1779SOL    HW2 6237   4.371   1.001   4.367
 1780SOL     OW 6238   3.209   2.911   6.845
 1780SOL    HW1 6239   3.293   2.964   6.856
 1780SOL    HW2 6240   3.159   2.944   6.766
 1781SOL     OW 6241   4.722   5.842   4.105
 1781SOL    HW1 6242   4.703   5.749   4.074
 1781SOL    HW2 6243   4.774   5.890   4.034
 1782SOL     OW 6244   3.023   1.880   2.559
 1782SOL    HW1 6245   3.032   1.979   2.558
 1782SOL    HW2 6246   2.954   1.854   2.627
 1783SOL     OW 6247   1.772   5.090   6.306
 1783SOL    HW1 6248   1.764   5.078   6.404
 1783SOL    HW2 6249   1.754   5.003   6.260
 1784SOL     OW 6250   4.009   1.351   6.023
 1784SOL    HW1 6251   4.014   1.419   5.950
 1784SOL    HW2 6252   3.928   1.294   6.010
 1785SOL     OW 6253   6.243   4.395   3.155
 1785SOL    HW1 6254   6.325   4.389   3.212
 1785SOL    HW2 6255   6.198   4.306   3.151
 1786SOL     OW 6256   1.862   2.531   0.072
 1786SOL    HW1 6257   1.808   2.571   7.022
 1786SOL    HW2 6258   1.959   2.543   0.053
 1787SOL     OW 6259   3.322   1.002   5.218
 1787SOL    HW1 6260   3.239   1.054   5.198
 1787SOL    HW2 6261   3.384   1.058   5.274
 1788SOL     OW 6262   3.015   2.834   0.322
 1788SOL    HW1 6263   2.938   2.895   0.302
 1788SOL    HW2 6264   3.046   2.791   0.238
 1789SOL     OW 6265   6.189   2.008   3.100
 1789SOL    HW1 6266   6.095   2.035   3.120
 1789SOL    HW2 6267   6.242   2.009   3.185
 1790SOL     OW 6268   4.010   5.931   4.098
 1790SOL    HW1 6269   3.954   6.011   4.074
 1790SOL    HW2 6270   4.106   5.951   4.079
 1791SOL     OW 6271   5.667   1.054   3.205
 1791SOL    HW1 6272   5.751   1.058   3.152
 1791SOL    HW2 6273   5.687   1.069   3.302
 1792SOL     OW 6274   6.810   3.131   4.844
 1792SOL    HW1 6275   6.815   3.126   4.744
 1792SOL    HW2 6276   6.902   3.125   4.882
 1793SOL     OW 6277   6.576   7.013   3.233
 1793SOL    HW1 6278   6.536   6.963   3.310
 1793SOL    HW2 6279   6.505   0.005   3.164
 1794SOL     OW 6280   5.436   5.902   5.798
 1794SOL    HW1 6281   5.399   5.948   5.879
 1794SOL    HW2 6282   5.386   5.931   5.717
 1795SOL     OW 6283   1.232   2.361   0.556
 1795SOL    HW1 6284   1.281   2.319   0.480
 1795SOL    HW2 6285   1.162   2.423   0.521
 1796SOL     OW 6286   2.331   0.534   4.299
 1796SOL    HW1 6287   2.410   0.596   4.296
 1796SOL    HW2 6288   2.255   0.573   4.248
 1797SOL     OW 6289   1.461   6.697   0.202
 1797SOL    HW1 6290   1.421   6.667   0.288
 1797SOL    HW2 6291   1.405   6.664   0.126
 1798SOL     OW 6292   5.391   2.450   3.742
 1798SOL    HW1 6293   5.437   2.538   3.750
 1798SOL    HW2 6294   5.318   2.444   3.811
 1799SOL     OW 6295   6.857   1.997   6.043
 1799SOL    HW1 6296   6.835   1.985   5.946
 1799SOL    HW2 6297   6.954   1.979   6.059
 1800SOL     OW 6298   3.861   4.871   1.907
 1800SOL    HW1 6299   3.941   4.813   1.925
 1800SOL    HW2 6300   3.786   4.844   1.968
 1801SOL     OW 6301   0.345   0.415   1.958
 1801SOL    HW1 6302   0.341   0.415   1.858
 1801SOL    HW2 6303   0.325   0.506   1.992
 1802SOL     OW 6304   5.528   5.262   3.332
 1802SOL    HW1 6305   5.482   5.271   3.244
 1802SOL    HW2 6306   5.537   5.352   3.374
 1803SOL     OW 6307   0.718   5.840   6.735
 1803SOL    HW1 6308   0.673   5.767   6.684
 1803SOL    HW2 6309   0.804   5.806   6.773
 1804SOL     OW 6310   2.570   3.885   5.364
 1804SOL    HW1 6311   2.542   3.913   5.456
 1804SOL    HW2 6312   2.531   3.948   5.297
 1805SOL     OW 6313   6.065   3.948   5.646
 1805SOL    HW1 6314   6.070   4.007   5.565
 1805SOL    HW2 6315   6.077   3.853   5.618
 1806SOL     OW 6316   0.228   0.678   0.453
 1806SOL    HW1 6317   0.252   0.596   0.401
 1806SOL    HW2 6318   0.134   0.705   0.430
 1807SOL     OW 6319   5.471   2.705   5.218
 1807SOL    HW1 6320   5.379   2.669   5.205
 1807SOL    HW2 6321   5.478   2.796   5.176
 1808SOL     OW 6322   0.368   4.454   6.297
 1808SOL    HW1 6323   0.311   4.387   6.345
 1808SOL    HW2 6324   0.454   4.411   6.270
 1809SOL     OW 6325   2.300   2.169   4.769
 1809SOL    HW1 6326   2.303   2.260   4.809
 1809SOL    HW2 6327   2.204   2.139   4.762
 1810SOL     OW 6328   2.996   6.939   3.180
 1810SOL    HW1 6329   3.017   0.012   3.184
 1810SOL    HW2 6330   2.903   6.923   3.212
 1811SOL     OW 6331   6.010   5.810   3.427
 1811SOL    HW1 6332   5.913   5.833   3.434
 1811SOL    HW2 6333   6.061   5.856   3.501
 1812SOL     OW 6334   4.496   6.470   5.198
 1812SOL    HW1 6335   4.525   6.538   5.266
 1812SOL    HW2 6336   4.560   6.471   5.121
 1813SOL     OW 6337   6.505   5.186   1.330
 1813SOL    HW1 6338   6.600   5.211   1.347
 1813SOL    HW2 6339   6.453   5.192   1.415
 1814SOL     OW 6340   6.168   0.924   1.024
 1814SOL    HW1 6341   6.177   0.886   1.116
 1814SOL    HW2 6342   6.223   1.008   1.017
 1815SOL     OW 6343   6.943   2.040   2.765
 1815SOL    HW1 6344   6.952   2.035   2.666
 1815SOL    HW2 6345   0.001   2.081   2.804
 1816SOL     OW 6346   3.104   3.010   0.905
 1816SOL    HW1 6347   3.154   2.944   0.848
 1816SOL    HW2 6348   3.073   3.086   0.849
 1817SOL     OW 6349   3.189   7.007   2.494
 1817SOL    HW1 6350   3.220   6.986   2.586
 1817SOL    HW2 6351   3.166   6.923   2.446
 1818SOL     OW 6352   1.931   7.012   2.547
 1818SOL    HW1 6353   2.003   0.022   2.607
 1818SOL    HW2 6354   1.908   6.918   2.572
 1819SOL     OW 6355   1.416   4.686   1.405
 1819SOL    HW1 6356   1.419   4.606   1.465
 1819SOL    HW2 6357   1.499   4.688   1.350
 1820SOL     OW 6358   4.592   1.112   2.458
 1820SOL    HW1 6359   4.561   1.176   2.528
 1820SOL    HW2 6360   4.666   1.055   2.496
 1821SOL     OW 6361   0.728   1.073   2.236
 1821SOL    HW1 6362   0.765   1.122   2.157
 1821SOL    HW2 6363   0.793   1.077   2.312
 1822SOL     OW 6364   2.557   3.248   0.810
 1822SOL    HW1 6365   2.632   3.250   0.745
 1822SOL    HW2 6366   2.478   3.296   0.772
 1823SOL     OW 6367   3.056   5.956   2.900
 1823SOL    HW1 6368   3.075   6.051   2.875
 1823SOL    HW2 6369   3.100   5.895   2.834
 1824SOL     OW 6370   3.151   2.463   0.824
 1824SOL    HW1 6371   3.234   2.517   0.837
 1824SOL    HW2 6372   3.158   2.412   0.738
 1825SOL     OW 6373   1.486   1.396   2.990
 1825SOL    HW1 6374   1.545   1.322   3.024
 1825SOL    HW2 6375   1.542   1.477   2.971
 1826SOL     OW 6376   3.173   0.519   1.173
 1826SOL    HW1 6377   3.240   0.549   1.105
 1826SOL    HW2 6378   3.219   0.506   1.261
 1827SOL     OW 6379   0.263   5.680   2.528
 1827SOL    HW1 6380   0.307   5.728   2.605
 1827SOL    HW2 6381   0.329   5.619   2.485
 1828SOL     OW 6382   0.744   2.594   0.336
 1828SOL    HW1 6383   0.702   2.594   0.246
 1828SOL    HW2 6384   0.769   2.687   0.361
 1829SOL     OW 6385   3.956   0.286   3.651
 1829SOL    HW1 6386   3.864   0.291   3.612
 1829SOL    HW2 6387   4.019   0.337   3.592
 1830SOL     OW 6388   5.550   5.894   4.443
 1830SOL    HW1 6389   5.549   5.830   4.367
 1830SOL    HW2 6390   5.458   5.930   4.458
 1831SOL     OW 6391   5.752   0.490   2.888
 1831SOL    HW1 6392   5.698   0.558   2.838
 1831SOL    HW2 6393   5.716   0.481   2.980
 1832SOL     OW 6394   5.445   1.710   0.807
 1832SOL    HW1 6395   5.415   1.805   0.801
 1832SOL    HW2 6396   5.524   1.704   0.869
 1833SOL     OW 6397   5.587   1.014   4.877
 1833SOL    HW1 6398   5.555   1.072   4.952
 1833SOL    HW2 6399   5.558   0.920   4.893
 1834SOL     OW 6400   2.517   3.687   0.491
 1834SOL    HW1 6401   2.536   3.687   0.589
 1834SOL    HW2 6402   2.477   3.599   0.465
 1835SOL     OW 6403   1.449   4.457   1.568
 1835SOL    HW1 6404   1.487   4.430   1.657
 1835SOL    HW2 6405   1.436   4.376   1.511
 1836SOL     OW 6406   5.730   1.746   0.617
 1836SOL    HW1 6407   5.821   1.759   0.579
 1836SOL    HW2 6408   5.696   1.834   0.653
 1837SOL     OW 6409   0.938   2.393   3.901
 1837SOL    HW1 6410   1.000   2.343   3.961
 1837SOL    HW2 6411   0.986   2.417   3.817
 1838SOL     OW 6412   6.796   2.068   3.961
 1838SOL    HW1 6413   6.881   2.119   3.947
 1838SOL    HW2 6414   6.810   1.999   4.032
 1839SOL     OW 6415   4.426   2.468   5.218
 1839SOL    HW1 6416   4.483   2.389   5.241
 1839SOL    HW2 6417   4.346   2.438   5.167
 1840SOL     OW 6418   3.597   5.765   1.028
 1840SOL    HW1 6419   3.672   5.698   1.028
 1840SOL    HW2 6420   3.528   5.738   1.094
 1841SOL     OW 6421   2.252   2.847   4.404
 1841SOL    HW1 6422   2.264   2.909   4.481
 1841SOL    HW2 6423   2.156   2.845   4.378
 1842SOL     OW 6424   0.999   5.602   0.425
 1842SOL    HW1 6425   0.940   5.664   0.374
 1842SOL    HW2 6426   1.094   5.633   0.417
 1843SOL     OW 6427   0.581   1.985   4.372
 1843SOL    HW1 6428   0.642   2.018   4.300
 1843SOL    HW2 6429   0.588   2.045   4.452
 1844SOL     OW 6430   3.378   0.575   5.249
 1844SOL    HW1 6431   3.341   0.547   5.161
 1844SOL    HW2 6432   3.448   0.510   5.278
 1845SOL     OW 6433   2.372   6.890   5.239
 1845SOL    HW1 6434   2.357   6.959   5.310
 1845SOL    HW2 6435   2.469   6.864   5.238
 1846SOL     OW 6436   3.739   2.144   0.352
 1846SOL    HW1 6437   3.789   2.066   0.388
 1846SOL    HW2 6438   3.799   2.224   0.351
 1847SOL     OW 6439   1.474   1.014   6.873
 1847SOL    HW1 6440   1.515   1.011   6.964
 1847SOL    HW2 6441   1.483   1.106   6.835
 1848SOL     OW 6442   1.414   6.956   1.864
 1848SOL    HW1 6443   1.442   6.925   1.956
 1848SOL    HW2 6444   1.413   6.877   1.802
 1849SOL     OW 6445   3.755   1.766   0.829
 1849SOL    HW1 6446   3.703   1.804   0.753
 1849SOL    HW2 6447   3.793   1.841   0.884
 1850SOL     OW 6448   6.644   3.079   2.472
 1850SOL    HW1 6449   6.676   3.173   2.460
 1850SOL    HW2 6450   6.700   3.033   2.540
 1851SOL     OW 6451   0.532   1.599   1.437
 1851SOL    HW1 6452   0.459   1.543   1.398
 1851SOL    HW2 6453   0.593   1.630   1.364
 1852SOL     OW 6454   5.703   3.938   1.075
 1852SOL    HW1 6455   5.735   3.854   1.118
 1852SOL    HW2 6456   5.781   3.987   1.035
 1853SOL     OW 6457   0.711   3.011   2.550
 1853SOL    HW1 6458   0.723   2.913   2.557
 1853SOL    HW2 6459   0.623   3.031   2.506
 1854SOL     OW 6460   2.890   5.877   3.092
 1854SOL    HW1 6461   2.934   5.878   3.002
 1854SOL    HW2 6462   2.808   5.819   3.088
 1855SOL     OW 6463   4.568   4.030   6.910
 1855SOL    HW1 6464   4.548   3.935   6.885
 1855SOL    HW2 6465   4.503   4.061   6.979
 1856SOL     OW 6466   6.432   3.788   5.103
 1856SOL    HW1 6467   6.414   3.886   5.099
 1856SOL    HW2 6468   6.484   3.767   5.186
 1857SOL     OW 6469   3.267   0.821   6.163
 1857SOL    HW1 6470   3.250   0.919   6.154
 1857SOL    HW2 6471   3.258   0.777   6.074
 1858SOL     OW 6472   6.033   2.639   3.931
 1858SOL    HW1 6473   6.081   2.586   4.001
 1858SOL    HW2 6474   6.099   2.675   3.865
 1859SOL     OW 6475   4.291   1.419   3.190
 1859SOL    HW1 6476   4.215   1.389   3.133
 1859SOL    HW2 6477   4.280   1.381   3.283
 1860SOL     OW 6478   6.153   0.694   3.293
 1860SOL    HW1 6479   6.083   0.743   3.346
 1860SOL    HW2 6480   6.176   0.747   3.211
 1861SOL     OW 6481   4.701   6.588   2.825
 1861SOL    HW1 6482   4.706   6.591   2.925
 1861SOL    HW2 6483   4.759   6.659   2.786
 1862SOL     OW 6484   2.009   0.131   6.379
 1862SOL    HW1 6485   2.019   0.056   6.444
 1862SOL    HW2 6486   2.069   0.207   6.406
 1863SOL     OW 6487   2.226   2.078   7.002
 1863SOL    HW1 6488   2.322   2.063   7.022
 1863SOL    HW2 6489   2.200   2.030   6.918
 1864SOL     OW 6490   0.995   6.497   5.973
 1864SOL    HW1 6491   1.091   6.484   5.998
 1864SOL    HW2 6492   0.983   6.586   5.930
 1865SOL     OW 6493   3.749   0.047   5.776
 1865SOL    HW1 6494   3.736   0.079   5.682
 1865SOL    HW2 6495   3.692   6.991   5.792
 1866SOL     OW 6496   4.550   4.802   3.108
 1866SOL    HW1 6497   4.545   4.863   3.029
 1866SOL    HW2 6498   4.560   4.856   3.192
 1867SOL     OW 6499   1.330   4.726   0.138
 1867SOL    HW1 6500   1.426   4.735   0.161
 1867SOL    HW2 6501   1.320   4.706   0.040
 1868SOL     OW 6502   4.870   3.787   0.741
 1868SOL    HW1 6503   4.891   3.731   0.660
 1868SOL    HW2 6504   4.861   3.728   0.821
 1869SOL     OW 6505   6.514   2.116   5.488
 1869SOL    HW1 6506   6.525   2.133   5.586
 1869SOL    HW2 6507   6.490   2.020   5.474
 1870SOL     OW 6508   1.827   3.344   6.080
 1870SOL    HW1 6509   1.790   3.253   6.059
 1870SOL    HW2 6510   1.753   3.411   6.074
 1871SOL     OW 6511   0.535   0.476   6.775
 1871SOL    HW1 6512   0.586   0.547   6.824
 1871SOL    HW2 6513   0.466   0.436   6.836
 1872SOL     OW 6514   3.642   3.156   0.009
 1872SOL    HW1 6515   3.679   3.190   0.095
 1872SOL    HW2 6516   3.651   3.227   6.963
 1873SOL     OW 6517   4.716   1.452   5.291
 1873SOL    HW1 6518   4.654   1.380   5.259
 1873SOL    HW2 6519   4.764   1.491   5.213
 1874SOL     OW 6520   2.899   1.247   1.240
 1874SOL    HW1 6521   2.877   1.190   1.161
 1874SOL    HW2 6522   2.844   1.216   1.319
 1875SOL     OW 6523   0.482   1.589   0.038
 1875SOL    HW1 6524   0.541   1.513   0.062
 1875SOL    HW2 6525   0.475   1.596   6.963
 1876SOL     OW 6526   3.882   0.304   5.684
 1876SOL    HW1 6527   3.880   0.261   5.774
 1876SOL    HW2 6528   3.838   0.244   5.617
 1877SOL     OW 6529   0.748   0.395   2.744
 1877SOL    HW1 6530   0.739   0.494   2.732
 1877SOL    HW2 6531   0.844   0.370   2.751
 1878SOL     OW 6532   6.377   1.938   3.704
 1878SOL    HW1 6533   6.469   1.953   3.739
 1878SOL    HW2 6534   6.343   2.021   3.661
 1879SOL     OW 6535   1.256   4.239   3.991
 1879SOL    HW1 6536   1.351   4.266   3.978
 1879SOL    HW2 6537   1.253   4.145   4.027
 1880SOL     OW 6538   6.968   1.509   4.839
 1880SOL    HW1 6539   6.886   1.559   4.811
 1880SOL    HW2 6540   0.003   1.569   4.891
 1881SOL     OW 6541   6.274   2.005   2.826
 1881SOL    HW1 6542   6.221   2.063   2.764
 1881SOL    HW2 6543   6.231   2.006   2.917
 1882SOL     OW 6544   1.358   4.219   6.499
 1882SOL    HW1 6545   1.391   4.291   6.561
 1882SOL    HW2 6546   1.353   4.255   6.406
 1883SOL     OW 6547   0.033   1.989   3.186
 1883SOL    HW1 6548   0.097   1.977   3.110
 1883SOL    HW2 6549   0.048   1.918   3.255
 1884SOL     OW 6550   6.942   1.832   0.581
 1884SOL    HW1 6551   6.987   1.752   0.621
 1884SOL    HW2 6552   6.993   1.915   0.606
 1885SOL     OW 6553   2.045   1.611   6.156
 1885SOL    HW1 6554   2.018   1.530   6.104
 1885SOL    HW2 6555   1.977   1.683   6.143
 1886SOL     OW 6556   1.554   0.161   1.438
 1886SOL    HW1 6557   1.527   0.146   1.533
 1886SOL    HW2 6558   1.627   0.229   1.435
 1887SOL     OW 6559   0.690   5.561   5.542
 1887SOL    HW1 6560   0.700   5.479   5.487
 1887SOL    HW2 6561   0.636   5.629   5.493
 1888SOL     OW 6562   3.015   2.663   6.750
 1888SOL    HW1 6563   3.025   2.598   6.674
 1888SOL    HW2 6564   3.012   2.613   6.836
 1889SOL     OW 6565   0.435   3.795   5.326
 1889SOL    HW1 6566   0.363   3.749   5.379
 1889SOL    HW2 6567   0.491   3.849   5.388
 1890SOL     OW 6568   1.542   5.732   4.068
 1890SOL    HW1 6569   1.523   5.722   4.166
 1890SOL    HW2 6570   1.487   5.806   4.031
 1891SOL     OW 6571   4.970   2.955   1.441
 1891SOL    HW1 6572   4.941   2.919   1.529
 1891SOL    HW2 6573   4.890   2.966   1.382
 1892SOL     OW 6574   1.136   0.136   2.360
 1892SOL    HW1 6575   1.199   0.172   2.291
 1892SOL    HW2 6576   1.142   0.037   2.363
 1893SOL     OW 6577   3.138   3.394   1.708
 1893SOL    HW1 6578   3.046   3.385   1.670
 1893SOL    HW2 6579   3.193   3.314   1.683
 1894SOL     OW 6580   4.131   3.291   3.755
 1894SOL    HW1 6581   4.077   3.208   3.768
 1894SOL    HW2 6582   4.200   3.276   3.683
 1895SOL     OW 6583   4.211   0.192   0.946
 1895SOL    HW1 6584   4.179   0.177   0.853
 1895SOL    HW2 6585   4.139   0.239   0.998
 1896SOL     OW 6586   5.877   1.648   1.354
 1896SOL    HW1 6587   5.919   1.738   1.368
 1896SOL    HW2 6588   5.803   1.635   1.420
 1897SOL     OW 6589   2.143   5.207   1.622
 1897SOL    HW1 6590   2.153   5.130   1.684
 1897SOL    HW2 6591   2.085   5.181   1.544
 1898SOL     OW 6592   1.916   5.113   3.846
 1898SOL    HW1 6593   1.917   5.123   3.945
 1898SOL    HW2 6594   1.972   5.034   3.819
 1899SOL     OW 6595   0.113   1.420   0.963
 1899SOL    HW1 6596   0.067   1.333   0.980
 1899SOL    HW2 6597   0.211   1.405   0.952
 1900SOL     OW 6598   2.273   0.722   6.791
 1900SOL    HW1 6599   2.346   0.653   6.789
 1900SOL    HW2 6600   2.312   0.812   6.771
 1901SOL     OW 6601   1.741   2.268   0.929
 1901SOL    HW1 6602   1.783   2.229   1.011
 1901SOL    HW2 6603   1.791   2.350   0.902
 1902SOL     OW 6604   2.202   0.790   4.778
 1902SOL    HW1 6605   2.227   0.794   4.875
 1902SOL    HW2 6606   2.259   0.722   4.731
 1903SOL     OW 6607   0.738   3.124   2.951
 1903SOL    HW1 6608   0.762   3.036   2.910
 1903SOL    HW2 6609   0.639   3.130   2.963
 1904SOL     OW 6610   5.939   5.339   3.367
 1904SOL    HW1 6611   5.930   5.323   3.465
 1904SOL    HW2 6612   6.035   5.332   3.341
 1905SOL     OW 6613   0.831   0.132   3.446
 1905SOL    HW1 6614   0.872   0.215   3.407
 1905SOL    HW2 6615   0.740   0.153   3.481
 1906SOL     OW 6616   3.250   0.366   5.561
 1906SOL    HW1 6617   3.344   0.401   5.554
 1906SOL    HW2 6618   3.239   0.320   5.649
 1907SOL     OW 6619   4.297   2.019   1.728
 1907SOL    HW1 6620   4.381   1.966   1.720
 1907SOL    HW2 6621   4.230   1.967   1.782
 1908SOL     OW 6622   3.646   5.979   6.442
 1908SOL    HW1 6623   3.703   6.039   6.499
 1908SOL    HW2 6624   3.614   5.902   6.496
 1909SOL     OW 6625   0.892   2.661   3.569
 1909SOL    HW1 6626   0.893   2.671   3.669
 1909SOL    HW2 6627   0.971   2.708   3.530
 1910SOL     OW 6628   0.015   5.490   5.821
 1910SOL    HW1 6629   7.023   5.589   5.825
 1910SOL    HW2 6630   0.110   5.472   5.846
 1911SOL     OW 6631   0.205   3.619   4.794
 1911SOL    HW1 6632   0.177   3.640   4.700
 1911SOL    HW2 6633   0.228   3.704   4.842
 1912SOL     OW 6634   2.820   6.199   1.773
 1912SOL    HW1 6635   2.870   6.161   1.695
 1912SOL    HW2 6636   2.765   6.127   1.816
 1913SOL     OW 6637   3.064   1.058   4.652
 1913SOL    HW1 6638   3.104   1.130   4.596
 1913SOL    HW2 6639   3.073   1.081   4.749
 1914SOL     OW 6640   3.408   3.065   6.893
 1914SOL    HW1 6641   3.487   3.078   6.953
 1914SOL    HW2 6642   3.434   3.086   6.799
 1915SOL     OW 6643   4.140   2.473   5.875
 1915SOL    HW1 6644   4.055   2.524   5.884
 1915SOL    HW2 6645   4.178   2.456   5.966
 1916SOL     OW 6646   4.582   5.854   1.309
 1916SOL    HW1 6647   4.542   5.848   1.401
 1916SOL    HW2 6648   4.671   5.898   1.314
 1917SOL     OW 6649   2.184   3.672   6.915
 1917SOL    HW1 6650   2.175   3.637   6.821
 1917SOL    HW2 6651   2.264   3.630   6.958
 1918SOL     OW 6652   1.077   1.192   4.997
 1918SOL    HW1 6653   1.055   1.164   5.091
 1918SOL    HW2 6654   1.155   1.139   4.964
 1919SOL     OW 6655   2.036   1.552   1.831
 1919SOL    HW1 6656   2.109   1.496   1.792
 1919SOL    HW2 6657   1.989   1.501   1.903
 1920SOL     OW 6658   6.225   3.837   3.194
 1920SOL    HW1 6659   6.131   3.866   3.210
 1920SOL    HW2 6660   6.284   3.875   3.264
 1921SOL     OW 6661   1.989   3.180   0.178
 1921SOL    HW1 6662   2.037   3.134   0.103
 1921SOL    HW2 6663   1.951   3.266   0.145
 1922SOL     OW 6664   2.910   3.632   1.800
 1922SOL    HW1 6665   2.922   3.724   1.764
 1922SOL    HW2 6666   2.871   3.573   1.729
 1923SOL     OW 6667   4.207   2.175   6.680
 1923SOL    HW1 6668   4.132   2.144   6.622
 1923SOL    HW2 6669   4.225   2.272   6.663
 1924SOL     OW 6670   4.570   6.902   0.632
 1924SOL    HW1 6671   4.506   6.936   0.563
 1924SOL    HW2 6672   4.652   6.867   0.587
 1925SOL     OW 6673   1.009   5.354   1.682
 1925SOL    HW1 6674   0.979   5.310   1.597
 1925SOL    HW2 6675   1.040   5.283   1.745
 1926SOL     OW 6676   3.351   6.926   2.218
 1926SOL    HW1 6677   3.295   6.976   2.152
 1926SOL    HW2 6678   3.370   6.985   2.297
 1927SOL     OW 6679   2.414   4.220   0.641
 1927SOL    HW1 6680   2.331   4.236   0.694
 1927SOL    HW2 6681   2.469   4.149   0.685
 1928SOL     OW 6682   5.261   4.476   4.486
 1928SOL    HW1 6683   5.170   4.492   4.525
 1928SOL    HW2 6684   5.277   4.377   4.479
 1929SOL     OW 6685   2.477   0.522   1.701
 1929SOL    HW1 6686   2.536   0.524   1.782
 1929SOL    HW2 6687   2.522   0.471   1.628
 1930SOL     OW 6688   5.780   3.106   6.584
 1930SOL    HW1 6689   5.706   3.149   6.635
 1930SOL    HW2 6690   5.857   3.087   6.645
 1931SOL     OW 6691   0.778   1.740   0.034
 1931SOL    HW1 6692   0.866   1.697   0.055
 1931SOL    HW2 6693   0.704   1.678   0.059
 1932SOL     OW 6694   4.847   2.995   3.441
 1932SOL    HW1 6695   4.910   2.917   3.447
 1932SOL    HW2 6696   4.868   3.048   3.359
 1933SOL     OW 6697   1.359   2.506   0.767
 1933SOL    HW1 6698   1.450   2.465   0.764
 1933SOL    HW2 6699   1.305   2.474   0.689
 1934SOL     OW 6700   0.117   1.142   4.966
 1934SOL    HW1 6701   0.040   1.138   4.902
 1934SOL    HW2 6702   0.101   1.214   5.033
 1935SOL     OW 6703   4.305   5.013   3.637
 1935SOL    HW1 6704   4.307   5.055   3.728
 1935SOL    HW2 6705   4.399   5.002   3.604
 1936SOL     OW 6706   4.930   3.652   4.074
 1936SOL    HW1 6707   4.880   3.609   3.999
 1936SOL    HW2 6708   5.026   3.664   4.049
 1937SOL     OW 6709   4.177   6.066   0.171
 1937SOL    HW1 6710   4.112   6.076   0.246
 1937SOL    HW2 6711   4.239   6.144   0.170
 1938SOL     OW 6712   1.538   2.003   0.792
 1938SOL    HW1 6713   1.454   2.057   0.784
 1938SOL    HW2 6714   1.530   1.939   0.868
 1939SOL     OW 6715   0.455   6.080   4.226
 1939SOL    HW1 6716   0.427   6.175   4.241
 1939SOL    HW2 6717   0.541   6.062   4.273
 1940SOL     OW 6718   6.043   4.234   1.229
 1940SOL    HW1 6719   6.064   4.163   1.162
 1940SOL    HW2 6720   6.039   4.194   1.320
 1941SOL     OW 6721   0.974   2.961   3.558
 1941SOL    HW1 6722   1.036   2.916   3.622
 1941SOL    HW2 6723   0.881   2.962   3.595
 1942SOL     OW 6724   5.560   3.954   2.779
 1942SOL    HW1 6725   5.570   3.858   2.753
 1942SOL    HW2 6726   5.525   4.006   2.702
 1943SOL     OW 6727   1.288   1.252   2.436
 1943SOL    HW1 6728   1.235   1.195   2.500
 1943SOL    HW2 6729   1.379   1.269   2.474
 1944SOL     OW 6730   6.488   4.333   6.931
 1944SOL    HW1 6731   6.437   4.415   6.906
 1944SOL    HW2 6732   6.424   4.260   6.956
 1945SOL     OW 6733   4.246   6.041   0.731
 1945SOL    HW1 6734   4.181   6.115   0.747
 1945SOL    HW2 6735   4.301   6.062   0.650
 1946SOL     OW 6736   6.089   6.581   1.490
 1946SOL    HW1 6737   6.145   6.500   1.506
 1946SOL    HW2 6738   6.012   6.580   1.554
 1947SOL     OW 6739   5.986   5.813   4.310
 1947SOL    HW1 6740   6.010   5.805   4.407
 1947SOL    HW2 6741   6.035   5.891   4.271
 1948SOL     OW 6742   5.611   4.996   3.159
 1948SOL    HW1 6743   5.535   5.041   3.112
 1948SOL    HW2 6744   5.660   5.063   3.214
 1949SOL     OW 6745   3.912   3.827   0.434
 1949SOL    HW1 6746   3.960   3.779   0.507
 1949SOL    HW2 6747   3.972   3.895   0.392
 1950SOL     OW 6748   3.874   3.313   3.419
 1950SOL    HW1 6749   3.885   3.378   3.494
 1950SOL    HW2 6750   3.889   3.359   3.331
 1951SOL     OW 6751   0.078   4.363   6.154
 1951SOL    HW1 6752   0.095   4.453   6.195
 1951SOL    HW2 6753   0.163   4.311   6.153
 1952SOL     OW 6754   5.714   4.930   1.337
 1952SOL    HW1 6755   5.618   4.902   1.335
 1952SOL    HW2 6756   5.722   5.016   1.389
 1953SOL     OW 6757   6.669   1.494   6.439
 1953SOL    HW1 6758   6.612   1.507   6.358
 1953SOL    HW2 6759   6.664   1.399   6.470
 1954SOL     OW 6760   5.495   0.059   1.484
 1954SOL    HW1 6761   5.450   0.042   1.396
 1954SOL    HW2 6762   5.583   0.103   1.469
 1955SOL     OW 6763   0.286   0.900   1.429
 1955SOL    HW1 6764   0.199   0.876   1.385
 1955SOL    HW2 6765   0.317   0.824   1.486
 1956SOL     OW 6766   4.717   0.089   3.035
 1956SOL    HW1 6767   4.782   0.013   3.030
 1956SOL    HW2 6768   4.665   0.094   2.949
 1957SOL     OW 6769   5.370   3.793   3.965
 1957SOL    HW1 6770   5.398   3.702   3.936
 1957SOL    HW2 6771   5.275   3.791   3.997
 1958SOL     OW 6772   4.718   1.324   1.794
 1958SOL    HW1 6773   4.797   1.275   1.831
 1958SOL    HW2 6774   4.635   1.294   1.841
 1959SOL     OW 6775   6.748   6.381   3.697
 1959SOL    HW1 6776   6.832   6.342   3.659
 1959SOL    HW2 6777   6.714   6.323   3.771
 1960SOL     OW 6778   0.309   3.274   2.710
 1960SOL    HW1 6779   0.301   3.207   2.636
 1960SOL    HW2 6780   0.233   3.262   2.774
 1961SOL     OW 6781   6.619   4.385   4.510
 1961SOL    HW1 6782   6.648   4.465   4.458
 1961SOL    HW2 6783   6.540   4.342   4.465
 1962SOL     OW 6784   1.055   6.104   2.380
 1962SOL    HW1 6785   1.127   6.075   2.444
 1962SOL    HW2 6786   1.050   6.040   2.304
 1963SOL     OW 6787   1.451   2.145   1.595
 1963SOL    HW1 6788   1.351   2.142   1.587
 1963SOL    HW2 6789   1.488   2.207   1.526
 1964SOL     OW 6790   5.130   4.468   1.866
 1964SOL    HW1 6791   5.061   4.505   1.928
 1964SOL    HW2 6792   5.086   4.407   1.800
 1965SOL     OW 6793   1.445   3.309   4.545
 1965SOL    HW1 6794   1.535   3.349   4.564
 1965SOL    HW2 6795   1.429   3.232   4.607
 1966SOL     OW 6796   1.455   5.107   1.077
 1966SOL    HW1 6797   1.477   5.027   1.021
 1966SOL    HW2 6798   1.485   5.090   1.171
 1967SOL     OW 6799   6.445   2.598   4.361
 1967SOL    HW1 6800   6.386   2.538   4.415
 1967SOL    HW2 6801   6.393   2.678   4.331
 1968SOL     OW 6802   2.755   1.104   5.446
 1968SOL    HW1 6803   2.668   1.107   5.395
 1968SOL    HW2 6804   2.761   1.016   5.494
 1969SOL     OW 6805   3.244   0.560   1.451
 1969SOL    HW1 6806   3.205   0.648   1.426
 1969SOL    HW2 6807   3.265   0.560   1.549
 1970SOL     OW 6808   6.913   0.012   5.700
 1970SOL    HW1 6809   7.012   0.025   5.698
 1970SOL    HW2 6810   6.888   6.955   5.648
 1971SOL     OW 6811   0.626   0.167   5.349
 1971SOL    HW1 6812   0.649   0.208   5.261
 1971SOL    HW2 6813   0.661   0.225   5.423
 1972SOL     OW 6814   5.993   2.698   1.458
 1972SOL    HW1 6815   5.928   2.751   1.405
 1972SOL    HW2 6816   6.074   2.678   1.403
 1973SOL     OW 6817   2.413   4.182   1.815
 1973SOL    HW1 6818   2.433   4.234   1.732
 1973SOL    HW2 6819   2.451   4.230   1.895
 1974SOL     OW 6820   4.554   6.840   4.751
 1974SOL    HW1 6821   4.583   6.771   4.684
 1974SOL    HW2 6822   4.589   6.930   4.724
 1975SOL     OW 6823   2.145   3.124   4.004
 1975SOL    HW1 6824   2.167   3.027   3.993
 1975SOL    HW2 6825   2.185   3.176   3.929
 1976SOL     OW 6826   5.261   6.665   6.330
 1976SOL    HW1 6827   5.258   6.565   6.317
 1976SOL    HW2 6828   5.210   6.690   6.411
 1977SOL     OW 6829   2.354   3.106   6.274
 1977SOL    HW1 6830   2.315   3.037   6.213
 1977SOL    HW2 6831   2.440   3.138   6.236
 1978SOL     OW 6832   1.717   6.191   2.949
 1978SOL    HW1 6833   1.752   6.283   2.932
 1978SOL    HW2 6834   1.637   6.175   2.892
 1979SOL     OW 6835   5.718   5.069   0.042
 1979SOL    HW1 6836   5.794   5.083   7.004
 1979SOL    HW2 6837   5.674   4.981   0.022
 1980SOL     OW 6838   3.676   0.305   2.994
 1980SOL    HW1 6839   3.720   0.216   3.002
 1980SOL    HW2 6840   3.686   0.355   3.080
 1981SOL     OW 6841   5.553   2.893   2.317
 1981SOL    HW1 6842   5.607   2.815   2.350
 1981SOL    HW2 6843   5.485   2.861   2.251
 1982SOL     OW 6844   6.828   3.923   4.047
 1982SOL    HW1 6845   6.808   4.020   4.058
 1982SOL    HW2 6846   6.749   3.877   4.006
 1983SOL     OW 6847   0.760   0.365   1.339
 1983SOL    HW1 6848   0.660   0.362   1.333
 1983SOL    HW2 6849   0.797   0.281   1.299
 1984SOL     OW 6850   5.220   2.599   5.197
 1984SOL    HW1 6851   5.182   2.586   5.106
 1984SOL    HW2 6852   5.146   2.599   5.264
 1985SOL     OW 6853   6.680   5.496   2.063
 1985SOL    HW1 6854   6.652   5.586   2.032
 1985SOL    HW2 6855   6.778   5.483   2.044
 1986SOL     OW 6856   2.846   1.331   6.241
 1986SOL    HW1 6857   2.754   1.310   6.276
 1986SOL    HW2 6858   2.914   1.288   6.300
 1987SOL     OW 6859   1.924   1.574   4.231
 1987SOL    HW1 6860   1.849   1.639   4.237
 1987SOL    HW2 6861   1.967   1.580   4.141
 1988SOL     OW 6862   6.738   1.227   1.285
 1988SOL    HW1 6863   6.793   1.274   1.354
 1988SOL    HW2 6864   6.738   1.280   1.200
 1989SOL     OW 6865   2.365   6.293   4.197
 1989SOL    HW1 6866   2.369   6.228   4.272
 1989SOL    HW2 6867   2.354   6.244   4.111
 1990SOL     OW 6868   3.897   0.039   0.711
 1990SOL    HW1 6869   3.909   0.007   0.805
 1990SOL    HW2 6870   3.871   6.987   0.652
 1991SOL     OW 6871   2.526   4.677   0.197
 1991SOL    HW1 6872   2.563   4.768   0.179
 1991SOL    HW2 6873   2.451   4.658   0.134
 1992SOL     OW 6874   6.885   0.014   0.862
 1992SOL    HW1 6875   6.926   6.955   0.900
 1992SOL    HW2 6876   6.786   0.006   0.863
 1993SOL     OW 6877   2.982   2.177   4.689
 1993SOL    HW1 6878   2.922   2.099   4.671
 1993SOL    HW2 6879   3.053   2.150   4.754
 1994SOL     OW 6880   4.614   2.059   0.764
 1994SOL    HW1 6881   4.685   1.993   0.789
 1994SOL    HW2 6882   4.524   2.019   0.779
 1995SOL     OW 6883   5.630   3.406   4.412
 1995SOL    HW1 6884   5.711   3.353   4.435
 1995SOL    HW2 6885   5.658   3.492   4.369
 1996SOL     OW 6886   2.507   1.176   1.325
 1996SOL    HW1 6887   2.505   1.099   1.260
 1996SOL    HW2 6888   2.579   1.160   1.393
 1997SOL     OW 6889   3.003   1.344   4.198
 1997SOL    HW1 6890   3.086   1.290   4.190
 1997SOL    HW2 6891   3.024   1.432   4.240
 1998SOL     OW 6892   1.302   3.622   0.668
 1998SOL    HW1 6893   1.351   3.588   0.589
 1998SOL    HW2 6894   1.367   3.652   0.738
 1999SOL     OW 6895   0.149   0.772   4.781
 1999SOL    HW1 6896   0.232   0.774   4.726
 1999SOL    HW2 6897   0.173   0.763   4.878
 2000SOL     OW 6898   3.803   4.107   6.177
 2000SOL    HW1 6899   3.775   4.165   6.101
 2000SOL    HW2 6900   3.897   4.076   6.163
 2001SOL     OW 6901   1.277   2.173   0.220
 2001SOL    HW1 6902   1.282   2.086   0.267
 2001SOL    HW2 6903   1.206   2.169   0.149
 2002SOL     OW 6904   0.942   5.716   0.886
 2002SOL    HW1 6905   1.035   5.710   0.924
 2002SOL    HW2 6906   0.948   5.739   0.789
 2003SOL     OW 6907   6.605   5.085   1.836
 2003SOL    HW1 6908   6.607   5.159   1.903
 2003SOL    HW2 6909   6.676   5.018   1.858
 2004SOL     OW 6910   4.564   1.090   4.032
 2004SOL    HW1 6911   4.488   1.072   3.970
 2004SOL    HW2 6912   4.543   1.051   4.122
 2005SOL     OW 6913   6.583   5.376   0.010
 2005SOL    HW1 6914   6.500   5.404   0.059
 2005SOL    HW2 6915   6.656   5.442   0.027
 2006SOL     OW 6916   5.182   6.951   4.221
 2006SOL    HW1 6917   5.279   6.961   4.197
 2006SOL    HW2 6918   5.160   6.854   4.229
 2007SOL     OW 6919   5.421   4.181   0.993
 2007SOL    HW1 6920   5.485   4.257   0.985
 2007SOL    HW2 6921   5.440   4.129   1.076
 2008SOL     OW 6922   2.100   3.502   3.892
 2008SOL    HW1 6923   2.047   3.558   3.956
 2008SOL    HW2 6924   2.095   3.542   3.800
 2009SOL     OW 6925   5.475   6.106   1.994
 2009SOL    HW1 6926   5.483   6.089   1.895
 2009SOL    HW2 6927   5.415   6.037   2.034
 2010SOL     OW 6928   1.790   1.664   1.767
 2010SOL    HW1 6929   1.878   1.631   1.800
 2010SOL    HW2 6930   1.767   1.750   1.812
 2011SOL     OW 6931   6.730   0.056   5.155
 2011SOL    HW1 6932   6.694   6.998   5.198
 2011SOL    HW2 6933   6.806   0.031   5.094
 2012SOL     OW 6934   1.495   3.804   2.200
 2012SOL    HW1 6935   1.584   3.851   2.194
 2012SOL    HW2 6936   1.468   3.772   2.110
 2013SOL     OW 6937   6.642   3.206   3.469
 2013SOL    HW1 6938   6.719   3.195   3.532
 2013SOL    HW2 6939   6.612   3.117   3.436
 2014SOL     OW 6940   2.882   0.423   2.852
 2014SOL    HW1 6941   2.928   0.494   2.905
 2014SOL    HW2 6942   2.938   0.340   2.851
 2015SOL     OW 6943   3.621   0.218   0.793
 2015SOL    HW1 6944   3.585   0.136   0.750
 2015SOL    HW2 6945   3.546   0.281   0.814
 2016SOL     OW 6946   1.539   5.833   5.704
 2016SOL    HW1 6947   1.497   5.852   5.793
 2016SOL    HW2 6948   1.496   5.889   5.634
 2017SOL     OW 6949   4.051   0.727   3.438
 2017SOL    HW1 6950   4.092   0.818   3.444
 2017SOL    HW2 6951   3.956   0.735   3.409
 2018SOL     OW 6952   6.988   2.561   3.869
 2018SOL    HW1 6953   0.056   2.597   3.880
 2018SOL    HW2 6954   6.926   2.608   3.932
 2019SOL     OW 6955   6.445   4.489   6.260
 2019SOL    HW1 6956   6.371   4.502   6.194
 2019SOL    HW2 6957   6.428   4.407   6.314
 2020SOL     OW 6958   1.366   6.168   6.215
 2020SOL    HW1 6959   1.308   6.211   6.285
 2020SOL    HW2 6960   1.461   6.200   6.226
 2021SOL     OW 6961   5.862   0.355   3.495
 2021SOL    HW1 6962   5.860   0.429   3.428
 2021SOL    HW2 6963   5.770   0.338   3.529
 2022SOL     OW 6964   1.564   4.631   4.766
 2022SOL    HW1 6965   1.591   4.535   4.773
 2022SOL    HW2 6966   1.633   4.681   4.713
 2023SOL     OW 6967   6.951   6.990   6.781
 2023SOL    HW1 6968   6.948   0.038   6.711
 2023SOL    HW2 6969   6.913   0.001   6.867
 2024SOL     OW 6970   0.208   6.022   4.024
 2024SOL    HW1 6971   0.143   6.096   4.006
 2024SOL    HW2 6972   0.283   6.056   4.081
 2025SOL     OW 6973   3.176   0.709   3.269
 2025SOL    HW1 6974   3.238   0.755   3.204
 2025SOL    HW2 6975   3.189   0.747   3.360
 2026SOL     OW 6976   6.117   1.657   6.579
 2026SOL    HW1 6977   6.067   1.579   6.543
 2026SOL    HW2 6978   6.199   1.674   6.523
 2027SOL     OW 6979   0.564   5.940   1.749
 2027SOL    HW1 6980   0.626   5.869   1.716
 2027SOL    HW2 6981   0.483   5.944   1.690
 2028SOL     OW 6982   3.422   5.511   2.847
 2028SOL    HW1 6983   3.392   5.583   2.910
 2028SOL    HW2 6984   3.370   5.428   2.863
 2029SOL     OW 6985   6.638   1.754   0.207
 2029SOL    HW1 6986   6.542   1.764   0.230
 2029SOL    HW2 6987   6.648   1.684   0.136
 2030SOL     OW 6988   3.194   6.762   2.698
 2030SOL    HW1 6989   3.192   6.765   2.798
 2030SOL    HW2 6990   3.288   6.746   2.667
 2031SOL     OW 6991   6.797   5.911   2.816
 2031SOL    HW1 6992   6.840   5.985   2.765
 2031SOL    HW2 6993   6.746   5.950   2.894
 2032SOL     OW 6994   3.434   1.466   0.854
 2032SOL    HW1 6995   3.371   1.398   0.817
 2032SOL    HW2 6996   3.515   1.472   0.796
 2033SOL     OW 6997   1.203   1.119   0.407
 2033SOL    HW1 6998   1.160   1.035   0.440
 2033SOL    HW2 6999   1.179   1.135   0.311
 2034SOL     OW 7000   1.693   5.326   5.672
 2034SOL    HW1 7001   1.610   5.271   5.660
 2034SOL    HW2 7002   1.674   5.403   5.732
 2035SOL     OW 7003   6.345   0.429   2.057
 2035SOL    HW1 7004   6.341   0.404   2.153
 2035SOL    HW2 7005   6.353   0.346   2.001
 2036SOL     OW 7006   1.582   3.142   3.028
 2036SOL    HW1 7007   1.677   3.170   3.040
 2036SOL    HW2 7008   1.561   3.134   2.930
 2037SOL     OW 7009   6.959   2.412   6.168
 2037SOL    HW1 7010   6.875   2.364   6.194
 2037SOL    HW2 7011   7.019   2.350   6.118
 2038SOL     OW 7012   2.586   1.255   0.122
 2038SOL    HW1 7013   2.559   1.268   0.026
 2038SOL    HW2 7014   2.684   1.272   0.131
 2039SOL     OW 7015   6.911   5.700   2.292
 2039SOL    HW1 7016   6.910   5.602   2.311
 2039SOL    HW2 7017   6.992   5.741   2.334
 2040SOL     OW 7018   1.980   2.305   6.592
 2040SOL    HW1 7019   2.027   2.219   6.573
 2040SOL    HW2 7020   2.011   2.340   6.681
 2041SOL     OW 7021   1.774   6.861   5.295
 2041SOL    HW1 7022   1.833   6.941   5.305
 2041SOL    HW2 7023   1.679   6.891   5.283
 2042SOL     OW 7024   4.793   0.101   6.057
 2042SOL    HW1 7025   4.846   0.016   6.063
 2042SOL    HW2 7026   4.699   0.079   6.031
 2043SOL     OW 7027   6.339   2.210   1.852
 2043SOL    HW1 7028   6.388   2.219   1.765
 2043SOL    HW2 7029   6.321   2.300   1.890
 2044SOL     OW 7030   5.948   0.989   1.778
 2044SOL    HW1 7031   5.942   0.889   1.785
 2044SOL    HW2 7032   5.894   1.020   1.700
 2045SOL     OW 7033   1.832   5.829   5.399
 2045SOL    HW1 7034   1.793   5.921   5.392
 2045SOL    HW2 7035   1.765   5.767   5.440
 2046SOL     OW 7036   6.787   1.708   5.471
 2046SOL    HW1 7037   6.707   1.753   5.432
 2046SOL    HW2 7038   6.834   1.654   5.401
 2047SOL     OW 7039   6.368   2.197   1.016
 2047SOL    HW1 7040   6.407   2.105   1.012
 2047SOL    HW2 7041   6.439   2.262   1.046
 2048SOL     OW 7042   0.522   1.739   4.576
 2048SOL    HW1 7043   0.598   1.803   4.583
 2048SOL    HW2 7044   0.500   1.724   4.480
 2049SOL     OW 7045   4.607   1.300   4.795
 2049SOL    HW1 7046   4.568   1.311   4.704
 2049SOL    HW2 7047   4.572   1.371   4.856
 2050SOL     OW 7048   6.866   2.131   4.946
 2050SOL    HW1 7049   6.795   2.199   4.961
 2050SOL    HW2 7050   6.956   2.176   4.946
 2051SOL     OW 7051   2.020   6.371   6.888
 2051SOL    HW1 7052   2.061   6.293   6.842
 2051SOL    HW2 7053   2.059   6.456   6.851
 2052SOL     OW 7054   1.260   3.261   0.942
 2052SOL    HW1 7055   1.304   3.301   1.023
 2052SOL    HW2 7056   1.316   3.280   0.861
 2053SOL     OW 7057   0.433   5.440   4.417
 2053SOL    HW1 7058   0.513   5.431   4.357
 2053SOL    HW2 7059   0.462   5.429   4.513
 2054SOL     OW 7060   3.652   2.865   2.495
 2054SOL    HW1 7061   3.619   2.890   2.587
 2054SOL    HW2 7062   3.573   2.853   2.434
 2055SOL     OW 7063   6.603   2.745   5.035
 2055SOL    HW1 7064   6.688   2.692   5.034
 2055SOL    HW2 7065   6.601   2.806   4.956
 2056SOL     OW 7066   4.618   4.551   1.336
 2056SOL    HW1 7067   4.588   4.503   1.419
 2056SOL    HW2 7068   4.555   4.531   1.261
 2057SOL     OW 7069   5.376   3.082   4.190
 2057SOL    HW1 7070   5.298   3.088   4.253
 2057SOL    HW2 7071   5.347   3.037   4.105
 2058SOL     OW 7072   0.357   6.358   2.591
 2058SOL    HW1 7073   0.387   6.422   2.661
 2058SOL    HW2 7074   0.437   6.327   2.539
 2059SOL     OW 7075   2.578   0.528   5.500
 2059SOL    HW1 7076   2.488   0.520   5.542
 2059SOL    HW2 7077   2.623   0.439   5.501
 2060SOL     OW 7078   0.918   3.449   0.380
 2060SOL    HW1 7079   0.963   3.531   0.415
 2060SOL    HW2 7080   0.843   3.475   0.320
 2061SOL     OW 7081   2.016   2.960   2.493
 2061SOL    HW1 7082   1.938   2.957   2.432
 2061SOL    HW2 7083   2.006   2.892   2.566
 2062SOL     OW 7084   6.509   5.157   5.159
 2062SOL    HW1 7085   6.551   5.239   5.119
 2062SOL    HW2 7086   6.425   5.135   5.110
 2063SOL     OW 7087   1.580   6.499   5.098
 2063SOL    HW1 7088   1.535   6.417   5.062
 2063SOL    HW2 7089   1.576   6.572   5.029
 2064SOL     OW 7090   1.452   3.709   4.042
 2064SOL    HW1 7091   1.547   3.684   4.028
 2064SOL    HW2 7092   1.393   3.636   4.007
 2065SOL     OW 7093   5.281   2.923   5.376
 2065SOL    HW1 7094   5.347   2.851   5.399
 2065SOL    HW2 7095   5.209   2.884   5.319
 2066SOL     OW 7096   6.229   3.753   5.373
 2066SOL    HW1 7097   6.281   3.836   5.353
 2066SOL    HW2 7098   6.266   3.709   5.454
 2067SOL     OW 7099   6.153   4.677   1.992
 2067SOL    HW1 7100   6.114   4.747   1.932
 2067SOL    HW2 7101   6.090   4.600   1.999
 2068SOL     OW 7102   3.365   1.519   3.931
 2068SOL    HW1 7103   3.448   1.527   3.876
 2068SOL    HW2 7104   3.389   1.521   4.028
 2069SOL     OW 7105   0.004   2.002   4.193
 2069SOL    HW1 7106   0.020   2.095   4.224
 2069SOL    HW2 7107   0.039   1.991   4.099
 2070SOL     OW 7108   1.589   3.154   1.315
 2070SOL    HW1 7109   1.633   3.091   1.379
 2070SOL    HW2 7110   1.534   3.103   1.249
 2071SOL     OW 7111   6.342   1.203   6.113
 2071SOL    HW1 7112   6.257   1.156   6.089
 2071SOL    HW2 7113   6.325   1.269   6.186
 2072SOL     OW 7114   3.885   4.805   5.505
 2072SOL    HW1 7115   3.945   4.775   5.431
 2072SOL    HW2 7116   3.855   4.725   5.557
 2073SOL     OW 7117   3.767   5.819   6.226
 2073SOL    HW1 7118   3.741   5.895   6.286
 2073SOL    HW2 7119   3.845   5.771   6.264
 2074SOL     OW 7120   1.474   3.354   6.044
 2074SOL    HW1 7121   1.489   3.405   5.960
 2074SOL    HW2 7122   1.408   3.280   6.027
 2075SOL     OW 7123   6.556   2.197   2.043
 2075SOL    HW1 7124   6.458   2.180   2.054
 2075SOL    HW2 7125   6.575   2.294   2.053
 2076SOL     OW 7126   6.010   6.963   5.028
 2076SOL    HW1 7127   6.047   6.897   5.093
 2076SOL    HW2 7128   6.050   0.029   5.045
 2077SOL     OW 7129   6.973   2.295   1.684
 2077SOL    HW1 7130   7.014   2.205   1.699
 2077SOL    HW2 7131   6.909   2.316   1.758
 2078SOL     OW 7132   1.705   4.853   6.188
 2078SOL    HW1 7133   1.792   4.822   6.148
 2078SOL    HW2 7134   1.667   4.926   6.131
 2079SOL     OW 7135   4.991   0.870   2.141
 2079SOL    HW1 7136   5.031   0.924   2.068
 2079SOL    HW2 7137   5.016   0.908   2.230
 2080SOL     OW 7138   2.855   2.247   4.426
 2080SOL    HW1 7139   2.913   2.246   4.506
 2080SOL    HW2 7140   2.794   2.327   4.429
 2081SOL     OW 7141   0.283   6.708   3.586
 2081SOL    HW1 7142   0.229   6.785   3.621
 2081SOL    HW2 7143   0.347   6.742   3.517
 2082SOL     OW 7144   0.626   6.362   2.516
 2082SOL    HW1 7145   0.680   6.287   2.479
 2082SOL    HW2 7146   0.686   6.440   2.534
 2083SOL     OW 7147   0.641   6.251   3.394
 2083SOL    HW1 7148   0.567   6.243   3.461
 2083SOL    HW2 7149   0.680   6.161   3.375
 2084SOL     OW 7150   1.452   1.936   1.324
 2084SOL    HW1 7151   1.364   1.941   1.276
 2084SOL    HW2 7152   1.500   2.022   1.313
 2085SOL     OW 7153   4.930   5.802   0.703
 2085SOL    HW1 7154   4.943   5.745   0.784
 2085SOL    HW2 7155   4.884   5.748   0.631
 2086SOL     OW 7156   3.682   6.663   0.015
 2086SOL    HW1 7157   3.667   6.694   6.946
 2086SOL    HW2 7158   3.780   6.651   0.031
 2087SOL     OW 7159   4.175   2.044   6.920
 2087SOL    HW1 7160   4.184   2.081   6.828
 2087SOL    HW2 7161   4.118   1.962   6.918
 2088SOL     OW 7162   0.826   6.002   6.173
 2088SOL    HW1 7163   0.801   6.041   6.262
 2088SOL    HW2 7164   0.926   5.991   6.169
 2089SOL     OW 7165   3.956   2.688   5.363
 2089SOL    HW1 7166   4.014   2.633   5.302
 2089SOL    HW2 7167   3.939   2.777   5.321
 2090SOL     OW 7168   4.630   3.315   5.504
 2090SOL    HW1 7169   4.555   3.252   5.482
 2090SOL    HW2 7170   4.672   3.288   5.590
 2091SOL     OW 7171   6.738   5.948   1.881
 2091SOL    HW1 7172   6.811   5.914   1.822
 2091SOL    HW2 7173   6.697   6.029   1.838
 2092SOL     OW 7174   4.831   3.609   0.974
 2092SOL    HW1 7175   4.777   3.540   1.021
 2092SOL    HW2 7176   4.900   3.646   1.037
 2093SOL     OW 7177   3.903   2.141   2.173
 2093SOL    HW1 7178   3.824   2.182   2.128
 2093SOL    HW2 7179   3.889   2.141   2.272
 2094SOL     OW 7180   5.873   2.664   0.125
 2094SOL    HW1 7181   5.797   2.728   0.111
 2094SOL    HW2 7182   5.958   2.708   0.097
 2095SOL     OW 7183   5.941   6.392   3.565
 2095SOL    HW1 7184   5.897   6.439   3.641
 2095SOL    HW2 7185   6.001   6.455   3.516
 2096SOL     OW 7186   4.466   6.521   2.431
 2096SOL    HW1 7187   4.419   6.444   2.474
 2096SOL    HW2 7188   4.478   6.594   2.498
 2097SOL     OW 7189   2.435   4.360   6.624
 2097SOL    HW1 7190   2.479   4.445   6.653
 2097SOL    HW2 7191   2.376   4.378   6.545
 2098SOL     OW 7192   3.916   5.978   3.384
 2098SOL    HW1 7193   3.870   5.958   3.298
 2098SOL    HW2 7194   3.848   5.988   3.457
 2099SOL     OW 7195   4.132   1.481   0.162
 2099SOL    HW1 7196   4.089   1.396   0.191
 2099SOL    HW2 7197   4.132   1.546   0.238
 2100SOL     OW 7198   5.298   1.360   0.589
 2100SOL    HW1 7199   5.267   1.455   0.579
 2100SOL    HW2 7200   5.343   1.331   0.505
 2101SOL     OW 7201   0.324   6.028   1.044
 2101SOL    HW1 7202   0.273   6.087   1.107
 2101SOL    HW2 7203   0.364   6.083   0.971
 2102SOL     OW 7204   4.132   2.959   1.680
 2102SOL    HW1 7205   4.091   3.004   1.760
 2102SOL    HW2 7206   4.063   2.903   1.635
 2103SOL     OW 7207   3.100   4.741   0.239
 2103SOL    HW1 7208   3.161   4.793   0.298
 2103SOL    HW2 7209   3.072   4.657   0.285
 2104SOL     OW 7210   2.007   4.603   2.654
 2104SOL    HW1 7211   1.956   4.633   2.734
 2104SOL    HW2 7212   2.072   4.674   2.627
 2105SOL     OW 7213   4.885   4.595   0.587
 2105SOL    HW1 7214   4.812   4.631   0.529
 2105SOL    HW2 7215   4.901   4.499   0.565
 2106SOL     OW 7216   5.272   3.406   1.412
 2106SOL    HW1 7217   5.189   3.448   1.449
 2106SOL    HW2 7218   5.281   3.313   1.448
 2107SOL     OW 7219   5.426   3.543   6.246
 2107SOL    HW1 7220   5.475   3.605   6.185
 2107SOL    HW2 7221   5.468   3.452   6.243
 2108SOL     OW 7222   5.883   6.511   5.870
 2108SOL    HW1 7223   5.973   6.466   5.868
 2108SOL    HW2 7224   5.848   6.519   5.777
 2109SOL     OW 7225   3.347   5.121   2.296
 2109SOL    HW1 7226   3.304   5.039   2.258
 2109SOL    HW2 7227   3.286   5.199   2.285
 2110SOL     OW 7228   3.963   0.847   6.540
 2110SOL    HW1 7229   3.974   0.747   6.538
 2110SOL    HW2 7230   4.050   0.891   6.518
 2111SOL     OW 7231   0.924   2.911   5.868
 2111SOL    HW1 7232   0.985   2.967   5.924
 2111SOL    HW2 7233   0.958   2.817   5.866
 2112SOL     OW 7234   5.957   1.278   6.733
 2112SOL    HW1 7235   5.865   1.294   6.768
 2112SOL    HW2 7236   5.972   1.333   6.651
 2113SOL     OW 7237   2.014   6.467   4.067
 2113SOL    HW1 7238   2.107   6.442   4.043
 2113SOL    HW2 7239   1.953   6.449   3.990
 2114SOL     OW 7240   2.482   3.023   0.310
 2114SOL    HW1 7241   2.439   3.050   0.397
 2114SOL    HW2 7242   2.529   3.101   0.270
 2115SOL     OW 7243   0.886   4.322   2.668
 2115SOL    HW1 7244   0.908   4.250   2.734
 2115SOL    HW2 7245   0.876   4.409   2.716
 2116SOL     OW 7246   1.087   2.573   0.467
 2116SOL    HW1 7247   1.022   2.643   0.498
 2116SOL    HW2 7248   1.147   2.611   0.397
 2117SOL     OW 7249   5.903   2.535   2.080
 2117SOL    HW1 7250   5.974   2.544   2.150
 2117SOL    HW2 7251   5.907   2.444   2.040
 2118SOL     OW 7252   6.632   3.932   2.979
 2118SOL    HW1 7253   6.631   3.892   2.887
 2118SOL    HW2 7254   6.571   3.881   3.039
 2119SOL     OW 7255   2.173   0.345   6.403
 2119SOL    HW1 7256   2.213   0.370   6.491
 2119SOL    HW2 7257   2.247   0.338   6.335
 2120SOL     OW 7258   6.758   2.129   2.200
 2120SOL    HW1 7259   6.682   2.147   2.138
 2120SOL    HW2 7260   6.736   2.162   2.291
 2121SOL     OW 7261   1.741   1.041   5.790
 2121SOL    HW1 7262   1.748   0.943   5.774
 2121SOL    HW2 7263   1.644   1.067   5.799
 2122SOL     OW 7264   5.737   0.179   5.737
 2122SOL    HW1 7265   5.779   0.255   5.787
 2122SOL    HW2 7266   5.682   0.124   5.799
 2123SOL     OW 7267   0.117   6.289   2.502
 2123SOL    HW1 7268   0.211   6.309   2.531
 2123SOL    HW2 7269   0.064   6.374   2.502
 2124SOL     OW 7270   3.282   2.970   5.910
 2124SOL    HW1 7271   3.346   2.939   5.839
 2124SOL    HW2 7272   3.332   3.012   5.985
 2125SOL     OW 7273   1.589   5.888   3.331
 2125SOL    HW1 7274   1.538   5.865   3.248
 2125SOL    HW2 7275   1.676   5.839   3.332
 2126SOL     OW 7276   3.642   3.266   0.677
 2126SOL    HW1 7277   3.621   3.362   0.659
 2126SOL    HW2 7278   3.588   3.234   0.755
 2127SOL     OW 7279   0.043   2.742   5.933
 2127SOL    HW1 7280   6.990   2.688   5.968
 2127SOL    HW2 7281   0.095   2.778   6.010
 2128SOL     OW 7282   5.944   4.007   0.847
 2128SOL    HW1 7283   6.007   3.992   0.771
 2128SOL    HW2 7284   5.851   4.022   0.811
 2129SOL     OW 7285   5.244   4.010   3.767
 2129SOL    HW1 7286   5.253   3.984   3.671
 2129SOL    HW2 7287   5.332   3.998   3.813
 2130SOL     OW 7288   2.279   1.341   1.347
 2130SOL    HW1 7289   2.342   1.263   1.346
 2130SOL    HW2 7290   2.332   1.426   1.349
 2131SOL     OW 7291   5.759   1.677   5.707
 2131SOL    HW1 7292   5.733   1.587   5.674
 2131SOL    HW2 7293   5.695   1.706   5.779
 2132SOL     OW 7294   2.671   1.544   6.531
 2132SOL    HW1 7295   2.669   1.589   6.442
 2132SOL    HW2 7296   2.761   1.502   6.545
 2133SOL     OW 7297   2.360   1.505   2.010
 2133SOL    HW1 7298   2.360   1.425   2.071
 2133SOL    HW2 7299   2.453   1.523   1.979
 2134SOL     OW 7300   0.389   0.023   4.220
 2134SOL    HW1 7301   0.290   0.013   4.229
 2134SOL    HW2 7302   0.415   0.115   4.249
 2135SOL     OW 7303   0.908   1.728   3.822
 2135SOL    HW1 7304   0.866   1.759   3.736
 2135SOL    HW2 7305   1.001   1.765   3.828
 2136SOL     OW 7306   1.062   3.509   4.950
 2136SOL    HW1 7307   1.083   3.586   4.890
 2136SOL    HW2 7308   0.963   3.506   4.967
 2137SOL     OW 7309   1.047   6.121   5.336
 2137SOL    HW1 7310   1.024   6.036   5.383
 2137SOL    HW2 7311   0.977   6.190   5.356
 2138SOL     OW 7312   0.110   2.576   1.140
 2138SOL    HW1 7313   0.043   2.504   1.123
 2138SOL    HW2 7314   0.160   2.596   1.056
 2139SOL     OW 7315   2.566   0.694   4.028
 2139SOL    HW1 7316   2.508   0.613   4.016
 2139SOL    HW2 7317   2.553   0.756   3.951
 2140SOL     OW 7318   2.513   6.551   2.800
 2140SOL    HW1 7319   2.576   6.493   2.852
 2140SOL    HW2 7320   2.443   6.587   2.861
 2141SOL     OW 7321   6.686   2.774   1.124
 2141SOL    HW1 7322   6.630   2.707   1.171
 2141SOL    HW2 7323   6.760   2.728   1.075
 2142SOL     OW 7324   1.629   1.880   3.264
 2142SOL    HW1 7325   1.613   1.895   3.361
 2142SOL    HW2 7326   1.542   1.859   3.219
 2143SOL     OW 7327   4.256   6.397   1.570
 2143SOL    HW1 7328   4.321   6.384   1.495
 2143SOL    HW2 7329   4.302   6.441   1.647
 2144SOL     OW 7330   1.231   0.799   2.912
 2144SOL    HW1 7331   1.162   0.792   2.839
 2144SOL    HW2 7332   1.307   0.855   2.880
 2145SOL     OW 7333   3.235   5.647   3.860
 2145SOL    HW1 7334   3.223   5.648   3.760
 2145SOL    HW2 7335   3.330   5.666   3.883
 2146SOL     OW 7336   2.939   3.905   1.802
 2146SOL    HW1 7337   2.885   3.984   1.774
 2146SOL    HW2 7338   3.010   3.934   1.867
 2147SOL     OW 7339   0.188   1.916   0.346
 2147SOL    HW1 7340   0.108   1.899   0.403
 2147SOL    HW2 7341   0.261   1.956   0.402
 2148SOL     OW 7342   4.851   3.511   3.801
 2148SOL    HW1 7343   4.897   3.590   3.760
 2148SOL    HW2 7344   4.782   3.476   3.738
 2149SOL     OW 7345   4.181   0.549   1.520
 2149SOL    HW1 7346   4.195   0.520   1.615
 2149SOL    HW2 7347   4.208   0.476   1.458
 2150SOL     OW 7348   3.790   2.072   2.748
 2150SOL    HW1 7349   3.761   2.006   2.678
 2150SOL    HW2 7350   3.715   2.134   2.769
 2151SOL     OW 7351   3.417   2.623   5.740
 2151SOL    HW1 7352   3.423   2.557   5.666
 2151SOL    HW2 7353   3.338   2.601   5.798
 2152SOL     OW 7354   5.896   6.841   2.181
 2152SOL    HW1 7355   5.931   6.772   2.244
 2152SOL    HW2 7356   5.856   6.796   2.101
 2153SOL     OW 7357   4.599   1.500   3.815
 2153SOL    HW1 7358   4.695   1.496   3.787
 2153SOL    HW2 7359   4.591   1.468   3.910
 2154SOL     OW 7360   2.872   5.395   4.605
 2154SOL    HW1 7361   2.886   5.480   4.656
 2154SOL    HW2 7362   2.807   5.337   4.653
 2155SOL     OW 7363   2.236   5.142   0.340
 2155SOL    HW1 7364   2.236   5.056   0.289
 2155SOL    HW2 7365   2.199   5.127   0.431
 2156SOL     OW 7366   1.941   0.227   1.201
 2156SOL    HW1 7367   2.023   0.265   1.245
 2156SOL    HW2 7368   1.968   0.174   1.121
 2157SOL     OW 7369   0.172   1.394   5.186
 2157SOL    HW1 7370   0.077   1.378   5.214
 2157SOL    HW2 7371   0.218   1.449   5.256
 2158SOL     OW 7372   3.918   6.987   0.971
 2158SOL    HW1 7373   4.007   6.960   1.008
 2158SOL    HW2 7374   3.848   6.978   1.042
 2159SOL     OW 7375   1.454   0.103   4.772
 2159SOL    HW1 7376   1.436   0.200   4.758
 2159SOL    HW2 7377   1.543   0.091   4.816
 2160SOL     OW 7378   4.158   4.177   1.195
 2160SOL    HW1 7379   4.099   4.227   1.258
 2160SOL    HW2 7380   4.254   4.189   1.222
 2161SOL     OW 7381   4.923   3.598   2.997
 2161SOL    HW1 7382   4.925   3.498   3.000
 2161SOL    HW2 7383   4.883   3.629   2.910
 2162SOL     OW 7384   2.262   0.428   6.642
 2162SOL    HW1 7385   2.315   0.433   6.727
 2162SOL    HW2 7386   2.279   0.510   6.588
 2163SOL     OW 7387   1.648   0.054   0.243
 2163SOL    HW1 7388   1.594   0.087   0.165
 2163SOL    HW2 7389   1.689   6.990   0.220
 2164SOL     OW 7390   2.103   0.822   6.377
 2164SOL    HW1 7391   2.101   0.858   6.284
 2164SOL    HW2 7392   2.193   0.783   6.396
 2165SOL     OW 7393   1.460   0.987   2.836
 2165SOL    HW1 7394   1.431   1.053   2.767
 2165SOL    HW2 7395   1.554   0.958   2.817
 2166SOL     OW 7396   1.258   1.909   5.515
 2166SOL    HW1 7397   1.210   1.973   5.456
 2166SOL    HW2 7398   1.312   1.845   5.460
 2167SOL     OW 7399   2.602   0.877   2.251
 2167SOL    HW1 7400   2.556   0.882   2.339
 2167SOL    HW2 7401   2.564   0.946   2.189
 2168SOL     OW 7402   5.725   3.559   4.835
 2168SOL    HW1 7403   5.772   3.499   4.770
 2168SOL    HW2 7404   5.645   3.599   4.791
 2169SOL     OW 7405   5.693   2.894   5.924
 2169SOL    HW1 7406   5.612   2.859   5.970
 2169SOL    HW2 7407   5.694   2.862   5.829
 2170SOL     OW 7408   5.286   4.725   5.340
 2170SOL    HW1 7409   5.354   4.752   5.271
 2170SOL    HW2 7410   5.216   4.667   5.297
 2171SOL     OW 7411   6.741   3.263   0.133
 2171SOL    HW1 7412   6.757   3.202   0.056
 2171SOL    HW2 7413   6.810   3.335   0.135
 2172SOL     OW 7414   3.140   1.461   0.515
 2172SOL    HW1 7415   3.061   1.401   0.531
 2172SOL    HW2 7416   3.129   1.545   0.567
 2173SOL     OW 7417   4.156   0.356   5.649
 2173SOL    HW1 7418   4.057   0.357   5.654
 2173SOL    HW2 7419   4.186   0.281   5.589
 2174SOL     OW 7420   6.702   4.490   4.912
 2174SOL    HW1 7421   6.779   4.433   4.942
 2174SOL    HW2 7422   6.722   4.586   4.932
 2175SOL     OW 7423   2.798   0.077   2.760
 2175SOL    HW1 7424   2.795   0.001   2.826
 2175SOL    HW2 7425   2.889   0.119   2.763
 2176SOL     OW 7426   2.164   2.682   2.021
 2176SOL    HW1 7427   2.163   2.747   2.098
 2176SOL    HW2 7428   2.077   2.635   2.017
 2177SOL     OW 7429   6.362   1.814   1.218
 2177SOL    HW1 7430   6.399   1.747   1.283
 2177SOL    HW2 7431   6.331   1.767   1.136
 2178SOL     OW 7432   1.179   5.149   0.135
 2178SOL    HW1 7433   1.163   5.056   0.170
 2178SOL    HW2 7434   1.092   5.198   0.131
 2179SOL     OW 7435   0.915   5.905   3.815
 2179SOL    HW1 7436   0.832   5.937   3.769
 2179SOL    HW2 7437   0.891   5.832   3.879
 2180SOL     OW 7438   3.143   3.847   2.731
 2180SOL    HW1 7439   3.125   3.753   2.701
 2180SOL    HW2 7440   3.099   3.862   2.819
 2181SOL     OW 7441   4.828   5.455   5.568
 2181SOL    HW1 7442   4.778   5.534   5.532
 2181SOL    HW2 7443   4.775   5.413   5.642
 2182SOL     OW 7444   6.583   3.621   6.865
 2182SOL    HW1 7445   6.651   3.651   6.931
 2182SOL    HW2 7446   6.528   3.548   6.906
 2183SOL     OW 7447   3.047   2.995   0.607
 2183SOL    HW1 7448   3.020   2.921   0.669
 2183SOL    HW2 7449   3.059   2.958   0.515
 2184SOL     OW 7450   3.576   1.341   6.807
 2184SOL    HW1 7451   3.653   1.296   6.762
 2184SOL    HW2 7452   3.522   1.273   6.857
 2185SOL     OW 7453   1.777   0.555   0.483
 2185SOL    HW1 7454   1.825   0.573   0.568
 2185SOL    HW2 7455   1.741   0.641   0.446
 2186SOL     OW 7456   0.081   4.709   2.604
 2186SOL    HW1 7457   0.128   4.797   2.611
 2186SOL    HW2 7458   0.080   4.665   2.694
 2187SOL     OW 7459   6.321   1.420   1.152
 2187SOL    HW1 7460   6.403   1.472   1.178
 2187SOL    HW2 7461   6.253   1.427   1.225
 2188SOL     OW 7462   5.282   6.536   3.732
 2188SOL    HW1 7463   5.193   6.534   3.779
 2188SOL    HW2 7464   5.309   6.443   3.709
 2189SOL     OW 7465   1.835   0.156   5.971
 2189SOL    HW1 7466   1.871   0.224   6.035
 2189SOL    HW2 7467   1.843   0.065   6.010
 2190SOL     OW 7468   6.537   2.490   1.832
 2190SOL    HW1 7469   6.541   2.576   1.781
 2190SOL    HW2 7470   6.510   2.416   1.770
 2191SOL     OW 7471   3.590   2.881   6.616
 2191SOL    HW1 7472   3.571   2.972   6.652
 2191SOL    HW2 7473   3.557   2.812   6.680
 2192SOL     OW 7474   4.215   6.239   5.330
 2192SOL    HW1 7475   4.125   6.232   5.372
 2192SOL    HW2 7476   4.241   6.151   5.291
 2193SOL     OW 7477   0.911   5.175   5.373
 2193SOL    HW1 7478   0.837   5.186   5.439
 2193SOL    HW2 7479   0.883   5.213   5.285
 2194SOL     OW 7480   2.195   6.125   0.382
 2194SOL    HW1 7481   2.181   6.026   0.382
 2194SOL    HW2 7482   2.243   6.151   0.466
 2195SOL     OW 7483   0.997   5.581   2.561
 2195SOL    HW1 7484   1.030   5.526   2.637
 2195SOL    HW2 7485   1.069   5.644   2.530
 2196SOL     OW 7486   3.542   1.458   5.641
 2196SOL    HW1 7487   3.476   1.421   5.576
 2196SOL    HW2 7488   3.609   1.514   5.592
 2197SOL     OW 7489   5.037   4.295   1.704
 2197SOL    HW1 7490   5.048   4.342   1.616
 2197SOL    HW2 7491   5.059   4.198   1.692
 2198SOL     OW 7492   6.891   4.265   0.007
 2198SOL    HW1 7493   6.814   4.235   6.975
 2198SOL    HW2 7494   6.892   4.365   0.012
 2199SOL     OW 7495   4.783   6.881   0.450
 2199SOL    HW1 7496   4.820   6.938   0.378
 2199SOL    HW2 7497   4.851   6.811   0.475
 2200SOL     OW 7498   4.171   0.884   4.626
 2200SOL    HW1 7499   4.264   0.847   4.628
 2200SOL    HW2 7500   4.113   0.830   4.687
 2201SOL     OW 7501   6.281   3.166   2.236
 2201SOL    HW1 7502   6.360   3.221   2.210
 2201SOL    HW2 7503   6.225   3.216   2.302
 2202SOL     OW 7504   3.639   5.052   4.033
 2202SOL    HW1 7505   3.693   5.117   3.979
 2202SOL    HW2 7506   3.556   5.098   4.067
 2203SOL     OW 7507   3.382   2.055   3.659
 2203SOL    HW1 7508   3.433   2.095   3.583
 2203SOL    HW2 7509   3.412   2.097   3.745
 2204SOL     OW 7510   2.943   1.751   0.154
 2204SOL    HW1 7511   3.037   1.777   0.173
 2204SOL    HW2 7512   2.899   1.721   0.239
 2205SOL     OW 7513   1.741   6.845   0.185
 2205SOL    HW1 7514   1.662   6.783   0.185
 2205SOL    HW2 7515   1.825   6.791   0.192
 2206SOL     OW 7516   3.429   3.643   6.728
 2206SOL    HW1 7517   3.515   3.684   6.757
 2206SOL    HW2 7518   3.427   3.635   6.629
 2207SOL     OW 7519   1.487   4.678   5.984
 2207SOL    HW1 7520   1.433   4.709   6.062
 2207SOL    HW2 7521   1.492   4.578   5.984
 2208SOL     OW 7522   0.193   3.459   2.041
 2208SOL    HW1 7523   0.225   3.391   1.975
 2208SOL    HW2 7524   0.191   3.419   2.132
 2209SOL     OW 7525   1.528   5.370   6.519
 2209SOL    HW1 7526   1.591   5.414   6.583
 2209SOL    HW2 7527   1.452   5.330   6.571
 2210SOL     OW 7528   0.806   5.684   3.600
 2210SOL    HW1 7529   0.731   5.707   3.538
 2210SOL    HW2 7530   0.849   5.599   3.570
 2211SOL     OW 7531   6.228   1.319   5.212
 2211SOL    HW1 7532   6.237   1.278   5.303
 2211SOL    HW2 7533   6.317   1.316   5.166
 2212SOL     OW 7534   1.060   0.354   5.965
 2212SOL    HW1 7535   1.030   0.428   5.905
 2212SOL    HW2 7536   0.980   0.313   6.009
 2213SOL     OW 7537   4.154   2.294   3.571
 2213SOL    HW1 7538   4.110   2.383   3.572
 2213SOL    HW2 7539   4.207   2.283   3.487
 2214SOL     OW 7540   5.244   0.322   4.452
 2214SOL    HW1 7541   5.194   0.280   4.376
 2214SOL    HW2 7542   5.319   0.262   4.479
 2215SOL     OW 7543   6.896   1.970   5.532
 2215SOL    HW1 7544   6.891   1.870   5.530
 2215SOL    HW2 7545   6.989   1.999   5.511
 2216SOL     OW 7546   1.037   6.640   0.616
 2216SOL    HW1 7547   1.049   6.541   0.621
 2216SOL    HW2 7548   1.116   6.681   0.571
 2217SOL     OW 7549   4.692   0.212   1.191
 2217SOL    HW1 7550   4.595   0.209   1.165
 2217SOL    HW2 7551   4.701   0.190   1.288
 2218SOL     OW 7552   1.223   5.435   6.163
 2218SOL    HW1 7553   1.219   5.430   6.262
 2218SOL    HW2 7554   1.313   5.405   6.132
 2219SOL     OW 7555   1.324   4.015   3.063
 2219SOL    HW1 7556   1.299   3.974   2.975
 2219SOL    HW2 7557   1.274   4.100   3.075
 2220SOL     OW 7558   0.503   2.060   5.364
 2220SOL    HW1 7559   0.439   2.126   5.405
 2220SOL    HW2 7560   0.515   1.982   5.425
 2221SOL     OW 7561   6.686   1.909   1.443
 2221SOL    HW1 7562   6.685   1.815   1.477
 2221SOL    HW2 7563   6.722   1.969   1.515
 2222SOL     OW 7564   4.975   6.955   2.390
 2222SOL    HW1 7565   4.973   6.858   2.369
 2222SOL    HW2 7566   4.882   6.992   2.386
 2223SOL     OW 7567   5.761   5.607   4.169
 2223SOL    HW1 7568   5.799   5.517   4.148
 2223SOL    HW2 7569   5.825   5.678   4.139
 2224SOL     OW 7570   1.915   5.145   1.852
 2224SOL    HW1 7571   1.992   5.092   1.816
 2224SOL    HW2 7572   1.842   5.084   1.881
 2225SOL     OW 7573   6.506   4.893   2.306
 2225SOL    HW1 7574   6.419   4.913   2.352
 2225SOL    HW2 7575   6.487   4.845   2.221
 2226SOL     OW 7576   3.817   2.722   1.197
 2226SOL    HW1 7577   3.804   2.653   1.126
 2226SOL    HW2 7578   3.910   2.759   1.193
 2227SOL     OW 7579   6.541   4.108   5.873
 2227SOL    HW1 7580   6.528   4.188   5.932
 2227SOL    HW2 7581   6.455   4.058   5.866
 2228SOL     OW 7582   2.964   4.592   6.283
 2228SOL    HW1 7583   2.948   4.495   6.298
 2228SOL    HW2 7584   2.999   4.634   6.367
 2229SOL     OW 7585   4.572   1.428   3.365
 2229SOL    HW1 7586   4.479   1.415   3.401
 2229SOL    HW2 7587   4.615   1.339   3.353
 2230SOL     OW 7588   0.707   5.603   4.992
 2230SOL    HW1 7589   0.737   5.523   5.044
 2230SOL    HW2 7590   0.780   5.632   4.930
 2231SOL     OW 7591   2.228   0.364   1.826
 2231SOL    HW1 7592   2.231   0.452   1.778
 2231SOL    HW2 7593   2.297   0.303   1.789
 2232SOL     OW 7594   6.827   2.906   2.608
 2232SOL    HW1 7595   6.886   2.961   2.668
 2232SOL    HW2 7596   6.847   2.809   2.622
 2233SOL     OW 7597   3.780   6.271   0.543
 2233SOL    HW1 7598   3.830   6.203   0.596
 2233SOL    HW2 7599   3.687   6.239   0.525
 2234SOL     OW 7600   3.543   1.224   0.717
 2234SOL    HW1 7601   3.605   1.298   0.688
 2234SOL    HW2 7602   3.463   1.223   0.658
 2235SOL     OW 7603   1.100   0.084   0.596
 2235SOL    HW1 7604   1.165   0.013   0.571
 2235SOL    HW2 7605   1.026   0.087   0.529
 2236SOL     OW 7606   0.596   4.497   1.273
 2236SOL    HW1 7607   0.662   4.512   1.199
 2236SOL    HW2 7608   0.631   4.426   1.334
 2237SOL     OW 7609   0.036   3.013   4.737
 2237SOL    HW1 7610   0.010   2.994   4.642
 2237SOL    HW2 7611   0.129   3.051   4.738
 2238SOL     OW 7612   0.320   5.748   2.116
 2238SOL    HW1 7613   0.282   5.795   2.196
 2238SOL    HW2 7614   0.420   5.746   2.123
 2239SOL     OW 7615   3.954   4.962   3.792
 2239SOL    HW1 7616   4.010   4.916   3.860
 2239SOL    HW2 7617   3.964   4.915   3.704
 2240SOL     OW 7618   6.838   5.086   3.029
 2240SOL    HW1 7619   6.842   5.009   2.964
 2240SOL    HW2 7620   6.764   5.071   3.094
 2241SOL     OW 7621   6.973   6.584   1.781
 2241SOL    HW1 7622   0.025   6.641   1.812
 2241SOL    HW2 7623   6.892   6.605   1.837
 2242SOL     OW 7624   4.970   2.256   2.858
 2242SOL    HW1 7625   4.947   2.353   2.851
 2242SOL    HW2 7626   5.031   2.242   2.936
 2243SOL     OW 7627   2.279   6.012   5.068
 2243SOL    HW1 7628   2.345   5.974   5.134
 2243SOL    HW2 7629   2.320   6.010   4.977
 2244SOL     OW 7630   2.390   0.278   4.312
 2244SOL    HW1 7631   2.372   0.243   4.404
 2244SOL    HW2 7632   2.357   0.372   4.305
 2245SOL     OW 7633   0.455   1.656   2.723
 2245SOL    HW1 7634   0.480   1.658   2.626
 2245SOL    HW2 7635   0.367   1.702   2.734
 2246SOL     OW 7636   1.076   3.913   6.377
 2246SOL    HW1 7637   1.033   3.898   6.467
 2246SOL    HW2 7638   1.169   3.877   6.378
 2247SOL     OW 7639   2.036   2.416   6.114
 2247SOL    HW1 7640   1.943   2.386   6.138
 2247SOL    HW2 7641   2.058   2.387   6.021
 2248SOL     OW 7642   4.683   4.349   5.447
 2248SOL    HW1 7643   4.730   4.269   5.409
 2248SOL    HW2 7644   4.699   4.352   5.546
 2249SOL     OW 7645   5.428   5.834   3.153
 2249SOL    HW1 7646   5.394   5.928   3.153
 2249SOL    HW2 7647   5.528   5.834   3.147
 2250SOL     OW 7648   6.407   4.138   1.168
 2250SOL    HW1 7649   6.333   4.129   1.102
 2250SOL    HW2 7650   6.383   4.092   1.253
 2251SOL     OW 7651   5.713   1.320   6.844
 2251SOL    HW1 7652   5.698   1.241   6.904
 2251SOL    HW2 7653   5.704   1.404   6.896
 2252SOL     OW 7654   5.340   2.746   4.921
 2252SOL    HW1 7655   5.332   2.838   4.881
 2252SOL    HW2 7656   5.430   2.736   4.964
 2253SOL     OW 7657   2.627   2.988   6.662
 2253SOL    HW1 7658   2.701   2.948   6.716
 2253SOL    HW2 7659   2.584   3.062   6.714
 2254SOL     OW 7660   1.956   3.419   6.324
 2254SOL    HW1 7661   1.942   3.372   6.237
 2254SOL    HW2 7662   1.919   3.511   6.318
 2255SOL     OW 7663   6.244   2.487   1.989
 2255SOL    HW1 7664   6.208   2.501   1.896
 2255SOL    HW2 7665   6.306   2.561   2.012
 2256SOL     OW 7666   4.063   4.960   2.204
 2256SOL    HW1 7667   4.110   4.872   2.211
 2256SOL    HW2 7668   4.034   4.975   2.109
 2257SOL     OW 7669   1.719   3.653   4.034
 2257SOL    HW1 7670   1.782   3.723   3.998
 2257SOL    HW2 7671   1.760   3.609   4.113
 2258SOL     OW 7672   1.789   5.341   5.171
 2258SOL    HW1 7673   1.709   5.401   5.160
 2258SOL    HW2 7674   1.794   5.311   5.267
 2259SOL     OW 7675   5.290   3.798   6.748
 2259SOL    HW1 7676   5.212   3.746   6.714
 2259SOL    HW2 7677   5.265   3.842   6.834
 2260SOL     OW 7678   5.149   5.054   1.805
 2260SOL    HW1 7679   5.095   4.991   1.748
 2260SOL    HW2 7680   5.203   5.114   1.746
 2261SOL     OW 7681   5.394   6.444   1.211
 2261SOL    HW1 7682   5.296   6.424   1.199
 2261SOL    HW2 7683   5.430   6.482   1.126
 2262SOL     OW 7684   5.226   2.505   3.943
 2262SOL    HW1 7685   5.210   2.592   3.896
 2262SOL    HW2 7686   5.219   2.518   4.042
 2263SOL     OW 7687   1.462   5.132   5.964
 2263SOL    HW1 7688   1.446   5.153   5.868
 2263SOL    HW2 7689   1.559   5.110   5.978
 2264SOL     OW 7690   3.145   3.559   3.042
 2264SOL    HW1 7691   3.138   3.459   3.047
 2264SOL    HW2 7692   3.092   3.592   2.964
 2265SOL     OW 7693   0.020   0.495   2.452
 2265SOL    HW1 7694   0.036   0.432   2.376
 2265SOL    HW2 7695   6.947   0.518   2.456
 2266SOL     OW 7696   6.101   0.625   0.740
 2266SOL    HW1 7697   6.189   0.579   0.740
 2266SOL    HW2 7698   6.057   0.615   0.829
 2267SOL     OW 7699   6.091   2.501   5.298
 2267SOL    HW1 7700   6.103   2.559   5.379
 2267SOL    HW2 7701   6.133   2.412   5.314
 2268SOL     OW 7702   0.034   6.286   0.063
 2268SOL    HW1 7703   0.010   6.303   6.991
 2268SOL    HW2 7704   6.987   6.230   0.105
 2269SOL     OW 7705   6.602   5.760   5.967
 2269SOL    HW1 7706   6.591   5.767   5.868
 2269SOL    HW2 7707   6.560   5.675   5.999
 2270SOL     OW 7708   2.963   3.147   2.016
 2270SOL    HW1 7709   2.893   3.208   1.980
 2270SOL    HW2 7710   3.004   3.095   1.941
 2271SOL     OW 7711   5.848   4.699   1.896
 2271SOL    HW1 7712   5.837   4.725   1.800
 2271SOL    HW2 7713   5.764   4.655   1.928
 2272SOL     OW 7714   5.490   1.886   5.548
 2272SOL    HW1 7715   5.445   1.916   5.633
 2272SOL    HW2 7716   5.514   1.789   5.555
 2273SOL     OW 7717   0.835   1.223   3.687
 2273SOL    HW1 7718   0.849   1.166   3.606
 2273SOL    HW2 7719   0.922   1.266   3.713
 2274SOL     OW 7720   1.535   3.445   4.872
 2274SOL    HW1 7721   1.627   3.473   4.901
 2274SOL    HW2 7722   1.517   3.478   4.780
 2275SOL     OW 7723   5.330   5.737   4.851
 2275SOL    HW1 7724   5.358   5.660   4.794
 2275SOL    HW2 7725   5.261   5.791   4.803
 2276SOL     OW 7726   4.251   4.059   0.775
 2276SOL    HW1 7727   4.220   4.117   0.699
 2276SOL    HW2 7728   4.341   4.090   0.806
 2277SOL     OW 7729   3.270   3.167   6.555
 2277SOL    HW1 7730   3.196   3.105   6.581
 2277SOL    HW2 7731   3.254   3.257   6.596
 2278SOL     OW 7732   5.550   6.099   1.728
 2278SOL    HW1 7733   5.646   6.117   1.709
 2278SOL    HW2 7734   5.495   6.180   1.707
 2279SOL     OW 7735   5.702   3.045   4.992
 2279SOL    HW1 7736   5.785   3.023   4.940
 2279SOL    HW2 7737   5.636   3.091   4.933
 2280SOL     OW 7738   6.186   6.100   5.504
 2280SOL    HW1 7739   6.184   6.200   5.507
 2280SOL    HW2 7740   6.271   6.067   5.547
 2281SOL     OW 7741   3.413   2.000   1.635
 2281SOL    HW1 7742   3.337   1.959   1.585
 2281SOL    HW2 7743   3.497   1.951   1.612
 2282SOL     OW 7744   4.721   5.702   3.424
 2282SOL    HW1 7745   4.764   5.662   3.343
 2282SOL    HW2 7746   4.790   5.753   3.476
 2283SOL     OW 7747   0.153   3.589   3.432
 2283SOL    HW1 7748   0.163   3.624   3.525
 2283SOL    HW2 7749   0.240   3.551   3.401
 2284SOL     OW 7750   2.536   2.019   1.828
 2284SOL    HW1 7751   2.443   2.047   1.804
 2284SOL    HW2 7752   2.597   2.039   1.752
 2285SOL     OW 7753   1.085   3.657   0.460
 2285SOL    HW1 7754   1.138   3.665   0.544
 2285SOL    HW2 7755   1.125   3.715   0.389
 2286SOL     OW 7756   6.181   6.201   4.415
 2286SOL    HW1 7757   6.188   6.300   4.425
 2286SOL    HW2 7758   6.097   6.169   4.460
 2287SOL     OW 7759   2.489   2.480   1.443
 2287SOL    HW1 7760   2.514   2.438   1.355
 2287SOL    HW2 7761   2.572   2.506   1.492
 2288SOL     OW 7762   6.930   6.463   2.486
 2288SOL    HW1 7763   6.878   6.535   2.531
 2288SOL    HW2 7764   6.870   6.384   2.470
 2289SOL     OW 7765   6.154   1.493   2.297
 2289SOL    HW1 7766   6.064   1.527   2.269
 2289SOL    HW2 7767   6.224   1.562   2.275
 2290SOL     OW 7768   3.142   4.034   3.397
 2290SOL    HW1 7769   3.195   4.061   3.316
 2290SOL    HW2 7770   3.190   4.065   3.480
 2291SOL     OW 7771   2.008   2.246   1.450
 2291SOL    HW1 7772   2.050   2.312   1.513
 2291SOL    HW2 7773   2.046   2.260   1.358
 2292SOL     OW 7774   4.612   1.958   3.135
 2292SOL    HW1 7775   4.629   1.863   3.108
 2292SOL    HW2 7776   4.525   1.989   3.097
 2293SOL     OW 7777   5.528   1.413   0.756
 2293SOL    HW1 7778   5.488   1.491   0.803
 2293SOL    HW2 7779   5.457   1.367   0.702
 2294SOL     OW 7780   1.391   2.516   6.411
 2294SOL    HW1 7781   1.419   2.514   6.315
 2294SOL    HW2 7782   1.318   2.583   6.423
 2295SOL     OW 7783   0.006   6.986   2.036
 2295SOL    HW1 7784   0.105   6.972   2.036
 2295SOL    HW2 7785   6.985   6.902   2.066
 2296SOL     OW 7786   2.635   5.513   3.482
 2296SOL    HW1 7787   2.594   5.525   3.391
 2296SOL    HW2 7788   2.596   5.431   3.525
 2297SOL     OW 7789   4.481   5.146   5.431
 2297SOL    HW1 7790   4.503   5.244   5.428
 2297SOL    HW2 7791   4.492   5.107   5.339
 2298SOL     OW 7792   3.704   3.223   4.659
 2298SOL    HW1 7793   3.609   3.242   4.634
 2298SOL    HW2 7794   3.764   3.290   4.616
 2299SOL     OW 7795   5.878   3.104   5.208
 2299SOL    HW1 7796   5.800   3.086   5.148
 2299SOL    HW2 7797   5.963   3.081   5.161
 2300SOL     OW 7798   4.037   6.121   3.146
 2300SOL    HW1 7799   3.971   6.048   3.128
 2300SOL    HW2 7800   4.003   6.178   3.221
 2301SOL     OW 7801   3.233   2.934   4.426
 2301SOL    HW1 7802   3.195   2.935   4.333
 2301SOL    HW2 7803   3.333   2.935   4.420
 2302SOL     OW 7804   4.350   1.760   0.140
 2302SOL    HW1 7805   4.320   1.718   0.054
 2302SOL    HW2 7806   4.439   1.723   0.166
 2303SOL     OW 7807   2.660   2.292   0.629
 2303SOL    HW1 7808   2.682   2.218   0.692
 2303SOL    HW2 7809   2.563   2.286   0.604
 2304SOL     OW 7810   6.035   6.081   2.750
 2304SOL    HW1 7811   6.031   6.000   2.690
 2304SOL    HW2 7812   5.970   6.149   2.718
 2305SOL     OW 7813   1.420   1.207   5.238
 2305SOL    HW1 7814   1.330   1.250   5.244
 2305SOL    HW2 7815   1.490   1.278   5.230
 2306SOL     OW 7816   2.289   4.786   3.639
 2306SOL    HW1 7817   2.360   4.801   3.709
 2306SOL    HW2 7818   2.325   4.727   3.568
 2307SOL     OW 7819   1.214   2.442   5.543
 2307SOL    HW1 7820   1.136   2.406   5.594
 2307SOL    HW2 7821   1.247   2.526   5.587
 2308SOL     OW 7822   2.630   4.553   1.755
 2308SOL    HW1 7823   2.565   4.562   1.830
 2308SOL    HW2 7824   2.718   4.522   1.791
 2309SOL     OW 7825   1.329   6.350   4.197
 2309SOL    HW1 7826   1.415   6.375   4.154
 2309SOL    HW2 7827   1.284   6.279   4.144
 2310SOL     OW 7828   4.249   6.961   1.471
 2310SOL    HW1 7829   4.228   0.026   1.510
 2310SOL    HW2 7830   4.285   6.973   1.378
 2311SOL     OW 7831   2.736   5.807   0.862
 2311SOL    HW1 7832   2.757   5.828   0.767
 2311SOL    HW2 7833   2.706   5.890   0.909
 2312SOL     OW 7834   3.639   5.482   2.690
 2312SOL    HW1 7835   3.563   5.494   2.753
 2312SOL    HW2 7836   3.705   5.416   2.728
 2313SOL     OW 7837   4.546   4.782   2.329
 2313SOL    HW1 7838   4.602   4.702   2.311
 2313SOL    HW2 7839   4.528   4.789   2.427
 2314SOL     OW 7840   3.094   5.889   3.509
 2314SOL    HW1 7841   3.094   5.789   3.503
 2314SOL    HW2 7842   3.184   5.924   3.484
 2315SOL     OW 7843   4.391   3.365   5.908
 2315SOL    HW1 7844   4.456   3.289   5.914
 2315SOL    HW2 7845   4.302   3.330   5.879
 2316SOL     OW 7846   5.649   3.378   3.145
 2316SOL    HW1 7847   5.551   3.395   3.155
 2316SOL    HW2 7848   5.678   3.310   3.212
 2317SOL     OW 7849   1.967   4.656   3.464
 2317SOL    HW1 7850   1.949   4.716   3.542
 2317SOL    HW2 7851   2.045   4.598   3.485
 2318SOL     OW 7852   0.611   1.168   3.007
 2318SOL    HW1 7853   0.512   1.159   3.001
 2318SOL    HW2 7854   0.634   1.263   3.029
 2319SOL     OW 7855   1.469   5.142   4.636
 2319SOL    HW1 7856   1.451   5.050   4.671
 2319SOL    HW2 7857   1.511   5.136   4.545
 2320SOL     OW 7858   0.077   2.771   4.149
 2320SOL    HW1 7859   0.134   2.726   4.081
 2320SOL    HW2 7860   7.008   2.782   4.113
 2321SOL     OW 7861   3.141   6.726   4.778
 2321SOL    HW1 7862   3.108   6.708   4.685
 2321SOL    HW2 7863   3.074   6.694   4.844
 2322SOL     OW 7864   1.755   0.788   5.353
 2322SOL    HW1 7865   1.679   0.830   5.303
 2322SOL    HW2 7866   1.726   0.767   5.447
 2323SOL     OW 7867   4.540   5.692   2.539
 2323SOL    HW1 7868   4.564   5.641   2.622
 2323SOL    HW2 7869   4.540   5.790   2.559
 2324SOL     OW 7870   0.453   5.878   2.631
 2324SOL    HW1 7871   0.465   5.956   2.692
 2324SOL    HW2 7872   0.417   5.909   2.543
 2325SOL     OW 7873   1.333   4.073   1.181
 2325SOL    HW1 7874   1.427   4.053   1.152
 2325SOL    HW2 7875   1.294   4.143   1.122
 2326SOL     OW 7876   1.548   5.176   6.948
 2326SOL    HW1 7877   1.453   5.194   6.922
 2326SOL    HW2 7878   1.552   5.091   7.001
 2327SOL     OW 7879   5.121   2.471   3.644
 2327SOL    HW1 7880   5.123   2.391   3.704
 2327SOL    HW2 7881   5.207   2.477   3.593
 2328SOL     OW 7882   4.519   1.336   2.937
 2328SOL    HW1 7883   4.434   1.385   2.916
 2328SOL    HW2 7884   4.596   1.397   2.922
 2329SOL     OW 7885   1.223   5.948   3.765
 2329SOL    HW1 7886   1.283   5.949   3.686
 2329SOL    HW2 7887   1.145   5.888   3.748
 2330SOL     OW 7888   0.574   4.274   2.880
 2330SOL    HW1 7889   0.505   4.345   2.873
 2330SOL    HW2 7890   0.548   4.196   2.823
 2331SOL     OW 7891   0.505   4.244   5.154
 2331SOL    HW1 7892   0.462   4.242   5.064
 2331SOL    HW2 7893   0.601   4.220   5.146
 2332SOL     OW 7894   5.391   2.001   5.776
 2332SOL    HW1 7895   5.357   2.087   5.739
 2332SOL    HW2 7896   5.350   1.985   5.866
 2333SOL     OW 7897   1.001   5.586   3.363
 2333SOL    HW1 7898   0.950   5.544   3.287
 2333SOL    HW2 7899   1.082   5.633   3.326
 2334SOL     OW 7900   3.003   0.108   6.611
 2334SOL    HW1 7901   3.027   0.085   6.705
 2334SOL    HW2 7902   2.950   0.033   6.571
 2335SOL     OW 7903   4.848   6.973   3.277
 2335SOL    HW1 7904   4.925   6.992   3.338
 2335SOL    HW2 7905   4.762   6.978   3.328
 2336SOL     OW 7906   4.764   0.873   5.937
 2336SOL    HW1 7907   4.731   0.967   5.929
 2336SOL    HW2 7908   4.863   0.873   5.948
 2337SOL     OW 7909   5.081   0.090   3.084
 2337SOL    HW1 7910   5.014   0.017   3.083
 2337SOL    HW2 7911   5.093   0.123   3.178
 2338SOL     OW 7912   0.609   6.834   6.431
 2338SOL    HW1 7913   0.605   6.854   6.333
 2338SOL    HW2 7914   0.567   6.909   6.482
 2339SOL     OW 7915   3.751   4.773   0.078
 2339SOL    HW1 7916   3.688   4.816   0.143
 2339SOL    HW2 7917   3.765   4.834   0.001
 2340SOL     OW 7918   3.451   5.661   4.679
 2340SOL    HW1 7919   3.355   5.643   4.699
 2340SOL    HW2 7920   3.503   5.662   4.764
 2341SOL     OW 7921   5.327   5.130   1.256
 2341SOL    HW1 7922   5.349   5.173   1.169
 2341SOL    HW2 7923   5.321   5.199   1.328
 2342SOL     OW 7924   6.436   0.414   5.011
 2342SOL    HW1 7925   6.480   0.495   4.971
 2342SOL    HW2 7926   6.439   0.339   4.945
 2343SOL     OW 7927   1.158   5.435   0.785
 2343SOL    HW1 7928   1.146   5.531   0.809
 2343SOL    HW2 7929   1.183   5.428   0.689
 2344SOL     OW 7930   2.117   2.086   2.526
 2344SOL    HW1 7931   2.090   2.000   2.484
 2344SOL    HW2 7932   2.176   2.137   2.464
 2345SOL     OW 7933   1.942   0.965   4.221
 2345SOL    HW1 7934   1.974   1.047   4.269
 2345SOL    HW2 7935   2.000   0.949   4.142
 2346SOL     OW 7936   5.350   3.858   5.711
 2346SOL    HW1 7937   5.413   3.847   5.787
 2346SOL    HW2 7938   5.300   3.944   5.720
 2347SOL     OW 7939   1.645   2.829   1.782
 2347SOL    HW1 7940   1.693   2.916   1.774
 2347SOL    HW2 7941   1.612   2.817   1.876
 2348SOL     OW 7942   2.806   6.193   2.614
 2348SOL    HW1 7943   2.843   6.278   2.576
 2348SOL    HW2 7944   2.877   6.123   2.616
 2349SOL     OW 7945   6.570   6.455   6.248
 2349SOL    HW1 7946   6.656   6.506   6.237
 2349SOL    HW2 7947   6.556   6.436   6.345
 2350SOL     OW 7948   2.827   0.305   6.144
 2350SOL    HW1 7949   2.827   0.375   6.072
 2350SOL    HW2 7950   2.827   0.214   6.102
 2351SOL     OW 7951   2.350   5.303   4.187
 2351SOL    HW1 7952   2.446   5.276   4.198
 2351SOL    HW2 7953   2.337   5.343   4.096
 2352SOL     OW 7954   0.367   4.126   3.386
 2352SOL    HW1 7955   0.321   4.215   3.389
 2352SOL    HW2 7956   0.308   4.057   3.429
 2353SOL     OW 7957   2.852   4.306   5.845
 2353SOL    HW1 7958   2.924   4.319   5.777
 2353SOL    HW2 7959   2.782   4.377   5.834
 2354SOL     OW 7960   3.412   1.920   0.727
 2354SOL    HW1 7961   3.396   1.885   0.819
 2354SOL    HW2 7962   3.482   1.864   0.682
 2355SOL     OW 7963   0.595   6.360   0.173
 2355SOL    HW1 7964   0.667   6.427   0.157
 2355SOL    HW2 7965   0.621   6.273   0.129
 2356SOL     OW 7966   2.548   5.123   2.957
 2356SOL    HW1 7967   2.509   5.054   3.019
 2356SOL    HW2 7968   2.474   5.180   2.921
 2357SOL     OW 7969   6.215   4.306   2.160
 2357SOL    HW1 7970   6.128   4.260   2.141
 2357SOL    HW2 7971   6.234   4.371   2.087
 2358SOL     OW 7972   3.478   1.030   5.834
 2358SOL    HW1 7973   3.545   0.957   5.820
 2358SOL    HW2 7974   3.431   1.050   5.748
 2359SOL     OW 7975   1.971   1.409   5.582
 2359SOL    HW1 7976   1.917   1.485   5.546
 2359SOL    HW2 7977   1.938   1.385   5.673
 2360SOL     OW 7978   4.639   4.610   0.857
 2360SOL    HW1 7979   4.577   4.643   0.928
 2360SOL    HW2 7980   4.708   4.680   0.836
 2361SOL     OW 7981   3.390   6.667   2.266
 2361SOL    HW1 7982   3.341   6.639   2.183
 2361SOL    HW2 7983   3.392   6.767   2.271
 2362SOL     OW 7984   4.102   5.423   4.706
 2362SOL    HW1 7985   4.027   5.357   4.707
 2362SOL    HW2 7986   4.135   5.435   4.612
 2363SOL     OW 7987   3.285   3.356   0.421
 2363SOL    HW1 7988   3.189   3.359   0.391
 2363SOL    HW2 7989   3.296   3.284   0.489
 2364SOL     OW 7990   4.637   1.782   2.170
 2364SOL    HW1 7991   4.576   1.859   2.153
 2364SOL    HW2 7992   4.626   1.714   2.098
 2365SOL     OW 7993   5.544   3.630   4.231
 2365SOL    HW1 7994   5.457   3.606   4.274
 2365SOL    HW2 7995   5.552   3.583   4.144
 2366SOL     OW 7996   2.436   4.425   5.447
 2366SOL    HW1 7997   2.406   4.520   5.435
 2366SOL    HW2 7998   2.388   4.367   5.381
 2367SOL     OW 7999   0.852   4.301   6.120
 2367SOL    HW1 8000   0.858   4.303   6.020
 2367SOL    HW2 8001   0.923   4.242   6.157
 2368SOL     OW 8002   5.460   0.267   3.911
 2368SOL    HW1 8003   5.421   0.193   3.857
 2368SOL    HW2 8004   5.387   0.316   3.959
 2369SOL     OW 8005   2.933   1.471   3.937
 2369SOL    HW1 8006   2.958   1.562   3.903
 2369SOL    HW2 8007   3.010   1.431   3.986
 2370SOL     OW 8008   5.252   3.135   1.511
 2370SOL    HW1 8009   5.260   3.059   1.447
 2370SOL    HW2 8010   5.297   3.110   1.597
 2371SOL     OW 8011   0.951   6.914   2.860
 2371SOL    HW1 8012   1.014   6.864   2.800
 2371SOL    HW2 8013   0.950   7.011   2.833
 2372SOL     OW 8014   6.595   1.154   6.097
 2372SOL    HW1 8015   6.658   1.118   6.166
 2372SOL    HW2 8016   6.503   1.161   6.135
 2373SOL     OW 8017   6.424   0.169   6.118
 2373SOL    HW1 8018   6.455   0.104   6.048
 2373SOL    HW2 8019   6.365   0.238   6.076
 2374SOL     OW 8020   6.248   6.472   2.678
 2374SOL    HW1 8021   6.166   6.499   2.628
 2374SOL    HW2 8022   6.229   6.390   2.732
 2375SOL     OW 8023   1.034   0.565   4.217
 2375SOL    HW1 8024   1.047   0.664   4.209
 2375SOL    HW2 8025   1.117   0.524   4.256
 2376SOL     OW 8026   6.304   2.584   3.465
 2376SOL    HW1 8027   6.342   2.531   3.389
 2376SOL    HW2 8028   6.276   2.522   3.538
 2377SOL     OW 8029   4.249   4.810   5.837
 2377SOL    HW1 8030   4.240   4.808   5.937
 2377SOL    HW2 8031   4.174   4.863   5.798
 2378SOL     OW 8032   6.693   1.688   0.917
 2378SOL    HW1 8033   6.686   1.621   0.842
 2378SOL    HW2 8034   6.681   1.641   1.004
 2379SOL     OW 8035   6.915   5.269   0.321
 2379SOL    HW1 8036   6.865   5.225   0.396
 2379SOL    HW2 8037   6.951   5.198   0.260
 2380SOL     OW 8038   5.060   4.243   4.671
 2380SOL    HW1 8039   5.033   4.336   4.647
 2380SOL    HW2 8040   5.106   4.200   4.594
 2381SOL     OW 8041   2.712   5.087   5.252
 2381SOL    HW1 8042   2.685   4.991   5.264
 2381SOL    HW2 8043   2.802   5.091   5.207
 2382SOL     OW 8044   1.663   6.164   2.191
 2382SOL    HW1 8045   1.751   6.162   2.143
 2382SOL    HW2 8046   1.674   6.210   2.279
 2383SOL     OW 8047   5.008   5.667   4.861
 2383SOL    HW1 8048   4.978   5.746   4.915
 2383SOL    HW2 8049   4.936   5.598   4.861
 2384SOL     OW 8050   0.950   1.904   1.583
 2384SOL    HW1 8051   1.014   1.881   1.657
 2384SOL    HW2 8052   0.997   1.901   1.495
 2385SOL     OW 8053   0.641   1.634   1.199
 2385SOL    HW1 8054   0.552   1.640   1.154
 2385SOL    HW2 8055   0.707   1.690   1.149
 2386SOL     OW 8056   3.803   5.577   4.415
 2386SOL    HW1 8057   3.900   5.557   4.424
 2386SOL    HW2 8058   3.791   5.666   4.371
 2387SOL     OW 8059   1.215   1.987   3.574
 2387SOL    HW1 8060   1.218   2.086   3.560
 2387SOL    HW2 8061   1.267   1.965   3.657
 2388SOL     OW 8062   6.787   2.098   6.472
 2388SOL    HW1 8063   6.762   2.079   6.567
 2388SOL    HW2 8064   6.868   2.044   6.448
 2389SOL     OW 8065   5.028   4.621   3.981
 2389SOL    HW1 8066   5.092   4.663   3.916
 2389SOL    HW2 8067   4.941   4.670   3.977
 2390SOL     OW 8068   4.771   3.375   6.001
 2390SOL    HW1 8069   4.734   3.310   5.935
 2390SOL    HW2 8070   4.857   3.412   5.967
 2391SOL     OW 8071   3.192   3.742   6.299
 2391SOL    HW1 8072   3.187   3.841   6.313
 2391SOL    HW2 8073   3.211   3.724   6.202
 2392SOL     OW 8074   3.411   5.615   5.249
 2392SOL    HW1 8075   3.327   5.604   5.302
 2392SOL    HW2 8076   3.487   5.571   5.298
 2393SOL     OW 8077   3.678   5.486   1.440
 2393SOL    HW1 8078   3.716   5.550   1.374
 2393SOL    HW2 8079   3.631   5.412   1.392
 2394SOL     OW 8080   0.117   3.323   3.309
 2394SOL    HW1 8081   0.113   3.417   3.344
 2394SOL    HW2 8082   0.152   3.324   3.216
 2395SOL     OW 8083   0.666   3.136   6.191
 2395SOL    HW1 8084   0.751   3.190   6.193
 2395SOL    HW2 8085   0.594   3.186   6.239
 2396SOL     OW 8086   5.951   0.834   4.868
 2396SOL    HW1 8087   6.025   0.804   4.927
 2396SOL    HW2 8088   5.863   0.811   4.910
 2397SOL     OW 8089   0.750   4.780   5.440
 2397SOL    HW1 8090   0.803   4.702   5.473
 2397SOL    HW2 8091   0.690   4.751   5.366
 2398SOL     OW 8092   2.337   5.441   3.966
 2398SOL    HW1 8093   2.382   5.530   3.957
 2398SOL    HW2 8094   2.273   5.427   3.890
 2399SOL     OW 8095   2.611   2.388   3.604
 2399SOL    HW1 8096   2.608   2.426   3.696
 2399SOL    HW2 8097   2.518   2.383   3.567
 2400SOL     OW 8098   1.676   3.528   0.204
 2400SOL    HW1 8099   1.679   3.540   0.304
 2400SOL    HW2 8100   1.619   3.600   0.164
 2401SOL     OW 8101   3.697   0.084   4.817
 2401SOL    HW1 8102   3.767   0.017   4.841
 2401SOL    HW2 8103   3.740   0.166   4.779
 2402SOL     OW 8104   0.883   2.345   2.351
 2402SOL    HW1 8105   0.967   2.377   2.394
 2402SOL    HW2 8106   0.814   2.329   2.421
 2403SOL     OW 8107   3.527   3.789   2.421
 2403SOL    HW1 8108   3.622   3.784   2.388
 2403SOL    HW2 8109   3.526   3.832   2.512
 2404SOL     OW 8110   6.667   0.887   1.173
 2404SOL    HW1 8111   6.584   0.831   1.170
 2404SOL    HW2 8112   6.660   0.959   1.104
 2405SOL     OW 8113   2.437   4.463   0.540
 2405SOL    HW1 8114   2.526   4.494   0.574
 2405SOL    HW2 8115   2.421   4.369   0.570
 2406SOL     OW 8116   1.996   0.141   3.811
 2406SOL    HW1 8117   2.003   0.236   3.780
 2406SOL    HW2 8118   1.901   0.110   3.802
 2407SOL     OW 8119   3.744   1.931   3.468
 2407SOL    HW1 8120   3.842   1.943   3.480
 2407SOL    HW2 8121   3.726   1.892   3.378
 2408SOL     OW 8122   1.963   6.219   3.907
 2408SOL    HW1 8123   2.057   6.250   3.892
 2408SOL    HW2 8124   1.915   6.214   3.819
 2409SOL     OW 8125   2.368   2.527   1.048
 2409SOL    HW1 8126   2.337   2.490   0.961
 2409SOL    HW2 8127   2.453   2.482   1.076
 2410SOL     OW 8128   6.361   3.277   6.002
 2410SOL    HW1 8129   6.282   3.334   6.024
 2410SOL    HW2 8130   6.423   3.274   6.080
 2411SOL     OW 8131   2.967   3.430   0.059
 2411SOL    HW1 8132   3.046   3.397   0.009
 2411SOL    HW2 8133   2.883   3.403   0.011
 2412SOL     OW 8134   2.596   2.340   6.881
 2412SOL    HW1 8135   2.621   2.422   6.830
 2412SOL    HW2 8136   2.578   2.265   6.817
 2413SOL     OW 8137   6.749   2.766   6.630
 2413SOL    HW1 8138   6.715   2.806   6.715
 2413SOL    HW2 8139   6.821   2.700   6.650
 2414SOL     OW 8140   5.725   2.585   4.124
 2414SOL    HW1 8141   5.792   2.569   4.197
 2414SOL    HW2 8142   5.770   2.626   4.045
 2415SOL     OW 8143   2.647   6.416   0.827
 2415SOL    HW1 8144   2.568   6.369   0.788
 2415SOL    HW2 8145   2.657   6.506   0.784
 2416SOL     OW 8146   0.025   3.524   2.757
 2416SOL    HW1 8147   6.978   3.554   2.820
 2416SOL    HW2 8148   0.072   3.604   2.719
 2417SOL     OW 8149   4.144   2.405   0.339
 2417SOL    HW1 8150   4.161   2.461   0.420
 2417SOL    HW2 8151   4.216   2.336   0.330
 2418SOL     OW 8152   4.687   4.337   5.721
 2418SOL    HW1 8153   4.644   4.389   5.796
 2418SOL    HW2 8154   4.705   4.244   5.752
 2419SOL     OW 8155   2.070   6.664   4.455
 2419SOL    HW1 8156   2.127   6.744   4.474
 2419SOL    HW2 8157   2.085   6.594   4.525
 2420SOL     OW 8158   3.438   5.454   2.318
 2420SOL    HW1 8159   3.397   5.487   2.403
 2420SOL    HW2 8160   3.373   5.393   2.271
 2421SOL     OW 8161   3.138   0.116   4.577
 2421SOL    HW1 8162   3.161   0.211   4.558
 2421SOL    HW2 8163   3.049   0.110   4.621
 2422SOL     OW 8164   3.986   6.428   2.132
 2422SOL    HW1 8165   3.915   6.367   2.168
 2422SOL    HW2 8166   4.042   6.379   2.066
 2423SOL     OW 8167   1.799   5.843   2.160
 2423SOL    HW1 8168   1.756   5.853   2.071
 2423SOL    HW2 8169   1.867   5.916   2.173
 2424SOL     OW 8170   5.276   0.422   6.548
 2424SOL    HW1 8171   5.341   0.357   6.509
 2424SOL    HW2 8172   5.319   0.512   6.557
 2425SOL     OW 8173   4.509   5.396   5.350
 2425SOL    HW1 8174   4.446   5.468   5.320
 2425SOL    HW2 8175   4.600   5.415   5.313
 2426SOL     OW 8176   1.088   5.263   5.579
 2426SOL    HW1 8177   1.142   5.197   5.630
 2426SOL    HW2 8178   1.028   5.214   5.515
 2427SOL     OW 8179   4.801   6.744   6.450
 2427SOL    HW1 8180   4.742   6.806   6.398
 2427SOL    HW2 8181   4.781   6.649   6.424
 2428SOL     OW 8182   0.292   1.761   3.907
 2428SOL    HW1 8183   0.223   1.782   3.837
 2428SOL    HW2 8184   0.318   1.665   3.900
 2429SOL     OW 8185   5.253   5.079   2.377
 2429SOL    HW1 8186   5.157   5.109   2.381
 2429SOL    HW2 8187   5.304   5.140   2.316
 2430SOL     OW 8188   5.772   2.505   0.311
 2430SOL    HW1 8189   5.855   2.451   0.323
 2430SOL    HW2 8190   5.788   2.577   0.243
 2431SOL     OW 8191   6.385   1.918   1.929
 2431SOL    HW1 8192   6.370   2.017   1.918
 2431SOL    HW2 8193   6.435   1.901   2.013
 2432SOL     OW 8194   3.203   5.546   2.124
 2432SOL    HW1 8195   3.243   5.540   2.033
 2432SOL    HW2 8196   3.113   5.589   2.119
 2433SOL     OW 8197   6.700   5.599   0.322
 2433SOL    HW1 8198   6.671   5.682   0.276
 2433SOL    HW2 8199   6.623   5.559   0.372
 2434SOL     OW 8200   3.912   1.990   2.993
 2434SOL    HW1 8201   3.841   2.007   2.925
 2434SOL    HW2 8202   3.978   2.065   2.992
 2435SOL     OW 8203   5.471   6.912   6.542
 2435SOL    HW1 8204   5.430   6.973   6.610
 2435SOL    HW2 8205   5.428   6.926   6.453
 2436SOL     OW 8206   1.196   1.309   1.449
 2436SOL    HW1 8207   1.107   1.352   1.467
 2436SOL    HW2 8208   1.222   1.254   1.528
 2437SOL     OW 8209   6.343   6.055   2.374
 2437SOL    HW1 8210   6.441   6.058   2.357
 2437SOL    HW2 8211   6.325   6.047   2.472
 2438SOL     OW 8212   3.174   2.007   4.464
 2438SOL    HW1 8213   3.191   2.017   4.366
 2438SOL    HW2 8214   3.239   2.065   4.515
 2439SOL     OW 8215   0.174   5.256   6.376
 2439SOL    HW1 8216   0.151   5.203   6.458
 2439SOL    HW2 8217   0.103   5.325   6.361
 2440SOL     OW 8218   3.957   1.339   4.577
 2440SOL    HW1 8219   4.036   1.305   4.526
 2440SOL    HW2 8220   3.979   1.427   4.618
 2441SOL     OW 8221   5.598   0.270   6.788
 2441SOL    HW1 8222   5.692   0.300   6.777
 2441SOL    HW2 8223   5.592   0.202   6.861
 2442SOL     OW 8224   5.199   3.626   1.985
 2442SOL    HW1 8225   5.234   3.602   1.894
 2442SOL    HW2 8226   5.108   3.665   1.976
 2443SOL     OW 8227   2.308   0.991   0.024
 2443SOL    HW1 8228   2.366   0.992   6.967
 2443SOL    HW2 8229   2.353   0.941   0.097
 2444SOL     OW 8230   4.828   5.013   0.636
 2444SOL    HW1 8231   4.746   5.068   0.621
 2444SOL    HW2 8232   4.897   5.068   0.684
 2445SOL     OW 8233   7.024   1.709   1.829
 2445SOL    HW1 8234   6.969   1.716   1.913
 2445SOL    HW2 8235   0.081   1.766   1.837
 2446SOL     OW 8236   1.260   3.038   1.797
 2446SOL    HW1 8237   1.204   2.995   1.868
 2446SOL    HW2 8238   1.277   3.134   1.822
 2447SOL     OW 8239   1.979   1.152   0.521
 2447SOL    HW1 8240   2.002   1.149   0.423
 2447SOL    HW2 8241   2.062   1.139   0.575
 2448SOL     OW 8242   5.976   1.958   4.343
 2448SOL    HW1 8243   6.005   1.961   4.439
 2448SOL    HW2 8244   6.052   1.927   4.286
 2449SOL     OW 8245   1.834   4.642   2.123
 2449SOL    HW1 8246   1.876   4.665   2.035
 2449SOL    HW2 8247   1.889   4.574   2.171
 2450SOL     OW 8248   2.870   5.240   6.613
 2450SOL    HW1 8249   2.935   5.300   6.657
 2450SOL    HW2 8250   2.777   5.264   6.642
 2451SOL     OW 8251   0.916   0.097   4.186
 2451SOL    HW1 8252   0.864   0.048   4.116
 2451SOL    HW2 8253   0.945   0.186   4.149
 2452SOL     OW 8254   2.345   2.516   3.056
 2452SOL    HW1 8255   2.357   2.577   2.978
 2452SOL    HW2 8256   2.301   2.431   3.025
 2453SOL     OW 8257   6.664   2.176   0.866
 2453SOL    HW1 8258   6.725   2.098   0.879
 2453SOL    HW2 8259   6.569   2.144   0.863
 2454SOL     OW 8260   3.191   5.684   0.686
 2454SOL    HW1 8261   3.281   5.722   0.704
 2454SOL    HW2 8262   3.125   5.721   0.751
 2455SOL     OW 8263   2.809   1.410   0.162
 2455SOL    HW1 8264   2.867   1.451   0.233
 2455SOL    HW2 8265   2.826   1.455   0.075
 2456SOL     OW 8266   0.806   3.711   6.779
 2456SOL    HW1 8267   0.715   3.752   6.781
 2456SOL    HW2 8268   0.805   3.625   6.829
 2457SOL     OW 8269   5.611   1.449   5.594
 2457SOL    HW1 8270   5.514   1.467   5.610
 2457SOL    HW2 8271   5.636   1.360   5.634
 2458SOL     OW 8272   0.748   0.709   3.241
 2458SOL    HW1 8273   0.804   0.763   3.179
 2458SOL    HW2 8274   0.791   0.705   3.331
 2459SOL     OW 8275   2.896   5.347   6.067
 2459SOL    HW1 8276   2.900   5.429   6.011
 2459SOL    HW2 8277   2.964   5.354   6.141
 2460SOL     OW 8278   0.817   1.071   6.901
 2460SOL    HW1 8279   0.817   1.065   7.001
 2460SOL    HW2 8280   0.809   1.167   6.874
 2461SOL     OW 8281   4.346   0.165   4.366
 2461SOL    HW1 8282   4.319   0.070   4.383
 2461SOL    HW2 8283   4.301   0.198   4.283
 2462SOL     OW 8284   0.808   4.608   0.429
 2462SOL    HW1 8285   0.836   4.513   0.444
 2462SOL    HW2 8286   0.757   4.614   0.344
 2463SOL     OW 8287   6.698   1.555   0.451
 2463SOL    HW1 8288   6.634   1.632   0.449
 2463SOL    HW2 8289   6.780   1.578   0.398
 2464SOL     OW 8290   0.453   2.540   3.078
 2464SOL    HW1 8291   0.423   2.587   3.161
 2464SOL    HW2 8292   0.530   2.590   3.038
 2465SOL     OW 8293   6.880   5.917   5.959
 2465SOL    HW1 8294   6.785   5.909   5.928
 2465SOL    HW2 8295   6.938   5.860   5.900
 2466SOL     OW 8296   1.776   1.708   2.156
 2466SOL    HW1 8297   1.725   1.758   2.087
 2466SOL    HW2 8298   1.721   1.697   2.238
 2467SOL     OW 8299   4.211   1.814   6.113
 2467SOL    HW1 8300   4.248   1.809   6.020
 2467SOL    HW2 8301   4.111   1.816   6.108
 2468SOL     OW 8302   3.782   0.360   6.555
 2468SOL    HW1 8303   3.802   0.345   6.458
 2468SOL    HW2 8304   3.754   0.274   6.597
 2469SOL     OW 8305   4.179   2.977   5.604
 2469SOL    HW1 8306   4.169   2.912   5.679
 2469SOL    HW2 8307   4.099   3.038   5.601
 2470SOL     OW 8308   4.239   4.419   5.983
 2470SOL    HW1 8309   4.145   4.449   5.999
 2470SOL    HW2 8310   4.270   4.365   6.061
 2471SOL     OW 8311   3.482   0.031   0.608
 2471SOL    HW1 8312   3.427   0.031   0.524
 2471SOL    HW2 8313   3.557   6.990   0.598
 2472SOL     OW 8314   4.584   2.536   3.540
 2472SOL    HW1 8315   4.531   2.535   3.625
 2472SOL    HW2 8316   4.618   2.629   3.524
 2473SOL     OW 8317   1.313   4.720   5.178
 2473SOL    HW1 8318   1.311   4.808   5.131
 2473SOL    HW2 8319   1.223   4.701   5.217
 2474SOL     OW 8320   1.288   5.401   0.554
 2474SOL    HW1 8321   1.379   5.425   0.520
 2474SOL    HW2 8322   1.242   5.343   0.487
 2475SOL     OW 8323   4.583   0.622   0.880
 2475SOL    HW1 8324   4.652   0.640   0.951
 2475SOL    HW2 8325   4.493   0.615   0.923
 2476SOL     OW 8326   5.546   0.458   2.525
 2476SOL    HW1 8327   5.563   0.546   2.570
 2476SOL    HW2 8328   5.503   0.395   2.590
 2477SOL     OW 8329   3.849   0.843   3.308
 2477SOL    HW1 8330   3.797   0.928   3.312
 2477SOL    HW2 8331   3.866   0.820   3.212
 2478SOL     OW 8332   4.803   0.673   2.072
 2478SOL    HW1 8333   4.807   0.590   2.127
 2478SOL    HW2 8334   4.876   0.735   2.101
 2479SOL     OW 8335   1.435   2.358   1.427
 2479SOL    HW1 8336   1.338   2.344   1.443
 2479SOL    HW2 8337   1.466   2.442   1.472
 2480SOL     OW 8338   3.818   2.351   1.371
 2480SOL    HW1 8339   3.866   2.423   1.421
 2480SOL    HW2 8340   3.835   2.263   1.416
 2481SOL     OW 8341   2.710   6.989   1.452
 2481SOL    HW1 8342   2.793   7.008   1.505
 2481SOL    HW2 8343   2.715   0.010   1.364
 2482SOL     OW 8344   5.415   3.686   0.096
 2482SOL    HW1 8345   5.486   3.672   0.026
 2482SOL    HW2 8346   5.337   3.733   0.055
 2483SOL     OW 8347   1.491   1.758   0.231
 2483SOL    HW1 8348   1.477   1.724   0.324
 2483SOL    HW2 8349   1.404   1.755   0.182
 2484SOL     OW 8350   3.311   0.605   0.268
 2484SOL    HW1 8351   3.213   0.591   0.283
 2484SOL    HW2 8352   3.325   0.644   0.177
 2485SOL     OW 8353   5.010   3.031   0.455
 2485SOL    HW1 8354   5.063   3.114   0.437
 2485SOL    HW2 8355   5.067   2.951   0.441
 2486SOL     OW 8356   0.790   5.454   5.781
 2486SOL    HW1 8357   0.739   5.504   5.710
 2486SOL    HW2 8358   0.811   5.516   5.856
 2487SOL     OW 8359   3.955   5.996   0.298
 2487SOL    HW1 8360   3.951   6.087   0.338
 2487SOL    HW2 8361   3.863   5.965   0.276
 2488SOL     OW 8362   0.588   3.150   1.745
 2488SOL    HW1 8363   0.670   3.112   1.703
 2488SOL    HW2 8364   0.613   3.210   1.821
 2489SOL     OW 8365   0.903   6.089   3.164
 2489SOL    HW1 8366   0.908   6.179   3.206
 2489SOL    HW2 8367   0.865   6.023   3.229
 2490SOL     OW 8368   0.653   5.868   0.823
 2490SOL    HW1 8369   0.752   5.872   0.814
 2490SOL    HW2 8370   0.621   5.941   0.883
 2491SOL     OW 8371   3.671   4.629   1.268
 2491SOL    HW1 8372   3.618   4.653   1.186
 2491SOL    HW2 8373   3.619   4.563   1.322
 2492SOL     OW 8374   4.364   3.106   1.197
 2492SOL    HW1 8375   4.275   3.086   1.157
 2492SOL    HW2 8376   4.364   3.200   1.233
 2493SOL     OW 8377   6.736   6.830   1.045
 2493SOL    HW1 8378   6.728   6.848   1.143
 2493SOL    HW2 8379   6.685   6.899   0.994
 2494SOL     OW 8380   5.909   3.826   2.005
 2494SOL    HW1 8381   5.982   3.883   2.043
 2494SOL    HW2 8382   5.846   3.883   1.952
 2495SOL     OW 8383   5.571   5.526   3.481
 2495SOL    HW1 8384   5.595   5.566   3.570
 2495SOL    HW2 8385   5.473   5.512   3.476
 2496SOL     OW 8386   0.403   3.229   6.677
 2496SOL    HW1 8387   0.376   3.184   6.592
 2496SOL    HW2 8388   0.320   3.255   6.727
 2497SOL     OW 8389   0.522   0.242   1.158
 2497SOL    HW1 8390   0.591   0.192   1.211
 2497SOL    HW2 8391   0.437   0.190   1.158
 2498SOL     OW 8392   3.357   2.444   5.540
 2498SOL    HW1 8393   3.334   2.411   5.449
 2498SOL    HW2 8394   3.290   2.412   5.606
 2499SOL     OW 8395   5.995   3.158   2.143
 2499SOL    HW1 8396   6.049   3.113   2.214
 2499SOL    HW2 8397   6.056   3.188   2.069
 2500SOL     OW 8398   3.802   4.334   6.576
 2500SOL    HW1 8399   3.732   4.294   6.635
 2500SOL    HW2 8400   3.827   4.425   6.610
 2501SOL     OW 8401   5.336   5.624   0.003
 2501SOL    HW1 8402   5.294   5.544   0.045
 2501SOL    HW2 8403   5.408   5.595   6.964
 2502SOL     OW 8404   1.464   0.392   4.691
 2502SOL    HW1 8405   1.534   0.464   4.692
 2502SOL    HW2 8406   1.389   0.418   4.752
 2503SOL     OW 8407   2.824   6.389   4.819
 2503SOL    HW1 8408   2.737   6.340   4.813
 2503SOL    HW2 8409   2.825   6.463   4.751
 2504SOL     OW 8410   3.654   5.782   3.529
 2504SOL    HW1 8411   3.615   5.804   3.439
 2504SOL    HW2 8412   3.698   5.692   3.525
 2505SOL     OW 8413   0.525   6.846   2.588
 2505SOL    HW1 8414   0.474   6.929   2.609
 2505SOL    HW2 8415   0.604   6.869   2.531
 2506SOL     OW 8416   6.809   2.973   6.444
 2506SOL    HW1 8417   6.715   2.961   6.414
 2506SOL    HW2 8418   6.833   2.901   6.509
 2507SOL     OW 8419   6.506   3.425   0.085
 2507SOL    HW1 8420   6.470   3.411   0.177
 2507SOL    HW2 8421   6.597   3.384   0.079
 2508SOL     OW 8422   2.700   1.746   3.655
 2508SOL    HW1 8423   2.785   1.710   3.691
 2508SOL    HW2 8424   2.684   1.838   3.690
 2509SOL     OW 8425   7.012   4.722   1.258
 2509SOL    HW1 8426   6.998   4.624   1.241
 2509SOL    HW2 8427   6.962   4.774   1.188
 2510SOL     OW 8428   2.876   4.400   0.975
 2510SOL    HW1 8429   2.811   4.348   1.031
 2510SOL    HW2 8430   2.928   4.337   0.917
 2511SOL     OW 8431   2.679   1.792   4.124
 2511SOL    HW1 8432   2.747   1.719   4.114
 2511SOL    HW2 8433   2.699   1.845   4.207
 2512SOL     OW 8434   4.492   3.836   5.363
 2512SOL    HW1 8435   4.526   3.743   5.381
 2512SOL    HW2 8436   4.558   3.886   5.308
 2513SOL     OW 8437   1.867   5.180   4.959
 2513SOL    HW1 8438   1.840   5.186   5.055
 2513SOL    HW2 8439   1.960   5.215   4.948
 2514SOL     OW 8440   0.630   3.606   5.244
 2514SOL    HW1 8441   0.582   3.693   5.257
 2514SOL    HW2 8442   0.565   3.530   5.251
 2515SOL     OW 8443   1.908   6.170   0.428
 2515SOL    HW1 8444   2.001   6.154   0.461
 2515SOL    HW2 8445   1.911   6.205   0.334
 2516SOL     OW 8446   4.787   1.564   2.643
 2516SOL    HW1 8447   4.691   1.553   2.666
 2516SOL    HW2 8448   4.800   1.652   2.597
 2517SOL     OW 8449   1.415   0.424   6.295
 2517SOL    HW1 8450   1.488   0.492   6.290
 2517SOL    HW2 8451   1.336   0.454   6.241
 2518SOL     OW 8452   1.467   5.450   1.150
 2518SOL    HW1 8453   1.392   5.412   1.097
 2518SOL    HW2 8454   1.552   5.404   1.126
 2519SOL     OW 8455   4.180   0.466   1.780
 2519SOL    HW1 8456   4.206   0.510   1.866
 2519SOL    HW2 8457   4.081   0.467   1.771
 2520SOL     OW 8458   3.157   1.686   1.162
 2520SOL    HW1 8459   3.223   1.726   1.099
 2520SOL    HW2 8460   3.157   1.587   1.153
 2521SOL     OW 8461   3.036   0.417   5.344
 2521SOL    HW1 8462   3.055   0.355   5.268
 2521SOL    HW2 8463   3.072   0.378   5.429
 2522SOL     OW 8464   0.934   1.717   5.432
 2522SOL    HW1 8465   0.834   1.713   5.430
 2522SOL    HW2 8466   0.968   1.744   5.342
 2523SOL     OW 8467   1.241   2.740   0.877
 2523SOL    HW1 8468   1.255   2.649   0.839
 2523SOL    HW2 8469   1.330   2.781   0.897
 2524SOL     OW 8470   0.205   6.702   4.951
 2524SOL    HW1 8471   0.295   6.678   4.913
 2524SOL    HW2 8472   0.139   6.710   4.876
 2525SOL     OW 8473   0.880   2.201   5.431
 2525SOL    HW1 8474   0.812   2.172   5.364
 2525SOL    HW2 8475   0.950   2.256   5.386
 2526SOL     OW 8476   1.741   4.674   6.831
 2526SOL    HW1 8477   1.839   4.695   6.832
 2526SOL    HW2 8478   1.728   4.575   6.837
 2527SOL     OW 8479   6.119   6.390   5.912
 2527SOL    HW1 8480   6.090   6.300   5.947
 2527SOL    HW2 8481   6.200   6.379   5.854
 2528SOL     OW 8482   5.611   4.989   6.476
 2528SOL    HW1 8483   5.645   5.078   6.444
 2528SOL    HW2 8484   5.682   4.944   6.530
 2529SOL     OW 8485   6.549   6.139   6.820
 2529SOL    HW1 8486   6.520   6.105   6.730
 2529SOL    HW2 8487   6.485   6.209   6.852
 2530SOL     OW 8488   2.354   6.287   4.892
 2530SOL    HW1 8489   2.279   6.238   4.847
 2530SOL    HW2 8490   2.436   6.282   4.836
 2531SOL     OW 8491   5.660   5.668   4.795
 2531SOL    HW1 8492   5.729   5.720   4.845
 2531SOL    HW2 8493   5.636   5.585   4.845
 2532SOL     OW 8494   0.317   6.157   0.569
 2532SOL    HW1 8495   0.286   6.251   0.559
 2532SOL    HW2 8496   0.245   6.095   0.536
 2533SOL     OW 8497   4.026   0.198   3.903
 2533SOL    HW1 8498   4.117   0.157   3.897
 2533SOL    HW2 8499   4.002   0.239   3.815
 2534SOL     OW 8500   3.662   1.551   1.875
 2534SOL    HW1 8501   3.628   1.459   1.891
 2534SOL    HW2 8502   3.681   1.596   1.962
 2535SOL     OW 8503   3.634   3.560   6.071
 2535SOL    HW1 8504   3.700   3.613   6.125
 2535SOL    HW2 8505   3.632   3.594   5.978
 2536SOL     OW 8506   1.456   1.334   5.988
 2536SOL    HW1 8507   1.466   1.282   6.072
 2536SOL    HW2 8508   1.534   1.396   5.978
 2537SOL     OW 8509   3.617   0.120   6.347
 2537SOL    HW1 8510   3.557   0.198   6.332
 2537SOL    HW2 8511   3.593   0.047   6.284
 2538SOL     OW 8512   0.598   4.258   3.642
 2538SOL    HW1 8513   0.663   4.186   3.666
 2538SOL    HW2 8514   0.572   4.248   3.546
 2539SOL     OW 8515   5.553   1.023   4.620
 2539SOL    HW1 8516   5.562   1.005   4.718
 2539SOL    HW2 8517   5.626   0.975   4.571
 2540SOL     OW 8518   4.054   2.164   2.750
 2540SOL    HW1 8519   4.083   2.184   2.844
 2540SOL    HW2 8520   3.954   2.159   2.747
 2541SOL     OW 8521   3.678   0.979   4.551
 2541SOL    HW1 8522   3.680   0.925   4.636
 2541SOL    HW2 8523   3.627   0.929   4.481
 2542SOL     OW 8524   3.755   3.373   6.248
 2542SOL    HW1 8525   3.813   3.314   6.193
 2542SOL    HW2 8526   3.704   3.435   6.189
 2543SOL     OW 8527   0.294   0.842   3.574
 2543SOL    HW1 8528   0.237   0.762   3.594
 2543SOL    HW2 8529   0.367   0.814   3.511
 2544SOL     OW 8530   0.705   6.313   0.766
 2544SOL    HW1 8531   0.679   6.273   0.679
 2544SOL    HW2 8532   0.659   6.401   0.778
 2545SOL     OW 8533   1.486   6.748   1.665
 2545SOL    HW1 8534   1.544   6.667   1.661
 2545SOL    HW2 8535   1.458   6.774   1.573
 2546SOL     OW 8536   6.542   1.264   1.866
 2546SOL    HW1 8537   6.620   1.306   1.914
 2546SOL    HW2 8538   6.457   1.300   1.904
 2547SOL     OW 8539   6.914   4.072   0.229
 2547SOL    HW1 8540   6.899   4.109   0.138
 2547SOL    HW2 8541   6.997   4.111   0.269
 2548SOL     OW 8542   0.873   6.776   4.819
 2548SOL    HW1 8543   0.835   6.780   4.912
 2548SOL    HW2 8544   0.966   6.740   4.823
 2549SOL     OW 8545   0.877   0.258   0.957
 2549SOL    HW1 8546   0.790   0.305   0.967
 2549SOL    HW2 8547   0.916   0.239   1.047
 2550SOL     OW 8548   0.062   0.414   6.927
 2550SOL    HW1 8549   0.007   0.472   6.866
 2550SOL    HW2 8550   0.004   0.378   7.000
 2551SOL     OW 8551   3.356   4.604   0.541
 2551SOL    HW1 8552   3.449   4.641   0.533
 2551SOL    HW2 8553   3.349   4.520   0.488
 2552SOL     OW 8554   1.684   6.059   4.366
 2552SOL    HW1 8555   1.770   6.075   4.317
 2552SOL    HW2 8556   1.686   6.109   4.453
 2553SOL     OW 8557   4.091   3.719   5.744
 2553SOL    HW1 8558   4.177   3.745   5.700
 2553SOL    HW2 8559   4.045   3.802   5.778
 2554SOL     OW 8560   2.800   0.468   0.324
 2554SOL    HW1 8561   2.742   0.538   0.282
 2554SOL    HW2 8562   2.744   0.389   0.349
 2555SOL     OW 8563   5.868   0.571   4.835
 2555SOL    HW1 8564   5.947   0.548   4.778
 2555SOL    HW2 8565   5.868   0.512   4.916
 2556SOL     OW 8566   4.001   6.237   0.397
 2556SOL    HW1 8567   4.096   6.267   0.405
 2556SOL    HW2 8568   3.945   6.287   0.463
 2557SOL     OW 8569   2.502   4.179   0.357
 2557SOL    HW1 8570   2.456   4.181   0.446
 2557SOL    HW2 8571   2.497   4.087   0.319
 2558SOL     OW 8572   4.919   1.554   5.145
 2558SOL    HW1 8573   4.956   1.627   5.088
 2558SOL    HW2 8574   4.994   1.499   5.181
 2559SOL     OW 8575   0.863   3.928   5.293
 2559SOL    HW1 8576   0.926   3.984   5.346
 2559SOL    HW2 8577   0.771   3.937   5.330
 2560SOL     OW 8578   5.902   2.783   5.326
 2560SOL    HW1 8579   5.975   2.852   5.323
 2560SOL    HW2 8580   5.897   2.735   5.238
 2561SOL     OW 8581   2.858   5.478   5.441
 2561SOL    HW1 8582   2.903   5.388   5.435
 2561SOL    HW2 8583   2.873   5.528   5.356
 2562SOL     OW 8584   2.279   5.428   1.263
 2562SOL    HW1 8585   2.370   5.460   1.237
 2562SOL    HW2 8586   2.249   5.357   1.199
 2563SOL     OW 8587   3.304   1.728   0.927
 2563SOL    HW1 8588   3.371   1.654   0.931
 2563SOL    HW2 8589   3.228   1.702   0.867
 2564SOL     OW 8590   2.384   5.500   6.801
 2564SOL    HW1 8591   2.308   5.498   6.867
 2564SOL    HW2 8592   2.368   5.574   6.735
 2565SOL     OW 8593   1.021   7.005   6.594
 2565SOL    HW1 8594   0.970   6.943   6.653
 2565SOL    HW2 8595   1.112   7.022   6.634
 2566SOL     OW 8596   2.204   0.132   0.928
 2566SOL    HW1 8597   2.262   0.084   0.994
 2566SOL    HW2 8598   2.258   0.200   0.880
 2567SOL     OW 8599   1.252   0.510   0.905
 2567SOL    HW1 8600   1.303   0.434   0.946
 2567SOL    HW2 8601   1.311   0.560   0.842
 2568SOL     OW 8602   3.996   1.406   6.819
 2568SOL    HW1 8603   3.925   1.470   6.849
 2568SOL    HW2 8604   3.996   1.326   6.879
 2569SOL     OW 8605   3.303   0.419   2.228
 2569SOL    HW1 8606   3.206   0.441   2.216
 2569SOL    HW2 8607   3.335   0.460   2.313
 2570SOL     OW 8608   5.845   6.959   6.259
 2570SOL    HW1 8609   5.797   7.002   6.335
 2570SOL    HW2 8610   5.878   0.005   6.196
 2571SOL     OW 8611   2.093   4.488   4.765
 2571SOL    HW1 8612   2.130   4.401   4.799
 2571SOL    HW2 8613   2.033   4.528   4.835
 2572SOL     OW 8614   2.863   6.062   1.198
 2572SOL    HW1 8615   2.868   5.982   1.257
 2572SOL    HW2 8616   2.895   6.038   1.106
 2573SOL     OW 8617   0.318   1.658   1.703
 2573SOL    HW1 8618   0.356   1.707   1.782
 2573SOL    HW2 8619   0.319   1.718   1.623
 2574SOL     OW 8620   5.759   4.084   0.684
 2574SOL    HW1 8621   5.662   4.107   0.691
 2574SOL    HW2 8622   5.779   4.051   0.592
 2575SOL     OW 8623   5.024   6.041   0.621
 2575SOL    HW1 8624   4.999   5.954   0.663
 2575SOL    HW2 8625   5.075   6.023   0.536
 2576SOL     OW 8626   4.246   6.638   4.769
 2576SOL    HW1 8627   4.173   6.625   4.702
 2576SOL    HW2 8628   4.326   6.677   4.724
 2577SOL     OW 8629   4.112   6.628   2.234
 2577SOL    HW1 8630   4.069   6.657   2.320
 2577SOL    HW2 8631   4.060   6.553   2.195
 2578SOL     OW 8632   4.632   1.862   4.263
 2578SOL    HW1 8633   4.666   1.857   4.169
 2578SOL    HW2 8634   4.605   1.956   4.284
 2579SOL     OW 8635   1.405   6.737   3.618
 2579SOL    HW1 8636   1.466   6.687   3.679
 2579SOL    HW2 8637   1.350   6.802   3.671
 2580SOL     OW 8638   2.910   4.330   6.319
 2580SOL    HW1 8639   2.922   4.309   6.222
 2580SOL    HW2 8640   2.814   4.321   6.343
 2581SOL     OW 8641   2.248   5.053   2.198
 2581SOL    HW1 8642   2.232   5.138   2.147
 2581SOL    HW2 8643   2.169   4.993   2.188
 2582SOL     OW 8644   0.132   4.101   1.098
 2582SOL    HW1 8645   0.138   4.069   1.003
 2582SOL    HW2 8646   0.224   4.118   1.133
 2583SOL     OW 8647   0.979   1.750   6.828
 2583SOL    HW1 8648   0.916   1.762   6.904
 2583SOL    HW2 8649   1.019   1.838   6.804
 2584SOL     OW 8650   5.257   5.557   6.192
 2584SOL    HW1 8651   5.310   5.474   6.207
 2584SOL    HW2 8652   5.278   5.594   6.102
 2585SOL     OW 8653   3.545   3.368   1.073
 2585SOL    HW1 8654   3.558   3.368   1.172
 2585SOL    HW2 8655   3.634   3.369   1.028
 2586SOL     OW 8656   3.145   0.586   5.037
 2586SOL    HW1 8657   3.063   0.570   4.982
 2586SOL    HW2 8658   3.120   0.636   5.120
 2587SOL     OW 8659   5.896   1.228   3.591
 2587SOL    HW1 8660   5.954   1.199   3.667
 2587SOL    HW2 8661   5.953   1.250   3.512
 2588SOL     OW 8662   4.697   1.929   5.741
 2588SOL    HW1 8663   4.666   1.852   5.685
 2588SOL    HW2 8664   4.789   1.957   5.712
 2589SOL     OW 8665   1.572   6.494   5.957
 2589SOL    HW1 8666   1.476   6.509   5.978
 2589SOL    HW2 8667   1.597   6.400   5.982
 2590SOL     OW 8668   3.935   5.017   0.585
 2590SOL    HW1 8669   4.016   5.016   0.644
 2590SOL    HW2 8670   3.962   4.997   0.491
 2591SOL     OW 8671   6.873   4.482   3.649
 2591SOL    HW1 8672   6.858   4.517   3.557
 2591SOL    HW2 8673   6.913   4.554   3.706
 2592SOL     OW 8674   3.432   4.745   6.726
 2592SOL    HW1 8675   3.368   4.802   6.675
 2592SOL    HW2 8676   3.383   4.695   6.797
 2593SOL     OW 8677   3.858   5.698   0.271
 2593SOL    HW1 8678   3.783   5.641   0.238
 2593SOL    HW2 8679   3.896   5.751   0.196
 2594SOL     OW 8680   2.458   3.636   6.094
 2594SOL    HW1 8681   2.420   3.693   6.021
 2594SOL    HW2 8682   2.543   3.676   6.127
 2595SOL     OW 8683   0.015   0.738   4.071
 2595SOL    HW1 8684   0.042   0.830   4.043
 2595SOL    HW2 8685   0.096   0.681   4.086
 2596SOL     OW 8686   2.985   2.169   1.825
 2596SOL    HW1 8687   2.966   2.201   1.918
 2596SOL    HW2 8688   2.927   2.217   1.760
 2597SOL     OW 8689   0.359   5.215   6.201
 2597SOL    HW1 8690   0.298   5.237   6.277
 2597SOL    HW2 8691   0.326   5.259   6.117
 2598SOL     OW 8692   6.737   1.374   2.455
 2598SOL    HW1 8693   6.660   1.435   2.434
 2598SOL    HW2 8694   6.778   1.400   2.542
 2599SOL     OW 8695   1.467   5.660   0.695
 2599SOL    HW1 8696   1.489   5.579   0.750
 2599SOL    HW2 8697   1.526   5.663   0.614
 2600SOL     OW 8698   5.574   2.757   4.760
 2600SOL    HW1 8699   5.477   2.733   4.766
 2600SOL    HW2 8700   5.588   2.823   4.687
 2601SOL     OW 8701   1.348   1.670   0.999
 2601SOL    HW1 8702   1.295   1.630   1.074
 2601SOL    HW2 8703   1.436   1.703   1.034
 2602SOL     OW 8704   1.595   4.723   5.224
 2602SOL    HW1 8705   1.500   4.696   5.207
 2602SOL    HW2 8706   1.638   4.749   5.138
 2603SOL     OW 8707   3.319   1.020   2.875
 2603SOL    HW1 8708   3.283   0.969   2.796
 2603SOL    HW2 8709   3.302   0.968   2.959
 2604SOL     OW 8710   4.567   2.167   2.778
 2604SOL    HW1 8711   4.483   2.221   2.780
 2604SOL    HW2 8712   4.609   2.175   2.688
 2605SOL     OW 8713   1.472   3.188   2.368
 2605SOL    HW1 8714   1.492   3.225   2.459
 2605SOL    HW2 8715   1.482   3.261   2.301
 2606SOL     OW 8716   5.834   5.140   2.099
 2606SOL    HW1 8717   5.896   5.148   2.021
 2606SOL    HW2 8718   5.828   5.044   2.128
 2607SOL     OW 8719   0.794   1.344   1.039
 2607SOL    HW1 8720   0.863   1.285   0.997
 2607SOL    HW2 8721   0.711   1.342   0.983
 2608SOL     OW 8722   3.982   5.324   0.571
 2608SOL    HW1 8723   4.047   5.250   0.584
 2608SOL    HW2 8724   4.020   5.393   0.510
 2609SOL     OW 8725   6.004   1.366   2.070
 2609SOL    HW1 8726   5.985   1.290   2.131
 2609SOL    HW2 8727   5.925   1.426   2.065
 2610SOL     OW 8728   0.698   4.713   4.144
 2610SOL    HW1 8729   0.613   4.705   4.092
 2610SOL    HW2 8730   0.723   4.809   4.153
 2611SOL     OW 8731   4.738   6.414   0.003
 2611SOL    HW1 8732   4.683   6.355   6.968
 2611SOL    HW2 8733   4.831   6.420   6.992
 2612SOL     OW 8734   5.882   6.482   4.404
 2612SOL    HW1 8735   5.890   6.496   4.503
 2612SOL    HW2 8736   5.815   6.411   4.385
 2613SOL     OW 8737   2.274   5.233   6.435
 2613SOL    HW1 8738   2.372   5.236   6.418
 2613SOL    HW2 8739   2.243   5.138   6.436
 2614SOL     OW 8740   6.245   1.354   6.960
 2614SOL    HW1 8741   6.172   1.383   6.897
 2614SOL    HW2 8742   6.284   1.435   7.004
 2615SOL     OW 8743   1.065   3.524   0.801
 2615SOL    HW1 8744   1.077   3.484   0.892
 2615SOL    HW2 8745   1.149   3.571   0.775
 2616SOL     OW 8746   1.298   1.882   6.055
 2616SOL    HW1 8747   1.383   1.889   6.108
 2616SOL    HW2 8748   1.226   1.935   6.100
 2617SOL     OW 8749   4.763   0.878   0.567
 2617SOL    HW1 8750   4.690   0.811   0.554
 2617SOL    HW2 8751   4.747   0.928   0.652
 2618SOL     OW 8752   0.801   6.309   4.442
 2618SOL    HW1 8753   0.757   6.358   4.517
 2618SOL    HW2 8754   0.900   6.309   4.456
 2619SOL     OW 8755   4.583   1.677   1.901
 2619SOL    HW1 8756   4.488   1.676   1.933
 2619SOL    HW2 8757   4.614   1.583   1.887
 2620SOL     OW 8758   6.356   0.404   2.595
 2620SOL    HW1 8759   6.321   0.407   2.501
 2620SOL    HW2 8760   6.300   0.463   2.653
 2621SOL     OW 8761   1.019   4.740   2.511
 2621SOL    HW1 8762   1.028   4.749   2.611
 2621SOL    HW2 8763   1.098   4.783   2.467
 2622SOL     OW 8764   3.007   3.336   5.944
 2622SOL    HW1 8765   3.035   3.383   6.028
 2622SOL    HW2 8766   3.015   3.237   5.957
 2623SOL     OW 8767   0.602   0.817   4.917
 2623SOL    HW1 8768   0.612   0.776   5.007
 2623SOL    HW2 8769   0.692   0.845   4.883
 2624SOL     OW 8770   6.478   2.402   4.610
 2624SOL    HW1 8771   6.508   2.353   4.692
 2624SOL    HW2 8772   6.552   2.404   4.543
 2625SOL     OW 8773   2.276   4.190   5.578
 2625SOL    HW1 8774   2.215   4.209   5.655
 2625SOL    HW2 8775   2.331   4.272   5.558
 2626SOL     OW 8776   6.678   0.040   6.170
 2626SOL    HW1 8777   6.673   6.964   6.164
 2626SOL    HW2 8778   6.586   0.077   6.176
 2627SOL     OW 8779   0.802   0.879   6.167
 2627SOL    HW1 8780   0.728   0.945   6.165
 2627SOL    HW2 8781   0.858   0.890   6.085
 2628SOL     OW 8782   1.974   3.757   4.878
 2628SOL    HW1 8783   1.917   3.766   4.960
 2628SOL    HW2 8784   1.965   3.665   4.841
 2629SOL     OW 8785   4.128   3.628   2.931
 2629SOL    HW1 8786   4.144   3.545   2.984
 2629SOL    HW2 8787   4.038   3.624   2.889
 2630SOL     OW 8788   3.621   1.687   3.890
 2630SOL    HW1 8789   3.591   1.718   3.981
 2630SOL    HW2 8790   3.626   1.765   3.828
 2631SOL     OW 8791   5.636   0.719   6.480
 2631SOL    HW1 8792   5.663   0.711   6.384
 2631SOL    HW2 8793   5.683   0.648   6.533
 2632SOL     OW 8794   6.347   3.420   1.088
 2632SOL    HW1 8795   6.318   3.438   0.994
 2632SOL    HW2 8796   6.270   3.437   1.150
 2633SOL     OW 8797   6.717   2.025   5.339
 2633SOL    HW1 8798   6.662   2.087   5.394
 2633SOL    HW2 8799   6.794   1.991   5.394
 2634SOL     OW 8800   0.586   5.821   3.511
 2634SOL    HW1 8801   0.487   5.819   3.526
 2634SOL    HW2 8802   0.630   5.876   3.582
 2635SOL     OW 8803   6.385   5.705   3.901
 2635SOL    HW1 8804   6.330   5.696   3.985
 2635SOL    HW2 8805   6.457   5.773   3.916
 2636SOL     OW 8806   3.944   0.575   0.084
 2636SOL    HW1 8807   3.878   0.530   0.143
 2636SOL    HW2 8808   3.968   0.515   0.007
 2637SOL     OW 8809   6.347   1.715   3.885
 2637SOL    HW1 8810   6.248   1.719   3.899
 2637SOL    HW2 8811   6.375   1.785   3.820
 2638SOL     OW 8812   0.358   0.104   4.540
 2638SOL    HW1 8813   0.343   0.202   4.535
 2638SOL    HW2 8814   0.438   0.084   4.596
 2639SOL     OW 8815   4.969   5.315   5.352
 2639SOL    HW1 8816   4.945   5.381   5.423
 2639SOL    HW2 8817   4.912   5.233   5.360
 2640SOL     OW 8818   0.010   7.023   5.092
 2640SOL    HW1 8819   0.036   0.095   5.095
 2640SOL    HW2 8820   0.017   6.984   5.184
 2641SOL     OW 8821   4.715   2.217   1.124
 2641SOL    HW1 8822   4.679   2.310   1.124
 2641SOL    HW2 8823   4.641   2.152   1.139
 2642SOL     OW 8824   5.914   0.782   3.676
 2642SOL    HW1 8825   5.934   0.692   3.717
 2642SOL    HW2 8826   5.883   0.845   3.748
 2643SOL     OW 8827   1.889   3.290   4.102
 2643SOL    HW1 8828   1.895   3.322   4.197
 2643SOL    HW2 8829   1.974   3.313   4.054
 2644SOL     OW 8830   4.792   5.471   4.795
 2644SOL    HW1 8831   4.845   5.393   4.827
 2644SOL    HW2 8832   4.712   5.484   4.854
 2645SOL     OW 8833   5.495   4.628   3.726
 2645SOL    HW1 8834   5.489   4.559   3.798
 2645SOL    HW2 8835   5.477   4.584   3.638
 2646SOL     OW 8836   0.551   3.681   6.911
 2646SOL    HW1 8837   0.523   3.726   6.996
 2646SOL    HW2 8838   0.515   3.733   6.834
 2647SOL     OW 8839   5.761   6.711   1.991
 2647SOL    HW1 8840   5.667   6.702   1.959
 2647SOL    HW2 8841   5.811   6.626   1.973
 2648SOL     OW 8842   0.467   6.613   4.098
 2648SOL    HW1 8843   0.445   6.641   4.004
 2648SOL    HW2 8844   0.517   6.686   4.144
 2649SOL     OW 8845   5.417   3.038   1.731
 2649SOL    HW1 8846   5.494   2.984   1.767
 2649SOL    HW2 8847   5.388   3.104   1.800
 2650SOL     OW 8848   2.584   5.715   4.860
 2650SOL    HW1 8849   2.530   5.699   4.942
 2650SOL    HW2 8850   2.565   5.643   4.793
 2651SOL     OW 8851   3.432   1.152   6.936
 2651SOL    HW1 8852   3.366   1.107   6.875
 2651SOL    HW2 8853   3.463   1.088   7.005
 2652SOL     OW 8854   4.831   3.630   5.625
 2652SOL    HW1 8855   4.736   3.633   5.595
 2652SOL    HW2 8856   4.848   3.702   5.692
 2653SOL     OW 8857   3.637   6.138   5.569
 2653SOL    HW1 8858   3.596   6.078   5.639
 2653SOL    HW2 8859   3.718   6.094   5.531
 2654SOL     OW 8860   5.404   6.669   0.916
 2654SOL    HW1 8861   5.468   6.624   0.854
 2654SOL    HW2 8862   5.451   6.745   0.962
 2655SOL     OW 8863   4.602   5.894   3.596
 2655SOL    HW1 8864   4.565   5.849   3.515
 2655SOL    HW2 8865   4.698   5.869   3.607
 2656SOL     OW 8866   3.224   5.285   3.869
 2656SOL    HW1 8867   3.288   5.252   3.938
 2656SOL    HW2 8868   3.149   5.333   3.914
 2657SOL     OW 8869   1.898   3.091   0.692
 2657SOL    HW1 8870   1.920   3.090   0.594
 2657SOL    HW2 8871   1.977   3.059   0.744
 2658SOL     OW 8872   4.659   4.705   0.415
 2658SOL    HW1 8873   4.628   4.684   0.322
 2658SOL    HW2 8874   4.595   4.667   0.481
 2659SOL     OW 8875   4.746   2.920   4.941
 2659SOL    HW1 8876   4.708   2.829   4.926
 2659SOL    HW2 8877   4.725   2.978   4.862
 2660SOL     OW 8878   0.428   0.897   1.209
 2660SOL    HW1 8879   0.514   0.946   1.199
 2660SOL    HW2 8880   0.387   0.919   1.297
 2661SOL     OW 8881   1.724   0.509   1.647
 2661SOL    HW1 8882   1.783   0.582   1.683
 2661SOL    HW2 8883   1.782   0.439   1.605
 2662SOL     OW 8884   2.538   0.478   3.490
 2662SOL    HW1 8885   2.492   0.560   3.454
 2662SOL    HW2 8886   2.582   0.429   3.414
 2663SOL     OW 8887   4.064   5.965   5.741
 2663SOL    HW1 8888   3.981   5.913   5.760
 2663SOL    HW2 8889   4.050   6.061   5.766
 2664SOL     OW 8890   3.619   3.091   5.938
 2664SOL    HW1 8891   3.579   3.041   5.861
 2664SOL    HW2 8892   3.584   3.053   6.024
 2665SOL     OW 8893   2.570   3.416   5.529
 2665SOL    HW1 8894   2.522   3.343   5.480
 2665SOL    HW2 8895   2.648   3.447   5.475
 2666SOL     OW 8896   1.574   3.396   1.940
 2666SOL    HW1 8897   1.608   3.347   1.860
 2666SOL    HW2 8898   1.512   3.468   1.911
 2667SOL     OW 8899   0.660   5.548   3.806
 2667SOL    HW1 8900   0.710   5.471   3.847
 2667SOL    HW2 8901   0.722   5.600   3.748
 2668SOL     OW 8902   5.545   2.769   4.046
 2668SOL    HW1 8903   5.617   2.824   4.088
 2668SOL    HW2 8904   5.550   2.675   4.081
 2669SOL     OW 8905   3.099   5.789   6.591
 2669SOL    HW1 8906   3.171   5.735   6.634
 2669SOL    HW2 8907   3.074   5.866   6.650
 2670SOL     OW 8908   6.228   1.989   5.499
 2670SOL    HW1 8909   6.194   1.938   5.420
 2670SOL    HW2 8910   6.297   1.935   5.546
 2671SOL     OW 8911   4.215   6.108   6.079
 2671SOL    HW1 8912   4.126   6.123   6.035
 2671SOL    HW2 8913   4.229   6.011   6.094
 2672SOL     OW 8914   3.105   0.267   1.716
 2672SOL    HW1 8915   3.157   0.243   1.798
 2672SOL    HW2 8916   3.065   0.184   1.677
 2673SOL     OW 8917   5.359   1.250   2.403
 2673SOL    HW1 8918   5.270   1.282   2.369
 2673SOL    HW2 8919   5.383   1.300   2.486
 2674SOL     OW 8920   1.642   4.803   3.773
 2674SOL    HW1 8921   1.730   4.758   3.758
 2674SOL    HW2 8922   1.654   4.902   3.774
 2675SOL     OW 8923   0.215   6.970   3.624
 2675SOL    HW1 8924   0.128   6.943   3.582
 2675SOL    HW2 8925   0.200   6.997   3.719
 2676SOL     OW 8926   3.275   3.694   2.452
 2676SOL    HW1 8927   3.260   3.637   2.371
 2676SOL    HW2 8928   3.367   3.732   2.449
 2677SOL     OW 8929   3.131   4.557   1.080
 2677SOL    HW1 8930   3.059   4.513   1.026
 2677SOL    HW2 8931   3.171   4.632   1.026
 2678SOL     OW 8932   7.004   2.978   1.940
 2678SOL    HW1 8933   6.971   2.981   1.846
 2678SOL    HW2 8934   6.928   2.961   2.002
 2679SOL     OW 8935   1.918   5.234   2.711
 2679SOL    HW1 8936   1.903   5.286   2.795
 2679SOL    HW2 8937   1.867   5.276   2.636
 2680SOL     OW 8938   1.117   2.573   0.116
 2680SOL    HW1 8939   1.198   2.582   0.174
 2680SOL    HW2 8940   1.144   2.539   0.026
 2681SOL     OW 8941   1.558   3.034   5.428
 2681SOL    HW1 8942   1.626   3.106   5.439
 2681SOL    HW2 8943   1.574   2.961   5.495
 2682SOL     OW 8944   5.187   4.330   2.747
 2682SOL    HW1 8945   5.094   4.297   2.734
 2682SOL    HW2 8946   5.220   4.372   2.662
 2683SOL     OW 8947   2.006   4.408   2.470
 2683SOL    HW1 8948   1.964   4.322   2.500
 2683SOL    HW2 8949   2.019   4.468   2.548
 2684SOL     OW 8950   5.393   6.565   1.646
 2684SOL    HW1 8951   5.419   6.662   1.638
 2684SOL    HW2 8952   5.421   6.531   1.736
 2685SOL     OW 8953   6.664   4.952   4.565
 2685SOL    HW1 8954   6.736   5.012   4.531
 2685SOL    HW2 8955   6.623   4.902   4.488
 2686SOL     OW 8956   1.216   1.384   5.343
 2686SOL    HW1 8957   1.175   1.463   5.298
 2686SOL    HW2 8958   1.152   1.348   5.411
 2687SOL     OW 8959   4.036   6.521   1.485
 2687SOL    HW1 8960   4.116   6.466   1.510
 2687SOL    HW2 8961   4.046   6.613   1.522
 2688SOL     OW 8962   3.170   2.093   0.782
 2688SOL    HW1 8963   3.187   2.158   0.707
 2688SOL    HW2 8964   3.243   2.024   0.784
 2689SOL     OW 8965   0.407   3.896   2.353
 2689SOL    HW1 8966   0.506   3.886   2.366
 2689SOL    HW2 8967   0.374   3.819   2.298
 2690SOL     OW 8968   2.906   3.189   6.858
 2690SOL    HW1 8969   2.844   3.268   6.854
 2690SOL    HW2 8970   2.864   3.117   6.913
 2691SOL     OW 8971   0.382   4.883   4.153
 2691SOL    HW1 8972   0.430   4.834   4.080
 2691SOL    HW2 8973   0.313   4.944   4.112
 2692SOL     OW 8974   2.219   6.016   3.303
 2692SOL    HW1 8975   2.265   5.974   3.380
 2692SOL    HW2 8976   2.123   6.032   3.326
 2693SOL     OW 8977   1.687   5.035   4.160
 2693SOL    HW1 8978   1.775   5.071   4.127
 2693SOL    HW2 8979   1.690   4.935   4.155
 2694SOL     OW 8980   3.801   6.561   3.224
 2694SOL    HW1 8981   3.879   6.618   3.198
 2694SOL    HW2 8982   3.732   6.563   3.152
 2695SOL     OW 8983   5.864   0.423   3.189
 2695SOL    HW1 8984   5.842   0.499   3.251
 2695SOL    HW2 8985   5.947   0.445   3.138
 2696SOL     OW 8986   4.766   4.054   6.315
 2696SOL    HW1 8987   4.737   3.969   6.270
 2696SOL    HW2 8988   4.827   4.105   6.254
 2697SOL     OW 8989   4.511   1.190   1.891
 2697SOL    HW1 8990   4.420   1.228   1.873
 2697SOL    HW2 8991   4.509   1.139   1.977
 2698SOL     OW 8992   1.987   5.029   6.638
 2698SOL    HW1 8993   2.035   5.093   6.698
 2698SOL    HW2 8994   1.894   5.061   6.623
 2699SOL     OW 8995   2.854   5.860   1.405
 2699SOL    HW1 8996   2.895   5.772   1.427
 2699SOL    HW2 8997   2.757   5.858   1.427
 2700SOL     OW 8998   2.504   1.737   0.897
 2700SOL    HW1 8999   2.560   1.744   0.814
 2700SOL    HW2 9000   2.440   1.661   0.887
 2701SOL     OW 9001   5.449   2.683   5.767
 2701SOL    HW1 9002   5.530   2.704   5.713
 2701SOL    HW2 9003   5.374   2.658   5.707
 2702SOL     OW 9004   1.361   1.972   3.828
 2702SOL    HW1 9005   1.390   1.925   3.911
 2702SOL    HW2 9006   1.427   2.043   3.805
 2703SOL     OW 9007   1.445   5.730   1.207
 2703SOL    HW1 9008   1.502   5.750   1.287
 2703SOL    HW2 9009   1.477   5.645   1.164
 2704SOL     OW 9010   6.694   5.664   2.705
 2704SOL    HW1 9011   6.752   5.614   2.641
 2704SOL    HW2 9012   6.740   5.747   2.735
 2705SOL     OW 9013   6.517   1.188   5.671
 2705SOL    HW1 9014   6.518   1.162   5.574
 2705SOL    HW2 9015   6.554   1.114   5.726
 2706SOL     OW 9016   6.261   4.568   4.407
 2706SOL    HW1 9017   6.185   4.530   4.460
 2706SOL    HW2 9018   6.317   4.493   4.372
 2707SOL     OW 9019   3.852   6.277   3.812
 2707SOL    HW1 9020   3.844   6.319   3.721
 2707SOL    HW2 9021   3.892   6.343   3.876
 2708SOL     OW 9022   6.400   2.736   0.425
 2708SOL    HW1 9023   6.487   2.781   0.402
 2708SOL    HW2 9024   6.395   2.648   0.378
 2709SOL     OW 9025   4.585   6.624   6.102
 2709SOL    HW1 9026   4.600   6.622   6.201
 2709SOL    HW2 9027   4.500   6.673   6.083
 2710SOL     OW 9028   1.869   2.827   3.787
 2710SOL    HW1 9029   1.874   2.911   3.840
 2710SOL    HW2 9030   1.846   2.850   3.692
 2711SOL     OW 9031   2.985   1.692   3.676
 2711SOL    HW1 9032   2.967   1.683   3.578
 2711SOL    HW2 9033   3.083   1.708   3.690
 2712SOL     OW 9034   2.966   5.481   1.824
 2712SOL    HW1 9035   3.010   5.563   1.788
 2712SOL    HW2 9036   3.000   5.401   1.774
 2713SOL     OW 9037   4.065   4.434   6.327
 2713SOL    HW1 9038   4.027   4.402   6.240
 2713SOL    HW2 9039   4.069   4.358   6.392
 2714SOL     OW 9040   4.306   3.844   6.808
 2714SOL    HW1 9041   4.334   3.749   6.790
 2714SOL    HW2 9042   4.258   3.848   6.896
 2715SOL     OW 9043   5.132   1.845   1.020
 2715SOL    HW1 9044   5.115   1.920   1.083
 2715SOL    HW2 9045   5.066   1.849   0.945
 2716SOL     OW 9046   4.695   2.776   3.049
 2716SOL    HW1 9047   4.626   2.767   3.121
 2716SOL    HW2 9048   4.786   2.782   3.091
 2717SOL     OW 9049   0.405   6.927   2.297
 2717SOL    HW1 9050   0.505   6.917   2.298
 2717SOL    HW2 9051   0.369   6.909   2.388
 2718SOL     OW 9052   6.979   0.852   5.323
 2718SOL    HW1 9053   0.043   0.839   5.368
 2718SOL    HW2 9054   6.907   0.806   5.375
 2719SOL     OW 9055   1.370   4.368   2.214
 2719SOL    HW1 9056   1.277   4.368   2.251
 2719SOL    HW2 9057   1.435   4.394   2.285
 2720SOL     OW 9058   1.339   6.928   4.611
 2720SOL    HW1 9059   1.372   7.008   4.661
 2720SOL    HW2 9060   1.414   6.889   4.557
 2721SOL     OW 9061   3.463   6.397   1.983
 2721SOL    HW1 9062   3.535   6.369   1.920
 2721SOL    HW2 9063   3.396   6.323   1.994
 2722SOL     OW 9064   5.178   5.554   6.563
 2722SOL    HW1 9065   5.138   5.553   6.472
 2722SOL    HW2 9066   5.109   5.528   6.630
 2723SOL     OW 9067   3.023   6.450   0.024
 2723SOL    HW1 9068   3.105   6.416   0.069
 2723SOL    HW2 9069   3.046   6.481   6.956
 2724SOL     OW 9070   1.378   5.731   6.728
 2724SOL    HW1 9071   1.297   5.787   6.717
 2724SOL    HW2 9072   1.409   5.697   6.639
 2725SOL     OW 9073   5.513   3.782   4.534
 2725SOL    HW1 9074   5.530   3.827   4.447
 2725SOL    HW2 9075   5.548   3.839   4.609
 2726SOL     OW 9076   0.735   2.327   1.727
 2726SOL    HW1 9077   0.665   2.269   1.768
 2726SOL    HW2 9078   0.739   2.312   1.629
 2727SOL     OW 9079   1.950   4.118   3.935
 2727SOL    HW1 9080   2.032   4.157   3.893
 2727SOL    HW2 9081   1.878   4.112   3.867
 2728SOL     OW 9082   5.272   5.862   6.586
 2728SOL    HW1 9083   5.330   5.846   6.665
 2728SOL    HW2 9084   5.256   5.776   6.538
 2729SOL     OW 9085   6.360   6.319   6.886
 2729SOL    HW1 9086   6.352   6.399   6.827
 2729SOL    HW2 9087   6.273   6.270   6.889
 2730SOL     OW 9088   0.869   5.619   1.168
 2730SOL    HW1 9089   0.898   5.688   1.234
 2730SOL    HW2 9090   0.898   5.645   1.076
 2731SOL     OW 9091   2.871   3.593   3.171
 2731SOL    HW1 9092   2.961   3.579   3.130
 2731SOL    HW2 9093   2.816   3.651   3.111
 2732SOL     OW 9094   5.199   2.208   1.459
 2732SOL    HW1 9095   5.242   2.298   1.464
 2732SOL    HW2 9096   5.122   2.205   1.523
 2733SOL     OW 9097   6.867   1.078   5.178
 2733SOL    HW1 9098   6.772   1.047   5.185
 2733SOL    HW2 9099   6.928   1.000   5.192
 2734SOL     OW 9100   3.275   6.236   1.237
 2734SOL    HW1 9101   3.253   6.139   1.246
 2734SOL    HW2 9102   3.274   6.262   1.140
 2735SOL     OW 9103   1.811   2.618   0.317
 2735SOL    HW1 9104   1.715   2.620   0.347
 2735SOL    HW2 9105   1.819   2.565   0.233
 2736SOL     OW 9106   5.663   6.321   4.296
 2736SOL    HW1 9107   5.703   6.247   4.350
 2736SOL    HW2 9108   5.567   6.302   4.278
 2737SOL     OW 9109   3.074   2.721   5.808
 2737SOL    HW1 9110   3.130   2.797   5.841
 2737SOL    HW2 9111   3.124   2.635   5.820
 2738SOL     OW 9112   6.375   6.909   2.109
 2738SOL    HW1 9113   6.280   6.938   2.125
 2738SOL    HW2 9114   6.404   6.940   2.018
 2739SOL     OW 9115   0.871   5.210   1.033
 2739SOL    HW1 9116   0.806   5.142   0.999
 2739SOL    HW2 9117   0.916   5.255   0.956
 2740SOL     OW 9118   0.490   5.220   2.311
 2740SOL    HW1 9119   0.447   5.234   2.221
 2740SOL    HW2 9120   0.565   5.285   2.323
 2741SOL     OW 9121   0.518   1.538   4.769
 2741SOL    HW1 9122   0.450   1.561   4.839
 2741SOL    HW2 9123   0.528   1.615   4.707
 2742SOL     OW 9124   2.590   5.300   1.678
 2742SOL    HW1 9125   2.598   5.202   1.692
 2742SOL    HW2 9126   2.496   5.329   1.694
 2743SOL     OW 9127   6.842   4.840   2.342
 2743SOL    HW1 9128   6.757   4.804   2.380
 2743SOL    HW2 9129   6.911   4.767   2.341
 2744SOL     OW 9130   3.802   3.410   2.176
 2744SOL    HW1 9131   3.721   3.395   2.233
 2744SOL    HW2 9132   3.793   3.498   2.129
 2745SOL     OW 9133   6.464   1.297   5.081
 2745SOL    HW1 9134   6.546   1.345   5.111
 2745SOL    HW2 9135   6.437   1.330   4.991
 2746SOL     OW 9136   0.653   1.444   4.363
 2746SOL    HW1 9137   0.558   1.465   4.383
 2746SOL    HW2 9138   0.709   1.525   4.379
 2747SOL     OW 9139   4.751   5.429   6.826
 2747SOL    HW1 9140   4.669   5.434   6.883
 2747SOL    HW2 9141   4.737   5.361   6.754
 2748SOL     OW 9142   4.692   0.599   1.574
 2748SOL    HW1 9143   4.668   0.661   1.499
 2748SOL    HW2 9144   4.680   0.646   1.662
 2749SOL     OW 9145   1.120   4.438   0.386
 2749SOL    HW1 9146   1.128   4.400   0.479
 2749SOL    HW2 9147   1.172   4.523   0.380
 2750SOL     OW 9148   2.552   5.003   1.765
 2750SOL    HW1 9149   2.623   4.955   1.815
 2750SOL    HW2 9150   2.524   4.949   1.686
 2751SOL     OW 9151   1.660   2.038   1.044
 2751SOL    HW1 9152   1.624   2.099   1.115
 2751SOL    HW2 9153   1.685   2.092   0.964
 2752SOL     OW 9154   4.018   4.736   6.493
 2752SOL    HW1 9155   3.986   4.790   6.571
 2752SOL    HW2 9156   4.073   4.660   6.526
 2753SOL     OW 9157   6.548   5.946   5.159
 2753SOL    HW1 9158   6.458   5.942   5.117
 2753SOL    HW2 9159   6.619   5.934   5.089
 2754SOL     OW 9160   0.536   0.101   0.077
 2754SOL    HW1 9161   0.605   0.157   0.031
 2754SOL    HW2 9162   0.566   0.006   0.078
 2755SOL     OW 9163   3.500   6.935   3.091
 2755SOL    HW1 9164   3.470   6.857   3.146
 2755SOL    HW2 9165   3.565   6.990   3.144
 2756SOL     OW 9166   4.256   6.374   0.345
 2756SOL    HW1 9167   4.298   6.338   0.261
 2756SOL    HW2 9168   4.198   6.452   0.322
 2757SOL     OW 9169   1.925   5.513   0.515
 2757SOL    HW1 9170   1.895   5.526   0.420
 2757SOL    HW2 9171   1.871   5.440   0.557
 2758SOL     OW 9172   5.046   0.192   4.663
 2758SOL    HW1 9173   5.015   0.273   4.714
 2758SOL    HW2 9174   5.027   0.206   4.565
 2759SOL     OW 9175   4.939   6.229   4.250
 2759SOL    HW1 9176   4.907   6.149   4.201
 2759SOL    HW2 9177   4.878   6.306   4.231
 2760SOL     OW 9178   1.231   5.545   1.571
 2760SOL    HW1 9179   1.177   5.602   1.509
 2760SOL    HW2 9180   1.175   5.467   1.601
 2761SOL     OW 9181   1.641   4.761   4.223
 2761SOL    HW1 9182   1.620   4.712   4.307
 2761SOL    HW2 9183   1.595   4.715   4.146
 2762SOL     OW 9184   1.096   0.866   5.150
 2762SOL    HW1 9185   1.027   0.840   5.083
 2762SOL    HW2 9186   1.055   0.928   5.218
 2763SOL     OW 9187   5.649   1.877   3.954
 2763SOL    HW1 9188   5.637   1.937   3.875
 2763SOL    HW2 9189   5.661   1.932   4.037
 2764SOL     OW 9190   6.284   0.502   1.336
 2764SOL    HW1 9191   6.351   0.448   1.388
 2764SOL    HW2 9192   6.253   0.580   1.391
 2765SOL     OW 9193   5.390   0.697   0.716
 2765SOL    HW1 9194   5.310   0.711   0.658
 2765SOL    HW2 9195   5.362   0.651   0.801
 2766SOL     OW 9196   5.199   1.621   0.556
 2766SOL    HW1 9197   5.175   1.602   0.651
 2766SOL    HW2 9198   5.147   1.700   0.524
 2767SOL     OW 9199   6.843   5.375   6.688
 2767SOL    HW1 9200   6.827   5.307   6.617
 2767SOL    HW2 9201   6.937   5.368   6.721
 2768SOL     OW 9202   4.952   0.775   6.972
 2768SOL    HW1 9203   5.037   0.732   6.942
 2768SOL    HW2 9204   4.880   0.707   6.977
 2769SOL     OW 9205   0.234   4.544   3.929
 2769SOL    HW1 9206   0.214   4.597   3.846
 2769SOL    HW2 9207   0.172   4.466   3.935
 2770SOL     OW 9208   2.148   5.386   6.175
 2770SOL    HW1 9209   2.101   5.300   6.151
 2770SOL    HW2 9210   2.235   5.365   6.218
 2771SOL     OW 9211   5.520   1.331   2.156
 2771SOL    HW1 9212   5.589   1.367   2.218
 2771SOL    HW2 9213   5.453   1.277   2.208
 2772SOL     OW 9214   4.359   2.006   0.911
 2772SOL    HW1 9215   4.423   2.032   0.983
 2772SOL    HW2 9216   4.273   2.054   0.924
 2773SOL     OW 9217   5.139   3.265   5.988
 2773SOL    HW1 9218   5.100   3.247   6.078
 2773SOL    HW2 9219   5.200   3.345   5.993
 2774SOL     OW 9220   0.121   3.304   2.921
 2774SOL    HW1 9221   0.044   3.240   2.922
 2774SOL    HW2 9222   0.086   3.397   2.919
 2775SOL     OW 9223   7.005   5.550   0.399
 2775SOL    HW1 9224   6.921   5.604   0.395
 2775SOL    HW2 9225   6.986   5.457   0.367
 2776SOL     OW 9226   4.885   5.667   5.364
 2776SOL    HW1 9227   4.942   5.741   5.327
 2776SOL    HW2 9228   4.916   5.645   5.457
 2777SOL     OW 9229   3.026   1.462   2.086
 2777SOL    HW1 9230   3.092   1.501   2.022
 2777SOL    HW2 9231   3.043   1.499   2.178
 2778SOL     OW 9232   1.616   1.407   5.267
 2778SOL    HW1 9233   1.560   1.474   5.316
 2778SOL    HW2 9234   1.664   1.349   5.333
 2779SOL     OW 9235   4.601   0.192   0.821
 2779SOL    HW1 9236   4.513   0.208   0.775
 2779SOL    HW2 9237   4.652   0.123   0.770
 2780SOL     OW 9238   6.682   5.212   5.838
 2780SOL    HW1 9239   6.724   5.297   5.870
 2780SOL    HW2 9240   6.746   5.136   5.853
 2781SOL     OW 9241   5.922   5.583   2.023
 2781SOL    HW1 9242   5.885   5.660   2.074
 2781SOL    HW2 9243   5.858   5.556   1.952
 2782SOL     OW 9244   2.814   2.604   5.888
 2782SOL    HW1 9245   2.892   2.631   5.830
 2782SOL    HW2 9246   2.794   2.507   5.874
 2783SOL     OW 9247   5.930   3.117   4.664
 2783SOL    HW1 9248   5.944   3.034   4.719
 2783SOL    HW2 9249   5.926   3.092   4.567
 2784SOL     OW 9250   2.786   1.627   1.419
 2784SOL    HW1 9251   2.725   1.566   1.368
 2784SOL    HW2 9252   2.736   1.668   1.495
 2785SOL     OW 9253   5.872   1.478   0.033
 2785SOL    HW1 9254   5.895   1.401   0.092
 2785SOL    HW2 9255   5.957   1.521   0.000
 2786SOL     OW 9256   4.452   6.340   1.356
 2786SOL    HW1 9257   4.415   6.262   1.304
 2786SOL    HW2 9258   4.552   6.341   1.348
 2787SOL     OW 9259   2.074   2.789   6.528
 2787SOL    HW1 9260   2.148   2.854   6.516
 2787SOL    HW2 9261   1.986   2.838   6.527
 2788SOL     OW 9262   1.939   4.144   0.037
 2788SOL    HW1 9263   2.023   4.115   0.082
 2788SOL    HW2 9264   1.889   4.064   0.004
 2789SOL     OW 9265   1.812   2.839   3.427
 2789SOL    HW1 9266   1.721   2.857   3.390
 2789SOL    HW2 9267   1.878   2.834   3.352
 2790SOL     OW 9268   3.014   5.553   2.787
 2790SOL    HW1 9269   2.939   5.550   2.721
 2790SOL    HW2 9270   2.980   5.526   2.878
 2791SOL     OW 9271   1.155   4.288   4.568
 2791SOL    HW1 9272   1.138   4.234   4.485
 2791SOL    HW2 9273   1.152   4.385   4.545
 2792SOL     OW 9274   1.040   6.939   5.148
 2792SOL    HW1 9275   0.974   6.864   5.143
 2792SOL    HW2 9276   1.019   7.007   5.078
 2793SOL     OW 9277   5.169   2.764   2.825
 2793SOL    HW1 9278   5.187   2.669   2.799
 2793SOL    HW2 9279   5.111   2.766   2.906
 2794SOL     OW 9280   0.020   2.394   0.588
 2794SOL    HW1 9281   0.098   2.413   0.647
 2794SOL    HW2 9282   0.053   2.359   0.500
 2795SOL     OW 9283   2.595   3.523   0.754
 2795SOL    HW1 9284   2.649   3.580   0.815
 2795SOL    HW2 9285   2.505   3.507   0.794
 2796SOL     OW 9286   6.835   4.472   2.680
 2796SOL    HW1 9287   6.911   4.537   2.680
 2796SOL    HW2 9288   6.755   4.515   2.723
 2797SOL     OW 9289   4.684   5.432   4.530
 2797SOL    HW1 9290   4.735   5.431   4.615
 2797SOL    HW2 9291   4.596   5.386   4.542
 2798SOL     OW 9292   1.481   4.324   1.808
 2798SOL    HW1 9293   1.383   4.338   1.793
 2798SOL    HW2 9294   1.496   4.282   1.897
 2799SOL     OW 9295   0.214   5.565   0.059
 2799SOL    HW1 9296   0.167   5.653   0.049
 2799SOL    HW2 9297   0.205   5.533   0.154
 2800SOL     OW 9298   4.410   4.438   6.623
 2800SOL    HW1 9299   4.425   4.472   6.530
 2800SOL    HW2 9300   4.461   4.353   6.636
 2801SOL     OW 9301   4.512   5.642   4.617
 2801SOL    HW1 9302   4.517   5.669   4.713
 2801SOL    HW2 9303   4.597   5.595   4.591
 2802SOL     OW 9304   4.814   3.370   6.632
 2802SOL    HW1 9305   4.817   3.456   6.581
 2802SOL    HW2 9306   4.879   3.305   6.591
 2803SOL     OW 9307   2.876   5.965   6.447
 2803SOL    HW1 9308   2.839   5.874   6.429
 2803SOL    HW2 9309   2.924   5.965   6.535
 2804SOL     OW 9310   0.197   4.336   4.592
 2804SOL    HW1 9311   0.189   4.245   4.550
 2804SOL    HW2 9312   0.119   4.392   4.565
 2805SOL     OW 9313   4.622   3.164   1.160
 2805SOL    HW1 9314   4.653   3.258   1.174
 2805SOL    HW2 9315   4.523   3.159   1.177
 2806SOL     OW 9316   5.997   5.123   3.848
 2806SOL    HW1 9317   5.916   5.140   3.904
 2806SOL    HW2 9318   5.992   5.178   3.764
 2807SOL     OW 9319   5.539   5.068   3.986
 2807SOL    HW1 9320   5.473   5.126   3.938
 2807SOL    HW2 9321   5.546   4.980   3.939
 2808SOL     OW 9322   4.905   2.639   2.366
 2808SOL    HW1 9323   5.002   2.638   2.387
 2808SOL    HW2 9324   4.855   2.684   2.440
 2809SOL     OW 9325   6.702   2.722   1.747
 2809SOL    HW1 9326   6.742   2.639   1.707
 2809SOL    HW2 9327   6.748   2.803   1.710
 2810SOL     OW 9328   3.057   6.080   4.492
 2810SOL    HW1 9329   3.041   5.994   4.539
 2810SOL    HW2 9330   3.024   6.073   4.398
 2811SOL     OW 9331   0.839   0.639   3.472
 2811SOL    HW1 9332   0.858   0.610   3.566
 2811SOL    HW2 9333   0.753   0.690   3.470
 2812SOL     OW 9334   6.266   3.742   0.851
 2812SOL    HW1 9335   6.363   3.765   0.839
 2812SOL    HW2 9336   6.244   3.742   0.949
 2813SOL     OW 9337   6.468   0.067   5.856
 2813SOL    HW1 9338   6.410   0.136   5.813
 2813SOL    HW2 9339   6.564   0.090   5.840
 2814SOL     OW 9340   4.407   3.106   0.004
 2814SOL    HW1 9341   4.482   3.103   6.961
 2814SOL    HW2 9342   4.398   3.017   0.049
 2815SOL     OW 9343   0.134   1.711   4.947
 2815SOL    HW1 9344   0.191   1.634   4.976
 2815SOL    HW2 9345   0.125   1.776   5.023
 2816SOL     OW 9346   6.734   6.329   4.043
 2816SOL    HW1 9347   6.741   6.398   4.116
 2816SOL    HW2 9348   6.663   6.263   4.066
 2817SOL     OW 9349   2.276   0.336   1.278
 2817SOL    HW1 9350   2.237   0.258   1.327
 2817SOL    HW2 9351   2.215   0.362   1.203
 2818SOL     OW 9352   6.846   5.688   6.407
 2818SOL    HW1 9353   6.784   5.757   6.371
 2818SOL    HW2 9354   6.805   5.644   6.487
 2819SOL     OW 9355   6.942   1.538   1.158
 2819SOL    HW1 9356   7.023   1.582   1.197
 2819SOL    HW2 9357   6.970   1.473   1.088
 2820SOL     OW 9358   0.959   1.853   2.618
 2820SOL    HW1 9359   1.032   1.837   2.684
 2820SOL    HW2 9360   0.936   1.951   2.616
 2821SOL     OW 9361   3.964   4.066   6.937
 2821SOL    HW1 9362   3.902   4.043   6.862
 2821SOL    HW2 9363   4.031   3.993   6.949
 2822SOL     OW 9364   4.275   2.566   0.120
 2822SOL    HW1 9365   4.196   2.541   0.175
 2822SOL    HW2 9366   4.254   2.550   0.023
 2823SOL     OW 9367   2.855   6.623   1.155
 2823SOL    HW1 9368   2.802   6.564   1.216
 2823SOL    HW2 9369   2.804   6.636   1.070
 2824SOL     OW 9370   2.288   1.524   4.457
 2824SOL    HW1 9371   2.261   1.602   4.400
 2824SOL    HW2 9372   2.283   1.440   4.403
 2825SOL     OW 9373   6.839   0.027   7.021
 2825SOL    HW1 9374   6.745   0.052   0.021
 2825SOL    HW2 9375   6.859   6.959   0.030
 2826SOL     OW 9376   5.050   2.092   6.579
 2826SOL    HW1 9377   4.984   2.105   6.506
 2826SOL    HW2 9378   5.004   2.098   6.667
 2827SOL     OW 9379   5.679   1.087   5.155
 2827SOL    HW1 9380   5.674   0.989   5.135
 2827SOL    HW2 9381   5.673   1.100   5.254
 2828SOL     OW 9382   3.251   0.831   6.747
 2828SOL    HW1 9383   3.285   0.739   6.764
 2828SOL    HW2 9384   3.285   0.864   6.658
 2829SOL     OW 9385   3.260   4.208   6.022
 2829SOL    HW1 9386   3.219   4.146   5.955
 2829SOL    HW2 9387   3.311   4.154   6.090
 2830SOL     OW 9388   0.589   3.421   6.573
 2830SOL    HW1 9389   0.672   3.401   6.625
 2830SOL    HW2 9390   0.515   3.361   6.604
 2831SOL     OW 9391   6.956   6.200   3.668
 2831SOL    HW1 9392   0.014   6.224   3.618
 2831SOL    HW2 9393   6.978   6.183   3.764
 2832SOL     OW 9394   0.199   1.251   1.722
 2832SOL    HW1 9395   0.226   1.193   1.799
 2832SOL    HW2 9396   0.277   1.307   1.694
 2833SOL     OW 9397   5.337   2.333   2.018
 2833SOL    HW1 9398   5.272   2.323   1.942
 2833SOL    HW2 9399   5.425   2.363   1.982
 2834SOL     OW 9400   2.789   0.064   6.016
 2834SOL    HW1 9401   2.883   0.057   5.985
 2834SOL    HW2 9402   2.741   7.003   5.996
 2835SOL     OW 9403   6.810   0.519   2.185
 2835SOL    HW1 9404   6.751   0.505   2.264
 2835SOL    HW2 9405   6.875   0.443   2.178
 2836SOL     OW 9406   6.889   7.003   1.699
 2836SOL    HW1 9407   6.898   0.008   1.604
 2836SOL    HW2 9408   6.972   0.003   1.750
 2837SOL     OW 9409   5.852   3.563   3.056
 2837SOL    HW1 9410   5.928   3.518   3.010
 2837SOL    HW2 9411   5.794   3.494   3.100
 2838SOL     OW 9412   1.641   4.109   1.724
 2838SOL    HW1 9413   1.584   4.027   1.712
 2838SOL    HW2 9414   1.582   4.190   1.724
 2839SOL     OW 9415   5.659   0.996   1.824
 2839SOL    HW1 9416   5.601   0.933   1.876
 2839SOL    HW2 9417   5.753   0.963   1.824
 2840SOL     OW 9418   0.517   1.032   4.058
 2840SOL    HW1 9419   0.589   1.096   4.029
 2840SOL    HW2 9420   0.475   0.991   3.978
 2841SOL     OW 9421   6.775   0.718   5.458
 2841SOL    HW1 9422   6.843   0.690   5.525
 2841SOL    HW2 9423   6.710   0.781   5.501
 2842SOL     OW 9424   7.007   2.289   4.291
 2842SOL    HW1 9425   6.938   2.321   4.226
 2842SOL    HW2 9426   0.032   2.367   4.329
 2843SOL     OW 9427   3.008   1.776   3.353
 2843SOL    HW1 9428   2.991   1.873   3.338
 2843SOL    HW2 9429   2.922   1.730   3.377
 2844SOL     OW 9430   1.600   4.684   0.512
 2844SOL    HW1 9431   1.621   4.765   0.566
 2844SOL    HW2 9432   1.558   4.615   0.571
 2845SOL     OW 9433   0.976   2.992   0.574
 2845SOL    HW1 9434   0.911   3.056   0.615
 2845SOL    HW2 9435   1.069   3.023   0.594
 2846SOL     OW 9436   4.588   1.541   6.635
 2846SOL    HW1 9437   4.602   1.615   6.569
 2846SOL    HW2 9438   4.493   1.509   6.630
 2847SOL     OW 9439   5.303   3.576   2.991
 2847SOL    HW1 9440   5.253   3.656   2.958
 2847SOL    HW2 9441   5.386   3.564   2.937
 2848SOL     OW 9442   0.840   4.606   6.417
 2848SOL    HW1 9443   0.773   4.570   6.483
 2848SOL    HW2 9444   0.905   4.535   6.393
 2849SOL     OW 9445   3.843   6.813   1.803
 2849SOL    HW1 9446   3.848   6.783   1.899
 2849SOL    HW2 9447   3.935   6.831   1.769
 2850SOL     OW 9448   3.670   6.960   2.371
 2850SOL    HW1 9449   3.578   7.000   2.366
 2850SOL    HW2 9450   3.734   7.018   2.319
 2851SOL     OW 9451   0.144   3.709   6.006
 2851SOL    HW1 9452   0.184   3.673   6.091
 2851SOL    HW2 9453   0.051   3.674   5.997
 2852SOL     OW 9454   5.597   4.542   0.276
 2852SOL    HW1 9455   5.527   4.484   0.318
 2852SOL    HW2 9456   5.555   4.628   0.246
 2853SOL     OW 9457   2.317   2.013   0.450
 2853SOL    HW1 9458   2.319   1.979   0.544
 2853SOL    HW2 9459   2.264   1.949   0.393
 2854SOL     OW 9460   3.297   1.770   4.481
 2854SOL    HW1 9461   3.280   1.697   4.547
 2854SOL    HW2 9462   3.279   1.859   4.525
 2855SOL     OW 9463   2.341   1.161   6.016
 2855SOL    HW1 9464   2.324   1.247   6.064
 2855SOL    HW2 9465   2.432   1.128   6.040
 2856SOL     OW 9466   2.205   2.937   6.135
 2856SOL    HW1 9467   2.165   2.859   6.184
 2856SOL    HW2 9468   2.181   2.932   6.038
 2857SOL     OW 9469   3.302   1.710   2.146
 2857SOL    HW1 9470   3.344   1.786   2.097
 2857SOL    HW2 9471   3.238   1.663   2.085
 2858SOL     OW 9472   6.361   3.548   1.589
 2858SOL    HW1 9473   6.287   3.525   1.652
 2858SOL    HW2 9474   6.437   3.589   1.641
 2859SOL     OW 9475   4.997   2.418   0.755
 2859SOL    HW1 9476   4.933   2.494   0.742
 2859SOL    HW2 9477   5.030   2.417   0.849
 2860SOL     OW 9478   3.606   1.767   1.247
 2860SOL    HW1 9479   3.576   1.701   1.178
 2860SOL    HW2 9480   3.559   1.747   1.334
 2861SOL     OW 9481   4.661   5.347   5.751
 2861SOL    HW1 9482   4.571   5.387   5.737
 2861SOL    HW2 9483   4.700   5.380   5.837
 2862SOL     OW 9484   5.264   1.992   3.006
 2862SOL    HW1 9485   5.342   2.026   2.954
 2862SOL    HW2 9486   5.188   1.973   2.945
 2863SOL     OW 9487   5.618   1.203   6.600
 2863SOL    HW1 9488   5.646   1.239   6.689
 2863SOL    HW2 9489   5.560   1.270   6.553
 2864SOL     OW 9490   3.868   0.817   1.582
 2864SOL    HW1 9491   3.945   0.769   1.625
 2864SOL    HW2 9492   3.784   0.795   1.630
 2865SOL     OW 9493   5.063   4.017   5.896
 2865SOL    HW1 9494   5.136   4.085   5.903
 2865SOL    HW2 9495   5.058   3.964   5.980
 2866SOL     OW 9496   6.288   6.053   0.027
 2866SOL    HW1 9497   6.338   6.106   0.095
 2866SOL    HW2 9498   6.348   5.984   7.011
 2867SOL     OW 9499   6.105   4.041   2.364
 2867SOL    HW1 9500   6.173   4.106   2.399
 2867SOL    HW2 9501   6.014   4.082   2.371
 2868SOL     OW 9502   0.618   3.179   5.624
 2868SOL    HW1 9503   0.590   3.256   5.681
 2868SOL    HW2 9504   0.552   3.165   5.551
 2869SOL     OW 9505   6.142   1.303   3.396
 2869SOL    HW1 9506   6.061   1.360   3.378
 2869SOL    HW2 9507   6.222   1.363   3.407
 2870SOL     OW 9508   6.908   1.118   4.568
 2870SOL    HW1 9509   6.962   1.175   4.630
 2870SOL    HW2 9510   6.893   1.028   4.609
 2871SOL     OW 9511   1.641   1.529   0.119
 2871SOL    HW1 9512   1.739   1.518   0.102
 2871SOL    HW2 9513   1.618   1.626   0.124
 2872SOL     OW 9514   2.192   2.146   3.456
 2872SOL    HW1 9515   2.147   2.196   3.382
 2872SOL    HW2 9516   2.211   2.053   3.426
 2873SOL     OW 9517   0.994   4.931   3.043
 2873SOL    HW1 9518   0.952   5.021   3.031
 2873SOL    HW2 9519   0.944   4.880   3.113
 2874SOL     OW 9520   4.154   5.392   2.849
 2874SOL    HW1 9521   4.093   5.319   2.819
 2874SOL    HW2 9522   4.216   5.417   2.775
 2875SOL     OW 9523   4.905   6.122   6.820
 2875SOL    HW1 9524   4.835   6.173   6.770
 2875SOL    HW2 9525   4.962   6.072   6.755
 2876SOL     OW 9526   1.146   6.974   1.971
 2876SOL    HW1 9527   1.238   6.985   1.932
 2876SOL    HW2 9528   1.088   0.026   1.941
 2877SOL     OW 9529   3.670   2.898   5.164
 2877SOL    HW1 9530   3.653   2.815   5.218
 2877SOL    HW2 9531   3.592   2.960   5.172
 2878SOL     OW 9532   3.570   4.931   4.402
 2878SOL    HW1 9533   3.560   5.030   4.401
 2878SOL    HW2 9534   3.641   4.904   4.337
 2879SOL     OW 9535   5.324   5.150   0.284
 2879SOL    HW1 9536   5.284   5.078   0.341
 2879SOL    HW2 9537   5.370   5.108   0.206
 2880SOL     OW 9538   5.787   0.007   0.819
 2880SOL    HW1 9539   5.872   7.001   0.862
 2880SOL    HW2 9540   5.710   7.005   0.876
 2881SOL     OW 9541   5.911   6.115   1.335
 2881SOL    HW1 9542   5.997   6.108   1.385
 2881SOL    HW2 9543   5.929   6.123   1.237
 2882SOL     OW 9544   0.685   3.472   2.233
 2882SOL    HW1 9545   0.687   3.550   2.170
 2882SOL    HW2 9546   0.595   3.467   2.276
 2883SOL     OW 9547   5.547   6.540   3.974
 2883SOL    HW1 9548   5.537   6.466   3.907
 2883SOL    HW2 9549   5.580   6.622   3.927
 2884SOL     OW 9550   0.623   5.693   2.739
 2884SOL    HW1 9551   0.563   5.755   2.688
 2884SOL    HW2 9552   0.702   5.669   2.682
 2885SOL     OW 9553   0.201   3.060   2.090
 2885SOL    HW1 9554   0.122   3.029   2.037
 2885SOL    HW2 9555   0.245   2.982   2.134
 2886SOL     OW 9556   2.142   4.186   6.727
 2886SOL    HW1 9557   2.104   4.114   6.670
 2886SOL    HW2 9558   2.108   4.275   6.696
 2887SOL     OW 9559   1.718   0.108   4.874
 2887SOL    HW1 9560   1.796   0.148   4.824
 2887SOL    HW2 9561   1.723   0.009   4.870
 2888SOL     OW 9562   0.688   5.218   6.728
 2888SOL    HW1 9563   0.772   5.265   6.754
 2888SOL    HW2 9564   0.628   5.209   6.807
 2889SOL     OW 9565   1.933   0.483   2.452
 2889SOL    HW1 9566   1.991   0.444   2.523
 2889SOL    HW2 9567   1.988   0.506   2.372
 2890SOL     OW 9568   2.646   0.366   0.792
 2890SOL    HW1 9569   2.736   0.323   0.784
 2890SOL    HW2 9570   2.643   0.423   0.874
 2891SOL     OW 9571   2.427   4.579   3.827
 2891SOL    HW1 9572   2.458   4.670   3.800
 2891SOL    HW2 9573   2.404   4.526   3.745
 2892SOL     OW 9574   5.720   3.577   0.450
 2892SOL    HW1 9575   5.772   3.561   0.534
 2892SOL    HW2 9576   5.777   3.557   0.370
 2893SOL     OW 9577   0.696   6.513   4.631
 2893SOL    HW1 9578   0.646   6.597   4.607
 2893SOL    HW2 9579   0.642   6.459   4.694
 2894SOL     OW 9580   3.079   2.622   0.004
 2894SOL    HW1 9581   3.105   2.717   0.018
 2894SOL    HW2 9582   3.129   2.563   0.069
 2895SOL     OW 9583   4.174   3.160   6.575
 2895SOL    HW1 9584   4.099   3.208   6.621
 2895SOL    HW2 9585   4.174   3.064   6.603
 2896SOL     OW 9586   2.985   5.182   6.371
 2896SOL    HW1 9587   3.038   5.264   6.347
 2896SOL    HW2 9588   2.910   5.207   6.431
 2897SOL     OW 9589   2.842   5.880   3.372
 2897SOL    HW1 9590   2.930   5.884   3.419
 2897SOL    HW2 9591   2.858   5.873   3.273
 2898SOL     OW 9592   4.658   5.382   3.591
 2898SOL    HW1 9593   4.708   5.410   3.673
 2898SOL    HW2 9594   4.562   5.411   3.600
 2899SOL     OW 9595   0.360   2.021   0.550
 2899SOL    HW1 9596   0.355   2.069   0.638
 2899SOL    HW2 9597   0.428   2.066   0.491
 2900SOL     OW 9598   1.594   4.862   5.580
 2900SOL    HW1 9599   1.628   4.771   5.557
 2900SOL    HW2 9600   1.512   4.854   5.636
 2901SOL     OW 9601   1.439   0.421   2.642
 2901SOL    HW1 9602   1.531   0.436   2.680
 2901SOL    HW2 9603   1.372   0.425   2.716
 2902SOL     OW 9604   5.573   5.601   1.221
 2902SOL    HW1 9605   5.496   5.587   1.159
 2902SOL    HW2 9606   5.595   5.515   1.267
 2903SOL     OW 9607   3.134   7.000   1.466
 2903SOL    HW1 9608   3.198   0.042   1.427
 2903SOL    HW2 9609   3.168   6.907   1.449
 2904SOL     OW 9610   2.149   3.145   5.425
 2904SOL    HW1 9611   2.239   3.116   5.393
 2904SOL    HW2 9612   2.161   3.214   5.497
 2905SOL     OW 9613   1.120   2.464   3.724
 2905SOL    HW1 9614   1.091   2.529   3.654
 2905SOL    HW2 9615   1.187   2.507   3.784
 2906SOL     OW 9616   5.062   5.570   2.830
 2906SOL    HW1 9617   5.116   5.642   2.788
 2906SOL    HW2 9618   5.117   5.523   2.900
 2907SOL     OW 9619   0.358   1.194   4.384
 2907SOL    HW1 9620   0.391   1.246   4.462
 2907SOL    HW2 9621   0.390   1.238   4.299
 2908SOL     OW 9622   4.210   6.798   3.912
 2908SOL    HW1 9623   4.260   6.792   3.999
 2908SOL    HW2 9624   4.246   6.875   3.859
 2909SOL     OW 9625   0.390   6.417   3.256
 2909SOL    HW1 9626   0.358   6.329   3.220
 2909SOL    HW2 9627   0.398   6.412   3.355
 2910SOL     OW 9628   4.558   6.240   4.531
 2910SOL    HW1 9629   4.616   6.321   4.517
 2910SOL    HW2 9630   4.586   6.167   4.468
 2911SOL     OW 9631   2.076   5.104   3.462
 2911SOL    HW1 9632   1.992   5.096   3.408
 2911SOL    HW2 9633   2.143   5.160   3.413
 2912SOL     OW 9634   4.067   6.123   6.886
 2912SOL    HW1 9635   4.066   6.056   6.960
 2912SOL    HW2 9636   4.064   6.215   6.925
 2913SOL     OW 9637   1.611   5.156   2.381
 2913SOL    HW1 9638   1.614   5.095   2.461
 2913SOL    HW2 9639   1.661   5.240   2.401
 2914SOL     OW 9640   5.867   5.791   5.640
 2914SOL    HW1 9641   5.771   5.769   5.659
 2914SOL    HW2 9642   5.924   5.759   5.716
 2915SOL     OW 9643   4.679   1.755   5.076
 2915SOL    HW1 9644   4.713   1.849   5.079
 2915SOL    HW2 9645   4.748   1.696   5.033
 2916SOL     OW 9646   6.398   5.145   5.835
 2916SOL    HW1 9647   6.334   5.200   5.783
 2916SOL    HW2 9648   6.492   5.176   5.817
 2917SOL     OW 9649   4.212   0.608   2.022
 2917SOL    HW1 9650   4.248   0.677   2.086
 2917SOL    HW2 9651   4.151   0.546   2.072
 2918SOL     OW 9652   0.415   3.455   2.900
 2918SOL    HW1 9653   0.353   3.532   2.916
 2918SOL    HW2 9654   0.372   3.391   2.835
 2919SOL     OW 9655   6.220   1.089   6.982
 2919SOL    HW1 9656   6.316   1.067   7.001
 2919SOL    HW2 9657   6.210   1.189   6.978
 2920SOL     OW 9658   3.340   1.790   2.420
 2920SOL    HW1 9659   3.332   1.799   2.321
 2920SOL    HW2 9660   3.316   1.696   2.446
 2921SOL     OW 9661   0.581   0.471   3.249
 2921SOL    HW1 9662   0.645   0.547   3.256
 2921SOL    HW2 9663   0.580   0.437   3.154
 2922SOL     OW 9664   5.789   6.722   6.901
 2922SOL    HW1 9665   5.703   6.672   6.910
 2922SOL    HW2 9666   5.831   6.732   6.991
 2923SOL     OW 9667   6.971   4.582   1.879
 2923SOL    HW1 9668   6.955   4.567   1.976
 2923SOL    HW2 9669   0.015   4.517   1.846
 2924SOL     OW 9670   6.745   2.406   6.853
 2924SOL    HW1 9671   6.678   2.341   6.890
 2924SOL    HW2 9672   6.707   2.450   6.772
 2925SOL     OW 9673   5.036   0.906   3.473
 2925SOL    HW1 9674   5.131   0.938   3.476
 2925SOL    HW2 9675   4.983   0.952   3.545
 2926SOL     OW 9676   6.914   1.360   5.170
 2926SOL    HW1 9677   6.911   1.261   5.158
 2926SOL    HW2 9678   6.824   1.399   5.149
 2927SOL     OW 9679   2.381   1.800   2.251
 2927SOL    HW1 9680   2.445   1.816   2.176
 2927SOL    HW2 9681   2.288   1.796   2.215
 2928SOL     OW 9682   6.556   2.298   6.105
 2928SOL    HW1 9683   6.551   2.243   6.021
 2928SOL    HW2 9684   6.538   2.394   6.082
 2929SOL     OW 9685   0.640   0.953   5.866
 2929SOL    HW1 9686   0.587   1.015   5.808
 2929SOL    HW2 9687   0.598   0.862   5.866
 2930SOL     OW 9688   4.774   6.646   5.002
 2930SOL    HW1 9689   4.681   6.682   4.995
 2930SOL    HW2 9690   4.807   6.656   5.095
 2931SOL     OW 9691   5.810   6.392   6.864
 2931SOL    HW1 9692   5.906   6.383   6.838
 2931SOL    HW2 9693   5.803   6.451   6.944
 2932SOL     OW 9694   1.616   5.013   1.929
 2932SOL    HW1 9695   1.628   5.068   1.847
 2932SOL    HW2 9696   1.625   4.916   1.906
 2933SOL     OW 9697   5.520   3.126   2.745
 2933SOL    HW1 9698   5.578   3.094   2.670
 2933SOL    HW2 9699   5.568   3.116   2.832
 2934SOL     OW 9700   3.901   1.036   0.237
 2934SOL    HW1 9701   3.845   1.102   0.187
 2934SOL    HW2 9702   3.847   0.955   0.260
 2935SOL     OW 9703   6.065   3.317   1.453
 2935SOL    HW1 9704   6.040   3.322   1.550
 2935SOL    HW2 9705   6.042   3.227   1.417
 2936SOL     OW 9706   5.098   5.499   1.984
 2936SOL    HW1 9707   5.139   5.572   2.039
 2936SOL    HW2 9708   5.001   5.493   2.004
 2937SOL     OW 9709   3.875   4.687   0.921
 2937SOL    HW1 9710   3.805   4.616   0.923
 2937SOL    HW2 9711   3.843   4.765   0.868
 2938SOL     OW 9712   4.900   4.651   6.081
 2938SOL    HW1 9713   4.815   4.679   6.035
 2938SOL    HW2 9714   4.917   4.712   6.158
 2939SOL     OW 9715   0.727   0.166   4.412
 2939SOL    HW1 9716   0.664   0.192   4.339
 2939SOL    HW2 9717   0.807   0.121   4.373
 2940SOL     OW 9718   6.206   7.000   6.255
 2940SOL    HW1 9719   6.246   0.058   6.296
 2940SOL    HW2 9720   6.147   0.002   6.179
 2941SOL     OW 9721   2.148   2.248   5.112
 2941SOL    HW1 9722   2.151   2.343   5.083
 2941SOL    HW2 9723   2.073   2.235   5.176
 2942SOL     OW 9724   2.087   1.182   2.038
 2942SOL    HW1 9725   2.174   1.210   2.078
 2942SOL    HW2 9726   2.013   1.197   2.103
 2943SOL     OW 9727   5.814   3.976   2.860
 2943SOL    HW1 9728   5.830   3.877   2.859
 2943SOL    HW2 9729   5.720   3.995   2.831
 2944SOL     OW 9730   2.471   5.550   5.390
 2944SOL    HW1 9731   2.414   5.556   5.472
 2944SOL    HW2 9732   2.536   5.476   5.400
 2945SOL     OW 9733   3.842   3.032   3.396
 2945SOL    HW1 9734   3.859   3.128   3.418
 2945SOL    HW2 9735   3.868   3.013   3.302
 2946SOL     OW 9736   0.004   5.554   6.268
 2946SOL    HW1 9737   0.062   5.605   6.203
 2946SOL    HW2 9738   6.975   5.619   6.322
 2947SOL     OW 9739   1.316   4.629   0.407
 2947SOL    HW1 9740   1.326   4.652   0.310
 2947SOL    HW2 9741   1.312   4.713   0.461
 2948SOL     OW 9742   6.855   3.867   5.729
 2948SOL    HW1 9743   6.896   3.958   5.733
 2948SOL    HW2 9744   6.926   3.797   5.736
 2949SOL     OW 9745   2.040   6.213   0.990
 2949SOL    HW1 9746   1.961   6.171   0.946
 2949SOL    HW2 9747   2.019   6.308   1.014
 2950SOL     OW 9748   5.088   3.705   4.587
 2950SOL    HW1 9749   5.017   3.702   4.516
 2950SOL    HW2 9750   5.048   3.678   4.675
 2951SOL     OW 9751   6.814   2.516   0.505
 2951SOL    HW1 9752   6.750   2.490   0.577
 2951SOL    HW2 9753   6.906   2.486   0.529
 2952SOL     OW 9754   0.932   5.682   4.845
 2952SOL    HW1 9755   1.030   5.701   4.840
 2952SOL    HW2 9756   0.893   5.681   4.752
 2953SOL     OW 9757   4.725   2.839   2.453
 2953SOL    HW1 9758   4.794   2.891   2.403
 2953SOL    HW2 9759   4.663   2.902   2.500
 2954SOL     OW 9760   0.857   5.537   1.842
 2954SOL    HW1 9761   0.905   5.464   1.793
 2954SOL    HW2 9762   0.924   5.593   1.892
 2955SOL     OW 9763   0.803   3.896   0.645
 2955SOL    HW1 9764   0.836   3.831   0.714
 2955SOL    HW2 9765   0.746   3.849   0.578
 2956SOL     OW 9766   6.109   6.596   2.934
 2956SOL    HW1 9767   6.114   6.630   2.840
 2956SOL    HW2 9768   6.052   6.514   2.936
 2957SOL     OW 9769   6.504   3.325   1.519
 2957SOL    HW1 9770   6.553   3.312   1.433
 2957SOL    HW2 9771   6.447   3.407   1.513
 2958SOL     OW 9772   2.571   4.621   4.867
 2958SOL    HW1 9773   2.496   4.556   4.874
 2958SOL    HW2 9774   2.645   4.592   4.928
 2959SOL     OW 9775   4.428   4.332   0.293
 2959SOL    HW1 9776   4.444   4.301   0.386
 2959SOL    HW2 9777   4.511   4.318   0.238
 2960SOL     OW 9778   3.151   0.524   6.597
 2960SOL    HW1 9779   3.165   0.441   6.650
 2960SOL    HW2 9780   3.073   0.575   6.634
 2961SOL     OW 9781   5.351   2.609   4.211
 2961SOL    HW1 9782   5.264   2.650   4.239
 2961SOL    HW2 9783   5.419   2.681   4.195
 2962SOL     OW 9784   4.269   1.080   3.919
 2962SOL    HW1 9785   4.247   1.160   3.975
 2962SOL    HW2 9786   4.316   1.109   3.836
 2963SOL     OW 9787   1.692   1.639   6.145
 2963SOL    HW1 9788   1.624   1.671   6.210
 2963SOL    HW2 9789   1.746   1.716   6.112
 2964SOL     OW 9790   1.007   6.836   1.796
 2964SOL    HW1 9791   1.083   6.788   1.753
 2964SOL    HW2 9792   1.025   6.847   1.894
 2965SOL     OW 9793   0.032   0.735   5.052
 2965SOL    HW1 9794   0.023   0.781   5.140
 2965SOL    HW2 9795   0.038   0.636   5.067
 2966SOL     OW 9796   6.452   4.690   4.072
 2966SOL    HW1 9797   6.461   4.738   3.985
 2966SOL    HW2 9798   6.470   4.593   4.059
 2967SOL     OW 9799   5.798   2.232   4.342
 2967SOL    HW1 9800   5.715   2.251   4.394
 2967SOL    HW2 9801   5.844   2.153   4.381
 2968SOL     OW 9802   1.091   4.047   5.362
 2968SOL    HW1 9803   1.146   4.128   5.341
 2968SOL    HW2 9804   1.147   3.964   5.350
 2969SOL     OW 9805   6.171   1.342   4.275
 2969SOL    HW1 9806   6.153   1.289   4.192
 2969SOL    HW2 9807   6.088   1.347   4.330
 2970SOL     OW 9808   0.795   4.164   6.723
 2970SOL    HW1 9809   0.853   4.203   6.651
 2970SOL    HW2 9810   0.805   4.065   6.724
 2971SOL     OW 9811   5.049   2.843   5.258
 2971SOL    HW1 9812   5.046   2.819   5.161
 2971SOL    HW2 9813   4.957   2.862   5.291
 2972SOL     OW 9814   6.486   4.966   6.004
 2972SOL    HW1 9815   6.445   5.046   5.961
 2972SOL    HW2 9816   6.575   4.991   6.043
 2973SOL     OW 9817   5.300   1.227   4.385
 2973SOL    HW1 9818   5.254   1.302   4.432
 2973SOL    HW2 9819   5.383   1.202   4.434
 2974SOL     OW 9820   0.308   3.751   2.928
 2974SOL    HW1 9821   0.240   3.747   3.001
 2974SOL    HW2 9822   0.367   3.830   2.941
 2975SOL     OW 9823   0.714   2.135   5.223
 2975SOL    HW1 9824   0.634   2.086   5.257
 2975SOL    HW2 9825   0.751   2.087   5.143
 2976SOL     OW 9826   4.097   1.311   2.373
 2976SOL    HW1 9827   4.088   1.281   2.468
 2976SOL    HW2 9828   4.107   1.232   2.313
 2977SOL     OW 9829   1.620   7.016   4.142
 2977SOL    HW1 9830   1.562   6.987   4.066
 2977SOL    HW2 9831   1.668   6.937   4.180
 2978SOL     OW 9832   4.136   4.500   6.612
 2978SOL    HW1 9833   4.087   4.423   6.573
 2978SOL    HW2 9834   4.234   4.481   6.611
 2979SOL     OW 9835   4.394   6.708   4.120
 2979SOL    HW1 9836   4.368   6.674   4.210
 2979SOL    HW2 9837   4.446   6.638   4.071
 2980SOL     OW 9838   1.629   5.745   3.801
 2980SOL    HW1 9839   1.612   5.748   3.900
 2980SOL    HW2 9840   1.727   5.752   3.784
 2981SOL     OW 9841   0.904   0.268   5.618
 2981SOL    HW1 9842   0.955   0.344   5.658
 2981SOL    HW2 9843   0.967   0.209   5.568
 2982SOL     OW 9844   4.991   6.149   3.413
 2982SOL    HW1 9845   5.054   6.202   3.357
 2982SOL    HW2 9846   5.031   6.059   3.433
 2983SOL     OW 9847   0.813   1.224   4.324
 2983SOL    HW1 9848   0.795   1.126   4.333
 2983SOL    HW2 9849   0.734   1.275   4.358
 2984SOL     OW 9850   4.914   5.702   1.658
 2984SOL    HW1 9851   4.986   5.634   1.655
 2984SOL    HW2 9852   4.943   5.780   1.713
 2985SOL     OW 9853   0.700   2.388   5.104
 2985SOL    HW1 9854   0.704   2.304   5.157
 2985SOL    HW2 9855   0.791   2.408   5.066
 2986SOL     OW 9856   1.970   4.029   6.590
 2986SOL    HW1 9857   1.968   3.985   6.500
 2986SOL    HW2 9858   1.878   4.029   6.630
 2987SOL     OW 9859   4.744   0.718   3.533
 2987SOL    HW1 9860   4.746   0.758   3.625
 2987SOL    HW2 9861   4.830   0.738   3.486
 2988SOL     OW 9862   0.213   0.310   3.030
 2988SOL    HW1 9863   0.152   0.389   3.032
 2988SOL    HW2 9864   0.160   0.226   3.038
 2989SOL     OW 9865   6.619   5.922   0.788
 2989SOL    HW1 9866   6.625   5.856   0.863
 2989SOL    HW2 9867   6.675   5.891   0.712
 2990SOL     OW 9868   4.272   1.354   3.448
 2990SOL    HW1 9869   4.196   1.299   3.483
 2990SOL    HW2 9870   4.319   1.399   3.524
 2991SOL     OW 9871   6.644   4.077   0.260
 2991SOL    HW1 9872   6.741   4.077   0.284
 2991SOL    HW2 9873   6.623   4.156   0.204
 2992SOL     OW 9874   2.466   5.458   5.847
 2992SOL    HW1 9875   2.376   5.415   5.844
 2992SOL    HW2 9876   2.533   5.392   5.883
 2993SOL     OW 9877   1.138   4.728   1.949
 2993SOL    HW1 9878   1.152   4.743   1.852
 2993SOL    HW2 9879   1.218   4.684   1.989
 2994SOL     OW 9880   4.172   0.477   0.811
 2994SOL    HW1 9881   4.129   0.432   0.890
 2994SOL    HW2 9882   4.106   0.538   0.767
 2995SOL     OW 9883   0.717   3.155   0.036
 2995SOL    HW1 9884   0.805   3.113   0.060
 2995SOL    HW2 9885   0.733   3.247   0.001
 2996SOL     OW 9886   2.403   6.132   3.955
 2996SOL    HW1 9887   2.372   6.038   3.939
 2996SOL    HW2 9888   2.347   6.195   3.899
 2997SOL     OW 9889   4.941   6.704   2.349
 2997SOL    HW1 9890   5.026   6.668   2.388
 2997SOL    HW2 9891   4.926   6.661   2.259
 2998SOL     OW 9892   5.203   6.551   5.112
 2998SOL    HW1 9893   5.281   6.550   5.174
 2998SOL    HW2 9894   5.153   6.465   5.121
 2999SOL     OW 9895   3.453   5.446   3.753
 2999SOL    HW1 9896   3.368   5.396   3.736
 2999SOL    HW2 9897   3.521   5.420   3.684
 3000SOL     OW 9898   1.211   3.841   6.986
 3000SOL    HW1 9899   1.244   3.748   7.000
 3000SOL    HW2 9900   1.269   3.905   0.012
 3001SOL     OW 9901   5.289   0.055   6.675
 3001SOL    HW1 9902   5.195   0.033   6.647
 3001SOL    HW2 9903   5.294   0.060   6.774
 3002SOL     OW 9904   4.590   0.346   5.519
 3002SOL    HW1 9905   4.506   0.401   5.525
 3002SOL    HW2 9906   4.662   0.390   5.572
 3003SOL     OW 9907   2.447   6.735   6.523
 3003SOL    HW1 9908   2.434   6.680   6.440
 3003SOL    HW2 9909   2.521   6.696   6.578
 3004SOL     OW 9910   0.615   5.287   3.611
 3004SOL    HW1 9911   0.543   5.219   3.597
 3004SOL    HW2 9912   0.667   5.263   3.693
 3005SOL     OW 9913   3.672   2.419   0.516
 3005SOL    HW1 9914   3.758   2.382   0.481
 3005SOL    HW2 9915   3.637   2.488   0.452
 3006SOL     OW 9916   5.957   1.925   0.061
 3006SOL    HW1 9917   5.904   1.941   7.002
 3006SOL    HW2 9918   6.010   1.841   0.052
 3007SOL     OW 9919   6.177   5.016   2.161
 3007SOL    HW1 9920   6.253   4.978   2.109
 3007SOL    HW2 9921   6.132   4.944   2.213
 3008SOL     OW 9922   3.765   0.615   6.431
 3008SOL    HW1 9923   3.834   0.643   6.365
 3008SOL    HW2 9924   3.803   0.543   6.490
 3009SOL     OW 9925   0.408   6.579   2.745
 3009SOL    HW1 9926   0.444   6.656   2.691
 3009SOL    HW2 9927   0.333   6.611   2.803
 3010SOL     OW 9928   3.539   5.796   3.292
 3010SOL    HW1 9929   3.591   5.828   3.212
 3010SOL    HW2 9930   3.534   5.696   3.291
 3011SOL     OW 9931   5.597   1.147   0.104
 3011SOL    HW1 9932   5.640   1.057   0.100
 3011SOL    HW2 9933   5.498   1.137   0.119
 3012SOL     OW 9934   1.586   3.708   5.305
 3012SOL    HW1 9935   1.537   3.703   5.218
 3012SOL    HW2 9936   1.669   3.652   5.301
 3013SOL     OW 9937   5.547   5.758   4.216
 3013SOL    HW1 9938   5.484   5.723   4.147
 3013SOL    HW2 9939   5.621   5.693   4.230
 3014SOL     OW 9940   5.105   2.816   3.830
 3014SOL    HW1 9941   5.018   2.791   3.873
 3014SOL    HW2 9942   5.153   2.881   3.889
 3015SOL     OW 9943   3.351   1.982   0.451
 3015SOL    HW1 9944   3.382   2.073   0.422
 3015SOL    HW2 9945   3.357   1.975   0.550
 3016SOL     OW 9946   2.647   6.306   3.794
 3016SOL    HW1 9947   2.682   6.213   3.807
 3016SOL    HW2 9948   2.563   6.303   3.740
 3017SOL     OW 9949   0.592   5.285   1.846
 3017SOL    HW1 9950   0.605   5.383   1.863
 3017SOL    HW2 9951   0.538   5.273   1.763
 3018SOL     OW 9952   3.135   6.919   5.173
 3018SOL    HW1 9953   3.213   6.974   5.142
 3018SOL    HW2 9954   3.165   6.825   5.190
 3019SOL     OW 9955   1.935   6.730   0.669
 3019SOL    HW1 9956   1.860   6.773   0.720
 3019SOL    HW2 9957   2.014   6.791   0.670
 3020SOL     OW 9958   3.564   4.261   1.788
 3020SOL    HW1 9959   3.598   4.169   1.768
 3020SOL    HW2 9960   3.610   4.327   1.728
 3021SOL     OW 9961   2.616   1.359   6.811
 3021SOL    HW1 9962   2.539   1.374   6.749
 3021SOL    HW2 9963   2.646   1.447   6.847
 3022SOL     OW 9964   3.855   5.899   3.125
 3022SOL    HW1 9965   3.889   5.863   3.038
 3022SOL    HW2 9966   3.774   5.954   3.109
 3023SOL     OW 9967   4.038   6.721   2.486
 3023SOL    HW1 9968   3.942   6.745   2.474
 3023SOL    HW2 9969   4.085   6.796   2.533
 3024SOL     OW 9970   4.133   0.133   6.027
 3024SOL    HW1 9971   4.187   0.216   6.012
 3024SOL    HW2 9972   4.157   0.093   6.116
 3025SOL     OW 9973   3.687   2.533   0.157
 3025SOL    HW1 9974   3.619   2.460   0.153
 3025SOL    HW2 9975   3.648   2.617   0.121
 3026SOL     OW 9976   1.834   1.948   0.500
 3026SOL    HW1 9977   1.857   1.935   0.597
 3026SOL    HW2 9978   1.901   2.009   0.458
 3027SOL     OW 9979   4.409   0.795   1.906
 3027SOL    HW1 9980   4.456   0.863   1.961
 3027SOL    HW2 9981   4.359   0.733   1.966
 3028SOL     OW 9982   1.329   3.981   6.349
 3028SOL    HW1 9983   1.337   4.012   6.254
 3028SOL    HW2 9984   1.340   4.059   6.410
 3029SOL     OW 9985   0.439   4.741   5.060
 3029SOL    HW1 9986   0.450   4.840   5.062
 3029SOL    HW2 9987   0.345   4.718   5.034
 3030SOL     OW 9988   0.469   2.536   6.000
 3030SOL    HW1 9989   0.471   2.608   5.930
 3030SOL    HW2 9990   0.481   2.447   5.956
 3031SOL     OW 9991   0.088   3.482   0.785
 3031SOL    HW1 9992   0.016   3.412   0.789
 3031SOL    HW2 9993   0.090   3.523   0.694
 3032SOL     OW 9994   4.804   0.022   0.745
 3032SOL    HW1 9995   4.745   6.979   0.700
 3032SOL    HW2 9996   4.889   0.031   0.694
 3033SOL     OW 9997   1.037   2.610   1.206
 3033SOL    HW1 9998   1.056   2.569   1.116
 3033SOL    HW2 9999   1.019   2.537   1.272
 3034SOL     OW10000   1.997   5.898   3.987
 3034SOL    HW110001   1.957   5.976   3.941
 3034SOL    HW210002   2.004   5.916   4.085
 3035SOL     OW10003   6.650   2.813   0.428
 3035SOL    HW110004   6.632   2.853   0.518
 3035SOL    HW210005   6.746   2.783   0.424
 3036SOL     OW10006   1.412   3.121   6.652
 3036SOL    HW110007   1.386   3.128   6.555
 3036SOL    HW210008   1.507   3.152   6.663
 3037SOL     OW10009   6.423   5.890   4.200
 3037SOL    HW110010   6.330   5.926   4.205
 3037SOL    HW210011   6.438   5.829   4.279
 3038SOL     OW10012   5.835   6.718   6.388
 3038SOL    HW110013   5.770   6.735   6.463
 3038SOL    HW210014   5.847   6.801   6.334
 3039SOL     OW10015   6.655   3.779   2.748
 3039SOL    HW110016   6.728   3.734   2.696
 3039SOL    HW210017   6.569   3.771   2.699
 3040SOL     OW10018   4.901   3.750   6.090
 3040SOL    HW110019   4.975   3.778   6.151
 3040SOL    HW210020   4.844   3.682   6.136
 3041SOL     OW10021   2.248   2.646   5.490
 3041SOL    HW110022   2.324   2.686   5.439
 3041SOL    HW210023   2.261   2.662   5.587
 3042SOL     OW10024   5.830   6.920   1.690
 3042SOL    HW110025   5.780   6.848   1.641
 3042SOL    HW210026   5.808   7.009   1.650
 3043SOL     OW10027   0.542   5.217   1.135
 3043SOL    HW110028   0.610   5.284   1.165
 3043SOL    HW210029   0.584   5.154   1.070
 3044SOL     OW10030   2.805   4.738   5.965
 3044SOL    HW110031   2.817   4.835   5.985
 3044SOL    HW210032   2.894   4.693   5.962
 3045SOL     OW10033   4.744   0.654   2.818
 3045SOL    HW110034   4.792   0.567   2.818
 3045SOL    HW210035   4.686   0.660   2.736
 3046SOL     OW10036   2.458   2.208   5.977
 3046SOL    HW110037   2.445   2.128   5.919
 3046SOL    HW210038   2.457   2.181   6.073
 3047SOL     OW10039   5.245   6.209   2.658
 3047SOL    HW110040   5.245   6.128   2.716
 3047SOL    HW210041   5.178   6.275   2.692
 3048SOL     OW10042   3.927   2.801   1.642
 3048SOL    HW110043   3.865   2.731   1.606
 3048SOL    HW210044   3.880   2.889   1.643
 3049SOL     OW10045   1.571   6.053   1.447
 3049SOL    HW110046   1.539   5.959   1.461
 3049SOL    HW210047   1.627   6.057   1.365
 3050SOL     OW10048   3.320   1.187   3.606
 3050SOL    HW110049   3.323   1.254   3.532
 3050SOL    HW210050   3.275   1.227   3.686
 3051SOL     OW10051   2.712   3.398   6.929
 3051SOL    HW110052   2.742   3.474   6.871
 3051SOL    HW210053   2.664   3.434   7.009
 3052SOL     OW10054   4.187   0.557   2.383
 3052SOL    HW110055   4.181   0.608   2.469
 3052SOL    HW210056   4.244   0.476   2.397
 3053SOL     OW10057   6.667   0.620   6.764
 3053SOL    HW110058   6.763   0.594   6.759
 3053SOL    HW210059   6.611   0.537   6.767
 3054SOL     OW10060   0.492   2.711   0.983
 3054SOL    HW110061   0.427   2.697   1.057
 3054SOL    HW210062   0.508   2.624   0.936
 3055SOL     OW10063   4.503   6.825   3.719
 3055SOL    HW110064   4.496   6.727   3.700
 3055SOL    HW210065   4.442   6.875   3.659
 3056SOL     OW10066   6.844   0.806   6.215
 3056SOL    HW110067   6.787   0.781   6.136
 3056SOL    HW210068   6.910   0.733   6.233
 3057SOL     OW10069   4.445   5.496   2.750
 3057SOL    HW110070   4.535   5.460   2.773
 3057SOL    HW210071   4.426   5.577   2.805
 3058SOL     OW10072   6.981   5.354   1.249
 3058SOL    HW110073   0.049   5.322   1.270
 3058SOL    HW210074   6.970   5.448   1.281
 3059SOL     OW10075   2.214   2.164   5.515
 3059SOL    HW110076   2.235   2.189   5.420
 3059SOL    HW210077   2.152   2.085   5.515
 3060SOL     OW10078   0.628   6.200   0.533
 3060SOL    HW110079   0.681   6.141   0.473
 3060SOL    HW210080   0.533   6.203   0.501
 3061SOL     OW10081   6.572   1.042   5.133
 3061SOL    HW110082   6.609   1.020   5.043
 3061SOL    HW210083   6.510   1.120   5.125
 3062SOL     OW10084   1.436   0.133   0.029
 3062SOL    HW110085   1.470   0.216   7.010
 3062SOL    HW210086   1.457   0.053   6.997
 3063SOL     OW10087   3.082   5.318   1.474
 3063SOL    HW110088   3.064   5.295   1.569
 3063SOL    HW210089   3.001   5.300   1.419
 3064SOL     OW10090   5.835   3.625   3.873
 3064SOL    HW110091   5.865   3.583   3.787
 3064SOL    HW210092   5.871   3.719   3.878
 3065SOL     OW10093   1.798   1.106   6.632
 3065SOL    HW110094   1.811   1.030   6.695
 3065SOL    HW210095   1.883   1.125   6.583
 3066SOL     OW10096   5.456   4.677   0.633
 3066SOL    HW110097   5.370   4.624   0.634
 3066SOL    HW210098   5.523   4.632   0.692
 3067SOL     OW10099   3.584   2.047   4.383
 3067SOL    HW110100   3.613   1.952   4.395
 3067SOL    HW210101   3.510   2.067   4.447
 3068SOL     OW10102   5.398   5.983   0.664
 3068SOL    HW110103   5.484   6.034   0.665
 3068SOL    HW210104   5.324   6.039   0.702
 3069SOL     OW10105   6.918   6.093   2.092
 3069SOL    HW110106   6.938   6.028   2.019
 3069SOL    HW210107   6.919   6.186   2.054
 3070SOL     OW10108   1.691   1.272   2.744
 3070SOL    HW110109   1.700   1.184   2.791
 3070SOL    HW210110   1.781   1.314   2.734
 3071SOL     OW10111   5.833   6.348   3.312
 3071SOL    HW110112   5.784   6.421   3.266
 3071SOL    HW210113   5.835   6.366   3.411
 3072SOL     OW10114   0.720   6.560   0.575
 3072SOL    HW110115   0.732   6.652   0.612
 3072SOL    HW210116   0.807   6.511   0.578
 3073SOL     OW10117   0.943   3.306   5.266
 3073SOL    HW110118   0.910   3.221   5.308
 3073SOL    HW210119   0.903   3.317   5.175
 3074SOL     OW10120   5.914   2.800   0.960
 3074SOL    HW110121   5.825   2.759   0.943
 3074SOL    HW210122   5.981   2.763   0.895
 3075SOL     OW10123   1.786   6.381   1.299
 3075SOL    HW110124   1.770   6.284   1.280
 3075SOL    HW210125   1.826   6.424   1.219
 3076SOL     OW10126   6.705   1.468   4.452
 3076SOL    HW110127   6.785   1.409   4.440
 3076SOL    HW210128   6.721   1.530   4.530
 3077SOL     OW10129   5.002   5.103   2.672
 3077SOL    HW110130   4.978   5.012   2.639
 3077SOL    HW210131   5.101   5.117   2.661
 3078SOL     OW10132   1.991   3.568   0.970
 3078SOL    HW110133   2.055   3.576   1.047
 3078SOL    HW210134   1.937   3.652   0.963
 3079SOL     OW10135   2.151   2.457   4.627
 3079SOL    HW110136   2.209   2.446   4.708
 3079SOL    HW210137   2.056   2.469   4.655
 3080SOL     OW10138   5.358   4.562   3.062
 3080SOL    HW110139   5.290   4.489   3.054
 3080SOL    HW210140   5.337   4.618   3.142
 3081SOL     OW10141   0.441   3.876   6.191
 3081SOL    HW110142   0.383   3.812   6.140
 3081SOL    HW210143   0.502   3.923   6.127
 3082SOL     OW10144   3.574   6.111   3.384
 3082SOL    HW110145   3.622   6.189   3.345
 3082SOL    HW210146   3.608   6.093   3.476
 3083SOL     OW10147   3.889   6.434   3.564
 3083SOL    HW110148   3.982   6.425   3.598
 3083SOL    HW210149   3.854   6.525   3.586
 3084SOL     OW10150   4.759   4.743   4.444
 3084SOL    HW110151   4.701   4.733   4.525
 3084SOL    HW210152   4.726   4.821   4.390
 3085SOL     OW10153   0.457   4.750   2.460
 3085SOL    HW110154   0.494   4.832   2.415
 3085SOL    HW210155   0.421   4.775   2.550
 3086SOL     OW10156   4.328   1.591   1.988
 3086SOL    HW110157   4.324   1.619   2.084
 3086SOL    HW210158   4.333   1.491   1.982
 3087SOL     OW10159   0.628   5.218   4.120
 3087SOL    HW110160   0.689   5.249   4.048
 3087SOL    HW210161   0.619   5.289   4.189
 3088SOL     OW10162   2.567   5.147   5.612
 3088SOL    HW110163   2.578   5.169   5.709
 3088SOL    HW210164   2.587   5.051   5.597
 3089SOL     OW10165   0.888   2.743   0.576
 3089SOL    HW110166   0.871   2.708   0.668
 3089SOL    HW210167   0.911   2.840   0.580
 3090SOL     OW10168   2.096   2.008   1.776
 3090SOL    HW110169   2.023   2.025   1.711
 3090SOL    HW210170   2.073   2.050   1.864
 3091SOL     OW10171   2.320   6.249   0.134
 3091SOL    HW110172   2.244   6.307   0.163
 3091SOL    HW210173   2.343   6.186   0.208
 3092SOL     OW10174   4.674   0.072   6.882
 3092SOL    HW110175   4.732   7.023   6.917
 3092SOL    HW210176   4.584   0.036   6.859
 3093SOL     OW10177   5.108   4.911   5.884
 3093SOL    HW110178   5.067   4.898   5.794
 3093SOL    HW210179   5.134   4.822   5.921
 3094SOL     OW10180   3.525   6.547   4.729
 3094SOL    HW110181   3.483   6.594   4.651
 3094SOL    HW210182   3.455   6.525   4.797
 3095SOL     OW10183   2.747   4.950   4.081
 3095SOL    HW110184   2.794   5.015   4.022
 3095SOL    HW210185   2.813   4.905   4.141
 3096SOL     OW10186   0.764   0.357   4.639
 3096SOL    HW110187   0.801   0.431   4.583
 3096SOL    HW210188   0.736   0.281   4.579
 3097SOL     OW10189   0.599   2.413   0.930
 3097SOL    HW110190   0.563   2.357   1.006
 3097SOL    HW210191   0.643   2.353   0.863
 3098SOL     OW10192   2.397   3.639   0.925
 3098SOL    HW110193   2.340   3.605   1.000
 3098SOL    HW210194   2.471   3.694   0.962
 3099SOL     OW10195   0.157   5.757   4.995
 3099SOL    HW110196   0.156   5.829   4.926
 3099SOL    HW210197   0.208   5.678   4.960
 3100SOL     OW10198   6.531   0.250   4.507
 3100SOL    HW110199   6.538   0.156   4.542
 3100SOL    HW210200   6.619   0.277   4.467
 3101SOL     OW10201   5.136   6.189   5.694
 3101SOL    HW110202   5.103   6.263   5.636
 3101SOL    HW210203   5.100   6.102   5.661
 3102SOL     OW10204   0.679   4.842   2.716
 3102SOL    HW110205   0.579   4.839   2.709
 3102SOL    HW210206   0.716   4.899   2.642
 3103SOL     OW10207   3.276   1.483   1.456
 3103SOL    HW110208   3.230   1.449   1.374
 3103SOL    HW210209   3.221   1.461   1.536
 3104SOL     OW10210   5.979   6.877   4.782
 3104SOL    HW110211   5.986   6.900   4.879
 3104SOL    HW210212   5.984   6.960   4.727
 3105SOL     OW10213   6.940   4.911   2.731
 3105SOL    HW110214   6.882   4.981   2.689
 3105SOL    HW210215   6.941   4.829   2.673
 3106SOL     OW10216   6.914   1.526   2.978
 3106SOL    HW110217   7.002   1.480   2.993
 3106SOL    HW210218   6.854   1.466   2.926
 3107SOL     OW10219   3.504   0.744   4.030
 3107SOL    HW110220   3.415   0.789   4.031
 3107SOL    HW210221   3.510   0.682   4.109
 3108SOL     OW10222   1.589   0.398   4.096
 3108SOL    HW110223   1.575   0.305   4.130
 3108SOL    HW210224   1.685   0.410   4.072
 3109SOL     OW10225   5.481   5.568   2.994
 3109SOL    HW110226   5.394   5.581   3.041
 3109SOL    HW210227   5.555   5.565   3.061
 3110SOL     OW10228   0.839   2.130   3.860
 3110SOL    HW110229   0.880   2.219   3.880
 3110SOL    HW210230   0.860   2.104   3.766
 3111SOL     OW10231   6.486   6.190   4.087
 3111SOL    HW110232   6.424   6.114   4.101
 3111SOL    HW210233   6.493   6.211   3.989
 3112SOL     OW10234   5.059   2.957   6.289
 3112SOL    HW110235   5.089   2.901   6.365
 3112SOL    HW210236   5.053   2.901   6.206
 3113SOL     OW10237   1.916   0.019   4.360
 3113SOL    HW110238   2.012   0.008   4.385
 3113SOL    HW210239   1.878   0.099   4.407
 3114SOL     OW10240   4.858   3.034   6.965
 3114SOL    HW110241   4.873   2.948   7.013
 3114SOL    HW210242   4.768   3.033   6.921
 3115SOL     OW10243   4.970   3.516   0.154
 3115SOL    HW110244   4.907   3.445   0.187
 3115SOL    HW210245   5.038   3.535   0.225
 3116SOL     OW10246   6.968   3.799   0.237
 3116SOL    HW110247   6.994   3.778   0.331
 3116SOL    HW210248   6.938   3.894   0.231
 3117SOL     OW10249   4.578   3.584   5.410
 3117SOL    HW110250   4.623   3.501   5.442
 3117SOL    HW210251   4.596   3.596   5.312
 3118SOL     OW10252   0.507   4.900   6.828
 3118SOL    HW110253   0.492   4.908   6.729
 3118SOL    HW210254   0.524   4.991   6.865
 3119SOL     OW10255   1.731   3.912   6.008
 3119SOL    HW110256   1.828   3.921   5.985
 3119SOL    HW210257   1.709   3.975   6.083
 3120SOL     OW10258   2.321   6.540   4.300
 3120SOL    HW110259   2.226   6.567   4.312
 3120SOL    HW210260   2.326   6.455   4.249
 3121SOL     OW10261   0.588   1.712   2.472
 3121SOL    HW110262   0.664   1.666   2.519
 3121SOL    HW210263   0.624   1.788   2.418
 3122SOL     OW10264   3.167   5.729   5.816
 3122SOL    HW110265   3.154   5.828   5.811
 3122SOL    HW210266   3.191   5.703   5.909
 3123SOL     OW10267   3.236   6.544   3.642
 3123SOL    HW110268   3.260   6.556   3.738
 3123SOL    HW210269   3.155   6.599   3.621
 3124SOL     OW10270   4.150   6.993   4.704
 3124SOL    HW110271   4.079   6.958   4.766
 3124SOL    HW210272   4.147   0.069   4.704
 3125SOL     OW10273   5.995   1.886   6.255
 3125SOL    HW110274   5.986   1.836   6.342
 3125SOL    HW210275   6.036   1.975   6.273
 3126SOL     OW10276   4.853   4.398   6.825
 3126SOL    HW110277   4.918   4.443   6.886
 3126SOL    HW210278   4.890   4.309   6.798
 3127SOL     OW10279   0.836   2.377   3.205
 3127SOL    HW110280   0.872   2.395   3.114
 3127SOL    HW210281   0.749   2.328   3.198
 3128SOL     OW10282   2.254   6.917   6.608
 3128SOL    HW110283   2.293   7.004   6.579
 3128SOL    HW210284   2.305   6.842   6.565
 3129SOL     OW10285   1.479   4.430   6.620
 3129SOL    HW110286   1.510   4.419   6.714
 3129SOL    HW210287   1.555   4.418   6.557
 3130SOL     OW10288   2.316   4.271   2.578
 3130SOL    HW110289   2.331   4.330   2.498
 3130SOL    HW210290   2.270   4.187   2.549
 3131SOL     OW10291   0.805   2.774   1.537
 3131SOL    HW110292   0.831   2.784   1.441
 3131SOL    HW210293   0.710   2.745   1.543
 3132SOL     OW10294   4.998   5.672   5.627
 3132SOL    HW110295   5.094   5.668   5.653
 3132SOL    HW210296   4.948   5.599   5.672
 3133SOL     OW10297   2.573   2.415   3.897
 3133SOL    HW110298   2.512   2.349   3.940
 3133SOL    HW210299   2.668   2.391   3.918
 3134SOL     OW10300   5.471   4.199   1.706
 3134SOL    HW110301   5.429   4.164   1.790
 3134SOL    HW210302   5.419   4.278   1.674
 3135SOL     OW10303   4.506   1.973   4.984
 3135SOL    HW110304   4.491   1.972   4.886
 3135SOL    HW210305   4.554   1.890   5.012
 3136SOL     OW10306   6.316   6.764   6.113
 3136SOL    HW110307   6.270   6.743   6.027
 3136SOL    HW210308   6.251   6.808   6.175
 3137SOL     OW10309   5.283   0.464   3.530
 3137SOL    HW110310   5.260   0.501   3.620
 3137SOL    HW210311   5.251   0.370   3.524
 3138SOL     OW10312   6.537   1.979   4.068
 3138SOL    HW110313   6.575   2.011   3.982
 3138SOL    HW210314   6.601   1.915   4.111
 3139SOL     OW10315   4.601   6.915   6.336
 3139SOL    HW110316   4.575   6.927   6.240
 3139SOL    HW210317   4.573   6.995   6.388
 3140SOL     OW10318   6.233   6.504   6.280
 3140SOL    HW110319   6.213   6.595   6.319
 3140SOL    HW210320   6.320   6.507   6.232
 3141SOL     OW10321   0.612   6.945   6.174
 3141SOL    HW110322   0.663   6.970   6.092
 3141SOL    HW210323   0.521   6.988   6.171
 3142SOL     OW10324   4.925   5.979   1.029
 3142SOL    HW110325   4.880   5.890   1.037
 3142SOL    HW210326   4.918   6.012   0.935
 3143SOL     OW10327   6.741   2.595   0.034
 3143SOL    HW110328   6.744   2.509   7.007
 3143SOL    HW210329   6.714   2.576   0.128
 3144SOL     OW10330   2.666   3.729   0.959
 3144SOL    HW110331   2.715   3.653   1.002
 3144SOL    HW210332   2.714   3.815   0.979
 3145SOL     OW10333   2.204   5.383   2.708
 3145SOL    HW110334   2.137   5.312   2.688
 3145SOL    HW210335   2.247   5.364   2.796
 3146SOL     OW10336   1.243   6.776   3.027
 3146SOL    HW110337   1.176   6.746   2.960
 3146SOL    HW210338   1.250   6.708   3.100
 3147SOL     OW10339   4.200   5.466   6.317
 3147SOL    HW110340   4.295   5.496   6.320
 3147SOL    HW210341   4.197   5.366   6.317
 3148SOL     OW10342   4.463   5.266   4.476
 3148SOL    HW110343   4.534   5.213   4.430
 3148SOL    HW210344   4.379   5.212   4.480
 3149SOL     OW10345   3.355   0.276   5.318
 3149SOL    HW110346   3.293   0.265   5.240
 3149SOL    HW210347   3.308   0.321   5.393
 3150SOL     OW10348   5.356   5.424   4.224
 3150SOL    HW110349   5.266   5.441   4.264
 3150SOL    HW210350   5.382   5.328   4.237
 3151SOL     OW10351   4.455   1.257   6.719
 3151SOL    HW110352   4.515   1.177   6.725
 3151SOL    HW210353   4.482   1.324   6.787
 3152SOL     OW10354   1.358   5.241   1.710
 3152SOL    HW110355   1.376   5.274   1.803
 3152SOL    HW210356   1.354   5.141   1.711
 3153SOL     OW10357   6.600   4.374   2.161
 3153SOL    HW110358   6.665   4.323   2.106
 3153SOL    HW210359   6.618   4.358   2.258
 3154SOL     OW10360   6.186   1.697   0.439
 3154SOL    HW110361   6.158   1.603   0.416
 3154SOL    HW210362   6.106   1.750   0.467
 3155SOL     OW10363   0.034   5.202   1.603
 3155SOL    HW110364   0.079   5.187   1.515
 3155SOL    HW210365   7.024   5.296   1.607
 3156SOL     OW10366   3.626   3.490   3.848
 3156SOL    HW110367   3.539   3.443   3.832
 3156SOL    HW210368   3.700   3.422   3.852
 3157SOL     OW10369   2.036   2.927   4.973
 3157SOL    HW110370   2.056   3.019   4.940
 3157SOL    HW210371   2.098   2.904   5.048
 3158SOL     OW10372   4.486   0.468   1.193
 3158SOL    HW110373   4.464   0.383   1.145
 3158SOL    HW210374   4.450   0.545   1.142
 3159SOL     OW10375   5.029   0.135   6.875
 3159SOL    HW110376   4.984   0.047   6.891
 3159SOL    HW210377   4.992   0.176   6.791
 3160SOL     OW10378   6.239   5.580   5.688
 3160SOL    HW110379   6.204   5.486   5.685
 3160SOL    HW210380   6.216   5.621   5.776
 3161SOL     OW10381   1.334   1.223   2.154
 3161SOL    HW110382   1.329   1.215   2.253
 3161SOL    HW210383   1.407   1.163   2.120
 3162SOL     OW10384   0.296   5.116   7.002
 3162SOL    HW110385   0.298   5.046   0.049
 3162SOL    HW210386   0.389   5.139   6.974
 3163SOL     OW10387   3.561   2.837   6.355
 3163SOL    HW110388   3.549   2.863   6.450
 3163SOL    HW210389   3.494   2.766   6.331
 3164SOL     OW10390   4.528   3.839   1.647
 3164SOL    HW110391   4.510   3.824   1.550
 3164SOL    HW210392   4.481   3.922   1.677
 3165SOL     OW10393   1.704   6.527   1.628
 3165SOL    HW110394   1.799   6.500   1.645
 3165SOL    HW210395   1.689   6.535   1.529
 3166SOL     OW10396   4.519   2.470   6.533
 3166SOL    HW110397   4.567   2.556   6.513
 3166SOL    HW210398   4.423   2.479   6.506
 3167SOL     OW10399   6.798   4.960   2.042
 3167SOL    HW110400   6.740   4.879   2.034
 3167SOL    HW210401   6.796   4.993   2.137
 3168SOL     OW10402   5.028   2.543   0.200
 3168SOL    HW110403   5.060   2.523   0.107
 3168SOL    HW210404   4.933   2.513   0.209
 3169SOL     OW10405   0.618   3.455   6.094
 3169SOL    HW110406   0.697   3.400   6.069
 3169SOL    HW210407   0.648   3.547   6.121
 3170SOL     OW10408   4.049   0.013   0.151
 3170SOL    HW110409   3.966   7.004   0.105
 3170SOL    HW210410   4.026   0.091   0.209
 3171SOL     OW10411   6.714   6.509   1.287
 3171SOL    HW110412   6.626   6.547   1.316
 3171SOL    HW210413   6.715   6.411   1.304
 3172SOL     OW10414   0.017   6.228   4.827
 3172SOL    HW110415   0.049   6.277   4.908
 3172SOL    HW210416   0.095   6.207   4.768
 3173SOL     OW10417   2.844   0.908   1.599
 3173SOL    HW110418   2.935   0.892   1.637
 3173SOL    HW210419   2.834   0.855   1.515
 3174SOL     OW10420   2.451   2.765   6.548
 3174SOL    HW110421   2.368   2.819   6.536
 3174SOL    HW210422   2.522   2.823   6.589
 3175SOL     OW10423   0.460   6.626   6.571
 3175SOL    HW110424   0.465   6.624   6.671
 3175SOL    HW210425   0.547   6.658   6.534
 3176SOL     OW10426   1.990   4.720   5.427
 3176SOL    HW110427   1.995   4.659   5.506
 3176SOL    HW210428   2.069   4.782   5.429
 3177SOL     OW10429   5.711   5.458   5.310
 3177SOL    HW110430   5.719   5.435   5.407
 3177SOL    HW210431   5.755   5.546   5.293
 3178SOL     OW10432   6.792   3.691   1.562
 3178SOL    HW110433   6.862   3.761   1.547
 3178SOL    HW210434   6.746   3.671   1.475
 3179SOL     OW10435   2.092   2.191   1.997
 3179SOL    HW110436   2.158   2.265   1.984
 3179SOL    HW210437   2.109   2.146   2.085
 3180SOL     OW10438   3.963   0.672   6.203
 3180SOL    HW110439   3.946   0.621   6.119
 3180SOL    HW210440   4.025   0.748   6.184
 3181SOL     OW10441   0.524   0.507   3.559
 3181SOL    HW110442   0.526   0.501   3.459
 3181SOL    HW210443   0.609   0.471   3.596
 3182SOL     OW10444   0.947   0.557   5.304
 3182SOL    HW110445   0.876   0.527   5.368
 3182SOL    HW210446   0.978   0.480   5.250
 3183SOL     OW10447   4.123   4.467   1.474
 3183SOL    HW110448   4.058   4.411   1.422
 3183SOL    HW210449   4.210   4.471   1.426
 3184SOL     OW10450   2.720   1.750   2.274
 3184SOL    HW110451   2.650   1.817   2.250
 3184SOL    HW210452   2.811   1.789   2.258
 3185SOL     OW10453   6.458   0.652   5.836
 3185SOL    HW110454   6.445   0.615   5.928
 3185SOL    HW210455   6.537   0.607   5.793
 3186SOL     OW10456   2.970   1.203   3.449
 3186SOL    HW110457   3.024   1.252   3.517
 3186SOL    HW210458   2.898   1.262   3.414
 3187SOL     OW10459   3.824   4.438   6.970
 3187SOL    HW110460   3.763   4.372   6.926
 3187SOL    HW210461   3.854   4.505   6.903
 3188SOL     OW10462   3.597   5.999   3.106
 3188SOL    HW110463   3.572   6.056   3.028
 3188SOL    HW210464   3.560   6.038   3.190
 3189SOL     OW10465   2.359   1.607   3.374
 3189SOL    HW110466   2.419   1.585   3.451
 3189SOL    HW210467   2.394   1.686   3.325
 3190SOL     OW10468   1.063   6.477   1.013
 3190SOL    HW110469   1.118   6.470   0.930
 3190SOL    HW210470   0.985   6.414   1.006
 3191SOL     OW10471   3.495   0.514   1.358
 3191SOL    HW110472   3.515   0.593   1.301
 3191SOL    HW210473   3.404   0.524   1.399
 3192SOL     OW10474   0.841   2.056   1.195
 3192SOL    HW110475   0.822   2.096   1.106
 3192SOL    HW210476   0.934   2.081   1.224
 3193SOL     OW10477   4.612   2.683   5.830
 3193SOL    HW110478   4.516   2.656   5.827
 3193SOL    HW210479   4.666   2.609   5.871
 3194SOL     OW10480   1.160   2.977   6.633
 3194SOL    HW110481   1.214   2.901   6.668
 3194SOL    HW210482   1.200   3.063   6.665
 3195SOL     OW10483   1.611   2.448   3.301
 3195SOL    HW110484   1.703   2.433   3.265
 3195SOL    HW210485   1.590   2.546   3.299
 3196SOL     OW10486   6.595   0.324   5.215
 3196SOL    HW110487   6.634   0.234   5.194
 3196SOL    HW210488   6.516   0.341   5.157
 3197SOL     OW10489   1.444   5.665   2.716
 3197SOL    HW110490   1.381   5.743   2.724
 3197SOL    HW210491   1.411   5.589   2.771
 3198SOL     OW10492   6.564   1.879   6.825
 3198SOL    HW110493   6.498   1.898   6.752
 3198SOL    HW210494   6.648   1.931   6.808
 3199SOL     OW10495   4.897   2.463   1.594
 3199SOL    HW110496   4.866   2.469   1.689
 3199SOL    HW210497   4.915   2.555   1.559
 3200SOL     OW10498   0.209   2.904   0.975
 3200SOL    HW110499   0.263   2.980   0.940
 3200SOL    HW210500   0.230   2.891   1.072
 3201SOL     OW10501   5.076   3.387   3.897
 3201SOL    HW110502   5.138   3.389   3.818
 3201SOL    HW210503   4.984   3.411   3.866
 3202SOL     OW10504   1.898   4.394   2.233
 3202SOL    HW110505   1.929   4.406   2.327
 3202SOL    HW210506   1.808   4.351   2.232
 3203SOL     OW10507   5.975   0.966   0.838
 3203SOL    HW110508   5.955   1.064   0.827
 3203SOL    HW210509   6.039   0.954   0.914
 3204SOL     OW10510   5.717   5.538   1.521
 3204SOL    HW110511   5.646   5.605   1.501
 3204SOL    HW210512   5.806   5.571   1.488
 3205SOL     OW10513   0.041   4.598   6.813
 3205SOL    HW110514   0.081   4.556   6.731
 3205SOL    HW210515   0.070   4.547   6.894
 3206SOL     OW10516   0.185   0.077   5.576
 3206SOL    HW110517   0.156   0.141   5.647
 3206SOL    HW210518   0.223   0.127   5.499
 3207SOL     OW10519   0.544   1.266   5.491
 3207SOL    HW110520   0.516   1.271   5.395
 3207SOL    HW210521   0.567   1.358   5.524
 3208SOL     OW10522   4.363   6.014   5.089
 3208SOL    HW110523   4.379   6.004   5.187
 3208SOL    HW210524   4.451   6.017   5.041
 3209SOL     OW10525   3.188   6.545   3.913
 3209SOL    HW110526   3.180   6.635   3.957
 3209SOL    HW210527   3.107   6.491   3.933
 3210SOL     OW10528   0.575   3.416   2.594
 3210SOL    HW110529   0.558   3.414   2.692
 3210SOL    HW210530   0.669   3.445   2.577
 3211SOL     OW10531   2.179   4.253   0.767
 3211SOL    HW110532   2.104   4.201   0.809
 3211SOL    HW210533   2.183   4.345   0.806
 3212SOL     OW10534   4.171   1.648   6.528
 3212SOL    HW110535   4.076   1.626   6.509
 3212SOL    HW210536   4.202   1.595   6.607
 3213SOL     OW10537   6.399   4.983   2.835
 3213SOL    HW110538   6.419   5.052   2.765
 3213SOL    HW210539   6.302   4.958   2.829
 3214SOL     OW10540   4.709   6.160   0.208
 3214SOL    HW110541   4.675   6.209   0.128
 3214SOL    HW210542   4.808   6.165   0.211
 3215SOL     OW10543   6.609   2.768   0.829
 3215SOL    HW110544   6.681   2.708   0.863
 3215SOL    HW210545   6.533   2.769   0.894
 3216SOL     OW10546   5.669   5.989   3.071
 3216SOL    HW110547   5.635   6.034   2.988
 3216SOL    HW210548   5.689   5.894   3.052
 3217SOL     OW10549   1.464   4.565   3.498
 3217SOL    HW110550   1.549   4.512   3.504
 3217SOL    HW210551   1.410   4.534   3.420
 3218SOL     OW10552   4.198   6.894   3.165
 3218SOL    HW110553   4.276   6.945   3.203
 3218SOL    HW210554   4.119   6.955   3.160
 3219SOL     OW10555   7.005   0.637   3.299
 3219SOL    HW110556   6.915   0.605   3.329
 3219SOL    HW210557   7.008   0.737   3.305
 3220SOL     OW10558   0.002   4.651   5.214
 3220SOL    HW110559   6.934   4.641   5.178
 3220SOL    HW210560   7.022   4.684   5.308
 3221SOL     OW10561   2.640   5.858   2.749
 3221SOL    HW110562   2.543   5.837   2.735
 3221SOL    HW210563   2.657   5.953   2.723
 3222SOL     OW10564   4.985   1.814   2.937
 3222SOL    HW110565   4.944   1.862   3.015
 3222SOL    HW210566   5.033   1.880   2.879
 3223SOL     OW10567   3.175   5.104   6.781
 3223SOL    HW110568   3.232   5.187   6.782
 3223SOL    HW210569   3.211   5.039   6.714
 3224SOL     OW10570   4.568   5.335   6.309
 3224SOL    HW110571   4.525   5.259   6.357
 3224SOL    HW210572   4.654   5.304   6.268
 3225SOL     OW10573   4.673   3.019   6.326
 3225SOL    HW110574   4.634   3.108   6.305
 3225SOL    HW210575   4.600   2.957   6.357
 3226SOL     OW10576   2.272   0.983   4.310
 3226SOL    HW110577   2.320   0.968   4.224
 3226SOL    HW210578   2.337   0.978   4.386
 3227SOL     OW10579   3.266   2.209   6.774
 3227SOL    HW110580   3.359   2.221   6.738
 3227SOL    HW210581   3.202   2.197   6.698
 3228SOL     OW10582   5.881   3.027   3.936
 3228SOL    HW110583   5.851   2.938   3.900
 3228SOL    HW210584   5.894   3.091   3.860
 3229SOL     OW10585   3.604   2.053   5.669
 3229SOL    HW110586   3.673   1.982   5.681
 3229SOL    HW210587   3.625   2.105   5.586
 3230SOL     OW10588   0.420   1.605   3.324
 3230SOL    HW110589   0.456   1.639   3.237
 3230SOL    HW210590   0.377   1.680   3.374
 3231SOL     OW10591   4.893   5.838   1.420
 3231SOL    HW110592   4.902   5.759   1.359
 3231SOL    HW210593   4.884   5.805   1.514
 3232SOL     OW10594   4.219   4.994   5.123
 3232SOL    HW110595   4.210   5.023   5.219
 3232SOL    HW210596   4.159   5.049   5.066
 3233SOL     OW10597   0.744   4.056   1.257
 3233SOL    HW110598   0.796   3.980   1.294
 3233SOL    HW210599   0.797   4.141   1.264
 3234SOL     OW10600   6.884   2.250   0.198
 3234SOL    HW110601   6.821   2.175   0.218
 3234SOL    HW210602   6.840   2.337   0.216
 3235SOL     OW10603   5.862   6.644   2.720
 3235SOL    HW110604   5.834   6.738   2.696
 3235SOL    HW210605   5.793   6.604   2.780
 3236SOL     OW10606   1.736   3.074   1.851
 3236SOL    HW110607   1.811   3.100   1.913
 3236SOL    HW210608   1.651   3.070   1.903
 3237SOL     OW10609   4.853   6.893   4.477
 3237SOL    HW110610   4.916   6.833   4.527
 3237SOL    HW210611   4.799   6.946   4.542
 3238SOL     OW10612   0.537   5.830   6.941
 3238SOL    HW110613   0.468   5.776   6.893
 3238SOL    HW210614   0.617   5.842   6.882
 3239SOL     OW10615   6.260   0.796   6.659
 3239SOL    HW110616   6.292   0.727   6.594
 3239SOL    HW210617   6.213   0.869   6.608
 3240SOL     OW10618   0.274   6.859   4.506
 3240SOL    HW110619   0.174   6.860   4.508
 3240SOL    HW210620   0.308   6.952   4.518
 3241SOL     OW10621   4.683   1.277   4.381
 3241SOL    HW110622   4.692   1.373   4.355
 3241SOL    HW210623   4.762   1.226   4.346
 3242SOL     OW10624   3.767   5.418   0.165
 3242SOL    HW110625   3.744   5.394   0.071
 3242SOL    HW210626   3.865   5.404   0.180
 3243SOL     OW10627   4.999   5.021   6.784
 3243SOL    HW110628   4.920   5.041   6.841
 3243SOL    HW210629   4.975   4.952   6.715
 3244SOL     OW10630   4.817   5.893   5.944
 3244SOL    HW110631   4.909   5.887   5.983
 3244SOL    HW210632   4.756   5.937   6.009
 3245SOL     OW10633   4.279   3.233   6.290
 3245SOL    HW110634   4.226   3.316   6.276
 3245SOL    HW210635   4.233   3.175   6.357
 3246SOL     OW10636   5.243   0.243   2.554
 3246SOL    HW110637   5.316   0.235   2.487
 3246SOL    HW210638   5.279   0.285   2.638
 3247SOL     OW10639   0.204   3.878   3.463
 3247SOL    HW110640   0.237   3.784   3.474
 3247SOL    HW210641   0.132   3.897   3.529
 3248SOL     OW10642   6.309   3.790   2.297
 3248SOL    HW110643   6.296   3.714   2.232
 3248SOL    HW210644   6.250   3.866   2.272
 3249SOL     OW10645   3.586   4.694   5.363
 3249SOL    HW110646   3.646   4.618   5.338
 3249SOL    HW210647   3.605   4.772   5.305
 3250SOL     OW10648   5.283   6.706   2.669
 3250SOL    HW110649   5.220   6.768   2.716
 3250SOL    HW210650   5.376   6.719   2.705
 3251SOL     OW10651   3.744   1.500   3.089
 3251SOL    HW110652   3.657   1.497   3.139
 3251SOL    HW210653   3.817   1.525   3.153
 3252SOL     OW10654   3.603   1.086   2.917
 3252SOL    HW110655   3.609   1.179   2.879
 3252SOL    HW210656   3.516   1.045   2.890
 3253SOL     OW10657   4.645   2.956   1.350
 3253SOL    HW110658   4.639   3.039   1.295
 3253SOL    HW210659   4.622   2.977   1.445
 3254SOL     OW10660   3.694   4.882   3.840
 3254SOL    HW110661   3.786   4.898   3.807
 3254SOL    HW210662   3.678   4.936   3.923
 3255SOL     OW10663   4.783   5.406   0.457
 3255SOL    HW110664   4.853   5.348   0.416
 3255SOL    HW210665   4.823   5.458   0.532
 3256SOL     OW10666   5.667   6.635   5.951
 3256SOL    HW110667   5.701   6.728   5.967
 3256SOL    HW210668   5.742   6.579   5.914
 3257SOL     OW10669   1.551   1.941   0.528
 3257SOL    HW110670   1.530   1.982   0.617
 3257SOL    HW210671   1.649   1.943   0.513
 3258SOL     OW10672   5.008   6.716   1.627
 3258SOL    HW110673   5.018   6.697   1.725
 3258SOL    HW210674   5.061   6.797   1.603
 3259SOL     OW10675   4.413   5.981   4.394
 3259SOL    HW110676   4.346   6.038   4.347
 3259SOL    HW210677   4.373   5.890   4.411
 3260SOL     OW10678   1.695   1.249   0.436
 3260SOL    HW110679   1.667   1.311   0.509
 3260SOL    HW210680   1.793   1.229   0.445
 3261SOL     OW10681   4.125   0.191   0.665
 3261SOL    HW110682   4.068   0.110   0.659
 3261SOL    HW210683   4.162   0.213   0.575
 3262SOL     OW10684   3.411   1.809   3.445
 3262SOL    HW110685   3.347   1.880   3.473
 3262SOL    HW210686   3.490   1.851   3.400
 3263SOL     OW10687   4.511   6.719   3.213
 3263SOL    HW110688   4.468   6.809   3.213
 3263SOL    HW210689   4.459   6.656   3.271
 3264SOL     OW10690   6.836   5.469   0.115
 3264SOL    HW110691   6.811   5.515   0.200
 3264SOL    HW210692   6.862   5.374   0.135
 3265SOL     OW10693   3.938   2.405   6.641
 3265SOL    HW110694   3.962   2.321   6.591
 3265SOL    HW210695   3.876   2.382   6.716
 3266SOL     OW10696   6.608   2.938   0.179
 3266SOL    HW110697   6.636   2.880   0.256
 3266SOL    HW210698   6.681   2.942   0.112
 3267SOL     OW10699   3.461   2.233   1.407
 3267SOL    HW110700   3.460   2.243   1.507
 3267SOL    HW210701   3.368   2.216   1.374
 3268SOL     OW10702   1.480   4.145   0.323
 3268SOL    HW110703   1.520   4.236   0.328
 3268SOL    HW210704   1.504   4.093   0.404
 3269SOL     OW10705   4.794   4.756   1.524
 3269SOL    HW110706   4.811   4.708   1.610
 3269SOL    HW210707   4.745   4.696   1.461
 3270SOL     OW10708   0.382   5.436   3.629
 3270SOL    HW110709   0.481   5.428   3.616
 3270SOL    HW210710   0.364   5.486   3.713
 3271SOL     OW10711   5.568   2.453   2.222
 3271SOL    HW110712   5.522   2.514   2.287
 3271SOL    HW210713   5.526   2.463   2.132
 3272SOL     OW10714   3.831   6.932   7.019
 3272SOL    HW110715   3.800   6.900   6.929
 3272SOL    HW210716   3.753   6.940   0.055
 3273SOL     OW10717   1.407   6.304   2.104
 3273SOL    HW110718   1.501   6.292   2.138
 3273SOL    HW210719   1.360   6.216   2.105
 3274SOL     OW10720   2.994   1.992   5.614
 3274SOL    HW110721   2.946   1.997   5.526
 3274SOL    HW210722   3.092   1.997   5.598
 3275SOL     OW10723   2.096   0.103   6.807
 3275SOL    HW110724   2.061   0.014   6.776
 3275SOL    HW210725   2.024   0.151   6.857
 3276SOL     OW10726   3.418   5.450   6.788
 3276SOL    HW110727   3.487   5.391   6.746
 3276SOL    HW210728   3.366   5.398   6.855
 3277SOL     OW10729   6.810   6.563   6.200
 3277SOL    HW110730   6.846   6.470   6.206
 3277SOL    HW210731   6.840   6.605   6.114
 3278SOL     OW10732   0.929   1.096   5.285
 3278SOL    HW110733   0.851   1.056   5.334
 3278SOL    HW210734   0.915   1.194   5.277
 3279SOL     OW10735   0.263   0.150   1.113
 3279SOL    HW110736   0.219   0.080   1.057
 3279SOL    HW210737   0.256   0.239   1.069
 3280SOL     OW10738   2.944   4.940   6.683
 3280SOL    HW110739   2.899   5.029   6.683
 3280SOL    HW210740   3.009   4.935   6.759
 3281SOL     OW10741   1.942   5.127   0.607
 3281SOL    HW110742   1.970   5.156   0.699
 3281SOL    HW210743   2.017   5.078   0.563
 3282SOL     OW10744   2.596   5.961   4.622
 3282SOL    HW110745   2.519   5.949   4.685
 3282SOL    HW210746   2.663   5.888   4.638
 3283SOL     OW10747   3.235   1.703   3.222
 3283SOL    HW110748   3.312   1.713   3.284
 3283SOL    HW210749   3.151   1.687   3.274
 3284SOL     OW10750   0.424   6.277   6.562
 3284SOL    HW110751   0.341   6.295   6.615
 3284SOL    HW210752   0.436   6.348   6.493
 3285SOL     OW10753   0.140   2.973   2.767
 3285SOL    HW110754   0.064   2.994   2.828
 3285SOL    HW210755   0.210   2.920   2.816
 3286SOL     OW10756   3.806   3.586   4.105
 3286SOL    HW110757   3.809   3.523   4.027
 3286SOL    HW210758   3.877   3.559   4.171
 3287SOL     OW10759   1.772   5.755   0.152
 3287SOL    HW110760   1.688   5.706   0.128
 3287SOL    HW210761   1.773   5.843   0.105
 3288SOL     OW10762   0.799   6.224   6.618
 3288SOL    HW110763   0.795   6.323   6.630
 3288SOL    HW210764   0.737   6.180   6.683
 3289SOL     OW10765   0.903   5.786   5.308
 3289SOL    HW110766   0.904   5.756   5.404
 3289SOL    HW210767   0.925   5.708   5.249
 3290SOL     OW10768   0.189   6.198   1.632
 3290SOL    HW110769   0.107   6.164   1.677
 3290SOL    HW210770   0.166   6.277   1.576
 3291SOL     OW10771   1.748   6.468   6.314
 3291SOL    HW110772   1.752   6.559   6.274
 3291SOL    HW210773   1.839   6.439   6.343
 3292SOL     OW10774   0.424   0.660   6.583
 3292SOL    HW110775   0.512   0.697   6.551
 3292SOL    HW210776   0.441   0.584   6.645
 3293SOL     OW10777   0.267   1.264   3.204
 3293SOL    HW110778   0.177   1.297   3.233
 3293SOL    HW210779   0.337   1.308   3.261
 3294SOL     OW10780   6.595   0.619   6.420
 3294SOL    HW110781   6.536   0.697   6.441
 3294SOL    HW210782   6.662   0.607   6.493
 3295SOL     OW10783   2.655   2.080   0.811
 3295SOL    HW110784   2.688   2.112   0.900
 3295SOL    HW210785   2.662   1.980   0.808
 3296SOL     OW10786   2.264   0.281   2.227
 3296SOL    HW110787   2.232   0.225   2.151
 3296SOL    HW210788   2.360   0.305   2.212
 3297SOL     OW10789   3.088   2.228   5.447
 3297SOL    HW110790   3.094   2.295   5.372
 3297SOL    HW210791   3.034   2.149   5.416
 3298SOL     OW10792   6.566   3.231   3.079
 3298SOL    HW110793   6.610   3.276   3.157
 3298SOL    HW210794   6.606   3.141   3.065
 3299SOL     OW10795   1.514   0.310   4.446
 3299SOL    HW110796   1.441   0.252   4.411
 3299SOL    HW210797   1.494   0.334   4.542
 3300SOL     OW10798   6.413   6.842   5.088
 3300SOL    HW110799   6.476   6.788   5.032
 3300SOL    HW210800   6.335   6.785   5.114
 3301SOL     OW10801   0.822   3.876   3.846
 3301SOL    HW110802   0.747   3.839   3.900
 3301SOL    HW210803   0.906   3.826   3.869
 3302SOL     OW10804   1.398   5.424   4.285
 3302SOL    HW110805   1.338   5.410   4.207
 3302SOL    HW210806   1.389   5.348   4.349
 3303SOL     OW10807   3.440   2.850   2.962
 3303SOL    HW110808   3.403   2.843   3.055
 3303SOL    HW210809   3.433   2.761   2.917
 3304SOL     OW10810   1.094   5.751   3.583
 3304SOL    HW110811   1.001   5.723   3.604
 3304SOL    HW210812   1.139   5.679   3.530
 3305SOL     OW10813   1.647   0.821   1.965
 3305SOL    HW110814   1.705   0.786   2.039
 3305SOL    HW210815   1.568   0.760   1.954
 3306SOL     OW10816   2.205   4.104   3.299
 3306SOL    HW110817   2.203   4.018   3.249
 3306SOL    HW210818   2.245   4.090   3.389
 3307SOL     OW10819   0.001   5.886   0.292
 3307SOL    HW110820   0.101   5.884   0.286
 3307SOL    HW210821   6.996   5.835   0.373
 3308SOL     OW10822   4.311   6.119   0.481
 3308SOL    HW110823   4.278   6.208   0.448
 3308SOL    HW210824   4.410   6.123   0.491
 3309SOL     OW10825   1.346   5.217   3.337
 3309SOL    HW110826   1.428   5.192   3.388
 3309SOL    HW210827   1.301   5.294   3.382
 3310SOL     OW10828   0.448   3.954   3.173
 3310SOL    HW110829   0.472   4.038   3.221
 3310SOL    HW210830   0.352   3.959   3.145
 3311SOL     OW10831   3.553   6.017   1.253
 3311SOL    HW110832   3.597   6.100   1.219
 3311SOL    HW210833   3.455   6.021   1.236
 3312SOL     OW10834   2.991   4.294   6.079
 3312SOL    HW110835   2.951   4.313   5.990
 3312SOL    HW210836   3.091   4.297   6.072
 3313SOL     OW10837   1.011   5.465   3.600
 3313SOL    HW110838   1.018   5.366   3.587
 3313SOL    HW210839   1.017   5.512   3.512
 3314SOL     OW10840   1.786   3.187   5.068
 3314SOL    HW110841   1.852   3.160   5.139
 3314SOL    HW210842   1.694   3.181   5.105
 3315SOL     OW10843   6.835   2.750   4.050
 3315SOL    HW110844   6.737   2.732   4.044
 3315SOL    HW210845   6.863   2.807   3.973
 3316SOL     OW10846   4.326   2.382   6.068
 3316SOL    HW110847   4.348   2.298   6.018
 3316SOL    HW210848   4.301   2.359   6.162
 3317SOL     OW10849   4.443   2.933   1.701
 3317SOL    HW110850   4.493   2.971   1.779
 3317SOL    HW210851   4.401   3.007   1.649
 3318SOL     OW10852   2.638   5.981   6.169
 3318SOL    HW110853   2.707   5.912   6.149
 3318SOL    HW210854   2.548   5.947   6.143
 3319SOL     OW10855   0.458   6.398   4.255
 3319SOL    HW110856   0.363   6.370   4.243
 3319SOL    HW210857   0.482   6.465   4.185
 3320SOL     OW10858   5.741   1.543   5.355
 3320SOL    HW110859   5.701   1.502   5.437
 3320SOL    HW210860   5.832   1.503   5.339
 3321SOL     OW10861   3.334   3.258   2.422
 3321SOL    HW110862   3.274   3.179   2.440
 3321SOL    HW210863   3.329   3.322   2.498
 3322SOL     OW10864   4.220   1.665   0.366
 3322SOL    HW110865   4.300   1.609   0.391
 3322SOL    HW210866   4.239   1.714   0.281
 3323SOL     OW10867   2.056   4.321   6.410
 3323SOL    HW110868   2.070   4.416   6.383
 3323SOL    HW210869   1.994   4.317   6.489
 3324SOL     OW10870   1.059   4.022   0.619
 3324SOL    HW110871   0.974   3.972   0.638
 3324SOL    HW210872   1.122   3.962   0.569
 3325SOL     OW10873   1.487   2.880   0.230
 3325SOL    HW110874   1.439   2.900   0.315
 3325SOL    HW210875   1.576   2.927   0.229
 3326SOL     OW10876   6.162   1.661   1.527
 3326SOL    HW110877   6.140   1.600   1.603
 3326SOL    HW210878   6.245   1.712   1.548
 3327SOL     OW10879   2.567   6.854   2.098
 3327SOL    HW110880   2.490   6.918   2.101
 3327SOL    HW210881   2.583   6.817   2.190
 3328SOL     OW10882   4.662   0.725   1.818
 3328SOL    HW110883   4.715   0.720   1.903
 3328SOL    HW210884   4.569   0.757   1.838
 3329SOL     OW10885   3.864   1.003   5.234
 3329SOL    HW110886   3.823   1.003   5.325
 3329SOL    HW210887   3.959   0.973   5.241
 3330SOL     OW10888   5.685   6.827   2.365
 3330SOL    HW110889   5.597   6.869   2.342
 3330SOL    HW210890   5.750   6.841   2.290
 3331SOL     OW10891   1.867   3.486   2.969
 3331SOL    HW110892   1.935   3.437   2.914
 3331SOL    HW210893   1.795   3.521   2.909
 3332SOL     OW10894   5.014   4.961   0.078
 3332SOL    HW110895   4.986   4.896   0.008
 3332SOL    HW210896   5.097   4.928   0.123
 3333SOL     OW10897   3.288   3.163   1.161
 3333SOL    HW110898   3.355   3.128   1.226
 3333SOL    HW210899   3.277   3.099   1.085
 3334SOL     OW10900   1.881   2.598   2.647
 3334SOL    HW110901   1.965   2.612   2.595
 3334SOL    HW210902   1.803   2.634   2.594
 3335SOL     OW10903   3.469   4.362   5.633
 3335SOL    HW110904   3.478   4.391   5.729
 3335SOL    HW210905   3.393   4.299   5.624
 3336SOL     OW10906   2.936   6.783   3.865
 3336SOL    HW110907   2.953   6.791   3.964
 3336SOL    HW210908   3.010   6.828   3.815
 3337SOL     OW10909   3.473   3.907   2.697
 3337SOL    HW110910   3.549   3.897   2.761
 3337SOL    HW210911   3.388   3.879   2.742
 3338SOL     OW10912   1.380   1.676   1.418
 3338SOL    HW110913   1.417   1.594   1.374
 3338SOL    HW210914   1.442   1.753   1.402
 3339SOL     OW10915   2.147   0.227   5.394
 3339SOL    HW110916   2.219   0.189   5.337
 3339SOL    HW210917   2.186   0.296   5.455
 3340SOL     OW10918   4.840   1.042   3.985
 3340SOL    HW110919   4.884   1.129   3.960
 3340SOL    HW210920   4.746   1.059   4.013
 3341SOL     OW10921   2.594   4.687   2.432
 3341SOL    HW110922   2.683   4.685   2.387
 3341SOL    HW210923   2.542   4.766   2.401
 3342SOL     OW10924   5.801   0.603   3.383
 3342SOL    HW110925   5.837   0.695   3.401
 3342SOL    HW210926   5.710   0.595   3.424
 3343SOL     OW10927   5.433   5.238   6.720
 3343SOL    HW110928   5.409   5.280   6.632
 3343SOL    HW210929   5.352   5.196   6.760
 3344SOL     OW10930   6.792   2.341   1.880
 3344SOL    HW110931   6.779   2.253   1.925
 3344SOL    HW210932   6.703   2.377   1.852
 3345SOL     OW10933   0.567   4.236   0.998
 3345SOL    HW110934   0.657   4.209   1.033
 3345SOL    HW210935   0.576   4.260   0.901
 3346SOL     OW10936   2.752   0.685   6.816
 3346SOL    HW110937   2.721   0.765   6.867
 3346SOL    HW210938   2.816   0.714   6.745
 3347SOL     OW10939   0.910   3.238   6.318
 3347SOL    HW110940   0.935   3.335   6.314
 3347SOL    HW210941   0.986   3.186   6.358
 3348SOL     OW10942   3.708   3.754   6.674
 3348SOL    HW110943   3.741   3.699   6.598
 3348SOL    HW210944   3.784   3.779   6.733
 3349SOL     OW10945   2.416   4.808   4.268
 3349SOL    HW110946   2.437   4.729   4.326
 3349SOL    HW210947   2.389   4.885   4.325
 3350SOL     OW10948   0.474   4.190   5.405
 3350SOL    HW110949   0.461   4.219   5.310
 3350SOL    HW210950   0.386   4.159   5.443
 3351SOL     OW10951   5.511   0.548   1.061
 3351SOL    HW110952   5.565   0.607   1.000
 3351SOL    HW210953   5.521   0.579   1.155
 3352SOL     OW10954   5.224   2.241   0.112
 3352SOL    HW110955   5.284   2.163   0.096
 3352SOL    HW210956   5.245   2.282   0.201
 3353SOL     OW10957   2.154   0.870   1.337
 3353SOL    HW110958   2.213   0.926   1.396
 3353SOL    HW210959   2.207   0.795   1.298
 3354SOL     OW10960   3.982   3.172   5.673
 3354SOL    HW110961   4.028   3.261   5.676
 3354SOL    HW210962   3.894   3.182   5.627
 3355SOL     OW10963   2.200   1.257   5.397
 3355SOL    HW110964   2.139   1.178   5.390
 3355SOL    HW210965   2.291   1.225   5.424
 3356SOL     OW10966   1.297   6.476   6.064
 3356SOL    HW110967   1.286   6.552   6.127
 3356SOL    HW210968   1.277   6.390   6.111
 3357SOL     OW10969   2.853   3.482   2.166
 3357SOL    HW110970   2.864   3.444   2.075
 3357SOL    HW210971   2.756   3.481   2.191
 3358SOL     OW10972   5.632   1.356   2.721
 3358SOL    HW110973   5.679   1.444   2.733
 3358SOL    HW210974   5.695   1.282   2.744
 3359SOL     OW10975   0.005   5.789   4.148
 3359SOL    HW110976   7.022   5.876   4.098
 3359SOL    HW210977   6.938   5.754   4.168
 3360SOL     OW10978   0.149   2.739   5.451
 3360SOL    HW110979   0.239   2.778   5.469
 3360SOL    HW210980   0.101   2.725   5.537
 3361SOL     OW10981   0.335   0.689   4.327
 3361SOL    HW110982   0.427   0.659   4.352
 3361SOL    HW210983   0.337   0.784   4.296
 3362SOL     OW10984   3.847   1.920   4.110
 3362SOL    HW110985   3.759   1.886   4.077
 3362SOL    HW210986   3.832   1.993   4.177
 3363SOL     OW10987   6.422   2.806   1.039
 3363SOL    HW110988   6.352   2.876   1.054
 3363SOL    HW210989   6.469   2.786   1.125
 3364SOL     OW10990   1.918   4.448   2.986
 3364SOL    HW110991   1.975   4.438   3.068
 3364SOL    HW210992   1.917   4.543   2.957
 3365SOL     OW10993   2.164   3.188   4.960
 3365SOL    HW110994   2.129   3.230   5.043
 3365SOL    HW210995   2.230   3.117   4.983
 3366SOL     OW10996   0.056   3.400   4.731
 3366SOL    HW110997   0.087   3.489   4.765
 3366SOL    HW210998   0.033   3.341   4.808
 3367SOL     OW10999   3.604   3.451   4.260
 3367SOL    HW111000   3.665   3.501   4.198
 3367SOL    HW211001   3.563   3.515   4.325
 3368SOL     OW11002   1.705   6.244   6.588
 3368SOL    HW111003   1.711   6.181   6.665
 3368SOL    HW211004   1.795   6.255   6.546
 3369SOL     OW11005   4.245   1.648   1.741
 3369SOL    HW111006   4.254   1.647   1.840
 3369SOL    HW211007   4.331   1.618   1.699
 3370SOL     OW11008   6.940   5.471   1.657
 3370SOL    HW111009   6.951   5.542   1.588
 3370SOL    HW211010   6.927   5.514   1.747
 3371SOL     OW11011   2.092   3.369   2.812
 3371SOL    HW111012   2.093   3.284   2.759
 3371SOL    HW211013   2.122   3.445   2.754
 3372SOL     OW11014   6.628   3.029   1.233
 3372SOL    HW111015   6.668   3.053   1.321
 3372SOL    HW211016   6.652   2.934   1.212
 3373SOL     OW11017   6.833   1.297   1.534
 3373SOL    HW111018   6.877   1.361   1.597
 3373SOL    HW211019   6.870   1.206   1.548
 3374SOL     OW11020   0.774   6.691   3.251
 3374SOL    HW111021   0.805   6.639   3.171
 3374SOL    HW211022   0.813   6.783   3.249
 3375SOL     OW11023   6.722   5.186   6.882
 3375SOL    HW111024   6.760   5.224   6.798
 3375SOL    HW211025   6.680   5.259   6.936
 3376SOL     OW11026   2.386   3.584   5.639
 3376SOL    HW111027   2.311   3.593   5.574
 3376SOL    HW211028   2.459   3.529   5.597
 3377SOL     OW11029   6.461   5.199   3.900
 3377SOL    HW111030   6.433   5.283   3.945
 3377SOL    HW211031   6.558   5.182   3.916
 3378SOL     OW11032   1.523   6.938   6.922
 3378SOL    HW111033   1.507   6.936   6.823
 3378SOL    HW211034   1.622   6.938   6.940
 3379SOL     OW11035   1.102   3.359   4.420
 3379SOL    HW111036   1.018   3.400   4.385
 3379SOL    HW211037   1.178   3.423   4.409
 3380SOL     OW11038   3.902   4.557   5.671
 3380SOL    HW111039   3.880   4.461   5.658
 3380SOL    HW211040   3.880   4.584   5.765
 3381SOL     OW11041   1.091   3.042   1.346
 3381SOL    HW111042   1.049   2.962   1.303
 3381SOL    HW211043   1.113   3.020   1.442
 3382SOL     OW11044   7.000   2.361   1.077
 3382SOL    HW111045   6.954   2.355   0.988
 3382SOL    HW211046   6.978   2.279   1.131
 3383SOL     OW11047   3.559   4.904   0.256
 3383SOL    HW111048   3.572   5.003   0.266
 3383SOL    HW211049   3.463   4.881   0.272
 3384SOL     OW11050   3.066   4.239   0.479
 3384SOL    HW111051   3.096   4.147   0.504
 3384SOL    HW211052   2.972   4.253   0.508
 3385SOL     OW11053   0.009   2.297   3.844
 3385SOL    HW111054   7.007   2.393   3.854
 3385SOL    HW211055   0.084   2.276   3.907
 3386SOL     OW11056   6.719   4.858   6.643
 3386SOL    HW111057   6.711   4.759   6.637
 3386SOL    HW211058   6.744   4.895   6.553
 3387SOL     OW11059   5.690   0.784   3.090
 3387SOL    HW111060   5.789   0.789   3.105
 3387SOL    HW211061   5.646   0.861   3.137
 3388SOL     OW11062   5.088   4.049   1.438
 3388SOL    HW111063   5.138   4.057   1.353
 3388SOL    HW211064   5.018   4.121   1.443
 3389SOL     OW11065   5.950   6.471   0.630
 3389SOL    HW111066   5.893   6.417   0.567
 3389SOL    HW211067   6.040   6.485   0.588
 3390SOL     OW11068   3.944   6.788   5.934
 3390SOL    HW111069   3.906   6.719   5.873
 3390SOL    HW211070   3.888   6.794   6.016
 3391SOL     OW11071   5.698   2.914   3.421
 3391SOL    HW111072   5.783   2.948   3.460
 3391SOL    HW211073   5.646   2.864   3.491
 3392SOL     OW11074   4.357   0.022   4.921
 3392SOL    HW111075   4.337   6.959   4.965
 3392SOL    HW211076   4.309   0.026   4.833
 3393SOL     OW11077   5.013   0.102   0.587
 3393SOL    HW111078   5.055   0.192   0.571
 3393SOL    HW211079   4.984   0.063   0.500
 3394SOL     OW11080   3.498   5.407   0.960
 3394SOL    HW111081   3.515   5.322   0.911
 3394SOL    HW211082   3.400   5.426   0.961
 3395SOL     OW11083   4.161   0.422   3.501
 3395SOL    HW111084   4.111   0.493   3.451
 3395SOL    HW211085   4.168   0.340   3.444
 3396SOL     OW11086   5.752   1.414   3.697
 3396SOL    HW111087   5.806   1.346   3.648
 3396SOL    HW211088   5.714   1.373   3.780
 3397SOL     OW11089   2.792   5.710   6.298
 3397SOL    HW111090   2.699   5.691   6.329
 3397SOL    HW211091   2.793   5.720   6.198
 3398SOL     OW11092   0.384   1.828   5.513
 3398SOL    HW111093   0.371   1.862   5.606
 3398SOL    HW211094   0.308   1.767   5.488
 3399SOL     OW11095   0.555   4.645   3.030
 3399SOL    HW111096   0.480   4.634   2.965
 3399SOL    HW211097   0.519   4.683   3.115
 3400SOL     OW11098   5.638   2.802   5.412
 3400SOL    HW111099   5.728   2.828   5.376
 3400SOL    HW211100   5.577   2.779   5.337
 3401SOL     OW11101   6.533   3.878   6.159
 3401SOL    HW111102   6.452   3.906   6.211
 3401SOL    HW211103   6.505   3.816   6.085
 3402SOL     OW11104   6.407   4.949   1.198
 3402SOL    HW111105   6.447   5.026   1.248
 3402SOL    HW211106   6.348   4.983   1.125
 3403SOL     OW11107   4.658   6.542   5.859
 3403SOL    HW111108   4.655   6.560   5.957
 3403SOL    HW211109   4.567   6.553   5.820
 3404SOL     OW11110   5.023   3.048   5.769
 3404SOL    HW111111   5.046   3.096   5.853
 3404SOL    HW211112   4.980   2.960   5.791
 3405SOL     OW11113   4.852   6.355   5.777
 3405SOL    HW111114   4.778   6.421   5.789
 3405SOL    HW211115   4.939   6.403   5.768
 3406SOL     OW11116   2.166   3.950   2.228
 3406SOL    HW111117   2.148   4.012   2.152
 3406SOL    HW211118   2.177   3.857   2.192
 3407SOL     OW11119   1.992   3.875   0.725
 3407SOL    HW111120   1.984   3.948   0.657
 3407SOL    HW211121   2.087   3.868   0.755
 3408SOL     OW11122   4.765   2.513   3.916
 3408SOL    HW111123   4.693   2.581   3.903
 3408SOL    HW211124   4.769   2.487   4.013
 3409SOL     OW11125   4.414   0.372   0.650
 3409SOL    HW111126   4.387   0.406   0.740
 3409SOL    HW211127   4.492   0.425   0.618
 3410SOL     OW11128   5.754   6.869   2.609
 3410SOL    HW111129   5.722   6.847   2.517
 3410SOL    HW211130   5.675   6.880   2.669
 3411SOL     OW11131   6.675   1.360   0.972
 3411SOL    HW111132   6.626   1.426   1.029
 3411SOL    HW211133   6.663   1.385   0.876
 3412SOL     OW11134   5.229   3.459   1.721
 3412SOL    HW111135   5.178   3.502   1.647
 3412SOL    HW211136   5.168   3.401   1.775
 3413SOL     OW11137   6.814   1.966   6.735
 3413SOL    HW111138   6.844   1.880   6.778
 3413SOL    HW211139   6.894   2.024   6.718
 3414SOL     OW11140   4.201   2.771   0.327
 3414SOL    HW111141   4.238   2.804   0.240
 3414SOL    HW211142   4.274   2.730   0.381
 3415SOL     OW11143   2.462   2.714   4.274
 3415SOL    HW111144   2.394   2.769   4.323
 3415SOL    HW211145   2.512   2.657   4.339
 3416SOL     OW11146   6.199   0.067   0.117
 3416SOL    HW111147   6.180   0.047   0.213
 3416SOL    HW211148   6.152   0.151   0.091
 3417SOL     OW11149   0.342   0.355   3.287
 3417SOL    HW111150   0.438   0.383   3.295
 3417SOL    HW211151   0.314   0.361   3.192
 3418SOL     OW11152   4.421   4.883   2.653
 3418SOL    HW111153   4.517   4.858   2.665
 3418SOL    HW211154   4.415   4.962   2.592
 3419SOL     OW11155   3.414   5.383   6.391
 3419SOL    HW111156   3.429   5.328   6.309
 3419SOL    HW211157   3.448   5.476   6.376
 3420SOL     OW11158   4.836   2.873   3.918
 3420SOL    HW111159   4.769   2.917   3.979
 3420SOL    HW211160   4.873   2.942   3.855
 3421SOL     OW11161   5.643   1.686   3.311
 3421SOL    HW111162   5.622   1.783   3.298
 3421SOL    HW211163   5.668   1.645   3.224
 3422SOL     OW11164   1.969   0.077   0.608
 3422SOL    HW111165   1.883   0.125   0.626
 3422SOL    HW211166   2.004   0.104   0.518
 3423SOL     OW11167   0.973   4.169   5.653
 3423SOL    HW111168   0.985   4.211   5.563
 3423SOL    HW211169   1.001   4.073   5.649
 3424SOL     OW11170   4.680   6.770   1.330
 3424SOL    HW111171   4.604   6.834   1.342
 3424SOL    HW211172   4.647   6.689   1.282
 3425SOL     OW11173   5.495   4.027   1.200
 3425SOL    HW111174   5.572   3.995   1.146
 3425SOL    HW211175   5.514   4.013   1.297
 3426SOL     OW11176   5.781   3.535   0.728
 3426SOL    HW111177   5.769   3.439   0.754
 3426SOL    HW211178   5.862   3.572   0.775
 3427SOL     OW11179   1.328   2.134   1.104
 3427SOL    HW111180   1.427   2.142   1.114
 3427SOL    HW211181   1.307   2.096   1.014
 3428SOL     OW11182   5.021   5.956   5.612
 3428SOL    HW111183   5.012   5.859   5.586
 3428SOL    HW211184   4.932   5.991   5.641
 3429SOL     OW11185   0.333   0.521   0.959
 3429SOL    HW111186   0.416   0.495   1.009
 3429SOL    HW211187   0.357   0.550   0.866
 3430SOL     OW11188   2.722   4.901   5.540
 3430SOL    HW111189   2.773   4.987   5.544
 3430SOL    HW211190   2.782   4.827   5.509
 3431SOL     OW11191   2.650   6.206   2.835
 3431SOL    HW111192   2.695   6.227   2.922
 3431SOL    HW211193   2.708   6.235   2.759
 3432SOL     OW11194   2.310   4.590   0.351
 3432SOL    HW111195   2.382   4.627   0.293
 3432SOL    HW211196   2.351   4.543   0.429
 3433SOL     OW11197   2.437   1.027   6.478
 3433SOL    HW111198   2.497   1.104   6.457
 3433SOL    HW211199   2.466   0.947   6.426
 3434SOL     OW11200   3.084   1.929   1.908
 3434SOL    HW111201   3.058   2.022   1.881
 3434SOL    HW211202   3.176   1.930   1.946
 3435SOL     OW11203   2.191   0.480   0.031
 3435SOL    HW111204   2.155   0.509   0.120
 3435SOL    HW211205   2.183   0.556   6.991
 3436SOL     OW11206   4.366   5.213   0.261
 3436SOL    HW111207   4.417   5.176   0.184
 3436SOL    HW211208   4.429   5.257   0.325
 3437SOL     OW11209   1.398   6.067   5.957
 3437SOL    HW111210   1.344   6.101   6.034
 3437SOL    HW211211   1.479   6.124   5.944
 3438SOL     OW11212   1.085   3.916   1.181
 3438SOL    HW111213   1.179   3.950   1.172
 3438SOL    HW211214   1.025   3.970   1.122
 3439SOL     OW11215   2.378   5.717   2.321
 3439SOL    HW111216   2.473   5.741   2.303
 3439SOL    HW211217   2.367   5.618   2.319
 3440SOL     OW11218   3.784   2.958   4.598
 3440SOL    HW111219   3.745   3.049   4.612
 3440SOL    HW211220   3.782   2.907   4.684
 3441SOL     OW11221   5.193   5.326   5.860
 3441SOL    HW111222   5.249   5.277   5.927
 3441SOL    HW211223   5.173   5.267   5.782
 3442SOL     OW11224   2.844   3.408   1.605
 3442SOL    HW111225   2.845   3.466   1.523
 3442SOL    HW211226   2.753   3.411   1.647
 3443SOL     OW11227   3.017   6.002   2.579
 3443SOL    HW111228   3.093   6.038   2.525
 3443SOL    HW211229   3.043   5.912   2.615
 3444SOL     OW11230   5.345   4.402   1.624
 3444SOL    HW111231   5.378   4.450   1.542
 3444SOL    HW211232   5.273   4.457   1.668
 3445SOL     OW11233   6.704   4.808   3.846
 3445SOL    HW111234   6.712   4.891   3.899
 3445SOL    HW211235   6.609   4.797   3.816
 3446SOL     OW11236   5.785   0.127   1.551
 3446SOL    HW111237   5.735   0.198   1.600
 3446SOL    HW211238   5.821   0.164   1.465
 3447SOL     OW11239   5.110   0.442   0.232
 3447SOL    HW111240   5.111   0.439   0.332
 3447SOL    HW211241   5.019   0.469   0.200
 3448SOL     OW11242   1.190   6.453   5.437
 3448SOL    HW111243   1.138   6.433   5.355
 3448SOL    HW211244   1.284   6.476   5.412
 3449SOL     OW11245   6.200   5.104   4.985
 3449SOL    HW111246   6.251   5.191   4.988
 3449SOL    HW211247   6.108   5.118   5.022
 3450SOL     OW11248   1.257   0.324   6.676
 3450SOL    HW111249   1.236   0.226   6.676
 3450SOL    HW211250   1.318   0.345   6.753
 3451SOL     OW11251   1.776   5.956   0.572
 3451SOL    HW111252   1.814   5.896   0.642
 3451SOL    HW211253   1.845   6.024   0.545
 3452SOL     OW11254   5.399   0.786   5.338
 3452SOL    HW111255   5.425   0.707   5.282
 3452SOL    HW211256   5.303   0.810   5.319
 3453SOL     OW11257   5.100   6.172   5.977
 3453SOL    HW111258   5.032   6.102   6.000
 3453SOL    HW211259   5.130   6.160   5.882
 3454SOL     OW11260   1.432   2.247   3.130
 3454SOL    HW111261   1.396   2.294   3.211
 3454SOL    HW211262   1.476   2.314   3.070
 3455SOL     OW11263   1.931   3.100   5.312
 3455SOL    HW111264   2.023   3.126   5.341
 3455SOL    HW211265   1.864   3.143   5.372
 3456SOL     OW11266   4.583   4.542   2.059
 3456SOL    HW111267   4.649   4.578   1.993
 3456SOL    HW211268   4.582   4.442   2.055
 3457SOL     OW11269   3.816   5.439   4.841
 3457SOL    HW111270   3.859   5.368   4.786
 3457SOL    HW211271   3.760   5.498   4.782
 3458SOL     OW11272   4.450   1.565   2.383
 3458SOL    HW111273   4.523   1.632   2.367
 3458SOL    HW211274   4.473   1.509   2.463
 3459SOL     OW11275   3.947   1.104   2.599
 3459SOL    HW111276   3.921   1.194   2.632
 3459SOL    HW211277   4.047   1.097   2.596
 3460SOL     OW11278   3.631   1.678   5.945
 3460SOL    HW111279   3.538   1.679   5.909
 3460SOL    HW211280   3.686   1.612   5.893
 3461SOL     OW11281   5.472   4.764   6.955
 3461SOL    HW111282   5.504   4.843   6.902
 3461SOL    HW211283   5.507   4.770   0.024
 3462SOL     OW11284   2.316   3.189   6.677
 3462SOL    HW111285   2.290   3.285   6.676
 3462SOL    HW211286   2.396   3.176   6.736
 3463SOL     OW11287   0.010   3.821   1.610
 3463SOL    HW111288   0.032   3.728   1.580
 3463SOL    HW211289   0.094   3.867   1.639
 3464SOL     OW11290   0.210   4.773   5.954
 3464SOL    HW111291   0.143   4.700   5.943
 3464SOL    HW211292   0.226   4.790   6.051
 3465SOL     OW11293   1.950   0.670   1.745
 3465SOL    HW111294   1.908   0.756   1.775
 3465SOL    HW211295   1.977   0.677   1.649
 3466SOL     OW11296   6.802   4.470   5.666
 3466SOL    HW111297   6.778   4.425   5.753
 3466SOL    HW211298   6.719   4.488   5.614
 3467SOL     OW11299   2.452   2.269   6.467
 3467SOL    HW111300   2.372   2.327   6.480
 3467SOL    HW211301   2.481   2.233   6.556
 3468SOL     OW11302   2.767   6.095   3.528
 3468SOL    HW111303   2.799   6.110   3.622
 3468SOL    HW211304   2.809   6.011   3.492
 3469SOL     OW11305   6.545   2.372   3.717
 3469SOL    HW111306   6.623   2.435   3.716
 3469SOL    HW211307   6.552   2.310   3.640
 3470SOL     OW11308   0.343   5.561   1.463
 3470SOL    HW111309   0.436   5.566   1.425
 3470SOL    HW211310   0.347   5.564   1.562
 3471SOL     OW11311   4.184   5.644   5.014
 3471SOL    HW111312   4.217   5.690   5.096
 3471SOL    HW211313   4.085   5.653   5.007
 3472SOL     OW11314   2.329   0.613   4.572
 3472SOL    HW111315   2.423   0.598   4.603
 3472SOL    HW211316   2.320   0.581   4.478
 3473SOL     OW11317   6.151   1.211   5.822
 3473SOL    HW111318   6.129   1.126   5.774
 3473SOL    HW211319   6.202   1.272   5.762
 3474SOL     OW11320   3.648   5.252   2.059
 3474SOL    HW111321   3.650   5.316   1.982
 3474SOL    HW211322   3.595   5.171   2.035
 3475SOL     OW11323   1.145   6.206   4.005
 3475SOL    HW111324   1.135   6.225   3.907
 3475SOL    HW211325   1.071   6.252   4.055
 3476SOL     OW11326   4.748   0.852   4.401
 3476SOL    HW111327   4.847   0.857   4.387
 3476SOL    HW211328   4.716   0.760   4.379
 3477SOL     OW11329   4.259   5.820   1.121
 3477SOL    HW111330   4.234   5.808   1.217
 3477SOL    HW211331   4.182   5.793   1.063
 3478SOL     OW11332   3.215   5.605   6.054
 3478SOL    HW111333   3.141   5.591   6.120
 3478SOL    HW211334   3.255   5.516   6.030
 3479SOL     OW11335   0.613   0.303   2.046
 3479SOL    HW111336   0.597   0.371   2.118
 3479SOL    HW211337   0.688   0.242   2.073
 3480SOL     OW11338   6.811   1.361   3.533
 3480SOL    HW111339   6.823   1.458   3.513
 3480SOL    HW211340   6.837   1.344   3.628
 3481SOL     OW11341   2.826   6.807   6.225
 3481SOL    HW111342   2.842   6.887   6.282
 3481SOL    HW211343   2.900   6.797   6.159
 3482SOL     OW11344   6.201   2.236   1.264
 3482SOL    HW111345   6.244   2.267   1.179
 3482SOL    HW211346   6.187   2.137   1.261
 3483SOL     OW11347   2.262   0.654   1.232
 3483SOL    HW111348   2.302   0.688   1.146
 3483SOL    HW211349   2.182   0.597   1.212
 3484SOL     OW11350   3.058   3.245   3.761
 3484SOL    HW111351   3.063   3.303   3.843
 3484SOL    HW211352   3.010   3.160   3.782
 3485SOL     OW11353   1.860   2.524   5.261
 3485SOL    HW111354   1.776   2.519   5.314
 3485SOL    HW211355   1.895   2.618   5.262
 3486SOL     OW11356   4.483   1.566   1.612
 3486SOL    HW111357   4.518   1.599   1.525
 3486SOL    HW211358   4.526   1.478   1.635
 3487SOL     OW11359   6.172   1.780   6.045
 3487SOL    HW111360   6.124   1.810   6.128
 3487SOL    HW211361   6.119   1.707   6.001
 3488SOL     OW11362   6.347   3.586   4.240
 3488SOL    HW111363   6.251   3.573   4.260
 3488SOL    HW211364   6.389   3.499   4.214
 3489SOL     OW11365   3.604   0.042   1.441
 3489SOL    HW111366   3.543   0.100   1.386
 3489SOL    HW211367   3.660   0.100   1.501
 3490SOL     OW11368   5.460   3.947   0.385
 3490SOL    HW111369   5.530   3.885   0.349
 3490SOL    HW211370   5.449   4.024   0.322
 3491SOL     OW11371   0.346   2.922   5.527
 3491SOL    HW111372   0.317   2.917   5.623
 3491SOL    HW211373   0.311   3.005   5.485
 3492SOL     OW11374   0.377   5.602   6.846
 3492SOL    HW111375   0.336   5.585   6.936
 3492SOL    HW211376   0.310   5.648   6.788
 3493SOL     OW11377   5.899   5.189   1.349
 3493SOL    HW111378   5.971   5.252   1.380
 3493SOL    HW211379   5.935   5.131   1.276
 3494SOL     OW11380   3.564   7.016   1.776
 3494SOL    HW111381   3.619   6.965   1.843
 3494SOL    HW211382   3.592   6.991   1.683
 3495SOL     OW11383   4.404   5.089   1.735
 3495SOL    HW111384   4.314   5.116   1.701
 3495SOL    HW211385   4.458   5.049   1.661
 3496SOL     OW11386   1.614   3.073   0.698
 3496SOL    HW111387   1.570   3.163   0.688
 3496SOL    HW211388   1.712   3.085   0.708
 3497SOL     OW11389   4.050   1.203   3.218
 3497SOL    HW111390   4.067   1.106   3.200
 3497SOL    HW211391   4.082   1.225   3.310
 3498SOL     OW11392   2.600   1.061   0.857
 3498SOL    HW111393   2.597   1.046   0.759
 3498SOL    HW211394   2.590   1.159   0.876
 3499SOL     OW11395   0.250   3.377   4.460
 3499SOL    HW111396   0.325   3.314   4.438
 3499SOL    HW211397   0.179   3.370   4.390
 3500SOL     OW11398   6.153   4.208   6.275
 3500SOL    HW111399   6.251   4.224   6.287
 3500SOL    HW211400   6.138   4.154   6.193
 3501SOL     OW11401   1.915   4.610   4.940
 3501SOL    HW111402   1.871   4.694   4.908
 3501SOL    HW211403   1.911   4.607   5.040
 3502SOL     OW11404   0.390   1.814   1.502
 3502SOL    HW111405   0.450   1.744   1.464
 3502SOL    HW211406   0.438   1.901   1.505
 3503SOL     OW11407   4.717   5.528   5.213
 3503SOL    HW111408   4.791   5.578   5.258
 3503SOL    HW211409   4.757   5.456   5.156
 3504SOL     OW11410   2.852   3.543   1.054
 3504SOL    HW111411   2.806   3.492   1.126
 3504SOL    HW211412   2.935   3.494   1.026
 3505SOL     OW11413   5.556   6.091   5.366
 3505SOL    HW111414   5.618   6.139   5.428
 3505SOL    HW211415   5.576   5.993   5.367
 3506SOL     OW11416   3.790   5.179   3.773
 3506SOL    HW111417   3.864   5.112   3.769
 3506SOL    HW211418   3.797   5.231   3.858
 3507SOL     OW11419   1.188   0.582   6.663
 3507SOL    HW111420   1.088   0.577   6.665
 3507SOL    HW211421   1.227   0.490   6.664
 3508SOL     OW11422   5.607   3.146   0.472
 3508SOL    HW111423   5.698   3.161   0.435
 3508SOL    HW211424   5.550   3.226   0.457
 3509SOL     OW11425   6.165   5.820   6.648
 3509SOL    HW111426   6.129   5.910   6.625
 3509SOL    HW211427   6.215   5.782   6.571
 3510SOL     OW11428   2.320   2.389   1.652
 3510SOL    HW111429   2.225   2.417   1.636
 3510SOL    HW211430   2.380   2.432   1.585
 3511SOL     OW11431   0.137   2.497   6.789
 3511SOL    HW111432   0.096   2.409   6.816
 3511SOL    HW211433   0.237   2.489   6.791
 3512SOL     OW11434   2.318   3.700   0.176
 3512SOL    HW111435   2.291   3.768   0.107
 3512SOL    HW211436   2.333   3.745   0.264
 3513SOL     OW11437   6.806   4.351   1.232
 3513SOL    HW111438   6.902   4.336   1.210
 3513SOL    HW211439   6.795   4.440   1.276
 3514SOL     OW11440   0.741   6.152   1.422
 3514SOL    HW111441   0.694   6.206   1.492
 3514SOL    HW211442   0.829   6.121   1.457
 3515SOL     OW11443   3.221   6.164   2.818
 3515SOL    HW111444   3.255   6.250   2.780
 3515SOL    HW211445   3.297   6.112   2.857
 3516SOL     OW11446   3.359   1.261   0.504
 3516SOL    HW111447   3.401   1.272   0.414
 3516SOL    HW211448   3.284   1.326   0.514
 3517SOL     OW11449   0.820   1.341   6.801
 3517SOL    HW111450   0.733   1.380   6.769
 3517SOL    HW211451   0.882   1.330   6.724
 3518SOL     OW11452   4.801   3.627   6.482
 3518SOL    HW111453   4.828   3.599   6.390
 3518SOL    HW211454   4.816   3.726   6.492
 3519SOL     OW11455   1.604   6.677   6.611
 3519SOL    HW111456   1.547   6.623   6.549
 3519SOL    HW211457   1.645   6.617   6.679
 3520SOL     OW11458   3.944   4.922   1.221
 3520SOL    HW111459   3.945   5.000   1.284
 3520SOL    HW211460   3.892   4.847   1.262
 3521SOL     OW11461   5.589   2.069   1.821
 3521SOL    HW111462   5.668   2.077   1.760
 3521SOL    HW211463   5.505   2.085   1.770
 3522SOL     OW11464   3.263   5.134   1.925
 3522SOL    HW111465   3.253   5.205   1.994
 3522SOL    HW211466   3.336   5.071   1.951
 3523SOL     OW11467   3.016   4.994   4.780
 3523SOL    HW111468   2.919   5.001   4.801
 3523SOL    HW211469   3.064   4.950   4.856
 3524SOL     OW11470   2.412   0.210   0.746
 3524SOL    HW111471   2.460   0.127   0.718
 3524SOL    HW211472   2.478   0.282   0.768
 3525SOL     OW11473   0.609   2.903   1.912
 3525SOL    HW111474   0.615   2.954   1.998
 3525SOL    HW211475   0.699   2.865   1.889
 3526SOL     OW11476   0.962   0.527   3.010
 3526SOL    HW111477   0.985   0.494   2.919
 3526SOL    HW211478   0.901   0.462   3.055
 3527SOL     OW11479   5.611   3.125   6.365
 3527SOL    HW111480   5.677   3.126   6.440
 3527SOL    HW211481   5.554   3.043   6.373
 3528SOL     OW11482   0.311   6.418   3.526
 3528SOL    HW111483   0.237   6.372   3.477
 3528SOL    HW211484   0.280   6.509   3.554
 3529SOL     OW11485   4.725   0.014   5.211
 3529SOL    HW111486   4.795   0.010   5.140
 3529SOL    HW211487   4.720   0.107   5.248
 3530SOL     OW11488   2.989   5.624   2.422
 3530SOL    HW111489   3.062   5.596   2.360
 3530SOL    HW211490   2.936   5.544   2.450
 3531SOL     OW11491   5.931   4.809   0.937
 3531SOL    HW111492   6.001   4.770   0.997
 3531SOL    HW211493   5.957   4.901   0.910
 3532SOL     OW11494   2.617   0.503   6.667
 3532SOL    HW111495   2.618   0.521   6.568
 3532SOL    HW211496   2.680   0.566   6.712
 3533SOL     OW11497   1.218   1.761   3.409
 3533SOL    HW111498   1.196   1.757   3.312
 3533SOL    HW211499   1.204   1.854   3.443
 3534SOL     OW11500   5.319   1.658   4.964
 3534SOL    HW111501   5.369   1.659   5.051
 3534SOL    HW211502   5.370   1.605   4.897
 3535SOL     OW11503   5.657   5.163   6.176
 3535SOL    HW111504   5.642   5.250   6.129
 3535SOL    HW211505   5.693   5.180   6.268
 3536SOL     OW11506   2.133   3.346   3.091
 3536SOL    HW111507   2.173   3.437   3.103
 3536SOL    HW211508   2.102   3.336   2.996
 3537SOL     OW11509   2.405   5.720   0.498
 3537SOL    HW111510   2.357   5.677   0.421
 3537SOL    HW211511   2.481   5.775   0.463
 3538SOL     OW11512   2.574   0.173   3.019
 3538SOL    HW111513   2.654   0.204   2.969
 3538SOL    HW211514   2.590   0.182   3.117
 3539SOL     OW11515   5.530   4.979   6.763
 3539SOL    HW111516   5.482   5.066   6.770
 3539SOL    HW211517   5.557   4.963   6.668
 3540SOL     OW11518   2.664   3.343   6.536
 3540SOL    HW111519   2.760   3.350   6.562
 3540SOL    HW211520   2.653   3.374   6.441
 3541SOL     OW11521   2.706   2.427   0.882
 3541SOL    HW111522   2.668   2.349   0.932
 3541SOL    HW211523   2.711   2.405   0.784
 3542SOL     OW11524   5.381   2.394   6.545
 3542SOL    HW111525   5.455   2.447   6.503
 3542SOL    HW211526   5.386   2.405   6.644
 3543SOL     OW11527   2.346   2.675   2.827
 3543SOL    HW111528   2.406   2.648   2.752
 3543SOL    HW211529   2.292   2.754   2.798
 3544SOL     OW11530   2.595   4.572   6.084
 3544SOL    HW111531   2.671   4.577   6.019
 3544SOL    HW211532   2.612   4.635   6.160
 3545SOL     OW11533   3.676   6.952   1.177
 3545SOL    HW111534   3.594   6.984   1.129
 3545SOL    HW211535   3.691   7.007   1.259
 3546SOL     OW11536   6.468   3.817   3.403
 3546SOL    HW111537   6.466   3.730   3.354
 3546SOL    HW211538   6.376   3.838   3.436
 3547SOL     OW11539   0.194   3.747   5.476
 3547SOL    HW111540   0.210   3.846   5.474
 3547SOL    HW211541   0.193   3.716   5.571
 3548SOL     OW11542   5.160   1.316   5.574
 3548SOL    HW111543   5.233   1.384   5.583
 3548SOL    HW211544   5.080   1.358   5.531
 3549SOL     OW11545   3.048   5.580   0.330
 3549SOL    HW111546   3.139   5.538   0.335
 3549SOL    HW211547   3.017   5.581   0.235
 3550SOL     OW11548   5.063   1.784   5.261
 3550SOL    HW111549   5.034   1.780   5.165
 3550SOL    HW211550   5.069   1.880   5.290
 3551SOL     OW11551   3.994   2.291   5.559
 3551SOL    HW111552   3.997   2.275   5.460
 3551SOL    HW211553   3.899   2.288   5.590
 3552SOL     OW11554   6.809   6.057   2.563
 3552SOL    HW111555   6.729   5.999   2.549
 3552SOL    HW211556   6.791   6.149   2.528
 3553SOL     OW11557   3.692   5.565   6.177
 3553SOL    HW111558   3.766   5.502   6.200
 3553SOL    HW211559   3.716   5.658   6.205
 3554SOL     OW11560   4.172   3.602   1.667
 3554SOL    HW111561   4.153   3.554   1.753
 3554SOL    HW211562   4.142   3.545   1.591
 3555SOL     OW11563   1.769   2.561   3.897
 3555SOL    HW111564   1.805   2.648   3.861
 3555SOL    HW211565   1.816   2.540   3.983
 3556SOL     OW11566   4.170   0.815   5.280
 3556SOL    HW111567   4.212   0.725   5.294
 3556SOL    HW211568   4.186   0.845   5.186
 3557SOL     OW11569   7.014   1.340   2.152
 3557SOL    HW111570   0.073   1.387   2.121
 3557SOL    HW211571   7.004   1.254   2.103
 3558SOL     OW11572   3.417   6.840   0.786
 3558SOL    HW111573   3.406   6.925   0.735
 3558SOL    HW211574   3.506   6.799   0.764
 3559SOL     OW11575   3.989   6.365   4.427
 3559SOL    HW111576   3.948   6.274   4.421
 3559SOL    HW211577   3.920   6.434   4.403
 3560SOL     OW11578   1.035   5.580   5.200
 3560SOL    HW111579   1.085   5.641   5.139
 3560SOL    HW211580   1.100   5.523   5.251
 3561SOL     OW11581   4.927   4.657   5.267
 3561SOL    HW111582   4.848   4.693   5.316
 3561SOL    HW211583   4.949   4.566   5.302
 3562SOL     OW11584   2.554   1.007   5.124
 3562SOL    HW111585   2.614   0.928   5.109
 3562SOL    HW211586   2.606   1.091   5.105
 3563SOL     OW11587   5.802   1.975   5.522
 3563SOL    HW111588   5.779   1.935   5.433
 3563SOL    HW211589   5.744   1.934   5.593
 3564SOL     OW11590   0.171   4.448   3.070
 3564SOL    HW111591   0.191   4.353   3.044
 3564SOL    HW211592   0.238   4.508   3.028
 3565SOL     OW11593   3.157   5.639   3.390
 3565SOL    HW111594   3.191   5.545   3.391
 3565SOL    HW211595   3.162   5.675   3.297
 3566SOL     OW11596   6.265   0.925   5.427
 3566SOL    HW111597   6.262   0.928   5.327
 3566SOL    HW211598   6.315   0.843   5.457
 3567SOL     OW11599   0.386   4.370   6.672
 3567SOL    HW111600   0.422   4.278   6.657
 3567SOL    HW211601   0.451   4.424   6.724
 3568SOL     OW11602   6.342   3.518   6.176
 3568SOL    HW111603   6.318   3.581   6.250
 3568SOL    HW211604   6.396   3.442   6.213
 3569SOL     OW11605   2.771   2.281   5.335
 3569SOL    HW111606   2.846   2.341   5.361
 3569SOL    HW211607   2.806   2.190   5.314
 3570SOL     OW11608   5.890   1.160   4.058
 3570SOL    HW111609   5.896   1.084   3.994
 3570SOL    HW211610   5.978   1.207   4.063
 3571SOL     OW11611   6.287   5.912   6.396
 3571SOL    HW111612   6.321   5.890   6.305
 3571SOL    HW211613   6.266   6.010   6.401
 3572SOL     OW11614   5.848   3.263   3.733
 3572SOL    HW111615   5.813   3.319   3.658
 3572SOL    HW211616   5.916   3.315   3.785
 3573SOL     OW11617   1.224   4.342   3.691
 3573SOL    HW111618   1.190   4.397   3.767
 3573SOL    HW211619   1.154   4.335   3.621
 3574SOL     OW11620   0.295   5.079   0.374
 3574SOL    HW111621   0.277   5.009   0.305
 3574SOL    HW211622   0.291   5.038   0.465
 3575SOL     OW11623   6.208   5.357   3.321
 3575SOL    HW111624   6.226   5.298   3.400
 3575SOL    HW211625   6.196   5.301   3.239
 3576SOL     OW11626   0.374   1.362   6.305
 3576SOL    HW111627   0.413   1.334   6.217
 3576SOL    HW211628   0.290   1.311   6.321
 3577SOL     OW11629   0.653   2.329   6.772
 3577SOL    HW111630   0.669   2.367   6.863
 3577SOL    HW211631   0.684   2.394   6.703
 3578SOL     OW11632   3.291   4.109   6.811
 3578SOL    HW111633   3.373   4.115   6.869
 3578SOL    HW211634   3.298   4.175   6.737
 3579SOL     OW11635   6.901   3.399   5.360
 3579SOL    HW111636   6.927   3.442   5.273
 3579SOL    HW211637   6.965   3.427   5.432
 3580SOL     OW11638   5.863   1.746   1.659
 3580SOL    HW111639   5.948   1.723   1.611
 3580SOL    HW211640   5.797   1.671   1.648
 3581SOL     OW11641   6.775   0.303   2.367
 3581SOL    HW111642   6.862   0.256   2.358
 3581SOL    HW211643   6.704   0.238   2.392
 3582SOL     OW11644   0.900   0.934   5.930
 3582SOL    HW111645   0.949   0.887   5.857
 3582SOL    HW211646   0.805   0.950   5.903
 3583SOL     OW11647   1.002   4.579   0.010
 3583SOL    HW111648   1.075   4.536   0.064
 3583SOL    HW211649   0.963   4.512   6.971
 3584SOL     OW11650   6.087   6.113   6.110
 3584SOL    HW111651   6.180   6.086   6.087
 3584SOL    HW211652   6.088   6.178   6.185
 3585SOL     OW11653   3.590   4.997   4.671
 3585SOL    HW111654   3.547   5.088   4.664
 3585SOL    HW211655   3.569   4.945   4.589
 3586SOL     OW11656   6.478   3.041   5.516
 3586SOL    HW111657   6.437   3.063   5.604
 3586SOL    HW211658   6.426   2.966   5.474
 3587SOL     OW11659   2.910   6.869   0.574
 3587SOL    HW111660   2.876   6.815   0.651
 3587SOL    HW211661   2.959   6.810   0.511
 3588SOL     OW11662   1.666   2.119   5.670
 3588SOL    HW111663   1.722   2.167   5.602
 3588SOL    HW211664   1.676   2.166   5.759
 3589SOL     OW11665   3.394   0.898   4.447
 3589SOL    HW111666   3.318   0.911   4.384
 3589SOL    HW211667   3.406   0.801   4.466
 3590SOL     OW11668   1.294   4.720   6.178
 3590SOL    HW111669   1.255   4.812   6.187
 3590SOL    HW211670   1.226   4.659   6.138
 3591SOL     OW11671   5.527   3.159   5.932
 3591SOL    HW111672   5.591   3.096   5.887
 3591SOL    HW211673   5.451   3.178   5.871
 3592SOL     OW11674   5.309   3.299   2.583
 3592SOL    HW111675   5.264   3.338   2.663
 3592SOL    HW211676   5.392   3.251   2.612
 3593SOL     OW11677   1.899   6.656   4.212
 3593SOL    HW111678   1.947   6.598   4.146
 3593SOL    HW211679   1.957   6.668   4.293
 3594SOL     OW11680   2.348   1.235   3.707
 3594SOL    HW111681   2.344   1.143   3.669
 3594SOL    HW211682   2.274   1.291   3.668
 3595SOL     OW11683   2.331   6.681   5.022
 3595SOL    HW111684   2.389   6.698   5.102
 3595SOL    HW211685   2.295   6.588   5.026
 3596SOL     OW11686   6.624   1.064   3.012
 3596SOL    HW111687   6.711   1.015   3.019
 3596SOL    HW211688   6.554   1.002   2.977
 3597SOL     OW11689   3.673   6.152   4.366
 3597SOL    HW111690   3.722   6.117   4.446
 3597SOL    HW211691   3.621   6.078   4.323
 3598SOL     OW11692   1.119   0.145   5.504
 3598SOL    HW111693   1.180   0.202   5.449
 3598SOL    HW211694   1.098   0.061   5.454
 3599SOL     OW11695   0.367   2.016   5.720
 3599SOL    HW111696   0.358   2.090   5.652
 3599SOL    HW211697   0.413   2.051   5.801
 3600SOL     OW11698   6.435   3.147   1.089
 3600SOL    HW111699   6.422   3.246   1.100
 3600SOL    HW211700   6.508   3.116   1.150
 3601SOL     OW11701   0.042   3.973   0.583
 3601SOL    HW111702   0.119   3.970   0.646
 3601SOL    HW211703   0.025   3.881   0.546
 3602SOL     OW11704   1.698   0.821   0.426
 3602SOL    HW111705   1.661   0.906   0.389
 3602SOL    HW211706   1.784   0.799   0.380
 3603SOL     OW11707   4.001   5.112   4.191
 3603SOL    HW111708   3.980   5.029   4.243
 3603SOL    HW211709   4.062   5.089   4.116
 3604SOL     OW11710   0.113   2.684   2.963
 3604SOL    HW111711   0.027   2.639   2.940
 3604SOL    HW211712   0.119   2.695   3.062
 3605SOL     OW11713   6.236   4.498   6.079
 3605SOL    HW111714   6.139   4.479   6.095
 3605SOL    HW211715   6.245   4.582   6.026
 3606SOL     OW11716   6.772   4.708   6.184
 3606SOL    HW111717   6.837   4.745   6.118
 3606SOL    HW211718   6.703   4.654   6.136
 3607SOL     OW11719   5.269   0.676   0.346
 3607SOL    HW111720   5.207   0.612   0.393
 3607SOL    HW211721   5.363   0.643   0.353
 3608SOL     OW11722   6.986   1.436   1.727
 3608SOL    HW111723   0.055   1.404   1.743
 3608SOL    HW211724   6.973   1.524   1.774
 3609SOL     OW11725   6.863   1.106   4.106
 3609SOL    HW111726   6.840   1.190   4.058
 3609SOL    HW211727   6.788   1.040   4.095
 3610SOL     OW11728   0.902   6.738   4.530
 3610SOL    HW111729   0.996   6.702   4.531
 3610SOL    HW211730   0.864   6.732   4.622
 3611SOL     OW11731   3.618   5.177   5.256
 3611SOL    HW111732   3.688   5.137   5.315
 3611SOL    HW211733   3.659   5.204   5.169
 3612SOL     OW11734   1.142   6.312   6.329
 3612SOL    HW111735   1.097   6.253   6.397
 3612SOL    HW211736   1.132   6.272   6.238
 3613SOL     OW11737   5.115   5.129   0.805
 3613SOL    HW111738   5.199   5.094   0.763
 3613SOL    HW211739   5.126   5.131   0.904
 3614SOL     OW11740   3.820   3.327   2.890
 3614SOL    HW111741   3.744   3.267   2.864
 3614SOL    HW211742   3.902   3.303   2.838
 3615SOL     OW11743   6.083   5.249   5.984
 3615SOL    HW111744   6.071   5.322   6.051
 3615SOL    HW211745   6.039   5.166   6.017
 3616SOL     OW11746   6.543   2.219   6.863
 3616SOL    HW111747   6.462   2.164   6.885
 3616SOL    HW211748   6.541   2.244   6.766
 3617SOL     OW11749   5.466   1.953   6.315
 3617SOL    HW111750   5.379   2.000   6.326
 3617SOL    HW211751   5.506   1.934   6.405
 3618SOL     OW11752   1.222   2.013   5.810
 3618SOL    HW111753   1.141   1.982   5.760
 3618SOL    HW211754   1.258   1.938   5.865
 3619SOL     OW11755   5.891   2.257   4.046
 3619SOL    HW111756   5.807   2.274   4.098
 3619SOL    HW211757   5.969   2.254   4.108
 3620SOL     OW11758   5.467   6.865   5.616
 3620SOL    HW111759   5.461   6.795   5.687
 3620SOL    HW211760   5.377   6.877   5.574
 3621SOL     OW11761   3.028   3.067   5.976
 3621SOL    HW111762   2.973   2.994   6.018
 3621SOL    HW211763   3.115   3.028   5.943
 3622SOL     OW11764   0.877   1.573   3.170
 3622SOL    HW111765   0.778   1.558   3.179
 3622SOL    HW211766   0.914   1.602   3.258
 3623SOL     OW11767   6.268   5.486   4.096
 3623SOL    HW111768   6.243   5.525   4.185
 3623SOL    HW211769   6.219   5.401   4.082
 3624SOL     OW11770   2.111   6.293   2.809
 3624SOL    HW111771   2.025   6.301   2.759
 3624SOL    HW211772   2.109   6.211   2.866
 3625SOL     OW11773   6.324   3.110   6.300
 3625SOL    HW111774   6.342   3.035   6.237
 3625SOL    HW211775   6.229   3.140   6.291
 3626SOL     OW11776   2.360   3.726   5.374
 3626SOL    HW111777   2.318   3.796   5.431
 3626SOL    HW211778   2.454   3.751   5.354
 3627SOL     OW11779   3.910   3.502   3.626
 3627SOL    HW111780   3.944   3.593   3.603
 3627SOL    HW211781   3.922   3.486   3.724
 3628SOL     OW11782   2.131   6.539   1.926
 3628SOL    HW111783   2.051   6.501   1.972
 3628SOL    HW211784   2.196   6.574   1.994
 3629SOL     OW11785   6.910   1.856   5.160
 3629SOL    HW111786   6.845   1.928   5.137
 3629SOL    HW211787   7.003   1.888   5.142
 3630SOL     OW11788   5.906   2.481   4.329
 3630SOL    HW111789   5.939   2.500   4.421
 3630SOL    HW211790   5.891   2.383   4.317
 3631SOL     OW11791   2.310   0.214   4.583
 3631SOL    HW111792   2.217   0.184   4.607
 3631SOL    HW211793   2.367   0.215   4.665
 3632SOL     OW11794   5.133   1.159   0.744
 3632SOL    HW111795   5.072   1.234   0.771
 3632SOL    HW211796   5.193   1.190   0.670
 3633SOL     OW11797   3.193   2.492   5.862
 3633SOL    HW111798   3.240   2.417   5.908
 3633SOL    HW211799   3.140   2.456   5.785
 3634SOL     OW11800   0.700   6.062   4.371
 3634SOL    HW111801   0.765   6.017   4.309
 3634SOL    HW211802   0.737   6.150   4.400
 3635SOL     OW11803   3.832   0.741   5.407
 3635SOL    HW111804   3.928   0.717   5.417
 3635SOL    HW211805   3.815   0.830   5.450
 3636SOL     OW11806   0.172   5.838   5.883
 3636SOL    HW111807   0.247   5.818   5.821
 3636SOL    HW211808   0.172   5.936   5.905
 3637SOL     OW11809   5.923   1.838   0.952
 3637SOL    HW111810   5.829   1.806   0.965
 3637SOL    HW211811   5.980   1.761   0.923
 3638SOL     OW11812   6.555   4.889   4.267
 3638SOL    HW111813   6.499   4.869   4.347
 3638SOL    HW211814   6.517   4.841   4.188
 3639SOL     OW11815   3.768   3.785   1.075
 3639SOL    HW111816   3.796   3.873   1.034
 3639SOL    HW211817   3.684   3.754   1.031
 3640SOL     OW11818   3.203   6.258   6.729
 3640SOL    HW111819   3.276   6.309   6.774
 3640SOL    HW211820   3.227   6.241   6.634
 3641SOL     OW11821   3.953   2.099   4.768
 3641SOL    HW111822   4.007   2.180   4.742
 3641SOL    HW211823   4.014   2.020   4.778
 3642SOL     OW11824   4.928   1.410   5.460
 3642SOL    HW111825   4.946   1.500   5.497
 3642SOL    HW211826   4.843   1.412   5.407
 3643SOL     OW11827   2.831   5.660   4.812
 3643SOL    HW111828   2.733   5.678   4.816
 3643SOL    HW211829   2.881   5.746   4.803
 3644SOL     OW11830   6.607   1.065   1.526
 3644SOL    HW111831   6.566   1.132   1.588
 3644SOL    HW211832   6.666   1.112   1.461
 3645SOL     OW11833   5.609   1.658   4.364
 3645SOL    HW111834   5.575   1.594   4.432
 3645SOL    HW211835   5.662   1.730   4.409
 3646SOL     OW11836   6.928   4.767   5.984
 3646SOL    HW111837   6.923   4.691   5.918
 3646SOL    HW211838   7.014   4.816   5.971
 3647SOL     OW11839   1.393   3.481   0.443
 3647SOL    HW111840   1.376   3.407   0.377
 3647SOL    HW211841   1.489   3.506   0.441
 3648SOL     OW11842   3.457   5.200   2.876
 3648SOL    HW111843   3.424   5.124   2.932
 3648SOL    HW211844   3.435   5.182   2.780
 3649SOL     OW11845   4.297   2.783   1.242
 3649SOL    HW111846   4.312   2.701   1.298
 3649SOL    HW211847   4.263   2.857   1.300
 3650SOL     OW11848   6.743   5.506   0.670
 3650SOL    HW111849   6.804   5.484   0.746
 3650SOL    HW211850   6.747   5.604   0.652
 3651SOL     OW11851   1.295   5.891   2.759
 3651SOL    HW111852   1.267   5.953   2.686
 3651SOL    HW211853   1.249   5.917   2.844
 3652SOL     OW11854   5.007   6.243   3.682
 3652SOL    HW111855   4.921   6.241   3.733
 3652SOL    HW211856   4.991   6.209   3.589
 3653SOL     OW11857   6.441   0.821   3.200
 3653SOL    HW111858   6.540   0.825   3.187
 3653SOL    HW211859   6.401   0.756   3.135
 3654SOL     OW11860   2.257   6.142   6.884
 3654SOL    HW111861   2.264   6.054   6.932
 3654SOL    HW211862   2.262   6.216   6.951
 3655SOL     OW11863   1.208   0.020   3.838
 3655SOL    HW111864   1.143   0.055   3.770
 3655SOL    HW211865   1.159   6.986   3.903
 3656SOL     OW11866   1.465   2.789   1.359
 3656SOL    HW111867   1.382   2.736   1.341
 3656SOL    HW211868   1.487   2.846   1.280
 3657SOL     OW11869   4.517   5.776   5.968
 3657SOL    HW111870   4.455   5.817   5.901
 3657SOL    HW211871   4.581   5.715   5.922
 3658SOL     OW11872   1.519   5.888   4.512
 3658SOL    HW111873   1.571   5.939   4.444
 3658SOL    HW211874   1.488   5.801   4.473
 3659SOL     OW11875   3.028   3.998   6.249
 3659SOL    HW111876   2.987   3.926   6.192
 3659SOL    HW211877   3.030   4.084   6.197
 3660SOL     OW11878   5.299   6.217   2.228
 3660SOL    HW111879   5.372   6.151   2.209
 3660SOL    HW211880   5.241   6.181   2.302
 3661SOL     OW11881   4.730   2.335   6.667
 3661SOL    HW111882   4.647   2.367   6.621
 3661SOL    HW211883   4.810   2.368   6.616
 3662SOL     OW11884   3.326   0.397   4.084
 3662SOL    HW111885   3.306   0.466   4.014
 3662SOL    HW211886   3.273   0.416   4.166
 3663SOL     OW11887   1.431   1.316   0.565
 3663SOL    HW111888   1.363   1.333   0.495
 3663SOL    HW211889   1.436   1.218   0.585
 3664SOL     OW11890   5.022   1.630   1.227
 3664SOL    HW111891   5.109   1.652   1.272
 3664SOL    HW211892   5.030   1.651   1.129
 3665SOL     OW11893   0.605   6.094   5.801
 3665SOL    HW111894   0.647   6.184   5.809
 3665SOL    HW211895   0.506   6.103   5.797
 3666SOL     OW11896   2.084   4.319   3.565
 3666SOL    HW111897   2.003   4.362   3.604
 3666SOL    HW211898   2.080   4.220   3.579
 3667SOL     OW11899   6.069   6.926   0.556
 3667SOL    HW111900   5.978   6.964   0.538
 3667SOL    HW211901   6.114   6.981   0.626
 3668SOL     OW11902   1.833   0.319   1.488
 3668SOL    HW111903   1.896   0.289   1.560
 3668SOL    HW211904   1.860   0.278   1.401
 3669SOL     OW11905   5.871   1.373   4.351
 3669SOL    HW111906   5.797   1.347   4.289
 3669SOL    HW211907   5.862   1.323   4.437
 3670SOL     OW11908   2.423   5.401   0.519
 3670SOL    HW111909   2.466   5.311   0.528
 3670SOL    HW211910   2.474   5.468   0.572
 3671SOL     OW11911   5.968   0.830   3.405
 3671SOL    HW111912   5.939   0.827   3.501
 3671SOL    HW211913   6.010   0.919   3.386
 3672SOL     OW11914   5.780   1.593   0.839
 3672SOL    HW111915   5.744   1.620   0.750
 3672SOL    HW211916   5.709   1.545   0.891
 3673SOL     OW11917   3.630   0.640   5.784
 3673SOL    HW111918   3.580   0.708   5.730
 3673SOL    HW211919   3.717   0.620   5.739
 3674SOL     OW11920   0.729   0.412   5.472
 3674SOL    HW111921   0.660   0.443   5.538
 3674SOL    HW211922   0.791   0.347   5.517
 3675SOL     OW11923   1.954   2.828   5.275
 3675SOL    HW111924   1.931   2.924   5.292
 3675SOL    HW211925   2.046   2.822   5.238
 3676SOL     OW11926   4.281   5.060   4.479
 3676SOL    HW111927   4.294   5.041   4.576
 3676SOL    HW211928   4.261   4.975   4.430
 3677SOL     OW11929   0.778   5.975   2.683
 3677SOL    HW111930   0.723   6.037   2.739
 3677SOL    HW211931   0.768   5.882   2.718
 3678SOL     OW11932   0.655   3.186   4.018
 3678SOL    HW111933   0.603   3.269   3.997
 3678SOL    HW211934   0.745   3.191   3.975
 3679SOL     OW11935   0.997   1.097   2.810
 3679SOL    HW111936   0.941   1.037   2.754
 3679SOL    HW211937   0.964   1.191   2.802
 3680SOL     OW11938   6.473   3.115   4.137
 3680SOL    HW111939   6.487   3.106   4.235
 3680SOL    HW211940   6.376   3.103   4.116
 3681SOL     OW11941   0.536   0.697   5.885
 3681SOL    HW111942   0.605   0.685   5.956
 3681SOL    HW211943   0.446   0.711   5.927
 3682SOL     OW11944   6.178   2.490   5.940
 3682SOL    HW111945   6.104   2.429   5.966
 3682SOL    HW211946   6.257   2.436   5.911
 3683SOL     OW11947   6.820   0.432   4.817
 3683SOL    HW111948   6.886   0.468   4.751
 3683SOL    HW211949   6.866   0.416   4.904
 3684SOL     OW11950   1.227   3.065   0.634
 3684SOL    HW111951   1.249   3.162   0.633
 3684SOL    HW211952   1.255   3.025   0.721
 3685SOL     OW11953   6.096   6.377   5.543
 3685SOL    HW111954   6.146   6.463   5.529
 3685SOL    HW211955   5.999   6.391   5.523
 3686SOL     OW11956   6.431   5.144   3.632
 3686SOL    HW111957   6.452   5.160   3.729
 3686SOL    HW211958   6.479   5.211   3.576
 3687SOL     OW11959   3.008   6.025   5.844
 3687SOL    HW111960   2.934   5.963   5.868
 3687SOL    HW211961   2.973   6.097   5.784
 3688SOL     OW11962   1.064   4.009   0.189
 3688SOL    HW111963   0.992   4.073   0.162
 3688SOL    HW211964   1.054   3.924   0.137
 3689SOL     OW11965   1.147   0.654   5.448
 3689SOL    HW111966   1.181   0.745   5.425
 3689SOL    HW211967   1.078   0.627   5.380
 3690SOL     OW11968   3.915   0.420   6.296
 3690SOL    HW111969   3.947   0.507   6.259
 3690SOL    HW211970   3.882   0.362   6.221
 3691SOL     OW11971   2.070   3.124   6.761
 3691SOL    HW111972   2.014   3.085   6.688
 3691SOL    HW211973   2.166   3.124   6.733
 3692SOL     OW11974   1.214   5.902   4.547
 3692SOL    HW111975   1.300   5.860   4.516
 3692SOL    HW211976   1.231   5.954   4.631
 3693SOL     OW11977   1.703   3.020   2.635
 3693SOL    HW111978   1.776   3.085   2.616
 3693SOL    HW211979   1.741   2.935   2.673
 3694SOL     OW11980   1.158   4.827   2.831
 3694SOL    HW111981   1.117   4.867   2.913
 3694SOL    HW211982   1.152   4.893   2.756
 3695SOL     OW11983   0.340   2.453   2.642
 3695SOL    HW111984   0.410   2.420   2.706
 3695SOL    HW211985   0.253   2.463   2.690
 3696SOL     OW11986   4.055   5.836   5.366
 3696SOL    HW111987   4.133   5.853   5.427
 3696SOL    HW211988   4.077   5.868   5.274
 3697SOL     OW11989   6.955   5.934   3.624
 3697SOL    HW111990   6.908   6.022   3.636
 3697SOL    HW211991   7.022   5.922   3.698
 3698SOL     OW11992   3.351   6.395   4.880
 3698SOL    HW111993   3.252   6.409   4.886
 3698SOL    HW211994   3.375   6.308   4.922
 3699SOL     OW11995   6.487   3.601   3.262
 3699SOL    HW111996   6.572   3.549   3.255
 3699SOL    HW211997   6.443   3.605   3.173
 3700SOL     OW11998   5.592   0.768   3.817
 3700SOL    HW111999   5.563   0.840   3.754
 3700SOL    HW212000   5.566   0.679   3.779
 3701SOL     OW12001   0.550   1.063   3.419
 3701SOL    HW112002   0.458   1.028   3.402
 3701SOL    HW212003   0.557   1.156   3.385
 3702SOL     OW12004   4.621   0.002   2.089
 3702SOL    HW112005   4.525   0.000   2.120
 3702SOL    HW212006   4.624   0.025   1.992
 3703SOL     OW12007   4.171   3.703   6.180
 3703SOL    HW112008   4.239   3.695   6.106
 3703SOL    HW212009   4.178   3.794   6.221
 3704SOL     OW12010   2.954   1.207   1.964
 3704SOL    HW112011   3.022   1.147   1.923
 3704SOL    HW212012   2.997   1.293   1.992
 3705SOL     OW12013   5.029   6.442   3.862
 3705SOL    HW112014   5.007   6.387   3.781
 3705SOL    HW212015   4.946   6.489   3.893
 3706SOL     OW12016   1.079   2.478   4.769
 3706SOL    HW112017   1.060   2.450   4.675
 3706SOL    HW212018   1.140   2.557   4.768
 3707SOL     OW12019   5.415   3.258   5.063
 3707SOL    HW112020   5.348   3.185   5.081
 3707SOL    HW212021   5.379   3.345   5.097
 3708SOL     OW12022   5.974   0.698   6.242
 3708SOL    HW112023   5.877   0.680   6.223
 3708SOL    HW212024   6.025   0.703   6.156
 3709SOL     OW12025   3.807   0.882   6.859
 3709SOL    HW112026   3.741   0.851   6.927
 3709SOL    HW212027   3.897   0.888   6.900
 3710SOL     OW12028   6.698   5.917   0.353
 3710SOL    HW112029   6.769   5.900   0.284
 3710SOL    HW212030   6.671   6.013   0.351
 3711SOL     OW12031   6.917   5.755   2.026
 3711SOL    HW112032   6.821   5.777   2.007
 3711SOL    HW212033   6.923   5.706   2.113
 3712SOL     OW12034   6.640   5.838   6.806
 3712SOL    HW112035   6.695   5.776   6.750
 3712SOL    HW212036   6.694   5.919   6.829
 3713SOL     OW12037   1.618   6.390   4.792
 3713SOL    HW112038   1.631   6.485   4.822
 3713SOL    HW212039   1.575   6.338   4.866
 3714SOL     OW12040   5.158   5.962   4.841
 3714SOL    HW112041   5.134   6.023   4.916
 3714SOL    HW212042   5.257   5.970   4.823
 3715SOL     OW12043   5.642   3.907   4.734
 3715SOL    HW112044   5.725   3.895   4.789
 3715SOL    HW212045   5.562   3.888   4.791
 3716SOL     OW12046   0.238   6.656   4.315
 3716SOL    HW112047   0.309   6.632   4.249
 3716SOL    HW212048   0.240   6.754   4.332
 3717SOL     OW12049   6.426   5.545   0.438
 3717SOL    HW112050   6.457   5.491   0.516
 3717SOL    HW212051   6.385   5.631   0.471
 3718SOL     OW12052   2.329   6.529   5.943
 3718SOL    HW112053   2.310   6.624   5.918
 3718SOL    HW212054   2.252   6.491   5.993
 3719SOL     OW12055   5.183   4.312   1.051
 3719SOL    HW112056   5.128   4.358   0.982
 3719SOL    HW212057   5.259   4.264   1.008
 3720SOL     OW12058   5.707   1.887   6.603
 3720SOL    HW112059   5.623   1.835   6.589
 3720SOL    HW212060   5.685   1.983   6.618
 3721SOL     OW12061   5.277   4.649   0.311
 3721SOL    HW112062   5.246   4.660   0.406
 3721SOL    HW212063   5.284   4.552   0.290
 3722SOL     OW12064   0.286   6.524   2.318
 3722SOL    HW112065   0.206   6.580   2.339
 3722SOL    HW212066   0.257   6.440   2.271
 3723SOL     OW12067   6.146   6.397   2.026
 3723SOL    HW112068   6.175   6.302   2.018
 3723SOL    HW212069   6.209   6.446   2.086
 3724SOL     OW12070   2.397   5.143   6.843
 3724SOL    HW112071   2.468   5.163   6.911
 3724SOL    HW212072   2.387   5.222   6.782
 3725SOL     OW12073   5.298   6.171   6.453
 3725SOL    HW112074   5.370   6.169   6.522
 3725SOL    HW212075   5.309   6.094   6.391
 3726SOL     OW12076   6.459   4.343   1.564
 3726SOL    HW112077   6.444   4.258   1.612
 3726SOL    HW212078   6.404   4.345   1.480
 3727SOL     OW12079   0.049   2.822   6.339
 3727SOL    HW112080   0.130   2.807   6.282
 3727SOL    HW212081   7.008   2.748   6.324
 3728SOL     OW12082   1.153   3.461   0.242
 3728SOL    HW112083   1.188   3.509   0.322
 3728SOL    HW212084   1.053   3.454   0.248
 3729SOL     OW12085   0.854   2.373   4.191
 3729SOL    HW112086   0.940   2.328   4.171
 3729SOL    HW212087   0.858   2.469   4.162
 3730SOL     OW12088   3.064   6.146   0.175
 3730SOL    HW112089   2.979   6.188   0.207
 3730SOL    HW212090   3.055   6.121   0.079
 3731SOL     OW12091   4.913   0.386   0.536
 3731SOL    HW112092   4.881   0.377   0.630
 3731SOL    HW212093   4.836   0.405   0.475
 3732SOL     OW12094   1.703   3.083   6.023
 3732SOL    HW112095   1.666   2.991   6.015
 3732SOL    HW212096   1.718   3.120   5.931
 3733SOL     OW12097   2.157   3.977   1.540
 3733SOL    HW112098   2.238   3.955   1.487
 3733SOL    HW212099   2.077   3.977   1.480
 3734SOL     OW12100   3.931   1.387   1.973
 3734SOL    HW112101   3.977   1.476   1.978
 3734SOL    HW212102   3.888   1.366   2.061
 3735SOL     OW12103   1.174   1.728   3.144
 3735SOL    HW112104   1.207   1.634   3.135
 3735SOL    HW212105   1.118   1.752   3.065
 3736SOL     OW12106   0.586   3.353   0.974
 3736SOL    HW112107   0.512   3.319   1.032
 3736SOL    HW212108   0.577   3.452   0.964
 3737SOL     OW12109   4.831   0.337   3.075
 3737SOL    HW112110   4.793   0.244   3.072
 3737SOL    HW212111   4.905   0.340   3.142
 3738SOL     OW12112   6.602   6.433   3.426
 3738SOL    HW112113   6.565   6.448   3.335
 3738SOL    HW212114   6.580   6.510   3.485
 3739SOL     OW12115   1.555   4.404   2.406
 3739SOL    HW112116   1.614   4.452   2.469
 3739SOL    HW212117   1.603   4.324   2.369
 3740SOL     OW12118   4.736   0.728   6.651
 3740SOL    HW112119   4.770   0.821   6.636
 3740SOL    HW212120   4.812   0.670   6.681
 3741SOL     OW12121   4.641   3.334   1.658
 3741SOL    HW112122   4.580   3.279   1.601
 3741SOL    HW212123   4.621   3.431   1.644
 3742SOL     OW12124   2.750   2.157   5.678
 3742SOL    HW112125   2.834   2.104   5.665
 3742SOL    HW212126   2.684   2.133   5.606
 3743SOL     OW12127   5.430   4.775   1.067
 3743SOL    HW112128   5.451   4.871   1.052
 3743SOL    HW212129   5.491   4.718   1.012
 3744SOL     OW12130   0.698   5.993   3.308
 3744SOL    HW112131   0.709   5.923   3.378
 3744SOL    HW212132   0.632   5.961   3.239
 3745SOL     OW12133   2.603   5.512   2.946
 3745SOL    HW112134   2.638   5.442   3.008
 3745SOL    HW212135   2.616   5.602   2.987
 3746SOL     OW12136   4.249   1.271   1.879
 3746SOL    HW112137   4.200   1.208   1.939
 3746SOL    HW212138   4.193   1.290   1.798
 3747SOL     OW12139   3.189   6.795   5.847
 3747SOL    HW112140   3.235   6.788   5.759
 3747SOL    HW212141   3.185   6.705   5.890
 3748SOL     OW12142   5.545   0.289   1.902
 3748SOL    HW112143   5.519   0.378   1.938
 3748SOL    HW212144   5.503   0.217   1.958
 3749SOL     OW12145   1.607   6.428   4.117
 3749SOL    HW112146   1.687   6.444   4.059
 3749SOL    HW212147   1.577   6.514   4.156
 3750SOL     OW12148   1.774   3.995   0.362
 3750SOL    HW112149   1.751   4.024   0.269
 3750SOL    HW212150   1.852   3.933   0.359
 3751SOL     OW12151   0.146   3.642   3.136
 3751SOL    HW112152   0.097   3.588   3.068
 3751SOL    HW212153   0.095   3.641   3.222
 3752SOL     OW12154   4.832   0.793   5.524
 3752SOL    HW112155   4.895   0.810   5.600
 3752SOL    HW212156   4.739   0.820   5.550
 3753SOL     OW12157   5.961   0.248   4.828
 3753SOL    HW112158   6.004   0.330   4.790
 3753SOL    HW212159   6.012   0.219   4.909
 3754SOL     OW12160   2.026   0.611   2.016
 3754SOL    HW112161   2.081   0.686   2.054
 3754SOL    HW212162   2.015   0.624   1.918
 3755SOL     OW12163   3.138   5.247   4.745
 3755SOL    HW112164   3.089   5.161   4.757
 3755SOL    HW212165   3.081   5.323   4.774
 3756SOL     OW12166   3.237   5.796   6.962
 3756SOL    HW112167   3.284   5.786   0.025
 3756SOL    HW212168   3.217   5.893   6.946
 3757SOL     OW12169   0.018   4.880   1.891
 3757SOL    HW112170   0.005   4.782   1.875
 3757SOL    HW212171   6.969   4.913   1.951
 3758SOL     OW12172   2.098   1.187   4.599
 3758SOL    HW112173   2.109   1.089   4.612
 3758SOL    HW212174   2.020   1.203   4.538
 3759SOL     OW12175   4.641   0.900   4.641
 3759SOL    HW112176   4.688   0.902   4.552
 3759SOL    HW212177   4.694   0.951   4.708
 3760SOL     OW12178   0.328   0.449   3.763
 3760SOL    HW112179   0.255   0.501   3.717
 3760SOL    HW212180   0.415   0.465   3.716
 3761SOL     OW12181   6.194   1.255   4.578
 3761SOL    HW112182   6.166   1.351   4.590
 3761SOL    HW212183   6.293   1.251   4.567
 3762SOL     OW12184   1.302   4.005   2.282
 3762SOL    HW112185   1.280   4.045   2.193
 3762SOL    HW212186   1.374   3.937   2.272
 3763SOL     OW12187   6.468   3.833   0.461
 3763SOL    HW112188   6.531   3.769   0.417
 3763SOL    HW212189   6.504   3.926   0.453
 3764SOL     OW12190   2.109   0.553   2.805
 3764SOL    HW112191   2.043   0.482   2.779
 3764SOL    HW212192   2.095   0.634   2.748
 3765SOL     OW12193   6.057   2.152   1.779
 3765SOL    HW112194   6.073   2.053   1.778
 3765SOL    HW212195   6.142   2.200   1.757
 3766SOL     OW12196   1.913   2.678   4.270
 3766SOL    HW112197   1.925   2.768   4.228
 3766SOL    HW212198   1.864   2.688   4.357
 3767SOL     OW12199   3.371   4.121   6.285
 3767SOL    HW112200   3.402   4.044   6.228
 3767SOL    HW212201   3.451   4.176   6.311
 3768SOL     OW12202   1.704   0.631   4.768
 3768SOL    HW112203   1.659   0.705   4.818
 3768SOL    HW212204   1.764   0.670   4.697
 3769SOL     OW12205   5.381   5.225   4.889
 3769SOL    HW112206   5.336   5.153   4.835
 3769SOL    HW212207   5.324   5.307   4.890
 3770SOL     OW12208   1.099   1.097   0.135
 3770SOL    HW112209   1.123   1.183   0.090
 3770SOL    HW212210   1.133   1.021   0.080
 3771SOL     OW12211   6.378   4.631   0.679
 3771SOL    HW112212   6.375   4.537   0.645
 3771SOL    HW212213   6.374   4.631   0.779
 3772SOL     OW12214   1.556   6.169   0.284
 3772SOL    HW112215   1.486   6.228   0.244
 3772SOL    HW212216   1.623   6.226   0.334
 3773SOL     OW12217   5.175   4.278   5.842
 3773SOL    HW112218   5.174   4.214   5.765
 3773SOL    HW212219   5.194   4.370   5.809
 3774SOL     OW12220   5.902   4.874   2.097
 3774SOL    HW112221   5.878   4.795   2.040
 3774SOL    HW212222   5.969   4.846   2.166
 3775SOL     OW12223   3.687   4.967   3.511
 3775SOL    HW112224   3.622   4.976   3.586
 3775SOL    HW212225   3.773   4.930   3.545
 3776SOL     OW12226   3.799   2.709   6.616
 3776SOL    HW112227   3.786   2.678   6.710
 3776SOL    HW212228   3.726   2.774   6.592
 3777SOL     OW12229   2.626   5.783   3.451
 3777SOL    HW112230   2.712   5.823   3.420
 3777SOL    HW212231   2.641   5.687   3.476
 3778SOL     OW12232   1.934   6.470   4.609
 3778SOL    HW112233   1.870   6.546   4.617
 3778SOL    HW212234   1.915   6.419   4.525
 3779SOL     OW12235   0.400   5.287   0.492
 3779SOL    HW112236   0.350   5.273   0.578
 3779SOL    HW212237   0.380   5.212   0.430
 3780SOL     OW12238   6.925   2.568   2.753
 3780SOL    HW112239   6.912   2.518   2.667
 3780SOL    HW212240   6.858   2.536   2.821
 3781SOL     OW12241   1.021   6.463   5.233
 3781SOL    HW112242   1.000   6.374   5.194
 3781SOL    HW212243   0.937   6.507   5.264
 3782SOL     OW12244   4.224   6.226   2.223
 3782SOL    HW112245   4.221   6.312   2.172
 3782SOL    HW212246   4.189   6.240   2.315
 3783SOL     OW12247   5.602   4.492   4.983
 3783SOL    HW112248   5.596   4.578   4.934
 3783SOL    HW212249   5.538   4.426   4.944
 3784SOL     OW12250   5.381   2.714   2.094
 3784SOL    HW112251   5.317   2.789   2.078
 3784SOL    HW212252   5.437   2.701   2.012
 3785SOL     OW12253   0.251   3.423   5.464
 3785SOL    HW112254   0.230   3.489   5.536
 3785SOL    HW212255   0.227   3.331   5.495
 3786SOL     OW12256   2.046   2.283   3.238
 3786SOL    HW112257   2.087   2.256   3.151
 3786SOL    HW212258   1.982   2.359   3.223
 3787SOL     OW12259   4.307   0.157   2.990
 3787SOL    HW112260   4.381   0.212   2.952
 3787SOL    HW212261   4.244   0.131   2.917
 3788SOL     OW12262   6.901   3.913   4.693
 3788SOL    HW112263   6.866   3.819   4.701
 3788SOL    HW212264   6.826   3.977   4.703
 3789SOL     OW12265   0.883   3.364   2.870
 3789SOL    HW112266   0.903   3.367   2.772
 3789SOL    HW212267   0.818   3.290   2.888
 3790SOL     OW12268   1.137   5.893   6.726
 3790SOL    HW112269   1.131   5.937   6.637
 3790SOL    HW212270   1.187   5.953   6.789
 3791SOL     OW12271   5.209   1.665   6.211
 3791SOL    HW112272   5.129   1.691   6.157
 3791SOL    HW212273   5.196   1.694   6.306
 3792SOL     OW12274   1.103   1.225   4.309
 3792SOL    HW112275   1.003   1.222   4.307
 3792SOL    HW212276   1.138   1.141   4.350
 3793SOL     OW12277   5.536   6.231   1.349
 3793SOL    HW112278   5.546   6.171   1.270
 3793SOL    HW212279   5.524   6.325   1.318
 3794SOL     OW12280   2.043   3.115   1.050
 3794SOL    HW112281   2.101   3.101   1.130
 3794SOL    HW212282   2.063   3.046   0.981
 3795SOL     OW12283   3.029   5.772   0.896
 3795SOL    HW112284   2.945   5.724   0.920
 3795SOL    HW212285   3.088   5.776   0.977
 3796SOL     OW12286   4.167   1.891   1.372
 3796SOL    HW112287   4.150   1.805   1.420
 3796SOL    HW212288   4.134   1.883   1.278
 3797SOL     OW12289   1.143   4.038   2.492
 3797SOL    HW112290   1.220   4.011   2.433
 3797SOL    HW212291   1.178   4.063   2.582
 3798SOL     OW12292   2.763   6.891   2.467
 3798SOL    HW112293   2.699   6.842   2.525
 3798SOL    HW212294   2.857   6.868   2.493
 3799SOL     OW12295   6.681   2.553   3.363
 3799SOL    HW112296   6.665   2.519   3.455
 3799SOL    HW212297   6.764   2.609   3.361
 3800SOL     OW12298   4.718   1.917   2.829
 3800SOL    HW112299   4.815   1.939   2.817
 3800SOL    HW212300   4.665   2.001   2.830
 3801SOL     OW12301   5.207   6.962   2.220
 3801SOL    HW112302   5.123   6.953   2.273
 3801SOL    HW212303   5.235   0.033   2.218
 3802SOL     OW12304   0.315   2.209   2.473
 3802SOL    HW112305   0.295   2.304   2.498
 3802SOL    HW212306   0.412   2.190   2.489
 3803SOL     OW12307   3.664   3.764   3.776
 3803SOL    HW112308   3.684   3.797   3.868
 3803SOL    HW212309   3.644   3.666   3.779
 3804SOL     OW12310   3.230   1.303   4.452
 3804SOL    HW112311   3.268   1.300   4.360
 3804SOL    HW212312   3.261   1.386   4.499
 3805SOL     OW12313   2.171   2.554   1.239
 3805SOL    HW112314   2.175   2.460   1.271
 3805SOL    HW212315   2.250   2.572   1.179
 3806SOL     OW12316   3.788   3.971   6.407
 3806SOL    HW112317   3.780   4.018   6.319
 3806SOL    HW212318   3.712   3.906   6.416
 3807SOL     OW12319   1.425   4.874   4.696
 3807SOL    HW112320   1.494   4.802   4.686
 3807SOL    HW212321   1.406   4.888   4.793
 3808SOL     OW12322   4.791   0.430   5.652
 3808SOL    HW112323   4.759   0.518   5.687
 3808SOL    HW212324   4.884   0.441   5.615
 3809SOL     OW12325   6.121   1.881   1.779
 3809SOL    HW112326   6.081   1.791   1.793
 3809SOL    HW212327   6.207   1.888   1.829
 3810SOL     OW12328   6.854   2.786   3.309
 3810SOL    HW112329   6.829   2.875   3.272
 3810SOL    HW212330   6.954   2.777   3.309
 3811SOL     OW12331   6.972   6.317   4.328
 3811SOL    HW112332   6.948   6.223   4.305
 3811SOL    HW212333   6.890   6.372   4.336
 3812SOL     OW12334   3.122   5.412   6.320
 3812SOL    HW112335   3.110   5.511   6.329
 3812SOL    HW212336   3.220   5.389   6.327
 3813SOL     OW12337   6.146   4.060   1.033
 3813SOL    HW112338   6.175   3.964   1.034
 3813SOL    HW212339   6.075   4.072   0.964
 3814SOL     OW12340   0.219   0.063   3.860
 3814SOL    HW112341   0.121   0.044   3.867
 3814SOL    HW212342   0.238   0.154   3.897
 3815SOL     OW12343   5.299   2.951   0.687
 3815SOL    HW112344   5.394   2.948   0.716
 3815SOL    HW212345   5.249   3.020   0.739
 3816SOL     OW12346   0.910   5.910   5.045
 3816SOL    HW112347   0.881   5.833   4.988
 3816SOL    HW212348   0.964   5.876   5.122
 3817SOL     OW12349   5.045   3.572   2.388
 3817SOL    HW112350   5.013   3.557   2.482
 3817SOL    HW212351   5.144   3.580   2.387
 3818SOL     OW12352   0.467   0.490   1.388
 3818SOL    HW112353   0.436   0.401   1.423
 3818SOL    HW212354   0.468   0.488   1.288
 3819SOL     OW12355   6.389   4.339   2.864
 3819SOL    HW112356   6.316   4.407   2.868
 3819SOL    HW212357   6.368   4.271   2.794
 3820SOL     OW12358   5.310   6.682   3.471
 3820SOL    HW112359   5.291   6.628   3.554
 3820SOL    HW212360   5.366   6.628   3.409
 3821SOL     OW12361   0.606   0.768   0.917
 3821SOL    HW112362   0.603   0.716   0.832
 3821SOL    HW212363   0.590   0.707   0.994
 3822SOL     OW12364   2.845   6.691   6.946
 3822SOL    HW112365   2.751   6.723   6.956
 3822SOL    HW212366   2.899   6.717   0.001
 3823SOL     OW12367   4.529   4.499   6.375
 3823SOL    HW112368   4.568   4.590   6.360
 3823SOL    HW212369   4.604   4.432   6.381
 3824SOL     OW12370   1.289   2.421   1.035
 3824SOL    HW112371   1.323   2.438   0.943
 3824SOL    HW212372   1.291   2.323   1.054
 3825SOL     OW12373   0.835   4.212   1.017
 3825SOL    HW112374   0.852   4.115   1.004
 3825SOL    HW212375   0.876   4.264   0.942
 3826SOL     OW12376   6.976   3.545   1.934
 3826SOL    HW112377   0.035   3.533   1.988
 3826SOL    HW212378   6.946   3.640   1.938
 3827SOL     OW12379   0.598   0.719   1.977
 3827SOL    HW112380   0.610   0.629   2.020
 3827SOL    HW212381   0.500   0.738   1.967
 3828SOL     OW12382   3.618   3.932   4.765
 3828SOL    HW112383   3.520   3.934   4.789
 3828SOL    HW212384   3.672   3.912   4.846
 3829SOL     OW12385   0.443   4.979   2.040
 3829SOL    HW112386   0.419   5.076   2.033
 3829SOL    HW212387   0.542   4.968   2.028
 3830SOL     OW12388   0.548   0.729   5.478
 3830SOL    HW112389   0.463   0.724   5.426
 3830SOL    HW212390   0.547   0.659   5.550
 3831SOL     OW12391   4.071   2.232   3.009
 3831SOL    HW112392   4.038   2.226   3.103
 3831SOL    HW212393   4.124   2.316   2.997
 3832SOL     OW12394   6.566   0.620   2.555
 3832SOL    HW112395   6.478   0.583   2.587
 3832SOL    HW212396   6.550   0.703   2.502
 3833SOL     OW12397   1.994   6.921   6.570
 3833SOL    HW112398   2.093   6.907   6.582
 3833SOL    HW212399   1.948   6.833   6.566
 3834SOL     OW12400   4.116   4.283   0.939
 3834SOL    HW112401   4.065   4.231   0.870
 3834SOL    HW212402   4.118   4.232   1.025
 3835SOL     OW12403   4.088   5.945   5.099
 3835SOL    HW112404   4.173   5.965   5.050
 3835SOL    HW212405   4.014   6.000   5.061
 3836SOL     OW12406   0.564   4.763   5.667
 3836SOL    HW112407   0.572   4.666   5.690
 3836SOL    HW212408   0.647   4.811   5.694
 3837SOL     OW12409   4.271   5.396   5.083
 3837SOL    HW112410   4.245   5.336   5.008
 3837SOL    HW212411   4.249   5.491   5.059
 3838SOL     OW12412   1.417   1.812   3.121
 3838SOL    HW112413   1.381   1.884   3.063
 3838SOL    HW212414   1.342   1.763   3.164
 3839SOL     OW12415   3.847   0.643   2.793
 3839SOL    HW112416   3.823   0.725   2.742
 3839SOL    HW212417   3.764   0.597   2.823
 3840SOL     OW12418   2.935   1.802   5.802
 3840SOL    HW112419   2.962   1.868   5.732
 3840SOL    HW212420   2.872   1.736   5.762
 3841SOL     OW12421   1.354   3.944   4.425
 3841SOL    HW112422   1.432   4.007   4.432
 3841SOL    HW212423   1.387   3.850   4.421
 3842SOL     OW12424   2.203   2.864   3.982
 3842SOL    HW112425   2.128   2.815   4.027
 3842SOL    HW212426   2.289   2.816   3.999
 3843SOL     OW12427   5.577   3.776   0.836
 3843SOL    HW112428   5.659   3.763   0.781
 3843SOL    HW212429   5.591   3.851   0.900
 3844SOL     OW12430   1.354   4.133   6.922
 3844SOL    HW112431   1.363   4.197   6.999
 3844SOL    HW212432   1.439   4.132   6.870
 3845SOL     OW12433   2.715   5.786   6.798
 3845SOL    HW112434   2.635   5.837   6.765
 3845SOL    HW212435   2.690   5.733   6.879
 3846SOL     OW12436   0.626   3.758   4.331
 3846SOL    HW112437   0.684   3.681   4.358
 3846SOL    HW212438   0.625   3.826   4.403
 3847SOL     OW12439   5.065   2.459   4.638
 3847SOL    HW112440   5.113   2.443   4.724
 3847SOL    HW212441   5.015   2.546   4.644
 3848SOL     OW12442   4.812   3.963   2.588
 3848SOL    HW112443   4.812   3.914   2.501
 3848SOL    HW212444   4.829   3.899   2.663
 3849SOL     OW12445   0.652   0.490   6.247
 3849SOL    HW112446   0.721   0.493   6.319
 3849SOL    HW212447   0.576   0.551   6.270
 3850SOL     OW12448   3.555   3.036   1.567
 3850SOL    HW112449   3.537   2.939   1.584
 3850SOL    HW212450   3.512   3.091   1.638
 3851SOL     OW12451   0.076   4.753   3.449
 3851SOL    HW112452   0.067   4.840   3.497
 3851SOL    HW212453   7.012   4.724   3.413
 3852SOL     OW12454   3.276   6.247   4.334
 3852SOL    HW112455   3.308   6.189   4.410
 3852SOL    HW212456   3.305   6.341   4.350
 3853SOL     OW12457   1.310   2.825   3.138
 3853SOL    HW112458   1.316   2.925   3.135
 3853SOL    HW212459   1.360   2.787   3.060
 3854SOL     OW12460   0.906   2.610   2.734
 3854SOL    HW112461   0.997   2.651   2.743
 3854SOL    HW212462   0.895   2.538   2.803
 3855SOL     OW12463   4.246   6.081   6.678
 3855SOL    HW112464   4.302   6.001   6.653
 3855SOL    HW212465   4.203   6.065   6.767
 3856SOL     OW12466   0.384   1.406   5.853
 3856SOL    HW112467   0.348   1.404   5.759
 3856SOL    HW212468   0.426   1.495   5.870
 3857SOL     OW12469   1.507   6.515   6.414
 3857SOL    HW112470   1.603   6.492   6.397
 3857SOL    HW212471   1.455   6.431   6.431
 3858SOL     OW12472   3.464   1.077   6.167
 3858SOL    HW112473   3.507   1.006   6.111
 3858SOL    HW212474   3.394   1.124   6.114
 3859SOL     OW12475   6.139   0.620   2.136
 3859SOL    HW112476   6.182   0.542   2.090
 3859SOL    HW212477   6.042   0.625   2.110
 3860SOL     OW12478   1.739   1.357   4.627
 3860SOL    HW112479   1.658   1.414   4.641
 3860SOL    HW212480   1.749   1.293   4.702
 3861SOL     OW12481   4.880   6.095   3.068
 3861SOL    HW112482   4.812   6.054   3.128
 3861SOL    HW212483   4.849   6.186   3.039
 3862SOL     OW12484   0.503   0.315   4.753
 3862SOL    HW112485   0.464   0.393   4.704
 3862SOL    HW212486   0.599   0.303   4.725
 3863SOL     OW12487   6.103   1.573   6.851
 3863SOL    HW112488   6.085   1.600   6.756
 3863SOL    HW212489   6.178   1.629   6.887
 3864SOL     OW12490   2.440   0.684   5.279
 3864SOL    HW112491   2.404   0.592   5.298
 3864SOL    HW212492   2.470   0.726   5.365
 3865SOL     OW12493   4.165   1.226   1.268
 3865SOL    HW112494   4.077   1.251   1.230
 3865SOL    HW212495   4.151   1.175   1.354
 3866SOL     OW12496   4.014   0.831   0.036
 3866SOL    HW112497   3.985   0.737   0.057
 3866SOL    HW212498   3.975   0.894   0.102
 3867SOL     OW12499   0.734   4.201   3.334
 3867SOL    HW112500   0.706   4.110   3.363
 3867SOL    HW212501   0.765   4.253   3.414
 3868SOL     OW12502   3.538   6.925   0.020
 3868SOL    HW112503   3.492   6.851   6.996
 3868SOL    HW212504   3.482   6.953   0.099
 3869SOL     OW12505   6.744   3.056   4.084
 3869SOL    HW112506   6.767   3.029   3.991
 3869SOL    HW212507   6.649   3.089   4.087
 3870SOL     OW12508   0.116   6.290   0.821
 3870SOL    HW112509   0.214   6.308   0.819
 3870SOL    HW212510   0.072   6.335   0.744
 3871SOL     OW12511   3.536   0.686   3.051
 3871SOL    HW112512   3.491   0.744   3.119
 3871SOL    HW212513   3.574   0.605   3.095
 3872SOL     OW12514   3.156   3.507   3.882
 3872SOL    HW112515   3.143   3.508   3.783
 3872SOL    HW212516   3.077   3.550   3.926
 3873SOL     OW12517   5.713   4.447   1.203
 3873SOL    HW112518   5.785   4.502   1.159
 3873SOL    HW212519   5.742   4.422   1.295
 3874SOL     OW12520   4.266   0.127   7.020
 3874SOL    HW112521   4.312   0.045   6.988
 3874SOL    HW212522   4.188   0.102   0.052
 3875SOL     OW12523   2.093   3.069   3.139
 3875SOL    HW112524   2.128   3.163   3.141
 3875SOL    HW212525   2.093   3.035   3.045
 3876SOL     OW12526   3.711   5.513   1.073
 3876SOL    HW112527   3.631   5.472   1.030
 3876SOL    HW212528   3.794   5.464   1.045
 3877SOL     OW12529   5.960   2.386   1.266
 3877SOL    HW112530   6.044   2.349   1.306
 3877SOL    HW212531   5.886   2.320   1.278
 3878SOL     OW12532   4.616   6.666   4.558
 3878SOL    HW112533   4.644   6.715   4.476
 3878SOL    HW212534   4.649   6.572   4.555
 3879SOL     OW12535   6.042   5.443   0.780
 3879SOL    HW112536   6.031   5.531   0.827
 3879SOL    HW212537   6.062   5.459   0.683
 3880SOL     OW12538   5.189   3.947   4.609
 3880SOL    HW112539   5.202   3.951   4.708
 3880SOL    HW212540   5.161   3.854   4.583
 3881SOL     OW12541   1.650   3.641   1.333
 3881SOL    HW112542   1.606   3.586   1.405
 3881SOL    HW212543   1.696   3.580   1.268
 3882SOL     OW12544   0.737   1.218   5.984
 3882SOL    HW112545   0.732   1.218   5.884
 3882SOL    HW212546   0.646   1.233   6.022
 3883SOL     OW12547   3.736   1.692   2.275
 3883SOL    HW112548   3.654   1.635   2.279
 3883SOL    HW212549   3.740   1.738   2.186
 3884SOL     OW12550   0.731   5.927   2.360
 3884SOL    HW112551   0.631   5.920   2.365
 3884SOL    HW212552   0.761   6.008   2.409
 3885SOL     OW12553   6.562   5.405   2.804
 3885SOL    HW112554   6.603   5.489   2.770
 3885SOL    HW212555   6.564   5.405   2.904
 3886SOL     OW12556   4.878   6.042   5.117
 3886SOL    HW112557   4.830   6.094   5.188
 3886SOL    HW212558   4.952   6.098   5.080
 3887SOL     OW12559   0.983   0.242   6.821
 3887SOL    HW112560   1.035   0.221   6.904
 3887SOL    HW212561   0.963   0.158   6.773
 3888SOL     OW12562   6.373   0.084   5.055
 3888SOL    HW112563   6.398   7.012   5.068
 3888SOL    HW212564   6.412   0.118   4.970
 3889SOL     OW12565   6.794   3.633   0.538
 3889SOL    HW112566   6.731   3.580   0.595
 3889SOL    HW212567   6.771   3.730   0.545
 3890SOL     OW12568   6.535   4.449   3.380
 3890SOL    HW112569   6.509   4.544   3.361
 3890SOL    HW212570   6.607   4.448   3.449
 3891SOL     OW12571   5.585   3.887   4.276
 3891SOL    HW112572   5.573   3.787   4.271
 3891SOL    HW212573   5.648   3.917   4.205
 3892SOL     OW12574   0.131   1.919   1.401
 3892SOL    HW112575   0.097   2.001   1.356
 3892SOL    HW212576   0.202   1.944   1.467
 3893SOL     OW12577   4.348   3.567   6.774
 3893SOL    HW112578   4.431   3.514   6.791
 3893SOL    HW212579   4.268   3.508   6.785
 3894SOL     OW12580   4.296   1.012   0.257
 3894SOL    HW112581   4.392   1.040   0.257
 3894SOL    HW212582   4.265   1.001   0.351
 3895SOL     OW12583   1.348   0.680   5.669
 3895SOL    HW112584   1.324   0.743   5.743
 3895SOL    HW212585   1.278   0.683   5.598
 3896SOL     OW12586   0.113   1.072   5.520
 3896SOL    HW112587   0.199   1.121   5.502
 3896SOL    HW212588   0.121   0.978   5.487
 3897SOL     OW12589   3.686   5.503   2.441
 3897SOL    HW112590   3.661   5.487   2.536
 3897SOL    HW212591   3.604   5.512   2.385
 3898SOL     OW12592   2.573   3.250   6.023
 3898SOL    HW112593   2.545   3.257   5.927
 3898SOL    HW212594   2.582   3.154   6.049
 3899SOL     OW12595   4.493   6.673   5.435
 3899SOL    HW112596   4.537   6.761   5.415
 3899SOL    HW212597   4.474   6.667   5.533
 3900SOL     OW12598   4.953   3.236   3.537
 3900SOL    HW112599   4.937   3.142   3.505
 3900SOL    HW212600   4.897   3.299   3.483
 3901SOL     OW12601   2.955   0.443   5.674
 3901SOL    HW112602   3.051   0.422   5.687
 3901SOL    HW212603   2.907   0.361   5.643
 3902SOL     OW12604   6.115   2.860   1.734
 3902SOL    HW112605   6.050   2.878   1.660
 3902SOL    HW212606   6.084   2.782   1.788
 3903SOL     OW12607   3.873   5.822   0.024
 3903SOL    HW112608   3.813   5.870   6.984
 3903SOL    HW212609   3.969   5.836   7.020
 3904SOL     OW12610   2.713   1.115   5.868
 3904SOL    HW112611   2.761   1.203   5.868
 3904SOL    HW212612   2.618   1.129   5.837
 3905SOL     OW12613   0.361   0.386   6.963
 3905SOL    HW112614   0.349   0.290   6.988
 3905SOL    HW212615   0.271   0.428   6.949
 3906SOL     OW12616   5.726   6.195   5.561
 3906SOL    HW112617   5.669   6.169   5.639
 3906SOL    HW212618   5.801   6.131   5.552
 3907SOL     OW12619   5.702   1.098   3.459
 3907SOL    HW112620   5.779   1.132   3.512
 3907SOL    HW212621   5.616   1.124   3.503
 3908SOL     OW12622   0.910   2.398   0.172
 3908SOL    HW112623   0.985   2.464   0.166
 3908SOL    HW212624   0.865   2.406   0.261
 3909SOL     OW12625   6.740   5.985   5.515
 3909SOL    HW112626   6.758   6.030   5.427
 3909SOL    HW212627   6.730   5.887   5.500
 3910SOL     OW12628   3.916   3.613   2.553
 3910SOL    HW112629   3.843   3.566   2.504
 3910SOL    HW212630   3.887   3.632   2.647
 3911SOL     OW12631   4.761   1.628   5.705
 3911SOL    HW112632   4.793   1.587   5.790
 3911SOL    HW212633   4.839   1.661   5.652
 3912SOL     OW12634   4.753   0.936   5.194
 3912SOL    HW112635   4.743   1.012   5.258
 3912SOL    HW212636   4.844   0.941   5.151
 3913SOL     OW12637   2.578   6.893   6.150
 3913SOL    HW112638   2.648   6.838   6.195
 3913SOL    HW212639   2.492   6.886   6.201
 3914SOL     OW12640   3.220   0.798   0.894
 3914SOL    HW112641   3.219   0.856   0.976
 3914SOL    HW212642   3.136   0.745   0.890
 3915SOL     OW12643   4.780   5.156   1.812
 3915SOL    HW112644   4.699   5.215   1.812
 3915SOL    HW212645   4.838   5.180   1.734
 3916SOL     OW12646   1.256   0.295   4.264
 3916SOL    HW112647   1.259   0.244   4.179
 3916SOL    HW212648   1.317   0.374   4.259
 3917SOL     OW12649   5.948   5.920   0.318
 3917SOL    HW112650   6.034   5.915   0.370
 3917SOL    HW212651   5.962   5.882   0.227
 3918SOL     OW12652   5.190   5.878   1.488
 3918SOL    HW112653   5.121   5.904   1.421
 3918SOL    HW212654   5.195   5.778   1.493
 3919SOL     OW12655   2.897   6.786   6.581
 3919SOL    HW112656   2.863   6.855   6.644
 3919SOL    HW212657   2.830   6.712   6.573
 3920SOL     OW12658   3.481   3.188   0.890
 3920SOL    HW112659   3.466   3.101   0.937
 3920SOL    HW212660   3.513   3.256   0.956
 3921SOL     OW12661   0.379   3.488   1.604
 3921SOL    HW112662   0.372   3.391   1.580
 3921SOL    HW212663   0.474   3.518   1.598
 3922SOL     OW12664   6.734   3.182   1.727
 3922SOL    HW112665   6.640   3.204   1.752
 3922SOL    HW212666   6.785   3.266   1.711
 3923SOL     OW12667   6.483   1.022   0.003
 3923SOL    HW112668   6.521   0.979   6.945
 3923SOL    HW212669   6.450   0.951   0.065
 3924SOL     OW12670   0.691   4.714   3.448
 3924SOL    HW112671   0.639   4.656   3.386
 3924SOL    HW212672   0.650   4.711   3.539
 3925SOL     OW12673   3.235   5.138   1.142
 3925SOL    HW112674   3.286   5.076   1.203
 3925SOL    HW212675   3.138   5.133   1.165
 3926SOL     OW12676   0.009   6.086   3.127
 3926SOL    HW112677   0.036   6.090   3.223
 3926SOL    HW212678   0.045   6.002   3.086
 3927SOL     OW12679   6.563   2.916   3.372
 3927SOL    HW112680   6.472   2.906   3.412
 3927SOL    HW212681   6.606   2.826   3.363
 3928SOL     OW12682   3.434   6.128   5.914
 3928SOL    HW112683   3.337   6.135   5.933
 3928SOL    HW212684   3.478   6.071   5.983
 3929SOL     OW12685   0.338   0.659   5.309
 3929SOL    HW112686   0.391   0.661   5.224
 3929SOL    HW212687   0.312   0.565   5.330
 3930SOL     OW12688   2.413   1.817   4.012
 3930SOL    HW112689   2.508   1.815   4.044
 3930SOL    HW212690   2.383   1.724   3.991
 3931SOL     OW12691   1.814   0.924   1.746
 3931SOL    HW112692   1.736   0.879   1.790
 3931SOL    HW212693   1.837   1.007   1.797
 3932SOL     OW12694   1.967   4.794   3.229
 3932SOL    HW112695   1.958   4.765   3.324
 3932SOL    HW212696   2.038   4.740   3.184
 3933SOL     OW12697   2.501   5.953   6.705
 3933SOL    HW112698   2.524   6.035   6.758
 3933SOL    HW212699   2.510   5.973   6.607
 3934SOL     OW12700   6.842   1.201   0.408
 3934SOL    HW112701   6.924   1.252   0.381
 3934SOL    HW212702   6.761   1.257   0.390
 3935SOL     OW12703   2.515   6.373   7.004
 3935SOL    HW112704   2.438   6.341   0.036
 3935SOL    HW212705   2.597   6.379   0.036
 3936SOL     OW12706   0.382   4.946   5.497
 3936SOL    HW112707   0.314   4.897   5.442
 3936SOL    HW212708   0.453   4.882   5.527
 3937SOL     OW12709   6.903   1.641   3.490
 3937SOL    HW112710   6.873   1.672   3.580
 3937SOL    HW212711   6.828   1.652   3.425
 3938SOL     OW12712   0.204   2.264   4.050
 3938SOL    HW112713   0.255   2.184   4.019
 3938SOL    HW212714   0.196   2.261   4.150
 3939SOL     OW12715   2.373   2.042   2.909
 3939SOL    HW112716   2.435   1.984   2.856
 3939SOL    HW212717   2.295   1.988   2.940
 3940SOL     OW12718   4.698   5.417   1.221
 3940SOL    HW112719   4.742   5.354   1.158
 3940SOL    HW212720   4.690   5.374   1.311
 3941SOL     OW12721   4.649   2.704   6.226
 3941SOL    HW112722   4.682   2.794   6.198
 3941SOL    HW212723   4.684   2.682   6.317
 3942SOL     OW12724   0.299   0.065   6.731
 3942SOL    HW112725   0.311   0.079   6.830
 3942SOL    HW212726   0.213   0.017   6.715
 3943SOL     OW12727   6.914   3.556   3.013
 3943SOL    HW112728   6.906   3.541   3.111
 3943SOL    HW212729   6.823   3.557   2.971
 3944SOL     OW12730   4.622   2.669   4.938
 3944SOL    HW112731   4.610   2.681   5.037
 3944SOL    HW212732   4.670   2.584   4.920
 3945SOL     OW12733   0.113   1.620   0.752
 3945SOL    HW112734   0.096   1.568   0.835
 3945SOL    HW212735   0.148   1.559   0.681
 3946SOL     OW12736   5.434   5.523   5.571
 3946SOL    HW112737   5.377   5.510   5.490
 3946SOL    HW212738   5.499   5.447   5.579
 3947SOL     OW12739   5.517   5.779   0.891
 3947SOL    HW112740   5.534   5.825   0.804
 3947SOL    HW212741   5.597   5.788   0.950
 3948SOL     OW12742   1.208   6.020   1.835
 3948SOL    HW112743   1.269   5.941   1.826
 3948SOL    HW212744   1.113   5.990   1.821
 3949SOL     OW12745   4.674   0.427   3.310
 3949SOL    HW112746   4.741   0.411   3.237
 3949SOL    HW212747   4.642   0.522   3.305
 3950SOL     OW12748   1.901   4.400   1.604
 3950SOL    HW112749   1.835   4.454   1.657
 3950SOL    HW212750   1.992   4.440   1.614
 3951SOL     OW12751   5.616   6.585   0.755
 3951SOL    HW112752   5.711   6.573   0.781
 3951SOL    HW212753   5.607   6.581   0.656
 3952SOL     OW12754   6.495   3.224   2.809
 3952SOL    HW112755   6.410   3.172   2.802
 3952SOL    HW212756   6.519   3.235   2.906
 3953SOL     OW12757   3.853   4.633   1.679
 3953SOL    HW112758   3.890   4.667   1.592
 3953SOL    HW212759   3.929   4.606   1.739
 3954SOL     OW12760   4.591   4.917   4.965
 3954SOL    HW112761   4.512   4.857   4.952
 3954SOL    HW212762   4.582   4.966   5.051
 3955SOL     OW12763   3.128   6.057   6.907
 3955SOL    HW112764   3.031   6.041   6.887
 3955SOL    HW212765   3.161   6.133   6.850
 3956SOL     OW12766   6.885   0.901   3.825
 3956SOL    HW112767   6.897   0.861   3.916
 3956SOL    HW212768   6.966   0.953   3.800
 3957SOL     OW12769   4.530   6.331   4.127
 3957SOL    HW112770   4.548   6.234   4.145
 3957SOL    HW212771   4.443   6.358   4.168
 3958SOL     OW12772   5.911   1.226   4.580
 3958SOL    HW112773   5.896   1.156   4.651
 3958SOL    HW212774   6.007   1.227   4.554
 3959SOL     OW12775   4.408   6.783   0.819
 3959SOL    HW112776   4.454   6.836   0.748
 3959SOL    HW212777   4.447   6.804   0.908
 3960SOL     OW12778   4.579   1.708   6.886
 3960SOL    HW112779   4.495   1.762   6.882
 3960SOL    HW212780   4.606   1.680   6.794
 3961SOL     OW12781   5.368   1.959   2.312
 3961SOL    HW112782   5.342   2.055   2.321
 3961SOL    HW212783   5.358   1.931   2.216
 3962SOL     OW12784   2.477   3.943   0.288
 3962SOL    HW112785   2.560   3.887   0.292
 3962SOL    HW212786   2.433   3.930   0.198
 3963SOL     OW12787   4.735   4.711   3.983
 3963SOL    HW112788   4.725   4.760   4.070
 3963SOL    HW212789   4.687   4.623   3.989
 3964SOL     OW12790   4.503   4.985   3.960
 3964SOL    HW112791   4.539   5.022   3.874
 3964SOL    HW212792   4.476   4.890   3.945
 3965SOL     OW12793   4.848   2.971   5.443
 3965SOL    HW112794   4.895   2.971   5.531
 3965SOL    HW212795   4.863   3.059   5.398
 3966SOL     OW12796   5.245   6.077   6.847
 3966SOL    HW112797   5.161   6.032   6.818
 3966SOL    HW212798   5.267   6.151   6.782
 3967SOL     OW12799   2.117   3.367   2.328
 3967SOL    HW112800   2.065   3.411   2.254
 3967SOL    HW212801   2.178   3.433   2.371
 3968SOL     OW12802   4.877   0.411   1.709
 3968SOL    HW112803   4.936   0.368   1.640
 3968SOL    HW212804   4.808   0.467   1.663
 3969SOL     OW12805   1.728   4.199   2.298
 3969SOL    HW112806   1.738   4.120   2.238
 3969SOL    HW212807   1.785   4.188   2.379
 3970SOL     OW12808   6.267   6.623   3.999
 3970SOL    HW112809   6.255   6.531   4.034
 3970SOL    HW212810   6.345   6.667   4.045
 3971SOL     OW12811   3.124   5.351   2.462
 3971SOL    HW112812   3.030   5.364   2.491
 3971SOL    HW212813   3.126   5.328   2.365
 3972SOL     OW12814   1.341   4.317   0.775
 3972SOL    HW112815   1.391   4.232   0.795
 3972SOL    HW212816   1.400   4.380   0.725
 3973SOL     OW12817   1.758   5.333   6.882
 3973SOL    HW112818   1.830   5.302   6.944
 3973SOL    HW212819   1.672   5.288   6.908
 3974SOL     OW12820   1.922   0.513   4.379
 3974SOL    HW112821   1.900   0.611   4.376
 3974SOL    HW212822   1.998   0.498   4.442
 3975SOL     OW12823   5.455   1.295   5.160
 3975SOL    HW112824   5.385   1.224   5.168
 3975SOL    HW212825   5.546   1.254   5.173
 3976SOL     OW12826   1.867   6.076   1.727
 3976SOL    HW112827   1.921   6.055   1.646
 3976SOL    HW212828   1.804   6.151   1.706
 3977SOL     OW12829   2.510   3.905   5.633
 3977SOL    HW112830   2.473   3.817   5.665
 3977SOL    HW212831   2.603   3.915   5.668
 3978SOL     OW12832   6.008   5.094   4.466
 3978SOL    HW112833   5.977   5.185   4.438
 3978SOL    HW212834   6.079   5.104   4.536
 3979SOL     OW12835   3.104   6.987   0.754
 3979SOL    HW112836   3.028   6.964   0.694
 3979SOL    HW212837   3.165   0.028   0.708
 3980SOL     OW12838   5.834   6.161   0.262
 3980SOL    HW112839   5.881   6.078   0.291
 3980SOL    HW212840   5.762   6.138   0.197
 3981SOL     OW12841   2.870   0.829   0.411
 3981SOL    HW112842   2.915   0.875   0.335
 3981SOL    HW212843   2.824   0.746   0.377
 3982SOL     OW12844   2.345   7.010   3.580
 3982SOL    HW112845   2.406   0.018   3.652
 3982SOL    HW212846   2.304   0.064   3.534
 3983SOL     OW12847   5.291   4.569   4.068
 3983SOL    HW112848   5.196   4.587   4.042
 3983SOL    HW212849   5.326   4.647   4.121
 3984SOL     OW12850   6.564   1.385   3.381
 3984SOL    HW112851   6.631   1.349   3.446
 3984SOL    HW212852   6.597   1.369   3.288
 3985SOL     OW12853   3.057   4.545   6.693
 3985SOL    HW112854   2.994   4.493   6.750
 3985SOL    HW212855   3.005   4.610   6.637
 3986SOL     OW12856   5.179   2.231   3.082
 3986SOL    HW112857   5.177   2.244   3.182
 3986SOL    HW212858   5.211   2.139   3.062
 3987SOL     OW12859   3.638   5.286   3.570
 3987SOL    HW112860   3.573   5.214   3.546
 3987SOL    HW212861   3.692   5.256   3.649
 3988SOL     OW12862   3.649   4.281   6.819
 3988SOL    HW112863   3.556   4.318   6.819
 3988SOL    HW212864   3.653   4.201   6.878
 3989SOL     OW12865   6.369   2.875   0.016
 3989SOL    HW112866   6.441   2.891   0.084
 3989SOL    HW212867   6.303   2.810   0.053
 3990SOL     OW12868   4.685   2.079   2.519
 3990SOL    HW112869   4.714   2.008   2.455
 3990SOL    HW212870   4.585   2.091   2.513
 3991SOL     OW12871   5.794   1.114   2.797
 3991SOL    HW112872   5.813   1.111   2.895
 3991SOL    HW212873   5.880   1.104   2.747
 3992SOL     OW12874   3.261   1.937   6.929
 3992SOL    HW112875   3.226   1.874   6.859
 3992SOL    HW212876   3.250   2.031   6.897
 3993SOL     OW12877   1.232   1.851   2.770
 3993SOL    HW112878   1.257   1.927   2.830
 3993SOL    HW212879   1.292   1.773   2.788
 3994SOL     OW12880   1.993   0.357   5.703
 3994SOL    HW112881   1.956   0.282   5.758
 3994SOL    HW212882   2.082   0.330   5.665
 3995SOL     OW12883   2.837   3.520   6.157
 3995SOL    HW112884   2.768   3.452   6.182
 3995SOL    HW212885   2.887   3.549   6.239
 3996SOL     OW12886   1.196   0.188   4.506
 3996SOL    HW112887   1.163   0.094   4.518
 3996SOL    HW212888   1.200   0.210   4.408
 3997SOL     OW12889   5.125   1.702   3.925
 3997SOL    HW112890   5.196   1.659   3.980
 3997SOL    HW212891   5.153   1.795   3.900
 3998SOL     OW12892   4.310   1.607   3.954
 3998SOL    HW112893   4.214   1.635   3.944
 3998SOL    HW212894   4.341   1.626   4.047
 3999SOL     OW12895   5.809   3.918   4.081
 3999SOL    HW112896   5.812   3.914   3.981
 3999SOL    HW212897   5.903   3.924   4.117
 4000SOL     OW12898   3.149   6.292   3.634
 4000SOL    HW112899   3.173   6.388   3.646
 4000SOL    HW212900   3.059   6.275   3.674
 4001SOL     OW12901   2.099   2.157   3.770
 4001SOL    HW112902   2.125   2.204   3.685
 4001SOL    HW212903   2.042   2.218   3.825
 4002SOL     OW12904   3.329   4.154   0.504
 4002SOL    HW112905   3.292   4.223   0.441
 4002SOL    HW212906   3.301   4.063   0.475
 4003SOL     OW12907   3.348   6.699   4.565
 4003SOL    HW112908   3.268   6.665   4.516
 4003SOL    HW212909   3.343   6.798   4.572
 4004SOL     OW12910   5.169   2.046   4.253
 4004SOL    HW112911   5.203   2.115   4.188
 4004SOL    HW212912   5.082   2.009   4.219
 4005SOL     OW12913   5.358   4.743   6.708
 4005SOL    HW112914   5.375   4.837   6.735
 4005SOL    HW212915   5.363   4.684   6.789
 4006SOL     OW12916   4.663   5.164   2.785
 4006SOL    HW112917   4.708   5.229   2.847
 4006SOL    HW212918   4.652   5.206   2.695
 4007SOL     OW12919   0.094   2.134   0.857
 4007SOL    HW112920   0.026   2.207   0.860
 4007SOL    HW212921   0.059   2.053   0.903
 4008SOL     OW12922   3.080   1.947   4.109
 4008SOL    HW112923   3.041   1.959   4.018
 4008SOL    HW212924   3.012   1.972   4.178
 4009SOL     OW12925   3.994   3.392   1.492
 4009SOL    HW112926   4.034   3.316   1.441
 4009SOL    HW212927   3.966   3.464   1.429
 4010SOL     OW12928   2.390   3.245   1.070
 4010SOL    HW112929   2.456   3.263   0.996
 4010SOL    HW212930   2.298   3.263   1.037
 4011SOL     OW12931   0.690   1.234   2.026
 4011SOL    HW112932   0.635   1.236   1.942
 4011SOL    HW212933   0.786   1.248   2.003
 4012SOL     OW12934   5.288   4.898   2.009
 4012SOL    HW112935   5.213   4.932   1.951
 4012SOL    HW212936   5.340   4.975   2.044
 4013SOL     OW12937   2.965   1.571   5.474
 4013SOL    HW112938   3.050   1.615   5.445
 4013SOL    HW212939   2.984   1.479   5.507
 4014SOL     OW12940   5.197   6.607   2.436
 4014SOL    HW112941   5.255   6.529   2.415
 4014SOL    HW212942   5.227   6.649   2.522
 4015SOL     OW12943   4.996   4.760   6.315
 4015SOL    HW112944   5.069   4.742   6.381
 4015SOL    HW212945   4.939   4.835   6.349
 4016SOL     OW12946   2.935   5.577   5.913
 4016SOL    HW112947   2.866   5.559   5.842
 4016SOL    HW212948   3.008   5.632   5.874
 4017SOL     OW12949   0.417   5.715   0.341
 4017SOL    HW112950   0.413   5.717   0.441
 4017SOL    HW212951   0.372   5.631   0.308
 4018SOL     OW12952   4.314   6.372   2.620
 4018SOL    HW112953   4.224   6.415   2.615
 4018SOL    HW212954   4.353   6.387   2.711
 4019SOL     OW12955   5.601   3.693   2.641
 4019SOL    HW112956   5.506   3.696   2.671
 4019SOL    HW212957   5.625   3.600   2.615
 4020SOL     OW12958   4.405   1.466   5.407
 4020SOL    HW112959   4.477   1.416   5.455
 4020SOL    HW212960   4.407   1.562   5.434
 4021SOL     OW12961   3.913   5.156   6.090
 4021SOL    HW112962   3.817   5.128   6.089
 4021SOL    HW212963   3.966   5.088   6.141
 4022SOL     OW12964   4.546   0.829   6.442
 4022SOL    HW112965   4.564   0.745   6.391
 4022SOL    HW212966   4.582   0.819   6.535
 4023SOL     OW12967   6.244   1.619   4.358
 4023SOL    HW112968   6.191   1.628   4.443
 4023SOL    HW212969   6.228   1.528   4.319
 4024SOL     OW12970   3.307   6.524   3.376
 4024SOL    HW112971   3.246   6.468   3.321
 4024SOL    HW212972   3.299   6.498   3.472
 4025SOL     OW12973   0.479   4.997   3.510
 4025SOL    HW112974   0.551   4.934   3.539
 4025SOL    HW212975   0.440   4.967   3.423
 4026SOL     OW12976   5.144   5.908   4.167
 4026SOL    HW112977   5.100   5.844   4.104
 4026SOL    HW212978   5.227   5.945   4.125
 4027SOL     OW12979   3.743   4.398   1.595
 4027SOL    HW112980   3.781   4.487   1.622
 4027SOL    HW212981   3.686   4.410   1.513
 4028SOL     OW12982   1.633   2.933   4.122
 4028SOL    HW112983   1.558   2.886   4.074
 4028SOL    HW212984   1.633   2.906   4.218
 4029SOL     OW12985   2.625   4.213   6.029
 4029SOL    HW112986   2.708   4.241   5.981
 4029SOL    HW212987   2.579   4.140   5.978
 4030SOL     OW12988   0.757   1.969   5.732
 4030SOL    HW112989   0.742   2.067   5.725
 4030SOL    HW212990   0.854   1.950   5.746
 4031SOL     OW12991   5.024   5.445   3.665
 4031SOL    HW112992   4.983   5.471   3.577
 4031SOL    HW212993   4.966   5.377   3.710
 4032SOL     OW12994   6.496   6.817   3.737
 4032SOL    HW112995   6.521   6.821   3.834
 4032SOL    HW212996   6.397   6.808   3.729
 4033SOL     OW12997   3.259   2.919   4.090
 4033SOL    HW112998   3.250   3.017   4.105
 4033SOL    HW212999   3.245   2.898   3.994
 4034SOL     OW13000   5.882   1.569   4.663
 4034SOL    HW113001   5.809   1.596   4.725
 4034SOL    HW213002   5.867   1.476   4.631
 4035SOL     OW13003   0.377   4.182   0.417
 4035SOL    HW113004   0.392   4.208   0.321
 4035SOL    HW213005   0.456   4.130   0.449
 4036SOL     OW13006   5.928   6.380   2.639
 4036SOL    HW113007   5.908   6.474   2.665
 4036SOL    HW213008   5.844   6.326   2.636
 4037SOL     OW13009   1.283   3.205   6.383
 4037SOL    HW113010   1.225   3.285   6.389
 4037SOL    HW213011   1.227   3.122   6.385
 4038SOL     OW13012   4.932   4.832   2.569
 4038SOL    HW113013   4.987   4.760   2.612
 4038SOL    HW213014   4.931   4.818   2.469
 4039SOL     OW13015   4.944   5.521   0.182
 4039SOL    HW113016   5.015   5.555   0.122
 4039SOL    HW213017   4.940   5.421   0.176
 4040SOL     OW13018   3.103   0.102   0.997
 4040SOL    HW113019   3.082   0.038   0.923
 4040SOL    HW213020   3.053   0.075   1.079
 4041SOL     OW13021   0.810   6.148   2.476
 4041SOL    HW113022   0.805   6.086   2.554
 4041SOL    HW213023   0.906   6.168   2.456
 4042SOL     OW13024   6.297   5.476   2.514
 4042SOL    HW113025   6.368   5.445   2.451
 4042SOL    HW213026   6.268   5.400   2.571
 4043SOL     OW13027   5.481   2.061   2.810
 4043SOL    HW113028   5.576   2.062   2.843
 4043SOL    HW213029   5.471   1.992   2.738
 4044SOL     OW13030   5.271   0.211   3.680
 4044SOL    HW113031   5.350   0.156   3.653
 4044SOL    HW213032   5.198   0.150   3.710
 4045SOL     OW13033   2.848   4.132   6.680
 4045SOL    HW113034   2.913   4.145   6.606
 4045SOL    HW213035   2.756   4.122   6.641
 4046SOL     OW13036   0.903   1.824   2.015
 4046SOL    HW113037   0.833   1.761   2.047
 4046SOL    HW213038   0.947   1.868   2.093
 4047SOL     OW13039   2.866   3.555   1.373
 4047SOL    HW113040   2.831   3.646   1.352
 4047SOL    HW213041   2.810   3.486   1.327
 4048SOL     OW13042   5.570   0.675   1.291
 4048SOL    HW113043   5.667   0.651   1.283
 4048SOL    HW213044   5.556   0.768   1.255
 4049SOL     OW13045   6.399   6.154   6.164
 4049SOL    HW113046   6.357   6.188   6.248
 4049SOL    HW213047   6.425   6.231   6.106
 4050SOL     OW13048   1.341   6.295   0.064
 4050SOL    HW113049   1.313   6.388   0.041
 4050SOL    HW213050   1.263   6.233   0.056
 4051SOL     OW13051   2.986   4.113   0.925
 4051SOL    HW113052   2.904   4.132   0.871
 4051SOL    HW213053   2.962   4.048   0.998
 4052SOL     OW13054   0.716   0.655   0.578
 4052SOL    HW113055   0.661   0.738   0.569
 4052SOL    HW213056   0.677   0.583   0.521
 4053SOL     OW13057   2.829   4.759   3.770
 4053SOL    HW113058   2.927   4.745   3.785
 4053SOL    HW213059   2.780   4.744   3.856
 4054SOL     OW13060   2.728   2.396   0.152
 4054SOL    HW113061   2.744   2.420   0.247
 4054SOL    HW213062   2.699   2.300   0.146
 4055SOL     OW13063   2.573   2.433   6.285
 4055SOL    HW113064   2.512   2.512   6.283
 4055SOL    HW213065   2.547   2.372   6.359
 4056SOL     OW13066   4.043   3.497   0.003
 4056SOL    HW113067   4.134   3.488   0.044
 4056SOL    HW213068   4.050   3.495   6.928
 4057SOL     OW13069   5.200   2.861   0.256
 4057SOL    HW113070   5.218   2.765   0.273
 4057SOL    HW213071   5.268   2.897   0.192
 4058SOL     OW13072   2.294   1.359   4.974
 4058SOL    HW113073   2.240   1.406   4.903
 4058SOL    HW213074   2.370   1.418   5.002
 4059SOL     OW13075   1.892   2.454   4.145
 4059SOL    HW113076   1.857   2.397   4.219
 4059SOL    HW213077   1.908   2.547   4.179
 4060SOL     OW13078   4.234   5.059   4.019
 4060SOL    HW113079   4.333   5.055   4.033
 4060SOL    HW213080   4.204   5.155   4.019
 4061SOL     OW13081   3.429   4.506   1.681
 4061SOL    HW113082   3.476   4.577   1.732
 4061SOL    HW213083   3.430   4.421   1.733
 4062SOL     OW13084   3.532   1.304   2.400
 4062SOL    HW113085   3.588   1.228   2.432
 4062SOL    HW213086   3.530   1.375   2.471
 4063SOL     OW13087   3.316   6.272   5.729
 4063SOL    HW113088   3.281   6.202   5.667
 4063SOL    HW213089   3.375   6.228   5.797
 4064SOL     OW13090   1.098   0.764   2.670
 4064SOL    HW113091   1.025   0.825   2.641
 4064SOL    HW213092   1.153   0.738   2.590
 4065SOL     OW13093   0.570   6.656   0.988
 4065SOL    HW113094   0.549   6.583   0.922
 4065SOL    HW213095   0.669   6.668   0.993
 4066SOL     OW13096   5.750   4.253   1.978
 4066SOL    HW113097   5.678   4.257   2.048
 4066SOL    HW213098   5.723   4.307   1.899
 4067SOL     OW13099   5.564   1.804   3.040
 4067SOL    HW113100   5.529   1.879   3.097
 4067SOL    HW213101   5.614   1.841   2.962
 4068SOL     OW13102   5.006   0.969   5.088
 4068SOL    HW113103   5.088   0.990   5.141
 4068SOL    HW213104   4.999   1.032   5.010
 4069SOL     OW13105   5.153   4.755   0.948
 4069SOL    HW113106   5.146   4.806   0.862
 4069SOL    HW213107   5.239   4.779   0.994
 4070SOL     OW13108   2.265   4.119   2.921
 4070SOL    HW113109   2.206   4.177   2.865
 4070SOL    HW213110   2.360   4.126   2.889
 4071SOL     OW13111   1.379   0.551   4.913
 4071SOL    HW113112   1.466   0.567   4.959
 4071SOL    HW213113   1.325   0.635   4.915
 4072SOL     OW13114   1.739   6.839   4.324
 4072SOL    HW113115   1.790   6.768   4.276
 4072SOL    HW213116   1.795   6.922   4.329
 4073SOL     OW13117   2.788   5.777   6.024
 4073SOL    HW113118   2.721   5.782   5.951
 4073SOL    HW213119   2.859   5.710   6.000
 4074SOL     OW13120   0.496   2.046   1.546
 4074SOL    HW113121   0.580   2.043   1.493
 4074SOL    HW213122   0.449   2.134   1.530
 4075SOL     OW13123   3.904   1.799   2.768
 4075SOL    HW113124   3.999   1.833   2.771
 4075SOL    HW213125   3.873   1.798   2.673
 4076SOL     OW13126   2.171   3.580   5.216
 4076SOL    HW113127   2.244   3.628   5.264
 4076SOL    HW213128   2.136   3.638   5.142
 4077SOL     OW13129   3.400   0.211   0.318
 4077SOL    HW113130   3.463   0.133   0.327
 4077SOL    HW213131   3.402   0.265   0.402
 4078SOL     OW13132   6.378   4.172   1.753
 4078SOL    HW113133   6.395   4.251   1.813
 4078SOL    HW213134   6.280   4.152   1.750
 4079SOL     OW13135   1.206   1.245   3.596
 4079SOL    HW113136   1.230   1.332   3.552
 4079SOL    HW213137   1.164   1.184   3.528
 4080SOL     OW13138   3.297   3.427   1.128
 4080SOL    HW113139   3.295   3.331   1.158
 4080SOL    HW213140   3.386   3.447   1.088
 4081SOL     OW13141   2.225   1.513   5.560
 4081SOL    HW113142   2.141   1.459   5.549
 4081SOL    HW213143   2.211   1.604   5.522
 4082SOL     OW13144   0.697   2.722   5.444
 4082SOL    HW113145   0.637   2.665   5.501
 4082SOL    HW213146   0.778   2.747   5.497
 4083SOL     OW13147   5.758   4.314   3.441
 4083SOL    HW113148   5.738   4.401   3.395
 4083SOL    HW213149   5.835   4.327   3.503
 4084SOL     OW13150   4.802   2.311   3.095
 4084SOL    HW113151   4.745   2.350   3.023
 4084SOL    HW213152   4.876   2.374   3.117
 4085SOL     OW13153   3.153   5.613   1.592
 4085SOL    HW113154   3.221   5.541   1.577
 4085SOL    HW213155   3.176   5.693   1.536
 4086SOL     OW13156   6.672   5.321   6.160
 4086SOL    HW113157   6.585   5.292   6.120
 4086SOL    HW213158   6.726   5.369   6.091
 4087SOL     OW13159   2.425   6.889   2.370
 4087SOL    HW113160   2.386   6.946   2.297
 4087SOL    HW213161   2.372   6.902   2.454
 4088SOL     OW13162   6.586   1.118   5.429
 4088SOL    HW113163   6.568   1.062   5.348
 4088SOL    HW213164   6.669   1.086   5.474
 4089SOL     OW13165   0.097   6.605   3.868
 4089SOL    HW113166   0.188   6.640   3.846
 4089SOL    HW213167   0.030   6.647   3.808
 4090SOL     OW13168   1.971   6.437   4.896
 4090SOL    HW113169   1.978   6.428   4.796
 4090SOL    HW213170   1.945   6.531   4.919
 4091SOL     OW13171   1.595   5.114   1.374
 4091SOL    HW113172   1.625   5.208   1.388
 4091SOL    HW213173   1.498   5.107   1.398
 4092SOL     OW13174   4.997   3.234   4.777
 4092SOL    HW113175   4.984   3.251   4.874
 4092SOL    HW213176   4.937   3.293   4.724
 4093SOL     OW13177   5.773   5.325   2.994
 4093SOL    HW113178   5.780   5.313   3.093
 4093SOL    HW213179   5.718   5.251   2.955
 4094SOL     OW13180   0.060   5.326   6.785
 4094SOL    HW113181   0.150   5.360   6.760
 4094SOL    HW213182   0.062   5.287   6.877
 4095SOL     OW13183   0.086   4.494   0.091
 4095SOL    HW113184   7.016   4.493   0.124
 4095SOL    HW213185   0.138   4.421   0.135
 4096SOL     OW13186   1.667   1.728   6.838
 4096SOL    HW113187   1.618   1.643   6.857
 4096SOL    HW213188   1.740   1.740   6.905
 4097SOL     OW13189   0.042   3.987   5.322
 4097SOL    HW113190   0.097   3.989   5.239
 4097SOL    HW213191   7.003   3.909   5.319
 4098SOL     OW13192   2.146   5.054   2.794
 4098SOL    HW113193   2.159   5.086   2.888
 4098SOL    HW213194   2.057   5.082   2.761
 4099SOL     OW13195   4.074   4.040   6.197
 4099SOL    HW113196   4.146   3.973   6.218
 4099SOL    HW213197   4.115   4.130   6.184
 4100SOL     OW13198   1.099   0.773   3.779
 4100SOL    HW113199   1.125   0.823   3.697
 4100SOL    HW213200   1.164   0.794   3.853
 4101SOL     OW13201   6.075   0.304   0.060
 4101SOL    HW113202   6.150   0.371   0.062
 4101SOL    HW213203   6.000   0.337   0.117
 4102SOL     OW13204   1.842   0.274   6.943
 4102SOL    HW113205   1.870   0.325   6.862
 4102SOL    HW213206   1.820   0.337   7.017
 4103SOL     OW13207   1.230   6.891   2.238
 4103SOL    HW113208   1.328   6.897   2.254
 4103SOL    HW213209   1.210   6.910   2.142
 4104SOL     OW13210   0.045   6.069   2.657
 4104SOL    HW113211   6.977   6.054   2.622
 4104SOL    HW213212   0.090   6.141   2.603
 4105SOL     OW13213   4.803   1.265   1.266
 4105SOL    HW113214   4.785   1.181   1.214
 4105SOL    HW213215   4.771   1.253   1.360
 4106SOL     OW13216   0.131   1.521   3.536
 4106SOL    HW113217   0.202   1.591   3.545
 4106SOL    HW213218   0.042   1.565   3.533
 4107SOL     OW13219   0.266   5.985   6.280
 4107SOL    HW113220   0.316   6.001   6.195
 4107SOL    HW213221   0.170   5.967   6.260
 4108SOL     OW13222   0.173   5.390   3.997
 4108SOL    HW113223   0.246   5.404   3.930
 4108SOL    HW213224   0.214   5.373   4.087
 4109SOL     OW13225   6.097   5.865   3.182
 4109SOL    HW113226   6.056   5.834   3.268
 4109SOL    HW213227   6.067   5.805   3.107
 4110SOL     OW13228   4.777   3.265   0.255
 4110SOL    HW113229   4.695   3.263   0.199
 4110SOL    HW213230   4.820   3.175   0.256
 4111SOL     OW13231   6.392   4.259   5.350
 4111SOL    HW113232   6.479   4.262   5.301
 4111SOL    HW213233   6.405   4.215   5.439
 4112SOL     OW13234   4.827   6.911   4.948
 4112SOL    HW113235   4.780   6.963   4.877
 4112SOL    HW213236   4.820   6.813   4.928
 4113SOL     OW13237   4.550   4.542   4.883
 4113SOL    HW113238   4.467   4.532   4.937
 4113SOL    HW213239   4.588   4.452   4.863
 4114SOL     OW13240   6.359   1.697   3.549
 4114SOL    HW113241   6.344   1.779   3.604
 4114SOL    HW213242   6.378   1.619   3.610
 4115SOL     OW13243   2.900   5.418   3.411
 4115SOL    HW113244   2.945   5.358   3.477
 4115SOL    HW213245   2.821   5.462   3.454
 4116SOL     OW13246   5.389   2.753   3.094
 4116SOL    HW113247   5.404   2.673   3.035
 4116SOL    HW213248   5.394   2.836   3.040
 4117SOL     OW13249   1.699   2.557   2.261
 4117SOL    HW113250   1.660   2.511   2.181
 4117SOL    HW213251   1.785   2.513   2.286
 4118SOL     OW13252   6.915   5.970   6.496
 4118SOL    HW113253   7.007   6.007   6.487
 4118SOL    HW213254   6.899   5.944   6.591
 4119SOL     OW13255   2.450   0.734   3.355
 4119SOL    HW113256   2.377   0.747   3.287
 4119SOL    HW213257   2.539   0.745   3.310
 4120SOL     OW13258   2.096   1.053   6.822
 4120SOL    HW113259   2.098   1.148   6.851
 4120SOL    HW213260   2.022   1.005   6.868
 4121SOL     OW13261   0.157   6.817   2.578
 4121SOL    HW113262   0.171   6.916   2.589
 4121SOL    HW213263   0.140   6.776   2.667
 4122SOL     OW13264   6.977   5.912   4.782
 4122SOL    HW113265   0.049   5.917   4.805
 4122SOL    HW213266   6.942   6.003   4.763
 4123SOL     OW13267   4.076   4.961   3.241
 4123SOL    HW113268   4.107   4.905   3.164
 4123SOL    HW213269   4.065   5.056   3.211
 4124SOL     OW13270   6.791   6.127   0.830
 4124SOL    HW113271   6.828   6.169   0.747
 4124SOL    HW213272   6.708   6.076   0.808
 4125SOL     OW13273   5.145   2.391   2.256
 4125SOL    HW113274   5.171   2.459   2.324
 4125SOL    HW213275   5.168   2.426   2.165
 4126SOL     OW13276   1.034   2.766   2.100
 4126SOL    HW113277   1.014   2.669   2.107
 4126SOL    HW213278   1.064   2.787   2.007
 4127SOL     OW13279   3.648   2.173   4.152
 4127SOL    HW113280   3.743   2.202   4.160
 4127SOL    HW213281   3.615   2.143   4.242
 4128SOL     OW13282   0.528   2.905   1.295
 4128SOL    HW113283   0.589   2.911   1.216
 4128SOL    HW213284   0.510   2.997   1.329
 4129SOL     OW13285   3.336   2.862   0.673
 4129SOL    HW113286   3.385   2.842   0.589
 4129SOL    HW213287   3.241   2.830   0.665
 4130SOL     OW13288   5.794   2.823   1.286
 4130SOL    HW113289   5.791   2.809   1.187
 4130SOL    HW213290   5.705   2.856   1.317
 4131SOL     OW13291   5.189   0.663   2.315
 4131SOL    HW113292   5.284   0.677   2.289
 4131SOL    HW213293   5.132   0.737   2.279
 4132SOL     OW13294   6.909   4.188   4.341
 4132SOL    HW113295   6.902   4.088   4.351
 4132SOL    HW213296   6.894   4.213   4.246
 4133SOL     OW13297   5.702   6.718   1.535
 4133SOL    HW113298   5.770   6.649   1.563
 4133SOL    HW213299   5.631   6.674   1.481
 4134SOL     OW13300   2.484   3.117   1.399
 4134SOL    HW113301   2.504   3.060   1.479
 4134SOL    HW213302   2.549   3.096   1.326
 4135SOL     OW13303   0.265   1.824   3.084
 4135SOL    HW113304   0.203   1.773   3.143
 4135SOL    HW213305   0.359   1.793   3.099
 4136SOL     OW13306   0.761   4.230   1.654
 4136SOL    HW113307   0.809   4.155   1.700
 4136SOL    HW213308   0.664   4.228   1.679
 4137SOL     OW13309   1.839   2.821   0.602
 4137SOL    HW113310   1.763   2.757   0.605
 4137SOL    HW213311   1.817   2.901   0.659
 4138SOL     OW13312   4.830   6.179   0.800
 4138SOL    HW113313   4.905   6.149   0.740
 4138SOL    HW213314   4.840   6.277   0.818
 4139SOL     OW13315   1.456   1.720   2.829
 4139SOL    HW113316   1.480   1.661   2.751
 4139SOL    HW213317   1.516   1.700   2.906
 4140SOL     OW13318   2.554   2.287   4.297
 4140SOL    HW113319   2.473   2.257   4.346
 4140SOL    HW213320   2.568   2.231   4.216
 4141SOL     OW13321   3.997   6.474   6.699
 4141SOL    HW113322   4.083   6.519   6.676
 4141SOL    HW213323   3.999   6.379   6.668
 4142SOL     OW13324   0.002   4.286   2.763
 4142SOL    HW113325   6.953   4.350   2.740
 4142SOL    HW213326   7.007   4.243   2.851
 4143SOL     OW13327   5.496   3.605   1.075
 4143SOL    HW113328   5.508   3.631   0.979
 4143SOL    HW213329   5.576   3.632   1.128
 4144SOL     OW13330   5.428   1.713   0.482
 4144SOL    HW113331   5.496   1.717   0.555
 4144SOL    HW213332   5.344   1.670   0.517
 4145SOL     OW13333   0.848   6.060   0.421
 4145SOL    HW113334   0.917   6.084   0.490
 4145SOL    HW213335   0.863   6.113   0.338
 4146SOL     OW13336   5.439   6.516   3.314
 4146SOL    HW113337   5.511   6.555   3.257
 4146SOL    HW213338   5.446   6.416   3.311
 4147SOL     OW13339   5.157   4.567   5.799
 4147SOL    HW113340   5.066   4.608   5.793
 4147SOL    HW213341   5.205   4.605   5.878
 4148SOL     OW13342   2.974   0.347   4.702
 4148SOL    HW113343   2.987   0.312   4.794
 4148SOL    HW213344   2.877   0.364   4.685
 4149SOL     OW13345   1.845   3.317   0.986
 4149SOL    HW113346   1.913   3.248   1.012
 4149SOL    HW213347   1.888   3.408   0.990
 4150SOL     OW13348   6.440   2.966   6.544
 4150SOL    HW113349   6.423   3.035   6.474
 4150SOL    HW213350   6.466   2.880   6.500
 4151SOL     OW13351   2.089   0.055   4.654
 4151SOL    HW113352   2.012   0.118   4.664
 4151SOL    HW213353   2.086   7.011   4.726
 4152SOL     OW13354   3.418   5.566   1.491
 4152SOL    HW113355   3.414   5.600   1.585
 4152SOL    HW213356   3.508   5.527   1.473
 4153SOL     OW13357   6.559   4.768   1.561
 4153SOL    HW113358   6.581   4.688   1.616
 4153SOL    HW213359   6.643   4.821   1.545
 4154SOL     OW13360   6.948   6.151   3.960
 4154SOL    HW113361   7.014   6.225   3.958
 4154SOL    HW213362   6.857   6.187   3.978
 4155SOL     OW13363   0.475   2.309   1.492
 4155SOL    HW113364   0.574   2.314   1.479
 4155SOL    HW213365   0.429   2.333   1.407
 4156SOL     OW13366   6.799   4.944   5.042
 4156SOL    HW113367   6.729   4.975   4.978
 4156SOL    HW213368   6.889   4.972   5.008
 4157SOL     OW13369   6.980   6.726   2.139
 4157SOL    HW113370   6.898   6.671   2.152
 4157SOL    HW213371   0.003   6.737   2.227
 4158SOL     OW13372   2.094   2.502   1.548
 4158SOL    HW113373   2.079   2.560   1.468
 4158SOL    HW213374   2.090   2.559   1.631
 4159SOL     OW13375   3.133   1.775   2.935
 4159SOL    HW113376   3.083   1.848   2.982
 4159SOL    HW213377   3.229   1.801   2.926
 4160SOL     OW13378   6.542   6.673   6.861
 4160SOL    HW113379   6.597   6.598   6.896
 4160SOL    HW213380   6.581   6.705   6.774
 4161SOL     OW13381   1.990   1.676   1.203
 4161SOL    HW113382   2.075   1.677   1.255
 4161SOL    HW213383   2.006   1.712   1.111
 4162SOL     OW13384   6.298   6.091   0.977
 4162SOL    HW113385   6.361   6.044   0.915
 4162SOL    HW213386   6.333   6.181   1.000
 4163SOL     OW13387   4.762   6.672   1.838
 4163SOL    HW113388   4.728   6.683   1.745
 4163SOL    HW213389   4.752   6.577   1.866
 4164SOL     OW13390   6.945   6.299   5.420
 4164SOL    HW113391   6.944   6.208   5.377
 4164SOL    HW213392   0.011   6.341   5.409
 4165SOL     OW13393   3.751   0.960   5.760
 4165SOL    HW113394   3.837   0.909   5.767
 4165SOL    HW213395   3.769   1.057   5.774
 4166SOL     OW13396   5.685   0.744   2.793
 4166SOL    HW113397   5.713   0.785   2.880
 4166SOL    HW213398   5.636   0.812   2.739
 4167SOL     OW13399   3.086   4.865   5.491
 4167SOL    HW113400   3.057   4.822   5.406
 4167SOL    HW213401   3.063   4.805   5.568
 4168SOL     OW13402   6.974   4.676   0.296
 4168SOL    HW113403   7.016   4.649   0.383
 4168SOL    HW213404   7.018   4.758   0.261
 4169SOL     OW13405   5.199   4.350   5.198
 4169SOL    HW113406   5.245   4.277   5.248
 4169SOL    HW213407   5.222   4.344   5.101
 4170SOL     OW13408   4.852   2.981   4.658
 4170SOL    HW113409   4.790   3.009   4.584
 4170SOL    HW213410   4.887   3.062   4.704
 4171SOL     OW13411   1.539   4.316   1.344
 4171SOL    HW113412   1.454   4.266   1.361
 4171SOL    HW213413   1.609   4.284   1.408
 4172SOL     OW13414   3.784   3.339   0.939
 4172SOL    HW113415   3.826   3.278   1.007
 4172SOL    HW213416   3.762   3.287   0.857
 4173SOL     OW13417   4.146   2.804   5.798
 4173SOL    HW113418   4.202   2.724   5.773
 4173SOL    HW213419   4.052   2.774   5.817
 4174SOL     OW13420   4.443   0.392   3.870
 4174SOL    HW113421   4.535   0.431   3.866
 4174SOL    HW213422   4.389   0.443   3.937
 4175SOL     OW13423   1.999   4.439   5.965
 4175SOL    HW113424   2.046   4.433   6.053
 4175SOL    HW213425   1.945   4.523   5.962
 4176SOL     OW13426   5.142   6.576   0.071
 4176SOL    HW113427   5.106   6.504   0.011
 4176SOL    HW213428   5.202   6.635   0.018
 4177SOL     OW13429   5.274   4.734   4.944
 4177SOL    HW113430   5.223   4.649   4.925
 4177SOL    HW213431   5.309   4.771   4.858
 4178SOL     OW13432   4.252   6.583   2.852
 4178SOL    HW113433   4.181   6.588   2.781
 4178SOL    HW213434   4.280   6.675   2.878
 4179SOL     OW13435   5.496   3.573   3.839
 4179SOL    HW113436   5.558   3.505   3.877
 4179SOL    HW213437   5.432   3.529   3.776
 4180SOL     OW13438   5.737   3.263   0.789
 4180SOL    HW113439   5.803   3.188   0.791
 4180SOL    HW213440   5.675   3.254   0.867
 4181SOL     OW13441   5.188   0.205   6.065
 4181SOL    HW113442   5.180   0.303   6.044
 4181SOL    HW213443   5.269   0.168   6.019
 4182SOL     OW13444   0.173   5.868   3.801
 4182SOL    HW113445   0.169   5.770   3.820
 4182SOL    HW213446   0.181   5.919   3.887
 4183SOL     OW13447   1.760   1.297   1.184
 4183SOL    HW113448   1.772   1.319   1.281
 4183SOL    HW213449   1.707   1.370   1.139
 4184SOL     OW13450   3.998   0.645   2.210
 4184SOL    HW113451   4.071   0.644   2.278
 4184SOL    HW213452   3.958   0.554   2.202
 4185SOL     OW13453   0.612   3.986   3.454
 4185SOL    HW113454   0.521   4.013   3.484
 4185SOL    HW213455   0.615   3.886   3.443
 4186SOL     OW13456   2.674   5.434   6.439
 4186SOL    HW113457   2.609   5.501   6.403
 4186SOL    HW213458   2.760   5.479   6.461
 4187SOL     OW13459   1.937   3.673   6.610
 4187SOL    HW113460   2.008   3.742   6.625
 4187SOL    HW213461   1.922   3.660   6.512
 4188SOL     OW13462   5.611   0.698   4.883
 4188SOL    HW113463   5.693   0.643   4.867
 4188SOL    HW213464   5.544   0.680   4.812
 4189SOL     OW13465   4.119   5.124   3.480
 4189SOL    HW113466   4.167   5.073   3.551
 4189SOL    HW213467   4.179   5.135   3.400
 4190SOL     OW13468   0.473   6.490   0.813
 4190SOL    HW113469   0.410   6.562   0.840
 4190SOL    HW213470   0.424   6.421   0.759
 4191SOL     OW13471   5.174   3.994   6.509
 4191SOL    HW113472   5.217   3.907   6.534
 4191SOL    HW213473   5.215   4.068   6.562
 4192SOL     OW13474   0.729   1.626   2.106
 4192SOL    HW113475   0.670   1.565   2.158
 4192SOL    HW213476   0.720   1.606   2.009
 4193SOL     OW13477   5.601   0.545   0.126
 4193SOL    HW113478   5.522   0.485   0.115
 4193SOL    HW213479   5.629   0.580   0.037
 4194SOL     OW13480   4.568   0.529   4.902
 4194SOL    HW113481   4.505   0.580   4.960
 4194SOL    HW213482   4.520   0.453   4.860
 4195SOL     OW13483   4.642   6.552   1.184
 4195SOL    HW113484   4.580   6.478   1.211
 4195SOL    HW213485   4.730   6.513   1.157
 4196SOL     OW13486   0.210   2.656   3.932
 4196SOL    HW113487   0.234   2.667   3.836
 4196SOL    HW213488   0.267   2.585   3.973
 4197SOL     OW13489   4.252   5.912   5.523
 4197SOL    HW113490   4.346   5.943   5.541
 4197SOL    HW213491   4.192   5.945   5.596
 4198SOL     OW13492   6.528   0.889   2.463
 4198SOL    HW113493   6.524   0.977   2.511
 4198SOL    HW213494   6.570   0.902   2.373
 4199SOL     OW13495   1.064   3.464   5.914
 4199SOL    HW113496   1.076   3.414   6.000
 4199SOL    HW213497   1.101   3.409   5.838
 4200SOL     OW13498   3.519   0.395   5.584
 4200SOL    HW113499   3.540   0.487   5.550
 4200SOL    HW213500   3.532   0.393   5.684
 4201SOL     OW13501   6.161   6.958   3.390
 4201SOL    HW113502   6.114   6.944   3.477
 4201SOL    HW213503   6.177   0.031   3.376
 4202SOL     OW13504   3.694   5.668   6.715
 4202SOL    HW113505   3.620   5.695   6.654
 4202SOL    HW213506   3.681   5.573   6.742
 4203SOL     OW13507   5.168   4.993   0.434
 4203SOL    HW113508   5.217   5.028   0.513
 4203SOL    HW213509   5.147   4.896   0.448
 4204SOL     OW13510   3.857   3.409   5.466
 4204SOL    HW113511   3.800   3.407   5.384
 4204SOL    HW213512   3.906   3.496   5.470
 4205SOL     OW13513   3.687   5.271   5.004
 4205SOL    HW113514   3.734   5.331   4.940
 4205SOL    HW213515   3.597   5.309   5.026
 4206SOL     OW13516   0.305   1.500   4.949
 4206SOL    HW113517   0.260   1.473   5.034
 4206SOL    HW213518   0.330   1.419   4.897
 4207SOL     OW13519   2.590   2.398   1.204
 4207SOL    HW113520   2.599   2.307   1.164
 4207SOL    HW213521   2.680   2.441   1.210
 4208SOL     OW13522   0.933   3.781   5.536
 4208SOL    HW113523   0.845   3.750   5.571
 4208SOL    HW213524   0.925   3.800   5.438
 4209SOL     OW13525   6.617   5.901   3.084
 4209SOL    HW113526   6.679   5.977   3.064
 4209SOL    HW213527   6.547   5.931   3.149
 4210SOL     OW13528   3.728   2.876   3.596
 4210SOL    HW113529   3.723   2.779   3.572
 4210SOL    HW213530   3.760   2.928   3.517
 4211SOL     OW13531   3.778   2.011   5.314
 4211SOL    HW113532   3.849   2.060   5.264
 4211SOL    HW213533   3.719   2.076   5.362
 4212SOL     OW13534   6.872   1.705   3.750
 4212SOL    HW113535   6.780   1.733   3.781
 4212SOL    HW213536   6.922   1.665   3.827
 4213SOL     OW13537   2.664   0.355   3.283
 4213SOL    HW113538   2.594   0.401   3.228
 4213SOL    HW213539   2.753   0.396   3.265
 4214SOL     OW13540   0.233   5.926   4.789
 4214SOL    HW113541   0.263   5.998   4.852
 4214SOL    HW213542   0.297   5.919   4.713
 4215SOL     OW13543   5.181   7.006   5.333
 4215SOL    HW113544   5.266   0.015   5.292
 4215SOL    HW213545   5.136   6.943   5.269
 4216SOL     OW13546   1.644   0.534   2.391
 4216SOL    HW113547   1.739   0.503   2.399
 4216SOL    HW213548   1.583   0.456   2.403
 4217SOL     OW13549   1.333   0.360   1.602
 4217SOL    HW113550   1.380   0.281   1.641
 4217SOL    HW213551   1.256   0.329   1.546
 4218SOL     OW13552   3.373   0.588   1.011
 4218SOL    HW113553   3.314   0.641   0.949
 4218SOL    HW213554   3.449   0.646   1.041
 4219SOL     OW13555   4.283   6.409   4.259
 4219SOL    HW113556   4.207   6.474   4.261
 4219SOL    HW213557   4.307   6.383   4.352
 4220SOL     OW13558   5.971   2.826   2.198
 4220SOL    HW113559   5.919   2.759   2.145
 4220SOL    HW213560   6.066   2.826   2.165
 4221SOL     OW13561   6.654   4.571   6.719
 4221SOL    HW113562   6.690   4.511   6.646
 4221SOL    HW213563   6.558   4.590   6.702
 4222SOL     OW13564   6.067   1.698   3.927
 4222SOL    HW113565   6.037   1.623   3.986
 4222SOL    HW213566   6.014   1.696   3.842
 4223SOL     OW13567   3.871   3.549   1.073
 4223SOL    HW113568   3.819   3.488   1.014
 4223SOL    HW213569   3.828   3.639   1.074
 4224SOL     OW13570   5.061   4.562   4.891
 4224SOL    HW113571   4.974   4.561   4.841
 4224SOL    HW213572   5.048   4.522   4.982
 4225SOL     OW13573   1.416   2.209   5.721
 4225SOL    HW113574   1.345   2.139   5.723
 4225SOL    HW213575   1.506   2.166   5.718
 4226SOL     OW13576   0.877   6.205   3.728
 4226SOL    HW113577   0.880   6.281   3.664
 4226SOL    HW213578   0.963   6.154   3.725
 4227SOL     OW13579   5.253   5.978   1.745
 4227SOL    HW113580   5.243   5.940   1.653
 4227SOL    HW213581   5.347   6.008   1.759
 4228SOL     OW13582   0.656   5.882   5.235
 4228SOL    HW113583   0.738   5.843   5.277
 4228SOL    HW213584   0.681   5.931   5.151
 4229SOL     OW13585   4.640   5.649   5.540
 4229SOL    HW113586   4.569   5.621   5.476
 4229SOL    HW213587   4.647   5.749   5.541
 4230SOL     OW13588   0.810   6.559   3.020
 4230SOL    HW113589   0.757   6.486   3.062
 4230SOL    HW213590   0.747   6.629   2.985
 4231SOL     OW13591   5.036   0.456   5.517
 4231SOL    HW113592   5.018   0.517   5.440
 4231SOL    HW213593   5.046   0.362   5.485
 4232SOL     OW13594   1.847   5.555   3.720
 4232SOL    HW113595   1.895   5.569   3.807
 4232SOL    HW213596   1.839   5.457   3.701
 4233SOL     OW13597   0.400   7.005   5.170
 4233SOL    HW113598   0.381   0.016   5.078
 4233SOL    HW213599   0.493   6.967   5.172
 4234SOL     OW13600   2.353   5.035   5.332
 4234SOL    HW113601   2.424   4.966   5.325
 4234SOL    HW213602   2.286   5.021   5.259
 4235SOL     OW13603   6.467   4.858   5.474
 4235SOL    HW113604   6.376   4.898   5.477
 4235SOL    HW213605   6.507   4.859   5.565
 4236SOL     OW13606   0.113   4.369   1.871
 4236SOL    HW113607   0.131   4.324   1.784
 4236SOL    HW213608   0.190   4.354   1.933
 4237SOL     OW13609   6.593   4.048   4.322
 4237SOL    HW113610   6.628   4.065   4.414
 4237SOL    HW213611   6.590   3.949   4.305
 4238SOL     OW13612   1.085   0.742   3.415
 4238SOL    HW113613   1.078   0.770   3.319
 4238SOL    HW213614   1.003   0.692   3.440
 4239SOL     OW13615   4.147   0.951   2.413
 4239SOL    HW113616   4.089   0.875   2.442
 4239SOL    HW213617   4.102   1.000   2.338
 4240SOL     OW13618   2.666   4.927   0.155
 4240SOL    HW113619   2.630   4.981   0.078
 4240SOL    HW213620   2.756   4.962   0.180
 4241SOL     OW13621   5.216   1.284   6.889
 4241SOL    HW113622   5.257   1.374   6.902
 4241SOL    HW213623   5.181   1.251   6.976
 4242SOL     OW13624   2.054   2.038   4.358
 4242SOL    HW113625   2.048   2.021   4.259
 4242SOL    HW213626   2.144   2.075   4.379
 4243SOL     OW13627   4.995   1.567   2.814
 4243SOL    HW113628   5.021   1.659   2.841
 4243SOL    HW213629   4.921   1.571   2.747
 4244SOL     OW13630   3.408   4.185   1.443
 4244SOL    HW113631   3.413   4.124   1.364
 4244SOL    HW213632   3.412   4.131   1.527
 4245SOL     OW13633   6.269   2.094   6.860
 4245SOL    HW113634   6.207   2.171   6.847
 4245SOL    HW213635   6.271   2.038   6.777
 4246SOL     OW13636   6.391   4.253   3.462
 4246SOL    HW113637   6.458   4.183   3.487
 4246SOL    HW213638   6.439   4.331   3.422
 4247SOL     OW13639   1.353   6.294   3.510
 4247SOL    HW113640   1.350   6.261   3.415
 4247SOL    HW213641   1.404   6.380   3.513
 4248SOL     OW13642   2.111   1.856   4.775
 4248SOL    HW113643   2.098   1.913   4.856
 4248SOL    HW213644   2.025   1.852   4.724
 4249SOL     OW13645   6.360   3.276   5.222
 4249SOL    HW113646   6.280   3.230   5.184
 4249SOL    HW213647   6.350   3.375   5.211
 4250SOL     OW13648   0.429   4.906   3.231
 4250SOL    HW113649   0.353   4.842   3.233
 4250SOL    HW213650   0.454   4.927   3.137
 4251SOL     OW13651   5.832   4.955   0.373
 4251SOL    HW113652   5.789   4.930   0.460
 4251SOL    HW213653   5.908   5.018   0.390
 4252SOL     OW13654   6.594   6.670   5.619
 4252SOL    HW113655   6.536   6.740   5.660
 4252SOL    HW213656   6.538   6.607   5.565
 4253SOL     OW13657   2.932   0.497   1.640
 4253SOL    HW113658   2.991   0.420   1.666
 4253SOL    HW213659   2.915   0.494   1.542
 4254SOL     OW13660   1.095   2.907   1.625
 4254SOL    HW113661   1.042   2.831   1.662
 4254SOL    HW213662   1.112   2.975   1.696
 4255SOL     OW13663   5.660   2.847   3.145
 4255SOL    HW113664   5.569   2.823   3.110
 4255SOL    HW213665   5.656   2.857   3.244
 4256SOL     OW13666   1.218   6.464   0.446
 4256SOL    HW113667   1.225   6.560   0.421
 4256SOL    HW213668   1.305   6.434   0.487
 4257SOL     OW13669   3.848   0.407   4.966
 4257SOL    HW113670   3.788   0.435   5.041
 4257SOL    HW213671   3.934   0.457   4.972
 4258SOL     OW13672   5.872   6.539   1.640
 4258SOL    HW113673   5.903   6.527   1.735
 4258SOL    HW213674   5.852   6.449   1.601
 4259SOL     OW13675   3.081   0.896   6.446
 4259SOL    HW113676   3.034   0.876   6.360
 4259SOL    HW213677   3.179   0.902   6.430
 4260SOL     OW13678   5.054   6.127   4.631
 4260SOL    HW113679   5.091   6.083   4.712
 4260SOL    HW213680   5.068   6.068   4.552
 4261SOL     OW13681   2.015   0.671   1.472
 4261SOL    HW113682   2.095   0.612   1.485
 4261SOL    HW213683   2.044   0.756   1.427
 4262SOL     OW13684   0.961   4.609   5.543
 4262SOL    HW113685   0.979   4.516   5.512
 4262SOL    HW213686   0.982   4.616   5.641
 4263SOL     OW13687   2.445   6.209   3.611
 4263SOL    HW113688   2.497   6.238   3.531
 4263SOL    HW213689   2.353   6.246   3.606
 4264SOL     OW13690   6.930   1.573   2.306
 4264SOL    HW113691   6.875   1.491   2.321
 4264SOL    HW213692   7.002   1.553   2.239
 4265SOL     OW13693   5.350   1.558   6.690
 4265SOL    HW113694   5.376   1.532   6.783
 4265SOL    HW213695   5.250   1.554   6.682
 4266SOL     OW13696   2.050   5.223   0.847
 4266SOL    HW113697   2.062   5.264   0.937
 4266SOL    HW213698   2.136   5.184   0.816
 4267SOL     OW13699   2.180   3.913   4.790
 4267SOL    HW113700   2.111   3.848   4.823
 4267SOL    HW213701   2.234   3.946   4.867
 4268SOL     OW13702   1.774   0.018   6.699
 4268SOL    HW113703   1.812   0.023   6.791
 4268SOL    HW213704   1.831   6.983   6.643
 4269SOL     OW13705   2.061   1.441   0.431
 4269SOL    HW113706   2.139   1.407   0.483
 4269SOL    HW213707   2.029   1.369   0.369
 4270SOL     OW13708   3.025   3.805   4.132
 4270SOL    HW113709   3.094   3.875   4.118
 4270SOL    HW213710   2.989   3.775   4.044
 4271SOL     OW13711   0.026   0.973   6.333
 4271SOL    HW113712   7.006   0.885   6.313
 4271SOL    HW213713   0.006   0.999   6.428
 4272SOL     OW13714   0.591   4.471   4.839
 4272SOL    HW113715   0.573   4.409   4.915
 4272SOL    HW213716   0.507   4.486   4.787
 4273SOL     OW13717   4.782   6.479   4.245
 4273SOL    HW113718   4.787   6.578   4.229
 4273SOL    HW213719   4.693   6.445   4.214
 4274SOL     OW13720   1.024   0.483   2.729
 4274SOL    HW113721   1.019   0.583   2.717
 4274SOL    HW213722   1.112   0.460   2.771
 4275SOL     OW13723   6.563   1.420   5.425
 4275SOL    HW113724   6.617   1.445   5.505
 4275SOL    HW213725   6.579   1.323   5.403
 4276SOL     OW13726   1.453   4.851   3.400
 4276SOL    HW113727   1.491   4.846   3.308
 4276SOL    HW213728   1.457   4.761   3.443
 4277SOL     OW13729   6.716   4.611   4.388
 4277SOL    HW113730   6.656   4.635   4.311
 4277SOL    HW213731   6.790   4.677   4.395
 4278SOL     OW13732   6.961   0.485   5.115
 4278SOL    HW113733   0.004   0.412   5.127
 4278SOL    HW213734   6.903   0.491   5.196
 4279SOL     OW13735   3.139   6.172   5.539
 4279SOL    HW113736   3.194   6.103   5.492
 4279SOL    HW213737   3.095   6.231   5.470
 4280SOL     OW13738   5.135   1.386   5.210
 4280SOL    HW113739   5.196   1.307   5.216
 4280SOL    HW213740   5.147   1.444   5.291
 4281SOL     OW13741   2.261   4.653   4.622
 4281SOL    HW113742   2.189   4.617   4.681
 4281SOL    HW213743   2.220   4.692   4.539
 4282SOL     OW13744   2.721   2.886   0.306
 4282SOL    HW113745   2.723   2.798   0.259
 4282SOL    HW213746   2.626   2.912   0.323
 4283SOL     OW13747   1.363   0.906   3.768
 4283SOL    HW113748   1.345   0.859   3.682
 4283SOL    HW213749   1.406   0.995   3.749
 4284SOL     OW13750   5.265   5.942   2.049
 4284SOL    HW113751   5.226   5.856   2.084
 4284SOL    HW213752   5.244   5.951   1.952
 4285SOL     OW13753   0.383   0.142   6.177
 4285SOL    HW113754   0.376   0.185   6.267
 4285SOL    HW213755   0.432   0.204   6.115
 4286SOL     OW13756   5.342   5.343   6.474
 4286SOL    HW113757   5.290   5.261   6.497
 4286SOL    HW213758   5.287   5.424   6.491
 4287SOL     OW13759   5.724   0.618   6.208
 4287SOL    HW113760   5.722   0.626   6.108
 4287SOL    HW213761   5.670   0.538   6.236
 4288SOL     OW13762   0.551   5.924   3.109
 4288SOL    HW113763   0.617   5.956   3.041
 4288SOL    HW213764   0.498   5.849   3.071
 4289SOL     OW13765   6.221   2.979   1.108
 4289SOL    HW113766   6.132   3.024   1.101
 4289SOL    HW213767   6.293   3.047   1.118
 4290SOL     OW13768   2.495   6.628   1.482
 4290SOL    HW113769   2.401   6.657   1.465
 4290SOL    HW213770   2.550   6.707   1.508
 4291SOL     OW13771   4.430   3.577   1.693
 4291SOL    HW113772   4.467   3.670   1.696
 4291SOL    HW213773   4.333   3.581   1.669
 4292SOL     OW13774   6.544   4.462   5.553
 4292SOL    HW113775   6.517   4.366   5.539
 4292SOL    HW213776   6.520   4.490   5.646
 4293SOL     OW13777   0.029   3.407   0.150
 4293SOL    HW113778   6.985   3.456   0.204
 4293SOL    HW213779   0.045   3.317   0.189
 4294SOL     OW13780   4.133   3.035   0.373
 4294SOL    HW113781   4.107   3.069   0.282
 4294SOL    HW213782   4.174   2.944   0.363
 4295SOL     OW13783   3.417   5.933   4.897
 4295SOL    HW113784   3.475   5.852   4.904
 4295SOL    HW213785   3.422   5.970   4.804
 4296SOL     OW13786   3.051   1.482   0.247
 4296SOL    HW113787   3.114   1.472   0.170
 4296SOL    HW213788   3.098   1.461   0.332
 4297SOL     OW13789   5.419   0.348   5.861
 4297SOL    HW113790   5.377   0.301   5.784
 4297SOL    HW213791   5.480   0.419   5.827
 4298SOL     OW13792   2.619   5.353   6.693
 4298SOL    HW113793   2.547   5.394   6.748
 4298SOL    HW213794   2.616   5.391   6.600
 4299SOL     OW13795   0.888   2.729   6.561
 4299SOL    HW113796   0.890   2.773   6.651
 4299SOL    HW213797   0.834   2.784   6.498
 4300SOL     OW13798   3.228   1.256   6.569
 4300SOL    HW113799   3.316   1.224   6.533
 4300SOL    HW213800   3.230   1.355   6.578
 4301SOL     OW13801   2.552   1.337   0.474
 4301SOL    HW113802   2.474   1.276   0.459
 4301SOL    HW213803   2.628   1.309   0.415
 4302SOL     OW13804   0.496   6.566   5.638
 4302SOL    HW113805   0.532   6.615   5.718
 4302SOL    HW213806   0.545   6.479   5.629
 4303SOL     OW13807   5.985   4.660   4.098
 4303SOL    HW113808   6.055   4.723   4.132
 4303SOL    HW213809   5.895   4.705   4.102
 4304SOL     OW13810   3.561   3.907   4.294
 4304SOL    HW113811   3.575   3.846   4.372
 4304SOL    HW213812   3.538   3.854   4.213
 4305SOL     OW13813   6.350   1.467   3.684
 4305SOL    HW113814   6.356   1.441   3.781
 4305SOL    HW213815   6.274   1.416   3.642
 4306SOL     OW13816   6.328   3.938   6.348
 4306SOL    HW113817   6.359   3.974   6.436
 4306SOL    HW213818   6.303   3.841   6.359
 4307SOL     OW13819   4.756   4.315   6.382
 4307SOL    HW113820   4.729   4.219   6.385
 4307SOL    HW213821   4.855   4.322   6.398
 4308SOL     OW13822   5.358   5.680   5.953
 4308SOL    HW113823   5.310   5.648   5.871
 4308SOL    HW213824   5.398   5.770   5.934
 4309SOL     OW13825   0.869   0.707   0.349
 4309SOL    HW113826   0.849   0.684   0.444
 4309SOL    HW213827   0.785   0.703   0.294
 4310SOL     OW13828   1.884   2.550   3.192
 4310SOL    HW113829   1.981   2.565   3.170
 4310SOL    HW213830   1.836   2.638   3.193
 4311SOL     OW13831   1.096   5.492   2.806
 4311SOL    HW113832   1.142   5.422   2.861
 4311SOL    HW213833   1.055   5.560   2.867
 4312SOL     OW13834   1.638   5.437   1.671
 4312SOL    HW113835   1.605   5.393   1.588
 4312SOL    HW213836   1.601   5.530   1.677
 4313SOL     OW13837   5.125   1.714   2.002
 4313SOL    HW113838   5.140   1.742   1.907
 4313SOL    HW213839   5.095   1.793   2.056
 4314SOL     OW13840   5.383   2.249   3.539
 4314SOL    HW113841   5.311   2.189   3.502
 4314SOL    HW213842   5.348   2.298   3.618
 4315SOL     OW13843   2.125   0.863   2.113
 4315SOL    HW113844   2.153   0.896   2.203
 4315SOL    HW213845   2.136   0.936   2.046
 4316SOL     OW13846   5.173   0.486   0.989
 4316SOL    HW113847   5.133   0.551   0.925
 4316SOL    HW213848   5.139   0.505   1.082
 4317SOL     OW13849   3.426   1.200   4.905
 4317SOL    HW113850   3.407   1.149   4.821
 4317SOL    HW213851   3.498   1.154   4.956
 4318SOL     OW13852   1.094   3.343   3.273
 4318SOL    HW113853   1.194   3.337   3.264
 4318SOL    HW213854   1.056   3.391   3.193
 4319SOL     OW13855   2.172   2.521   0.618
 4319SOL    HW113856   2.245   2.531   0.551
 4319SOL    HW213857   2.091   2.482   0.574
 4320SOL     OW13858   1.334   6.297   1.790
 4320SOL    HW113859   1.332   6.197   1.785
 4320SOL    HW213860   1.331   6.326   1.885
 4321SOL     OW13861   6.745   0.292   4.345
 4321SOL    HW113862   6.675   0.338   4.289
 4321SOL    HW213863   6.824   0.269   4.287
 4322SOL     OW13864   5.994   1.426   6.473
 4322SOL    HW113865   6.023   1.347   6.419
 4322SOL    HW213866   5.898   1.447   6.455
 4323SOL     OW13867   5.733   3.995   1.873
 4323SOL    HW113868   5.644   3.956   1.898
 4323SOL    HW213869   5.736   4.091   1.901
 4324SOL     OW13870   5.656   4.662   6.766
 4324SOL    HW113871   5.592   4.707   6.829
 4324SOL    HW213872   5.641   4.563   6.769
 4325SOL     OW13873   0.927   0.602   0.079
 4325SOL    HW113874   0.933   0.644   0.170
 4325SOL    HW213875   1.017   0.567   0.052
 4326SOL     OW13876   6.179   2.687   5.105
 4326SOL    HW113877   6.115   2.624   5.150
 4326SOL    HW213878   6.203   2.761   5.168
 4327SOL     OW13879   6.145   5.194   2.427
 4327SOL    HW113880   6.149   5.217   2.525
 4327SOL    HW213881   6.058   5.149   2.408
 4328SOL     OW13882   4.903   4.174   6.094
 4328SOL    HW113883   4.921   4.153   5.998
 4328SOL    HW213884   4.948   4.259   6.119
 4329SOL     OW13885   3.787   1.950   5.986
 4329SOL    HW113886   3.690   1.955   6.006
 4329SOL    HW213887   3.805   1.987   5.894
 4330SOL     OW13888   3.318   0.773   4.848
 4330SOL    HW113889   3.237   0.736   4.893
 4330SOL    HW213890   3.382   0.807   4.917
 4331SOL     OW13891   5.209   3.115   1.144
 4331SOL    HW113892   5.272   3.189   1.120
 4331SOL    HW213893   5.116   3.151   1.151
 4332SOL     OW13894   5.557   4.228   2.471
 4332SOL    HW113895   5.556   4.298   2.543
 4332SOL    HW213896   5.567   4.272   2.382
 4333SOL     OW13897   4.173   1.459   5.289
 4333SOL    HW113898   4.163   1.468   5.190
 4333SOL    HW213899   4.270   1.453   5.312
 4334SOL     OW13900   2.473   2.084   2.520
 4334SOL    HW113901   2.448   2.112   2.428
 4334SOL    HW213902   2.571   2.061   2.522
 4335SOL     OW13903   3.308   4.138   3.578
 4335SOL    HW113904   3.324   4.236   3.586
 4335SOL    HW213905   3.377   4.089   3.632
 4336SOL     OW13906   0.640   6.675   5.853
 4336SOL    HW113907   0.739   6.680   5.835
 4336SOL    HW213908   0.624   6.679   5.951
 4337SOL     OW13909   1.574   4.698   0.251
 4337SOL    HW113910   1.602   4.607   0.221
 4337SOL    HW213911   1.582   4.705   0.350
 4338SOL     OW13912   4.602   6.072   4.215
 4338SOL    HW113913   4.663   6.001   4.179
 4338SOL    HW213914   4.542   6.033   4.284
 4339SOL     OW13915   5.656   3.563   5.107
 4339SOL    HW113916   5.670   3.577   5.009
 4339SOL    HW213917   5.745   3.559   5.153
 4340SOL     OW13918   6.050   4.377   2.845
 4340SOL    HW113919   5.975   4.391   2.910
 4340SOL    HW213920   6.033   4.294   2.793
 4341SOL     OW13921   1.077   4.973   2.043
 4341SOL    HW113922   1.161   5.027   2.034
 4341SOL    HW213923   1.100   4.876   2.045
 4342SOL     OW13924   0.013   3.333   4.272
 4342SOL    HW113925   0.001   3.238   4.244
 4342SOL    HW213926   6.968   3.356   4.340
 4343SOL     OW13927   2.318   6.785   6.233
 4343SOL    HW113928   2.266   6.789   6.148
 4343SOL    HW213929   2.263   6.741   6.304
 4344SOL     OW13930   2.104   5.619   2.865
 4344SOL    HW113931   2.075   5.540   2.812
 4344SOL    HW213932   2.107   5.700   2.806
 4345SOL     OW13933   1.796   2.536   5.776
 4345SOL    HW113934   1.830   2.614   5.724
 4345SOL    HW213935   1.704   2.512   5.745
 4346SOL     OW13936   2.001   3.288   1.504
 4346SOL    HW113937   2.088   3.321   1.540
 4346SOL    HW213938   1.972   3.206   1.553
 4347SOL     OW13939   6.192   0.904   2.200
 4347SOL    HW113940   6.185   0.812   2.162
 4347SOL    HW213941   6.212   0.898   2.298
 4348SOL     OW13942   0.461   3.099   2.364
 4348SOL    HW113943   0.400   3.071   2.438
 4348SOL    HW213944   0.413   3.163   2.304
 4349SOL     OW13945   6.893   1.687   3.195
 4349SOL    HW113946   6.903   1.631   3.113
 4349SOL    HW213947   6.796   1.700   3.216
 4350SOL     OW13948   4.982   2.213   4.516
 4350SOL    HW113949   5.014   2.286   4.577
 4350SOL    HW213950   5.056   2.147   4.503
 4351SOL     OW13951   2.168   6.290   0.691
 4351SOL    HW113952   2.136   6.215   0.749
 4351SOL    HW213953   2.121   6.374   0.718
 4352SOL     OW13954   1.288   2.446   2.114
 4352SOL    HW113955   1.295   2.348   2.097
 4352SOL    HW213956   1.192   2.475   2.105
 4353SOL     OW13957   3.139   4.616   0.702
 4353SOL    HW113958   3.131   4.521   0.730
 4353SOL    HW213959   3.210   4.625   0.632
 4354SOL     OW13960   2.009   6.445   5.697
 4354SOL    HW113961   1.946   6.369   5.687
 4354SOL    HW213962   2.081   6.438   5.628
 4355SOL     OW13963   3.685   6.651   1.652
 4355SOL    HW113964   3.604   6.696   1.615
 4355SOL    HW213965   3.734   6.715   1.712
 4356SOL     OW13966   4.749   4.123   1.922
 4356SOL    HW113967   4.833   4.153   1.966
 4356SOL    HW213968   4.671   4.172   1.960
 4357SOL     OW13969   6.118   0.285   6.814
 4357SOL    HW113970   6.080   0.376   6.801
 4357SOL    HW213971   6.117   0.262   6.912
 4358SOL     OW13972   6.762   5.774   0.608
 4358SOL    HW113973   6.716   5.773   0.519
 4358SOL    HW213974   6.859   5.796   0.595
 4359SOL     OW13975   1.225   1.974   5.256
 4359SOL    HW113976   1.235   2.068   5.225
 4359SOL    HW213977   1.284   1.914   5.201
 4360SOL     OW13978   1.531   3.370   2.566
 4360SOL    HW113979   1.549   3.387   2.663
 4360SOL    HW213980   1.590   3.428   2.511
 4361SOL     OW13981   2.630   2.568   1.657
 4361SOL    HW113982   2.571   2.628   1.711
 4361SOL    HW213983   2.707   2.538   1.712
 4362SOL     OW13984   6.134   3.735   4.480
 4362SOL    HW113985   6.223   3.781   4.485
 4362SOL    HW213986   6.139   3.661   4.414
 4363SOL     OW13987   5.386   2.591   6.230
 4363SOL    HW113988   5.443   2.607   6.310
 4363SOL    HW213989   5.293   2.569   6.258
 4364SOL     OW13990   3.179   3.821   5.141
 4364SOL    HW113991   3.155   3.734   5.099
 4364SOL    HW213992   3.097   3.878   5.150
 4365SOL     OW13993   2.821   1.640   1.737
 4365SOL    HW113994   2.846   1.663   1.831
 4365SOL    HW213995   2.883   1.686   1.674
 4366SOL     OW13996   5.539   6.638   6.927
 4366SOL    HW113997   5.513   6.587   7.009
 4366SOL    HW213998   5.495   6.597   6.847
 4367SOL     OW13999   1.802   5.252   5.428
 4367SOL    HW114000   1.880   5.192   5.446
 4367SOL    HW214001   1.765   5.285   5.515
 4368SOL     OW14002   4.104   5.087   1.416
 4368SOL    HW114003   4.179   5.020   1.419
 4368SOL    HW214004   4.135   5.170   1.370
 4369SOL     OW14005   3.913   5.245   2.726
 4369SOL    HW114006   3.871   5.215   2.640
 4369SOL    HW214007   3.842   5.268   2.792
 4370SOL     OW14008   4.889   4.435   2.999
 4370SOL    HW114009   4.835   4.495   2.940
 4370SOL    HW214010   4.831   4.401   3.073
 4371SOL     OW14011   6.208   0.657   1.760
 4371SOL    HW114012   6.252   0.676   1.848
 4371SOL    HW214013   6.234   0.727   1.694
 4372SOL     OW14014   4.267   0.931   3.175
 4372SOL    HW114015   4.337   0.977   3.121
 4372SOL    HW214016   4.286   0.943   3.273
 4373SOL     OW14017   6.934   2.900   0.297
 4373SOL    HW114018   6.951   2.882   0.394
 4373SOL    HW214019   6.949   2.997   0.278
 4374SOL     OW14020   0.744   1.929   1.804
 4374SOL    HW114021   0.808   1.932   1.727
 4374SOL    HW214022   0.789   1.887   1.883
 4375SOL     OW14023   3.073   0.191   4.210
 4375SOL    HW114024   3.151   0.170   4.151
 4375SOL    HW214025   3.006   0.245   4.158
 4376SOL     OW14026   6.987   0.580   2.817
 4376SOL    HW114027   7.018   0.538   2.902
 4376SOL    HW214028   6.961   0.509   2.752
 4377SOL     OW14029   6.060   4.089   0.355
 4377SOL    HW114030   6.031   4.181   0.329
 4377SOL    HW214031   6.135   4.095   0.422
 4378SOL     OW14032   1.815   1.828   2.859
 4378SOL    HW114033   1.759   1.904   2.893
 4378SOL    HW214034   1.790   1.809   2.764
 4379SOL     OW14035   2.699   1.347   3.992
 4379SOL    HW114036   2.779   1.401   3.965
 4379SOL    HW214037   2.657   1.389   4.072
 4380SOL     OW14038   1.134   0.276   1.131
 4380SOL    HW114039   1.196   0.303   1.204
 4380SOL    HW214040   1.185   0.265   1.046
 4381SOL     OW14041   0.892   6.087   4.610
 4381SOL    HW114042   0.961   6.154   4.640
 4381SOL    HW214043   0.916   6.054   4.518
 4382SOL     OW14044   6.800   3.250   6.236
 4382SOL    HW114045   6.839   3.285   6.321
 4382SOL    HW214046   6.867   3.258   6.162
 4383SOL     OW14047   6.811   4.026   6.224
 4383SOL    HW114048   6.803   4.108   6.280
 4383SOL    HW214049   6.722   4.004   6.184
 4384SOL     OW14050   5.791   0.827   4.016
 4384SOL    HW114051   5.717   0.816   3.949
 4384SOL    HW214052   5.870   0.870   3.972
 4385SOL     OW14053   4.485   2.564   5.516
 4385SOL    HW114054   4.529   2.474   5.508
 4385SOL    HW214055   4.554   2.633   5.537
 4386SOL     OW14056   1.481   4.055   5.111
 4386SOL    HW114057   1.455   4.138   5.062
 4386SOL    HW214058   1.415   3.983   5.092
 4387SOL     OW14059   6.761   2.783   2.045
 4387SOL    HW114060   6.741   2.807   1.951
 4387SOL    HW214061   6.813   2.697   2.047
 4388SOL     OW14062   4.393   2.633   6.240
 4388SOL    HW114063   4.399   2.588   6.152
 4388SOL    HW214064   4.486   2.651   6.274
 4389SOL     OW14065   6.588   3.540   0.720
 4389SOL    HW114066   6.588   3.463   0.785
 4389SOL    HW214067   6.496   3.552   0.682
 4390SOL     OW14068   4.716   0.131   1.467
 4390SOL    HW114069   4.648   0.060   1.488
 4390SOL    HW214070   4.806   0.089   1.456
 4391SOL     OW14071   2.914   4.724   6.525
 4391SOL    HW114072   2.846   4.655   6.550
 4391SOL    HW214073   2.916   4.795   6.596
 4392SOL     OW14074   0.500   1.922   4.974
 4392SOL    HW114075   0.450   1.988   5.030
 4392SOL    HW214076   0.467   1.926   4.880
 4393SOL     OW14077   6.470   0.694   1.888
 4393SOL    HW114078   6.550   0.693   1.828
 4393SOL    HW214079   6.470   0.610   1.943
 4394SOL     OW14080   0.621   6.384   1.285
 4394SOL    HW114081   0.624   6.411   1.381
 4394SOL    HW214082   0.688   6.311   1.270
 4395SOL     OW14083   2.146   0.159   1.438
 4395SOL    HW114084   2.126   0.189   1.531
 4395SOL    HW214085   2.132   0.060   1.430
 4396SOL     OW14086   1.678   1.697   4.241
 4396SOL    HW114087   1.606   1.654   4.187
 4396SOL    HW214088   1.641   1.727   4.329
 4397SOL     OW14089   1.936   3.007   4.536
 4397SOL    HW114090   2.031   3.038   4.545
 4397SOL    HW214091   1.927   2.915   4.572
 4398SOL     OW14092   1.698   3.427   6.511
 4398SOL    HW114093   1.626   3.394   6.449
 4398SOL    HW214094   1.787   3.398   6.476
 4399SOL     OW14095   2.488   6.780   1.829
 4399SOL    HW114096   2.437   6.696   1.810
 4399SOL    HW214097   2.532   6.773   1.919
 4400SOL     OW14098   2.151   6.506   3.679
 4400SOL    HW114099   2.164   6.423   3.624
 4400SOL    HW214100   2.073   6.557   3.643
 4401SOL     OW14101   4.035   6.446   5.063
 4401SOL    HW114102   4.021   6.484   4.972
 4401SOL    HW214103   3.947   6.439   5.110
 4402SOL     OW14104   0.697   0.197   2.938
 4402SOL    HW114105   0.632   0.272   2.946
 4402SOL    HW214106   0.734   0.194   2.845
 4403SOL     OW14107   1.437   6.324   0.544
 4403SOL    HW114108   1.536   6.340   0.545
 4403SOL    HW214109   1.420   6.226   0.553
 4404SOL     OW14110   1.334   5.992   5.098
 4404SOL    HW114111   1.313   5.896   5.119
 4404SOL    HW214112   1.369   6.037   5.180
 4405SOL     OW14113   2.150   4.808   2.580
 4405SOL    HW114114   2.156   4.877   2.652
 4405SOL    HW214115   2.218   4.826   2.510
 4406SOL     OW14116   6.622   3.328   0.862
 4406SOL    HW114117   6.677   3.386   0.921
 4406SOL    HW214118   6.622   3.234   0.898
 4407SOL     OW14119   0.287   5.333   1.027
 4407SOL    HW114120   0.362   5.273   1.053
 4407SOL    HW214121   0.205   5.309   1.080
 4408SOL     OW14122   2.647   6.339   6.656
 4408SOL    HW114123   2.688   6.284   6.583
 4408SOL    HW214124   2.611   6.280   6.727
 4409SOL     OW14125   4.724   1.265   1.528
 4409SOL    HW114126   4.729   1.167   1.549
 4409SOL    HW214127   4.712   1.316   1.613
 4410SOL     OW14128   6.387   5.790   0.585
 4410SOL    HW114129   6.468   5.848   0.593
 4410SOL    HW214130   6.360   5.758   0.676
 4411SOL     OW14131   3.363   4.244   5.291
 4411SOL    HW114132   3.338   4.161   5.240
 4411SOL    HW214133   3.447   4.282   5.252
 4412SOL     OW14134   5.146   6.691   4.209
 4412SOL    HW114135   5.221   6.629   4.188
 4412SOL    HW214136   5.079   6.644   4.266
 4413SOL     OW14137   5.310   5.881   3.801
 4413SOL    HW114138   5.282   5.976   3.815
 4413SOL    HW214139   5.239   5.820   3.835
 4414SOL     OW14140   4.489   5.570   1.412
 4414SOL    HW114141   4.532   5.578   1.322
 4414SOL    HW214142   4.559   5.551   1.480
 4415SOL     OW14143   3.880   3.677   0.785
 4415SOL    HW114144   3.966   3.647   0.744
 4415SOL    HW214145   3.899   3.742   0.858
 4416SOL     OW14146   3.766   1.201   4.120
 4416SOL    HW114147   3.860   1.228   4.142
 4416SOL    HW214148   3.756   1.102   4.131
 4417SOL     OW14149   6.144   2.698   4.283
 4417SOL    HW114150   6.108   2.777   4.233
 4417SOL    HW214151   6.125   2.615   4.231
 4418SOL     OW14152   6.149   1.816   2.220
 4418SOL    HW114153   6.124   1.895   2.163
 4418SOL    HW214154   6.066   1.777   2.259
 4419SOL     OW14155   6.950   0.097   6.123
 4419SOL    HW114156   6.853   0.094   6.101
 4419SOL    HW214157   6.984   0.004   6.136
 4420SOL     OW14158   3.516   1.553   1.113
 4420SOL    HW114159   3.534   1.516   1.021
 4420SOL    HW214160   3.488   1.479   1.174
 4421SOL     OW14161   1.534   2.130   5.268
 4421SOL    HW114162   1.612   2.193   5.256
 4421SOL    HW214163   1.460   2.179   5.313
 4422SOL     OW14164   0.903   4.828   7.012
 4422SOL    HW114165   0.936   4.734   7.022
 4422SOL    HW214166   0.967   4.880   6.955
 4423SOL     OW14167   6.637   4.683   5.952
 4423SOL    HW114168   6.588   4.637   5.878
 4423SOL    HW214169   6.671   4.772   5.920
 4424SOL     OW14170   5.974   6.091   4.571
 4424SOL    HW114171   5.982   6.003   4.618
 4424SOL    HW214172   5.997   6.164   4.635
 4425SOL     OW14173   1.731   5.371   1.369
 4425SOL    HW114174   1.800   5.426   1.417
 4425SOL    HW214175   1.640   5.409   1.387
 4426SOL     OW14176   0.813   1.111   3.947
 4426SOL    HW114177   0.890   1.136   4.006
 4426SOL    HW214178   0.819   1.162   3.862
 4427SOL     OW14179   4.110   6.210   2.453
 4427SOL    HW114180   4.112   6.301   2.494
 4427SOL    HW214181   4.097   6.141   2.525
 4428SOL     OW14182   5.016   0.834   4.354
 4428SOL    HW114183   5.054   0.821   4.446
 4428SOL    HW214184   5.090   0.837   4.287
 4429SOL     OW14185   2.894   6.633   2.833
 4429SOL    HW114186   2.914   6.652   2.737
 4429SOL    HW214187   2.917   6.538   2.855
 4430SOL     OW14188   5.560   4.538   4.302
 4430SOL    HW114189   5.599   4.536   4.394
 4430SOL    HW214190   5.514   4.450   4.284
 4431SOL     OW14191   2.743   0.759   3.549
 4431SOL    HW114192   2.716   0.721   3.461
 4431SOL    HW214193   2.834   0.798   3.542
 4432SOL     OW14194   1.901   3.051   6.560
 4432SOL    HW114195   1.815   3.052   6.510
 4432SOL    HW214196   1.973   3.090   6.503
 4433SOL     OW14197   0.444   2.591   4.651
 4433SOL    HW114198   0.436   2.690   4.642
 4433SOL    HW214199   0.539   2.567   4.675
 4434SOL     OW14200   5.503   1.912   2.581
 4434SOL    HW114201   5.486   1.993   2.524
 4434SOL    HW214202   5.476   1.830   2.532
 4435SOL     OW14203   3.879   3.785   1.627
 4435SOL    HW114204   3.811   3.761   1.558
 4435SOL    HW214205   3.959   3.826   1.583
 4436SOL     OW14206   3.706   1.290   1.495
 4436SOL    HW114207   3.748   1.262   1.581
 4436SOL    HW214208   3.768   1.267   1.419
 4437SOL     OW14209   0.968   3.694   2.814
 4437SOL    HW114210   0.973   3.684   2.913
 4437SOL    HW214211   0.888   3.749   2.790
 4438SOL     OW14212   4.938   6.756   5.724
 4438SOL    HW114213   4.955   6.667   5.766
 4438SOL    HW214214   5.021   6.788   5.678
 4439SOL     OW14215   0.849   4.552   2.799
 4439SOL    HW114216   0.801   4.615   2.738
 4439SOL    HW214217   0.848   4.588   2.892
 4440SOL     OW14218   2.384   4.524   0.913
 4440SOL    HW114219   2.456   4.514   0.844
 4440SOL    HW214220   2.425   4.528   1.004
 4441SOL     OW14221   6.927   1.112   0.962
 4441SOL    HW114222   6.982   1.053   1.021
 4441SOL    HW214223   6.830   1.092   0.974
 4442SOL     OW14224   1.240   5.432   5.356
 4442SOL    HW114225   1.329   5.387   5.363
 4442SOL    HW214226   1.174   5.384   5.414
 4443SOL     OW14227   1.046   4.150   6.231
 4443SOL    HW114228   1.053   4.080   6.302
 4443SOL    HW214229   1.119   4.217   6.243
 4444SOL     OW14230   4.472   3.988   0.484
 4444SOL    HW114231   4.559   3.939   0.486
 4444SOL    HW214232   4.484   4.080   0.522
 4445SOL     OW14233   1.391   5.974   0.005
 4445SOL    HW114234   1.379   5.877   7.010
 4445SOL    HW214235   1.473   5.987   0.059
 4446SOL     OW14236   5.416   1.584   6.953
 4446SOL    HW114237   5.387   1.577   0.024
 4446SOL    HW214238   5.515   1.598   6.949
 4447SOL     OW14239   5.893   4.034   4.852
 4447SOL    HW114240   5.920   4.008   4.759
 4447SOL    HW214241   5.885   4.134   4.857
 4448SOL     OW14242   2.808   7.013   0.845
 4448SOL    HW114243   2.851   6.929   0.879
 4448SOL    HW214244   2.714   7.019   0.878
 4449SOL     OW14245   4.208   0.985   6.519
 4449SOL    HW114246   4.250   1.049   6.455
 4449SOL    HW214247   4.272   0.963   6.591
 4450SOL     OW14248   3.252   1.528   6.577
 4450SOL    HW114249   3.262   1.597   6.505
 4450SOL    HW214250   3.329   1.536   6.641
 4451SOL     OW14251   4.536   4.947   4.580
 4451SOL    HW114252   4.569   5.036   4.549
 4451SOL    HW214253   4.589   4.918   4.659
 4452SOL     OW14254   6.368   5.975   4.493
 4452SOL    HW114255   6.329   6.064   4.470
 4452SOL    HW214256   6.405   5.977   4.586
 4453SOL     OW14257   1.371   2.832   1.637
 4453SOL    HW114258   1.283   2.859   1.598
 4453SOL    HW214259   1.390   2.889   1.718
 4454SOL     OW14260   0.663   1.395   0.084
 4454SOL    HW114261   0.726   1.361   0.014
 4454SOL    HW214262   0.686   1.354   0.172
 4455SOL     OW14263   5.479   5.548   5.214
 4455SOL    HW114264   5.406   5.480   5.205
 4455SOL    HW214265   5.564   5.503   5.240
 4456SOL     OW14266   2.403   5.932   3.520
 4456SOL    HW114267   2.471   5.877   3.470
 4456SOL    HW214268   2.434   6.027   3.524
 4457SOL     OW14269   1.877   2.150   4.516
 4457SOL    HW114270   1.937   2.099   4.454
 4457SOL    HW214271   1.920   2.155   4.607
 4458SOL     OW14272   2.516   3.551   1.524
 4458SOL    HW114273   2.422   3.545   1.558
 4458SOL    HW214274   2.520   3.520   1.429
 4459SOL     OW14275   2.608   1.748   4.407
 4459SOL    HW114276   2.634   1.842   4.429
 4459SOL    HW214277   2.514   1.746   4.374
 4460SOL     OW14278   0.660   2.929   5.799
 4460SOL    HW114279   0.662   2.980   5.713
 4460SOL    HW214280   0.753   2.922   5.835
 4461SOL     OW14281   1.675   1.079   0.828
 4461SOL    HW114282   1.710   1.049   0.739
 4461SOL    HW214283   1.748   1.072   0.897
 4462SOL     OW14284   6.310   4.246   2.399
 4462SOL    HW114285   6.402   4.209   2.383
 4462SOL    HW214286   6.272   4.277   2.312
 4463SOL     OW14287   5.263   1.604   1.349
 4463SOL    HW114288   5.328   1.679   1.337
 4463SOL    HW214289   5.232   1.601   1.444
 4464SOL     OW14290   0.635   5.333   0.368
 4464SOL    HW114291   0.704   5.357   0.436
 4464SOL    HW214292   0.545   5.330   0.412
 4465SOL     OW14293   2.770   5.223   0.327
 4465SOL    HW114294   2.838   5.211   0.399
 4465SOL    HW214295   2.812   5.206   0.238
 4466SOL     OW14296   1.570   1.970   2.734
 4466SOL    HW114297   1.535   1.898   2.794
 4466SOL    HW214298   1.561   2.058   2.780
 4467SOL     OW14299   2.649   5.803   3.752
 4467SOL    HW114300   2.607   5.858   3.680
 4467SOL    HW214301   2.739   5.771   3.722
 4468SOL     OW14302   1.254   4.312   1.037
 4468SOL    HW114303   1.247   4.324   0.938
 4468SOL    HW214304   1.171   4.347   1.081
 4469SOL     OW14305   2.852   0.692   1.367
 4469SOL    HW114306   2.762   0.729   1.342
 4469SOL    HW214307   2.851   0.593   1.357
 4470SOL     OW14308   0.565   1.465   2.235
 4470SOL    HW114309   0.570   1.372   2.199
 4470SOL    HW214310   0.471   1.498   2.230
 4471SOL     OW14311   2.107   2.655   6.768
 4471SOL    HW114312   2.068   2.709   6.693
 4471SOL    HW214313   2.190   2.608   6.736
 4472SOL     OW14314   1.315   1.950   0.405
 4472SOL    HW114315   1.269   1.863   0.426
 4472SOL    HW214316   1.414   1.937   0.413
 4473SOL     OW14317   5.884   3.014   3.595
 4473SOL    HW114318   5.888   3.110   3.624
 4473SOL    HW214319   5.867   2.956   3.675
 4474SOL     OW14320   2.827   0.065   2.265
 4474SOL    HW114321   2.866   0.131   2.329
 4474SOL    HW214322   2.776   7.021   2.315
 4475SOL     OW14323   1.044   3.735   1.816
 4475SOL    HW114324   1.003   3.648   1.845
 4475SOL    HW214325   1.111   3.764   1.885
 4476SOL     OW14326   6.107   0.992   4.484
 4476SOL    HW114327   6.168   1.045   4.542
 4476SOL    HW214328   6.049   0.933   4.541
 4477SOL     OW14329   1.942   0.399   5.337
 4477SOL    HW114330   1.863   0.360   5.384
 4477SOL    HW214331   2.015   0.331   5.332
 4478SOL     OW14332   1.100   0.128   1.475
 4478SOL    HW114333   1.179   0.082   1.433
 4478SOL    HW214334   1.034   0.059   1.505
 4479SOL     OW14335   1.109   1.839   0.691
 4479SOL    HW114336   1.093   1.756   0.744
 4479SOL    HW214337   1.033   1.853   0.627
 4480SOL     OW14338   0.786   4.206   5.093
 4480SOL    HW114339   0.873   4.171   5.056
 4480SOL    HW214340   0.805   4.278   5.160
 4481SOL     OW14341   2.394   5.267   5.173
 4481SOL    HW114342   2.481   5.284   5.219
 4481SOL    HW214343   2.369   5.171   5.185
 4482SOL     OW14344   2.474   3.260   5.770
 4482SOL    HW114345   2.503   3.327   5.701
 4482SOL    HW214346   2.470   3.169   5.728
 4483SOL     OW14347   0.483   2.716   2.062
 4483SOL    HW114348   0.524   2.799   2.023
 4483SOL    HW214349   0.503   2.638   2.003
 4484SOL     OW14350   2.419   2.824   0.126
 4484SOL    HW114351   2.319   2.818   0.125
 4484SOL    HW214352   2.447   2.897   0.189
 4485SOL     OW14353   4.589   2.685   5.210
 4485SOL    HW114354   4.530   2.605   5.222
 4485SOL    HW214355   4.545   2.765   5.250
 4486SOL     OW14356   6.040   5.028   5.265
 4486SOL    HW114357   5.958   5.056   5.215
 4486SOL    HW214358   6.073   4.940   5.229
 4487SOL     OW14359   2.579   2.783   6.925
 4487SOL    HW114360   2.507   2.798   6.993
 4487SOL    HW214361   2.565   2.845   6.848
 4488SOL     OW14362   1.200   3.446   4.139
 4488SOL    HW114363   1.249   3.444   4.226
 4488SOL    HW214364   1.132   3.372   4.137
 4489SOL     OW14365   5.169   5.660   5.164
 4489SOL    HW114366   5.117   5.743   5.186
 4489SOL    HW214367   5.211   5.670   5.074
 4490SOL     OW14368   5.177   2.163   1.045
 4490SOL    HW114369   5.231   2.165   0.961
 4490SOL    HW214370   5.140   2.253   1.063
 4491SOL     OW14371   0.764   3.196   3.228
 4491SOL    HW114372   0.852   3.166   3.266
 4491SOL    HW214373   0.748   3.149   3.142
 4492SOL     OW14374   5.789   2.052   2.042
 4492SOL    HW114375   5.739   2.068   1.957
 4492SOL    HW214376   5.736   2.088   2.119
 4493SOL     OW14377   6.139   6.696   4.641
 4493SOL    HW114378   6.204   6.664   4.710
 4493SOL    HW214379   6.067   6.748   4.686
 4494SOL     OW14380   1.220   0.514   6.129
 4494SOL    HW114381   1.140   0.570   6.148
 4494SOL    HW214382   1.198   0.448   6.057
 4495SOL     OW14383   3.807   0.008   2.591
 4495SOL    HW114384   3.788   7.015   2.494
 4495SOL    HW214385   3.839   6.948   2.634
 4496SOL     OW14386   5.008   6.398   6.935
 4496SOL    HW114387   5.002   6.299   6.922
 4496SOL    HW214388   5.027   6.442   6.847
 4497SOL     OW14389   4.004   2.710   6.940
 4497SOL    HW114390   3.909   2.684   6.919
 4497SOL    HW214391   4.018   2.707   0.014
 4498SOL     OW14392   6.831   5.167   6.519
 4498SOL    HW114393   6.912   5.112   6.538
 4498SOL    HW214394   6.856   5.241   6.456
 4499SOL     OW14395   5.776   2.015   3.378
 4499SOL    HW114396   5.677   2.025   3.366
 4499SOL    HW214397   5.820   2.103   3.363
 4500SOL     OW14398   3.931   4.636   6.796
 4500SOL    HW114399   3.987   4.574   6.740
 4500SOL    HW214400   3.984   4.668   6.874
 4501SOL     OW14401   5.632   2.326   2.573
 4501SOL    HW114402   5.542   2.308   2.533
 4501SOL    HW214403   5.636   2.422   2.603
 4502SOL     OW14404   0.935   4.165   7.017
 4502SOL    HW114405   1.001   4.171   6.942
 4502SOL    HW214406   0.882   4.250   7.021
 4503SOL     OW14407   3.172   0.010   2.075
 4503SOL    HW114408   3.095   7.006   2.018
 4503SOL    HW214409   3.138   0.060   2.155
 4504SOL     OW14410   6.365   2.275   4.412
 4504SOL    HW114411   6.387   2.311   4.502
 4504SOL    HW214412   6.438   2.300   4.348
 4505SOL     OW14413   6.744   4.391   2.431
 4505SOL    HW114414   6.790   4.461   2.485
 4505SOL    HW214415   6.796   4.306   2.434
 4506SOL     OW14416   5.489   2.668   3.346
 4506SOL    HW114417   5.525   2.575   3.342
 4506SOL    HW214418   5.429   2.684   3.268
 4507SOL     OW14419   6.995   3.069   4.173
 4507SOL    HW114420   6.909   3.020   4.160
 4507SOL    HW214421   0.046   3.016   4.134
 4508SOL     OW14422   1.581   4.426   0.219
 4508SOL    HW114423   1.522   4.400   0.142
 4508SOL    HW214424   1.675   4.400   0.198
 4509SOL     OW14425   4.945   2.549   2.860
 4509SOL    HW114426   4.939   2.572   2.957
 4509SOL    HW214427   4.870   2.592   2.811
 4510SOL     OW14428   4.717   1.520   4.259
 4510SOL    HW114429   4.691   1.597   4.318
 4510SOL    HW214430   4.817   1.516   4.252
 4511SOL     OW14431   6.551   3.759   0.888
 4511SOL    HW114432   6.545   3.713   0.976
 4511SOL    HW214433   6.572   3.693   0.817
 4512SOL     OW14434   3.378   1.692   5.598
 4512SOL    HW114435   3.413   1.624   5.662
 4512SOL    HW214436   3.313   1.753   5.644
 4513SOL     OW14437   0.696   6.107   6.394
 4513SOL    HW114438   0.748   6.166   6.457
 4513SOL    HW214439   0.607   6.087   6.434
 4514SOL     OW14440   3.446   3.251   0.246
 4514SOL    HW114441   3.412   3.293   0.330
 4514SOL    HW214442   3.502   3.318   0.196
 4515SOL     OW14443   5.284   1.378   4.782
 4515SOL    HW114444   5.218   1.376   4.857
 4515SOL    HW214445   5.375   1.394   4.818
 4516SOL     OW14446   2.693   0.279   5.552
 4516SOL    HW114447   2.707   0.228   5.467
 4516SOL    HW214448   2.643   0.222   5.617
 4517SOL     OW14449   4.351   6.309   6.574
 4517SOL    HW114450   4.296   6.240   6.621
 4517SOL    HW214451   4.364   6.282   6.478
 4518SOL     OW14452   1.166   6.638   1.213
 4518SOL    HW114453   1.083   6.668   1.260
 4518SOL    HW214454   1.146   6.557   1.159
 4519SOL     OW14455   4.871   6.478   6.676
 4519SOL    HW114456   4.934   6.404   6.648
 4519SOL    HW214457   4.796   6.484   6.611
 4520SOL     OW14458   4.291   5.497   5.543
 4520SOL    HW114459   4.299   5.437   5.622
 4520SOL    HW214460   4.303   5.592   5.572
 4521SOL     OW14461   5.067   2.145   4.982
 4521SOL    HW114462   5.123   2.115   5.059
 4521SOL    HW214463   4.971   2.152   5.011
 4522SOL     OW14464   6.038   4.173   3.183
 4522SOL    HW114465   6.041   4.157   3.281
 4522SOL    HW214466   5.942   4.173   3.152
 4523SOL     OW14467   1.471   3.631   6.854
 4523SOL    HW114468   1.534   3.663   6.784
 4523SOL    HW214469   1.451   3.534   6.841
 4524SOL     OW14470   6.825   3.343   2.149
 4524SOL    HW114471   6.811   3.279   2.074
 4524SOL    HW214472   6.871   3.426   2.115
 4525SOL     OW14473   3.026   2.355   5.677
 4525SOL    HW114474   3.049   2.307   5.592
 4525SOL    HW214475   2.936   2.325   5.709
 4526SOL     OW14476   0.352   0.956   6.598
 4526SOL    HW114477   0.444   0.976   6.566
 4526SOL    HW214478   0.336   1.001   6.685
 4527SOL     OW14479   6.688   0.297   2.832
 4527SOL    HW114480   6.590   0.285   2.848
 4527SOL    HW214481   6.703   0.361   2.757
 4528SOL     OW14482   4.293   0.639   6.302
 4528SOL    HW114483   4.336   0.664   6.389
 4528SOL    HW214484   4.244   0.718   6.264
 4529SOL     OW14485   3.156   1.357   5.674
 4529SOL    HW114486   3.242   1.312   5.698
 4529SOL    HW214487   3.103   1.298   5.613
 4530SOL     OW14488   2.382   5.610   4.365
 4530SOL    HW114489   2.480   5.599   4.381
 4530SOL    HW214490   2.333   5.533   4.405
 4531SOL     OW14491   0.828   4.125   6.402
 4531SOL    HW114492   0.875   4.157   6.320
 4531SOL    HW214493   0.848   4.028   6.416
 4532SOL     OW14494   5.040   0.963   3.120
 4532SOL    HW114495   5.108   0.969   3.193
 4532SOL    HW214496   5.080   0.919   3.040
 4533SOL     OW14497   1.617   1.457   3.319
 4533SOL    HW114498   1.527   1.461   3.362
 4533SOL    HW214499   1.612   1.498   3.228
 4534SOL     OW14500   4.266   2.320   5.420
 4534SOL    HW114501   4.203   2.299   5.345
 4534SOL    HW214502   4.352   2.271   5.405
 4535SOL     OW14503   3.564   1.154   1.162
 4535SOL    HW114504   3.542   1.246   1.195
 4535SOL    HW214505   3.652   1.156   1.115
 4536SOL     OW14506   2.741   1.347   5.572
 4536SOL    HW114507   2.771   1.346   5.668
 4536SOL    HW214508   2.745   1.255   5.535
 4537SOL     OW14509   3.962   3.964   2.828
 4537SOL    HW114510   3.990   3.914   2.746
 4537SOL    HW214511   4.010   3.927   2.907
 4538SOL     OW14512   1.965   1.991   2.175
 4538SOL    HW114513   1.957   1.918   2.107
 4538SOL    HW214514   1.874   2.022   2.201
 4539SOL     OW14515   2.021   5.434   4.718
 4539SOL    HW114516   2.114   5.399   4.710
 4539SOL    HW214517   1.991   5.429   4.813
 4540SOL     OW14518   1.046   1.227   0.949
 4540SOL    HW114519   1.121   1.228   0.883
 4540SOL    HW214520   1.083   1.224   1.042
 4541SOL     OW14521   4.546   1.428   6.916
 4541SOL    HW114522   4.643   1.439   6.936
 4541SOL    HW214523   4.507   1.517   6.891
 4542SOL     OW14524   6.889   1.877   1.221
 4542SOL    HW114525   6.958   1.810   1.248
 4542SOL    HW214526   6.801   1.853   1.263
 4543SOL     OW14527   4.419   2.376   0.900
 4543SOL    HW114528   4.453   2.408   0.988
 4543SOL    HW214529   4.495   2.339   0.846
 4544SOL     OW14530   4.093   4.889   1.005
 4544SOL    HW114531   4.034   4.902   1.085
 4544SOL    HW214532   4.062   4.809   0.953
 4545SOL     OW14533   0.629   3.960   5.454
 4545SOL    HW114534   0.565   4.031   5.424
 4545SOL    HW214535   0.612   3.939   5.550
 4546SOL     OW14536   3.424   7.007   5.439
 4546SOL    HW114537   3.476   0.036   5.373
 4546SOL    HW214538   3.354   0.041   5.482
 4547SOL     OW14539   6.262   0.506   0.087
 4547SOL    HW114540   6.233   0.583   0.030
 4547SOL    HW214541   6.278   0.537   0.180
 4548SOL     OW14542   2.562   2.358   3.224
 4548SOL    HW114543   2.533   2.447   3.190
 4548SOL    HW214544   2.501   2.329   3.297
 4549SOL     OW14545   5.233   4.244   2.142
 4549SOL    HW114546   5.188   4.214   2.226
 4549SOL    HW214547   5.285   4.328   2.161
 4550SOL     OW14548   1.015   4.567   3.806
 4550SOL    HW114549   1.012   4.666   3.805
 4550SOL    HW214550   1.011   4.535   3.901
 4551SOL     OW14551   0.819   3.523   5.400
 4551SOL    HW114552   0.881   3.464   5.348
 4551SOL    HW214553   0.750   3.561   5.338
 4552SOL     OW14554   5.915   2.336   1.896
 4552SOL    HW114555   5.859   2.376   1.824
 4552SOL    HW214556   5.984   2.276   1.855
 4553SOL     OW14557   5.241   4.383   6.886
 4553SOL    HW114558   5.311   4.453   6.901
 4553SOL    HW214559   5.150   4.424   6.899
 4554SOL     OW14560   0.489   6.851   1.407
 4554SOL    HW114561   0.537   6.764   1.390
 4554SOL    HW214562   0.408   6.857   1.350
 4555SOL     OW14563   1.014   1.337   6.585
 4555SOL    HW114564   1.099   1.288   6.602
 4555SOL    HW214565   1.034   1.433   6.563
 4556SOL     OW14566   6.128   3.336   5.645
 4556SOL    HW114567   6.056   3.277   5.610
 4556SOL    HW214568   6.091   3.428   5.661
 4557SOL     OW14569   5.744   5.009   4.547
 4557SOL    HW114570   5.842   5.023   4.529
 4557SOL    HW214571   5.701   5.098   4.564
 4558SOL     OW14572   6.618   3.410   5.327
 4558SOL    HW114573   6.706   3.443   5.358
 4558SOL    HW214574   6.558   3.487   5.306
 4559SOL     OW14575   0.906   3.606   2.508
 4559SOL    HW114576   0.939   3.645   2.594
 4559SOL    HW214577   0.920   3.507   2.508
 4560SOL     OW14578   5.962   4.513   2.381
 4560SOL    HW114579   5.904   4.512   2.299
 4560SOL    HW214580   5.980   4.419   2.410
 4561SOL     OW14581   3.355   1.828   4.216
 4561SOL    HW114582   3.292   1.899   4.185
 4561SOL    HW214583   3.336   1.807   4.312
 4562SOL     OW14584   2.087   6.425   0.205
 4562SOL    HW114585   2.109   6.477   0.123
 4562SOL    HW214586   2.063   6.488   0.279
 4563SOL     OW14587   6.937   3.363   1.427
 4563SOL    HW114588   6.900   3.313   1.505
 4563SOL    HW214589   7.000   3.434   1.460
 4564SOL     OW14590   0.025   4.643   2.353
 4564SOL    HW114591   0.027   4.673   2.448
 4564SOL    HW214592   0.117   4.617   2.324
 4565SOL     OW14593   1.552   1.637   4.868
 4565SOL    HW114594   1.607   1.580   4.929
 4565SOL    HW214595   1.547   1.593   4.778
 4566SOL     OW14596   0.457   3.702   1.233
 4566SOL    HW114597   0.380   3.749   1.276
 4566SOL    HW214598   0.431   3.607   1.214
 4567SOL     OW14599   6.920   0.529   0.199
 4567SOL    HW114600   6.957   0.461   0.135
 4567SOL    HW214601   6.934   0.497   0.293
 4568SOL     OW14602   1.101   4.447   5.172
 4568SOL    HW114603   1.116   4.433   5.074
 4568SOL    HW214604   1.062   4.539   5.187
 4569SOL     OW14605   3.011   0.761   2.544
 4569SOL    HW114606   2.952   0.807   2.478
 4569SOL    HW214607   3.008   0.662   2.529
 4570SOL     OW14608   6.238   6.604   2.207
 4570SOL    HW114609   6.196   6.683   2.252
 4570SOL    HW214610   6.283   6.547   2.276
 4571SOL     OW14611   4.619   3.072   6.846
 4571SOL    HW114612   4.674   3.107   6.770
 4571SOL    HW214613   4.592   2.978   6.828
 4572SOL     OW14614   2.195   1.826   6.579
 4572SOL    HW114615   2.259   1.759   6.617
 4572SOL    HW214616   2.132   1.780   6.516
 4573SOL     OW14617   0.763   0.294   0.681
 4573SOL    HW114618   0.808   0.248   0.758
 4573SOL    HW214619   0.813   0.274   0.597
 4574SOL     OW14620   6.055   4.382   6.699
 4574SOL    HW114621   5.979   4.318   6.690
 4574SOL    HW214622   6.112   4.355   6.777
 4575SOL     OW14623   5.960   0.803   4.602
 4575SOL    HW114624   5.893   0.737   4.568
 4575SOL    HW214625   5.956   0.808   4.701
 4576SOL     OW14626   2.561   4.811   5.295
 4576SOL    HW114627   2.632   4.743   5.311
 4576SOL    HW214628   2.547   4.823   5.196
 4577SOL     OW14629   1.233   2.412   2.932
 4577SOL    HW114630   1.265   2.321   2.904
 4577SOL    HW214631   1.311   2.466   2.965
 4578SOL     OW14632   0.638   0.737   3.746
 4578SOL    HW114633   0.560   0.777   3.794
 4578SOL    HW214634   0.723   0.769   3.788
 4579SOL     OW14635   5.243   1.095   1.420
 4579SOL    HW114636   5.245   1.185   1.378
 4579SOL    HW214637   5.187   1.034   1.365
 4580SOL     OW14638   5.707   4.412   0.687
 4580SOL    HW114639   5.673   4.351   0.615
 4580SOL    HW214640   5.792   4.456   0.656
 4581SOL     OW14641   2.999   6.356   2.374
 4581SOL    HW114642   2.996   6.257   2.364
 4581SOL    HW214643   3.075   6.393   2.322
 4582SOL     OW14644   4.559   0.673   3.227
 4582SOL    HW114645   4.520   0.680   3.319
 4582SOL    HW214646   4.491   0.635   3.165
 4583SOL     OW14647   2.113   1.083   6.531
 4583SOL    HW114648   2.105   1.000   6.475
 4583SOL    HW214649   2.115   1.058   6.627
 4584SOL     OW14650   1.937   6.604   5.933
 4584SOL    HW114651   1.843   6.638   5.927
 4584SOL    HW214652   1.972   6.586   5.840
 4585SOL     OW14653   1.828   3.984   3.481
 4585SOL    HW114654   1.825   4.044   3.401
 4585SOL    HW214655   1.772   3.902   3.463
 4586SOL     OW14656   5.127   3.942   0.765
 4586SOL    HW114657   5.028   3.935   0.771
 4586SOL    HW214658   5.168   3.857   0.799
 4587SOL     OW14659   3.479   3.210   4.345
 4587SOL    HW114660   3.497   3.131   4.286
 4587SOL    HW214661   3.537   3.286   4.318
 4588SOL     OW14662   3.166   3.319   5.736
 4588SOL    HW114663   3.237   3.375   5.778
 4588SOL    HW214664   3.090   3.308   5.801
 4589SOL     OW14665   5.693   6.296   1.982
 4589SOL    HW114666   5.634   6.223   2.017
 4589SOL    HW214667   5.705   6.284   1.884
 4590SOL     OW14668   3.539   6.290   1.469
 4590SOL    HW114669   3.639   6.297   1.476
 4590SOL    HW214670   3.512   6.301   1.373
 4591SOL     OW14671   1.865   0.875   4.641
 4591SOL    HW114672   1.861   0.885   4.740
 4591SOL    HW214673   1.956   0.902   4.608
 4592SOL     OW14674   2.424   2.058   3.850
 4592SOL    HW114675   2.339   2.081   3.802
 4592SOL    HW214676   2.412   1.972   3.899
 4593SOL     OW14677   6.490   5.837   2.862
 4593SOL    HW114678   6.542   5.762   2.821
 4593SOL    HW214679   6.520   5.851   2.956
 4594SOL     OW14680   3.047   0.178   2.834
 4594SOL    HW114681   3.045   0.163   2.932
 4594SOL    HW214682   3.138   0.158   2.798
 4595SOL     OW14683   4.926   2.675   5.619
 4595SOL    HW114684   4.854   2.732   5.579
 4595SOL    HW214685   4.888   2.585   5.643
 4596SOL     OW14686   0.082   0.868   2.202
 4596SOL    HW114687   0.180   0.845   2.201
 4596SOL    HW214688   0.029   0.786   2.180
 4597SOL     OW14689   2.886   5.427   6.911
 4597SOL    HW114690   2.798   5.471   6.892
 4597SOL    HW214691   2.944   5.433   6.830
 4598SOL     OW14692   1.919   5.481   1.021
 4598SOL    HW114693   2.007   5.477   0.973
 4598SOL    HW214694   1.874   5.568   0.999
 4599SOL     OW14695   1.885   3.664   2.122
 4599SOL    HW114696   1.882   3.725   2.043
 4599SOL    HW214697   1.875   3.717   2.206
 4600SOL     OW14698   0.292   6.952   6.067
 4600SOL    HW114699   0.336   6.974   5.980
 4600SOL    HW214700   0.307   0.002   6.131
 4601SOL     OW14701   0.711   1.304   5.065
 4601SOL    HW114702   0.765   1.318   5.148
 4601SOL    HW214703   0.710   1.389   5.012
 4602SOL     OW14704   3.087   0.082   6.197
 4602SOL    HW114705   3.099   0.020   6.120
 4602SOL    HW214706   3.161   0.070   6.263
 4603SOL     OW14707   3.789   5.989   0.980
 4603SOL    HW114708   3.714   5.922   0.979
 4603SOL    HW214709   3.815   6.012   0.886
 4604SOL     OW14710   5.012   6.913   6.003
 4604SOL    HW114711   5.048   6.832   6.048
 4604SOL    HW214712   4.951   6.885   5.929
 4605SOL     OW14713   2.385   0.099   1.720
 4605SOL    HW114714   2.348   0.036   1.787
 4605SOL    HW214715   2.372   0.061   1.628
 4606SOL     OW14716   7.004   0.113   2.400
 4606SOL    HW114717   0.041   0.180   2.441
 4606SOL    HW214718   0.031   0.033   2.372
 4607SOL     OW14719   2.183   3.645   3.179
 4607SOL    HW114720   2.216   3.735   3.150
 4607SOL    HW214721   2.083   3.644   3.179
 4608SOL     OW14722   0.221   3.335   3.870
 4608SOL    HW114723   0.231   3.412   3.806
 4608SOL    HW214724   0.235   3.367   3.963
 4609SOL     OW14725   5.029   5.430   6.818
 4609SOL    HW114726   4.931   5.412   6.826
 4609SOL    HW214727   5.080   5.348   6.843
 4610SOL     OW14728   4.605   2.076   6.503
 4610SOL    HW114729   4.588   2.004   6.435
 4610SOL    HW214730   4.695   2.116   6.485
 4611SOL     OW14731   0.296   0.831   5.955
 4611SOL    HW114732   0.226   0.882   6.006
 4611SOL    HW214733   0.257   0.797   5.869
 4612SOL     OW14734   2.346   6.551   1.736
 4612SOL    HW114735   2.268   6.538   1.798
 4612SOL    HW214736   2.316   6.603   1.656
 4613SOL     OW14737   1.405   5.471   2.523
 4613SOL    HW114738   1.427   5.559   2.564
 4613SOL    HW214739   1.436   5.397   2.583
 4614SOL     OW14740   6.196   3.085   3.967
 4614SOL    HW114741   6.172   3.133   4.051
 4614SOL    HW214742   6.187   3.148   3.889
 4615SOL     OW14743   1.184   0.618   1.364
 4615SOL    HW114744   1.140   0.545   1.312
 4615SOL    HW214745   1.241   0.578   1.435
 4616SOL     OW14746   6.099   2.292   4.561
 4616SOL    HW114747   6.179   2.308   4.504
 4616SOL    HW214748   6.094   2.361   4.633
 4617SOL     OW14749   1.421   2.118   2.451
 4617SOL    HW114750   1.446   2.211   2.479
 4617SOL    HW214751   1.497   2.077   2.401
 4618SOL     OW14752   2.788   3.512   5.398
 4618SOL    HW114753   2.870   3.481   5.445
 4618SOL    HW214754   2.807   3.596   5.348
 4619SOL     OW14755   2.979   6.619   3.599
 4619SOL    HW114756   2.906   6.677   3.565
 4619SOL    HW214757   2.951   6.576   3.685
 4620SOL     OW14758   0.410   5.106   1.378
 4620SOL    HW114759   0.483   5.119   1.311
 4620SOL    HW214760   0.409   5.010   1.408
 4621SOL     OW14761   5.219   0.356   1.966
 4621SOL    HW114762   5.214   0.436   2.026
 4621SOL    HW214763   5.201   0.383   1.872
 4622SOL     OW14764   4.534   4.758   1.053
 4622SOL    HW114765   4.544   4.857   1.043
 4622SOL    HW214766   4.442   4.738   1.088
 4623SOL     OW14767   4.212   5.529   0.978
 4623SOL    HW114768   4.135   5.546   1.039
 4623SOL    HW214769   4.189   5.559   0.885
 4624SOL     OW14770   3.568   1.536   3.286
 4624SOL    HW114771   3.490   1.478   3.309
 4624SOL    HW214772   3.632   1.539   3.363
 4625SOL     OW14773   2.598   6.035   1.602
 4625SOL    HW114774   2.576   6.133   1.601
 4625SOL    HW214775   2.592   5.999   1.509
 4626SOL     OW14776   4.194   3.817   1.863
 4626SOL    HW114777   4.174   3.912   1.838
 4626SOL    HW214778   4.198   3.762   1.780
 4627SOL     OW14779   0.365   6.192   4.927
 4627SOL    HW114780   0.293   6.197   4.997
 4627SOL    HW214781   0.395   6.284   4.903
 4628SOL     OW14782   4.817   4.513   3.465
 4628SOL    HW114783   4.794   4.499   3.561
 4628SOL    HW214784   4.735   4.540   3.414
 4629SOL     OW14785   2.842   4.993   6.223
 4629SOL    HW114786   2.761   5.045   6.192
 4629SOL    HW214787   2.892   5.047   6.290
 4630SOL     OW14788   1.829   5.552   2.682
 4630SOL    HW114789   1.779   5.581   2.764
 4630SOL    HW214790   1.842   5.631   2.622
 4631SOL     OW14791   0.868   6.837   3.763
 4631SOL    HW114792   0.944   6.772   3.770
 4631SOL    HW214793   0.789   6.792   3.721
 4632SOL     OW14794   2.357   5.716   2.767
 4632SOL    HW114795   2.331   5.719   2.864
 4632SOL    HW214796   2.385   5.624   2.743
 4633SOL     OW14797   4.999   1.510   4.209
 4633SOL    HW114798   5.041   1.585   4.260
 4633SOL    HW214799   5.068   1.463   4.155
 4634SOL     OW14800   3.054   3.832   4.830
 4634SOL    HW114801   2.996   3.857   4.907
 4634SOL    HW214802   3.049   3.733   4.815
 4635SOL     OW14803   4.296   4.632   1.180
 4635SOL    HW114804   4.351   4.550   1.169
 4635SOL    HW214805   4.202   4.613   1.151
 4636SOL     OW14806   1.856   4.863   1.121
 4636SOL    HW114807   1.852   4.945   1.064
 4636SOL    HW214808   1.892   4.786   1.067
 4637SOL     OW14809   0.988   6.727   0.123
 4637SOL    HW114810   0.988   6.764   0.216
 4637SOL    HW214811   0.952   6.796   0.060
 4638SOL     OW14812   3.615   5.301   6.658
 4638SOL    HW114813   3.693   5.287   6.597
 4638SOL    HW214814   3.530   5.279   6.609
 4639SOL     OW14815   2.800   2.637   6.489
 4639SOL    HW114816   2.746   2.629   6.573
 4639SOL    HW214817   2.759   2.580   6.418
 4640SOL     OW14818   6.091   2.586   4.522
 4640SOL    HW114819   6.168   2.536   4.560
 4640SOL    HW214820   6.119   2.631   4.437
 4641SOL     OW14821   2.042   6.947   3.600
 4641SOL    HW114822   1.947   6.919   3.614
 4641SOL    HW214823   2.076   6.993   3.681
 4642SOL     OW14824   1.850   0.759   3.381
 4642SOL    HW114825   1.852   0.745   3.282
 4642SOL    HW214826   1.856   0.857   3.400
 4643SOL     OW14827   6.386   2.284   0.516
 4643SOL    HW114828   6.402   2.365   0.572
 4643SOL    HW214829   6.447   2.210   0.545
 4644SOL     OW14830   6.637   0.876   5.615
 4644SOL    HW114831   6.543   0.843   5.631
 4644SOL    HW214832   6.673   0.914   5.700
 4645SOL     OW14833   1.467   0.777   4.226
 4645SOL    HW114834   1.448   0.701   4.288
 4645SOL    HW214835   1.516   0.849   4.275
 4646SOL     OW14836   2.462   4.807   4.688
 4646SOL    HW114837   2.520   4.732   4.720
 4646SOL    HW214838   2.369   4.773   4.671
 4647SOL     OW14839   1.499   0.580   3.256
 4647SOL    HW114840   1.402   0.558   3.257
 4647SOL    HW214841   1.511   0.676   3.232
 4648SOL     OW14842   2.539   0.709   4.289
 4648SOL    HW114843   2.575   0.732   4.199
 4648SOL    HW214844   2.525   0.792   4.342
 4649SOL     OW14845   5.505   0.912   1.203
 4649SOL    HW114846   5.406   0.922   1.189
 4649SOL    HW214847   5.553   0.983   1.152
 4650SOL     OW14848   4.434   5.891   1.563
 4650SOL    HW114849   4.411   5.818   1.627
 4650SOL    HW214850   4.494   5.957   1.608
 4651SOL     OW14851   6.094   3.886   6.679
 4651SOL    HW114852   6.000   3.856   6.666
 4651SOL    HW214853   6.106   3.977   6.639
 4652SOL     OW14854   6.405   6.322   4.598
 4652SOL    HW114855   6.435   6.293   4.507
 4652SOL    HW214856   6.462   6.278   4.667
 4653SOL     OW14857   5.017   5.210   0.350
 4653SOL    HW114858   5.090   5.145   0.371
 4653SOL    HW214859   4.995   5.205   0.252
 4654SOL     OW14860   6.877   6.798   5.558
 4654SOL    HW114861   6.912   6.747   5.637
 4654SOL    HW214862   6.783   6.769   5.539
 4655SOL     OW14863   4.969   3.799   2.000
 4655SOL    HW114864   4.913   3.842   1.928
 4655SOL    HW214865   4.915   3.729   2.047
 4656SOL     OW14866   0.947   0.346   1.535
 4656SOL    HW114867   0.875   0.362   1.468
 4656SOL    HW214868   1.019   0.288   1.494
 4657SOL     OW14869   5.931   6.007   1.769
 4657SOL    HW114870   5.872   5.933   1.736
 4657SOL    HW214871   5.984   5.975   1.847
 4658SOL     OW14872   2.766   2.691   5.332
 4658SOL    HW114873   2.710   2.696   5.414
 4658SOL    HW214874   2.829   2.614   5.339
 4659SOL     OW14875   3.516   4.457   1.428
 4659SOL    HW114876   3.465   4.483   1.510
 4659SOL    HW214877   3.487   4.365   1.399
 4660SOL     OW14878   1.464   6.916   3.933
 4660SOL    HW114879   1.373   6.892   3.966
 4660SOL    HW214880   1.456   6.990   3.866
 4661SOL     OW14881   2.480   4.865   5.710
 4661SOL    HW114882   2.400   4.846   5.653
 4661SOL    HW214883   2.563   4.850   5.656
 4662SOL     OW14884   2.937   0.273   4.984
 4662SOL    HW114885   2.891   0.189   5.012
 4662SOL    HW214886   2.870   0.347   4.973
 4663SOL     OW14887   0.537   6.855   0.175
 4663SOL    HW114888   0.588   6.821   0.254
 4663SOL    HW214889   0.478   6.782   0.140
 4664SOL     OW14890   6.748   0.344   0.827
 4664SOL    HW114891   6.816   0.327   0.898
 4664SOL    HW214892   6.674   0.278   0.835
 4665SOL     OW14893   2.346   0.587   6.194
 4665SOL    HW114894   2.328   0.641   6.112
 4665SOL    HW214895   2.358   0.491   6.169
 4666SOL     OW14896   2.109   2.084   6.514
 4666SOL    HW114897   2.128   2.104   6.418
 4666SOL    HW214898   2.175   2.017   6.547
 4667SOL     OW14899   6.569   4.128   2.435
 4667SOL    HW114900   6.611   4.151   2.523
 4667SOL    HW214901   6.611   4.045   2.398
 4668SOL     OW14902   4.134   1.896   4.781
 4668SOL    HW114903   4.232   1.895   4.762
 4668SOL    HW214904   4.114   1.834   4.857
 4669SOL     OW14905   5.344   0.035   6.929
 4669SOL    HW114906   5.439   0.006   6.941
 4669SOL    HW214907   5.295   0.025   7.016
 4670SOL     OW14908   1.188   3.192   0.239
 4670SOL    HW114909   1.178   3.291   0.247
 4670SOL    HW214910   1.270   3.171   0.185
 4671SOL     OW14911   0.361   3.261   0.347
 4671SOL    HW114912   0.383   3.345   0.299
 4671SOL    HW214913   0.410   3.259   0.435
 4672SOL     OW14914   4.593   4.485   5.935
 4672SOL    HW114915   4.502   4.507   5.899
 4672SOL    HW214916   4.585   4.420   6.010
 4673SOL     OW14917   5.356   0.421   0.128
 4673SOL    HW114918   5.326   0.402   0.035
 4673SOL    HW214919   5.278   0.454   0.182
 4674SOL     OW14920   6.161   1.434   0.240
 4674SOL    HW114921   6.225   1.416   0.315
 4674SOL    HW214922   6.207   1.487   0.169
 4675SOL     OW14923   3.737   0.118   6.703
 4675SOL    HW114924   3.660   0.130   6.764
 4675SOL    HW214925   3.820   0.100   6.756
 4676SOL     OW14926   0.636   6.800   4.258
 4676SOL    HW114927   0.683   6.762   4.338
 4676SOL    HW214928   0.578   6.876   4.287
 4677SOL     OW14929   2.957   0.569   6.981
 4677SOL    HW114930   2.882   0.622   6.939
 4677SOL    HW214931   2.976   0.489   6.924
 4678SOL     OW14932   1.784   5.364   2.458
 4678SOL    HW114933   1.802   5.422   2.538
 4678SOL    HW214934   1.807   5.414   2.375
 4679SOL     OW14935   3.319   1.453   6.103
 4679SOL    HW114936   3.385   1.379   6.084
 4679SOL    HW214937   3.233   1.432   6.057
 4680SOL     OW14938   2.179   6.120   1.223
 4680SOL    HW114939   2.257   6.162   1.268
 4680SOL    HW214940   2.158   6.169   1.138
 4681SOL     OW14941   6.263   6.375   4.146
 4681SOL    HW114942   6.336   6.307   4.144
 4681SOL    HW214943   6.242   6.399   4.241
 4682SOL     OW14944   4.538   5.423   0.017
 4682SOL    HW114945   4.516   5.446   0.112
 4682SOL    HW214946   4.466   5.364   7.004
 4683SOL     OW14947   5.757   4.645   2.507
 4683SOL    HW114948   5.667   4.619   2.473
 4683SOL    HW214949   5.825   4.580   2.473
 4684SOL     OW14950   0.558   2.134   4.651
 4684SOL    HW114951   0.504   2.199   4.598
 4684SOL    HW214952   0.498   2.076   4.705
 4685SOL     OW14953   6.764   5.615   4.538
 4685SOL    HW114954   6.801   5.567   4.458
 4685SOL    HW214955   6.666   5.597   4.545
 4686SOL     OW14956   5.264   5.513   0.424
 4686SOL    HW114957   5.301   5.435   0.475
 4686SOL    HW214958   5.257   5.592   0.485
 4687SOL     OW14959   6.542   4.223   4.952
 4687SOL    HW114960   6.524   4.302   4.893
 4687SOL    HW214961   6.582   4.254   5.038
 4688SOL     OW14962   0.304   3.130   6.427
 4688SOL    HW114963   0.358   3.196   6.375
 4688SOL    HW214964   0.219   3.110   6.377
 4689SOL     OW14965   6.203   0.515   6.115
 4689SOL    HW114966   6.192   0.434   6.058
 4689SOL    HW214967   6.257   0.491   6.196
 4690SOL     OW14968   1.139   0.980   6.870
 4690SOL    HW114969   1.041   0.999   6.864
 4690SOL    HW214970   1.189   1.047   6.816
 4691SOL     OW14971   2.719   3.739   1.543
 4691SOL    HW114972   2.649   3.669   1.554
 4691SOL    HW214973   2.696   3.819   1.599
 4692SOL     OW14974   0.084   5.078   2.841
 4692SOL    HW114975   0.086   5.103   2.938
 4692SOL    HW214976   0.025   4.998   2.829
 4693SOL     OW14977   0.339   1.235   4.835
 4693SOL    HW114978   0.413   1.168   4.846
 4693SOL    HW214979   0.252   1.193   4.864
 4694SOL     OW14980   3.049   0.503   0.198
 4694SOL    HW114981   2.971   0.488   0.257
 4694SOL    HW214982   3.018   0.522   0.105
 4695SOL     OW14983   3.577   3.483   1.620
 4695SOL    HW114984   3.528   3.408   1.665
 4695SOL    HW214985   3.673   3.480   1.645
 4696SOL     OW14986   1.022   4.352   5.881
 4696SOL    HW114987   1.084   4.297   5.937
 4696SOL    HW214988   1.000   4.301   5.797
 4697SOL     OW14989   1.555   3.681   0.809
 4697SOL    HW114990   1.636   3.738   0.817
 4697SOL    HW214991   1.582   3.585   0.804
 4698SOL     OW14992   4.912   4.460   2.676
 4698SOL    HW114993   4.973   4.539   2.675
 4698SOL    HW214994   4.818   4.489   2.656
 4699SOL     OW14995   0.540   6.583   2.369
 4699SOL    HW114996   0.446   6.561   2.345
 4699SOL    HW214997   0.579   6.509   2.425
 4700SOL     OW14998   5.463   1.707   1.645
 4700SOL    HW114999   5.372   1.735   1.677
 4700SOL    HW215000   5.524   1.697   1.723
 4701SOL     OW15001   0.941   1.487   7.004
 4701SOL    HW115002   0.893   1.441   6.929
 4701SOL    HW215003   1.040   1.476   6.992
 4702SOL     OW15004   4.303   4.209   6.219
 4702SOL    HW115005   4.314   4.151   6.300
 4702SOL    HW215006   4.393   4.244   6.192
 4703SOL     OW15007   0.887   2.126   2.639
 4703SOL    HW115008   0.815   2.159   2.578
 4703SOL    HW215009   0.976   2.146   2.599
 4704SOL     OW15010   0.171   5.807   0.894
 4704SOL    HW115011   0.218   5.873   0.953
 4704SOL    HW215012   0.208   5.716   0.910
 4705SOL     OW15013   3.080   3.135   3.233
 4705SOL    HW115014   2.988   3.161   3.206
 4705SOL    HW215015   3.082   3.118   3.332
 4706SOL     OW15016   3.913   5.804   6.596
 4706SOL    HW115017   3.887   5.898   6.617
 4706SOL    HW215018   3.839   5.742   6.620
 4707SOL     OW15019   2.140   5.585   0.873
 4707SOL    HW115020   2.149   5.553   0.778
 4707SOL    HW215021   2.131   5.685   0.874
 4708SOL     OW15022   2.679   2.673   0.598
 4708SOL    HW115023   2.740   2.707   0.670
 4708SOL    HW215024   2.590   2.717   0.606
 4709SOL     OW15025   4.004   5.095   4.974
 4709SOL    HW115026   3.971   5.167   5.034
 4709SOL    HW215027   3.927   5.046   4.935
 4710SOL     OW15028   4.401   1.136   6.375
 4710SOL    HW115029   4.418   1.231   6.350
 4710SOL    HW215030   4.487   1.091   6.397
 4711SOL     OW15031   4.227   0.149   2.644
 4711SOL    HW115032   4.321   0.180   2.660
 4711SOL    HW215033   4.228   0.052   2.618
 4712SOL     OW15034   2.334   4.840   0.903
 4712SOL    HW115035   2.387   4.763   0.940
 4712SOL    HW215036   2.383   4.879   0.825
 4713SOL     OW15037   3.349   4.651   1.316
 4713SOL    HW115038   3.370   4.553   1.324
 4713SOL    HW215039   3.349   4.678   1.220
 4714SOL     OW15040   2.051   2.262   0.134
 4714SOL    HW115041   2.114   2.189   0.106
 4714SOL    HW215042   2.013   2.306   0.053
 4715SOL     OW15043   6.378   3.534   2.565
 4715SOL    HW115044   6.369   3.632   2.585
 4715SOL    HW215045   6.318   3.482   2.626
 4716SOL     OW15046   3.706   4.952   6.459
 4716SOL    HW115047   3.713   4.878   6.525
 4716SOL    HW215048   3.694   4.914   6.367
 4717SOL     OW15049   1.217   6.067   2.101
 4717SOL    HW115050   1.176   5.987   2.145
 4717SOL    HW215051   1.221   6.052   2.002
 4718SOL     OW15052   5.202   2.042   6.333
 4718SOL    HW115053   5.177   2.078   6.423
 4718SOL    HW215054   5.119   2.024   6.280
 4719SOL     OW15055   4.949   3.543   2.653
 4719SOL    HW115056   4.918   3.623   2.706
 4719SOL    HW215057   5.029   3.503   2.696
 4720SOL     OW15058   2.435   6.495   5.361
 4720SOL    HW115059   2.335   6.490   5.353
 4720SOL    HW215060   2.476   6.470   5.273
 4721SOL     OW15061   0.575   2.199   1.927
 4721SOL    HW115062   0.497   2.141   1.903
 4721SOL    HW215063   0.640   2.147   1.981
 4722SOL     OW15064   1.703   6.058   6.783
 4722SOL    HW115065   1.684   5.967   6.820
 4722SOL    HW215066   1.748   6.114   6.853
 4723SOL     OW15067   2.090   5.894   6.091
 4723SOL    HW115068   2.092   5.904   5.991
 4723SOL    HW215069   2.031   5.817   6.115
 4724SOL     OW15070   4.063   6.474   2.589
 4724SOL    HW115071   4.041   6.558   2.540
 4724SOL    HW215072   4.011   6.471   2.675
 4725SOL     OW15073   5.107   6.314   3.122
 4725SOL    HW115074   5.120   6.403   3.165
 4725SOL    HW215075   5.011   6.304   3.094
 4726SOL     OW15076   0.756   3.482   6.999
 4726SOL    HW115077   0.662   3.512   6.984
 4726SOL    HW215078   0.766   3.449   0.069
 4727SOL     OW15079   0.138   5.821   0.003
 4727SOL    HW115080   0.039   5.804   7.020
 4727SOL    HW215081   0.166   5.885   6.956
 4728SOL     OW15082   5.170   1.610   0.847
 4728SOL    HW115083   5.267   1.636   0.853
 4728SOL    HW215084   5.114   1.692   0.834
 4729SOL     OW15085   1.951   1.068   2.945
 4729SOL    HW115086   1.964   1.164   2.971
 4729SOL    HW215087   1.949   1.011   3.027
 4730SOL     OW15088   2.221   6.183   5.898
 4730SOL    HW115089   2.312   6.154   5.929
 4730SOL    HW215090   2.225   6.204   5.801
 4731SOL     OW15091   5.650   0.241   5.460
 4731SOL    HW115092   5.661   0.269   5.556
 4731SOL    HW215093   5.577   0.296   5.418
 4732SOL     OW15094   0.178   3.266   6.819
 4732SOL    HW115095   0.175   3.210   6.902
 4732SOL    HW215096   0.089   3.308   6.804
 4733SOL     OW15097   1.086   3.776   3.718
 4733SOL    HW115098   1.089   3.875   3.706
 4733SOL    HW215099   1.128   3.731   3.639
 4734SOL     OW15100   5.463   2.759   6.879
 4734SOL    HW115101   5.449   2.758   6.978
 4734SOL    HW215102   5.552   2.800   6.859
 4735SOL     OW15103   1.153   5.028   3.368
 4735SOL    HW115104   1.236   5.083   3.370
 4735SOL    HW215105   1.176   4.932   3.355
 4736SOL     OW15106   0.219   1.227   6.518
 4736SOL    HW115107   0.283   1.199   6.589
 4736SOL    HW215108   0.218   1.158   6.445
 4737SOL     OW15109   2.402   4.880   2.353
 4737SOL    HW115110   2.375   4.917   2.264
 4737SOL    HW215111   2.388   4.949   2.424
 4738SOL     OW15112   6.985   6.305   1.880
 4738SOL    HW115113   6.992   6.391   1.830
 4738SOL    HW215114   0.051   6.276   1.910
 4739SOL     OW15115   4.683   0.315   2.094
 4739SOL    HW115116   4.631   0.264   2.163
 4739SOL    HW215117   4.620   0.352   2.026
 4740SOL     OW15118   0.652   1.388   2.511
 4740SOL    HW115119   0.752   1.382   2.510
 4740SOL    HW215120   0.622   1.450   2.439
 4741SOL     OW15121   3.714   2.286   1.141
 4741SOL    HW115122   3.749   2.320   1.229
 4741SOL    HW215123   3.659   2.204   1.157
 4742SOL     OW15124   2.197   6.622   0.012
 4742SOL    HW115125   2.137   6.691   6.995
 4742SOL    HW215126   2.290   6.633   7.001
 4743SOL     OW15127   1.731   3.797   2.538
 4743SOL    HW115128   1.804   3.828   2.477
 4743SOL    HW215129   1.761   3.808   2.633
 4744SOL     OW15130   2.158   5.549   0.601
 4744SOL    HW115131   2.215   5.528   0.522
 4744SOL    HW215132   2.062   5.534   0.577
 4745SOL     OW15133   2.908   3.636   0.256
 4745SOL    HW115134   2.929   3.581   0.175
 4745SOL    HW215135   2.990   3.686   0.285
 4746SOL     OW15136   4.545   5.415   3.882
 4746SOL    HW115137   4.482   5.439   3.808
 4746SOL    HW215138   4.493   5.395   3.965
 4747SOL     OW15139   1.346   2.860   0.448
 4747SOL    HW115140   1.275   2.928   0.469
 4747SOL    HW215141   1.384   2.824   0.532
 4748SOL     OW15142   1.909   6.440   2.066
 4748SOL    HW115143   1.831   6.503   2.066
 4748SOL    HW215144   1.881   6.352   2.028
 4749SOL     OW15145   2.213   7.010   0.103
 4749SOL    HW115146   2.168   0.075   0.105
 4749SOL    HW215147   2.219   6.978   0.008
 4750SOL     OW15148   6.152   4.155   5.196
 4750SOL    HW115149   6.228   4.219   5.211
 4750SOL    HW215150   6.154   4.122   5.102
 4751SOL     OW15151   5.096   1.972   2.757
 4751SOL    HW115152   5.038   2.044   2.720
 4751SOL    HW215153   5.136   1.919   2.682
 4752SOL     OW15154   4.574   1.095   0.305
 4752SOL    HW115155   4.545   1.154   0.380
 4752SOL    HW215156   4.621   1.015   0.341
 4753SOL     OW15157   1.321   6.683   4.749
 4753SOL    HW115158   1.331   6.619   4.672
 4753SOL    HW215159   1.349   6.774   4.720
 4754SOL     OW15160   4.524   3.838   5.840
 4754SOL    HW115161   4.491   3.870   5.929
 4754SOL    HW215162   4.576   3.753   5.853
 4755SOL     OW15163   1.823   0.553   0.990
 4755SOL    HW115164   1.761   0.631   0.979
 4755SOL    HW215165   1.797   0.481   0.925
 4756SOL     OW15166   6.859   4.345   6.641
 4756SOL    HW115167   6.890   4.250   6.650
 4756SOL    HW215168   6.935   4.406   6.662
 4757SOL     OW15169   1.461   2.585   1.601
 4757SOL    HW115170   1.488   2.546   1.689
 4757SOL    HW215171   1.386   2.649   1.614
 4758SOL     OW15172   1.515   0.164   3.460
 4758SOL    HW115173   1.572   0.238   3.423
 4758SOL    HW215174   1.420   0.195   3.464
 4759SOL     OW15175   0.486   5.386   0.138
 4759SOL    HW115176   0.390   5.411   0.148
 4759SOL    HW215177   0.529   5.381   0.229
 4760SOL     OW15178   1.297   6.889   0.822
 4760SOL    HW115179   1.221   6.952   0.831
 4760SOL    HW215180   1.280   6.826   0.746
 4761SOL     OW15181   6.999   0.181   0.673
 4761SOL    HW115182   6.946   0.129   0.741
 4761SOL    HW215183   0.047   0.232   0.720
 4762SOL     OW15184   1.538   5.963   2.084
 4762SOL    HW115185   1.590   6.031   2.136
 4762SOL    HW215186   1.508   6.004   1.998
 4763SOL     OW15187   4.726   5.690   2.216
 4763SOL    HW115188   4.647   5.643   2.256
 4763SOL    HW215189   4.795   5.623   2.190
 4764SOL     OW15190   4.896   3.603   5.333
 4764SOL    HW115191   4.853   3.601   5.423
 4764SOL    HW215192   4.833   3.564   5.265
 4765SOL     OW15193   3.143   0.779   5.325
 4765SOL    HW115194   3.181   0.691   5.354
 4765SOL    HW215195   3.211   0.829   5.272
 4766SOL     OW15196   5.952   7.021   4.204
 4766SOL    HW115197   5.953   6.931   4.162
 4766SOL    HW215198   5.858   0.024   4.224
 4767SOL     OW15199   2.503   5.533   5.122
 4767SOL    HW115200   2.518   5.549   5.219
 4767SOL    HW215201   2.448   5.450   5.109
 4768SOL     OW15202   4.492   3.411   6.353
 4768SOL    HW115203   4.502   3.361   6.439
 4768SOL    HW215204   4.415   3.374   6.301
 4769SOL     OW15205   2.750   6.138   0.732
 4769SOL    HW115206   2.728   6.215   0.791
 4769SOL    HW215207   2.667   6.105   0.687
 4770SOL     OW15208   6.770   1.928   5.773
 4770SOL    HW115209   6.816   1.964   5.692
 4770SOL    HW215210   6.779   1.828   5.774
 4771SOL     OW15211   2.297   0.136   5.177
 4771SOL    HW115212   2.338   0.057   5.132
 4771SOL    HW215213   2.233   0.181   5.114
 4772SOL     OW15214   3.132   4.776   0.917
 4772SOL    HW115215   3.120   4.873   0.934
 4772SOL    HW215216   3.162   4.762   0.822
 4773SOL     OW15217   1.834   5.790   4.588
 4773SOL    HW115218   1.741   5.805   4.555
 4773SOL    HW215219   1.862   5.696   4.567
 4774SOL     OW15220   1.814   4.154   0.675
 4774SOL    HW115221   1.868   4.177   0.757
 4774SOL    HW215222   1.876   4.120   0.604
 4775SOL     OW15223   5.252   6.554   4.476
 4775SOL    HW115224   5.180   6.622   4.485
 4775SOL    HW215225   5.211   6.465   4.456
 4776SOL     OW15226   1.379   0.630   5.241
 4776SOL    HW115227   1.404   0.594   5.331
 4776SOL    HW215228   1.285   0.605   5.220
 4777SOL     OW15229   1.066   5.194   0.459
 4777SOL    HW115230   0.977   5.153   0.442
 4777SOL    HW215231   1.104   5.157   0.544
 4778SOL     OW15232   0.921   2.341   4.957
 4778SOL    HW115233   0.972   2.385   4.883
 4778SOL    HW215234   0.864   2.268   4.919
 4779SOL     OW15235   6.032   0.429   4.280
 4779SOL    HW115236   6.024   0.528   4.264
 4779SOL    HW215237   5.988   0.380   4.205
 4780SOL     OW15238   5.684   2.786   5.670
 4780SOL    HW115239   5.769   2.736   5.687
 4780SOL    HW215240   5.663   2.784   5.573
 4781SOL     OW15241   2.690   5.652   2.411
 4781SOL    HW115242   2.714   5.736   2.362
 4781SOL    HW215243   2.766   5.627   2.471
 4782SOL     OW15244   5.618   5.312   5.748
 4782SOL    HW115245   5.657   5.221   5.731
 4782SOL    HW215246   5.581   5.315   5.841
 4783SOL     OW15247   5.808   3.994   0.421
 4783SOL    HW115248   5.759   3.926   0.367
 4783SOL    HW215249   5.884   4.030   0.367
 4784SOL     OW15250   6.083   2.122   6.260
 4784SOL    HW115251   6.089   2.133   6.160
 4784SOL    HW215252   6.023   2.192   6.298
 4785SOL     OW15253   0.274   6.951   3.056
 4785SOL    HW115254   0.270   6.900   3.141
 4785SOL    HW215255   0.366   6.944   3.017
 4786SOL     OW15256   2.900   0.252   0.737
 4786SOL    HW115257   2.989   0.286   0.769
 4786SOL    HW215258   2.874   0.172   0.790
 4787SOL     OW15259   4.330   2.334   4.238
 4787SOL    HW115260   4.349   2.420   4.191
 4787SOL    HW215261   4.315   2.351   4.336
 4788SOL     OW15262   5.748   5.536   6.927
 4788SOL    HW115263   5.771   5.618   6.980
 4788SOL    HW215264   5.658   5.548   6.884
 4789SOL     OW15265   5.077   1.997   2.027
 4789SOL    HW115266   5.022   2.048   2.093
 4789SOL    HW215267   5.030   1.994   1.939
 4790SOL     OW15268   5.229   1.601   5.361
 4790SOL    HW115269   5.311   1.601   5.303
 4790SOL    HW215270   5.168   1.675   5.332
 4791SOL     OW15271   0.376   2.728   0.646
 4791SOL    HW115272   0.382   2.774   0.735
 4791SOL    HW215273   0.445   2.767   0.584
 4792SOL     OW15274   1.552   4.820   4.949
 4792SOL    HW115275   1.572   4.740   4.893
 4792SOL    HW215276   1.453   4.830   4.960
 4793SOL     OW15277   1.361   4.307   6.227
 4793SOL    HW115278   1.425   4.364   6.175
 4793SOL    HW215279   1.360   4.215   6.188
 4794SOL     OW15280   4.813   0.476   3.820
 4794SOL    HW115281   4.800   0.448   3.725
 4794SOL    HW215282   4.889   0.425   3.860
 4795SOL     OW15283   0.230   1.773   4.226
 4795SOL    HW115284   0.242   1.757   4.128
 4795SOL    HW215285   0.136   1.800   4.244
 4796SOL     OW15286   3.716   1.284   6.111
 4796SOL    HW115287   3.696   1.260   6.206
 4796SOL    HW215288   3.630   1.307   6.064
 4797SOL     OW15289   0.185   5.532   4.511
 4797SOL    HW115290   0.274   5.516   4.469
 4797SOL    HW215291   0.135   5.600   4.457
 4798SOL     OW15292   5.477   4.792   6.358
 4798SOL    HW115293   5.519   4.867   6.408
 4798SOL    HW215294   5.520   4.783   6.268
 4799SOL     OW15295   3.112   2.209   0.029
 4799SOL    HW115296   3.033   2.269   0.016
 4799SOL    HW215297   3.172   2.213   6.974
 4800SOL     OW15298   2.060   4.339   0.370
 4800SOL    HW115299   1.980   4.374   0.320
 4800SOL    HW215300   2.068   4.389   0.456
 4801SOL     OW15301   4.670   2.723   0.926
 4801SOL    HW115302   4.659   2.815   0.965
 4801SOL    HW215303   4.583   2.674   0.934
 4802SOL     OW15304   6.863   6.464   2.163
 4802SOL    HW115305   6.841   6.484   2.067
 4802SOL    HW215306   6.794   6.402   2.201
 4803SOL     OW15307   5.619   4.795   0.150
 4803SOL    HW115308   5.658   4.857   0.219
 4803SOL    HW215309   5.692   4.750   0.100
 4804SOL     OW15310   5.142   1.900   0.482
 4804SOL    HW115311   5.116   1.899   0.386
 4804SOL    HW215312   5.226   1.954   0.493
 4805SOL     OW15313   6.660   1.870   1.846
 4805SOL    HW115314   6.703   1.790   1.886
 4805SOL    HW215315   6.561   1.856   1.840
 4806SOL     OW15316   1.240   3.853   2.869
 4806SOL    HW115317   1.163   3.793   2.848
 4806SOL    HW215318   1.253   3.918   2.795
 4807SOL     OW15319   1.328   3.674   6.538
 4807SOL    HW115320   1.379   3.600   6.583
 4807SOL    HW215321   1.305   3.744   6.606
 4808SOL     OW15322   3.999   5.761   0.995
 4808SOL    HW115323   3.975   5.734   0.901
 4808SOL    HW215324   3.964   5.852   1.014
 4809SOL     OW15325   3.570   4.764   1.567
 4809SOL    HW115326   3.502   4.699   1.601
 4809SOL    HW215327   3.576   4.758   1.467
 4810SOL     OW15328   0.599   3.984   4.481
 4810SOL    HW115329   0.656   4.051   4.529
 4810SOL    HW215330   0.546   4.031   4.410
 4811SOL     OW15331   3.756   3.524   4.585
 4811SOL    HW115332   3.789   3.479   4.502
 4811SOL    HW215333   3.833   3.552   4.642
 4812SOL     OW15334   0.908   6.945   1.571
 4812SOL    HW115335   0.933   6.892   1.652
 4812SOL    HW215336   0.832   7.006   1.593
 4813SOL     OW15337   5.677   1.640   6.944
 4813SOL    HW115338   5.715   1.730   6.966
 4813SOL    HW215339   5.732   1.569   6.988
 4814SOL     OW15340   6.972   3.894   2.374
 4814SOL    HW115341   0.041   3.928   2.363
 4814SOL    HW215342   6.925   3.948   2.443
 4815SOL     OW15343   5.123   5.125   2.950
 4815SOL    HW115344   5.042   5.146   3.005
 4815SOL    HW215345   5.095   5.099   2.858
 4816SOL     OW15346   1.968   6.927   1.272
 4816SOL    HW115347   1.954   6.990   1.196
 4816SOL    HW215348   1.887   6.926   1.330
 4817SOL     OW15349   3.905   0.487   1.776
 4817SOL    HW115350   3.845   0.523   1.705
 4817SOL    HW215351   3.926   0.558   1.843
 4818SOL     OW15352   2.422   0.474   3.976
 4818SOL    HW115353   2.346   0.408   3.982
 4818SOL    HW215354   2.508   0.425   3.965
 4819SOL     OW15355   3.036   2.300   1.002
 4819SOL    HW115356   3.058   2.382   0.948
 4819SOL    HW215357   3.065   2.219   0.951
 4820SOL     OW15358   0.352   3.402   1.145
 4820SOL    HW115359   0.331   3.313   1.186
 4820SOL    HW215360   0.272   3.461   1.152
 4821SOL     OW15361   6.250   5.323   1.752
 4821SOL    HW115362   6.320   5.387   1.718
 4821SOL    HW215363   6.169   5.374   1.781
 4822SOL     OW15364   1.370   3.491   3.546
 4822SOL    HW115365   1.454   3.480   3.599
 4822SOL    HW215366   1.291   3.483   3.608
 4823SOL     OW15367   0.693   7.008   4.028
 4823SOL    HW115368   0.595   6.994   4.010
 4823SOL    HW215369   0.741   6.921   4.024
 4824SOL     OW15370   5.179   1.876   3.275
 4824SOL    HW115371   5.204   1.908   3.183
 4824SOL    HW215372   5.085   1.842   3.274
 4825SOL     OW15373   1.310   2.937   4.443
 4825SOL    HW115374   1.233   3.000   4.435
 4825SOL    HW215375   1.390   2.976   4.397
 4826SOL     OW15376   0.267   6.431   0.588
 4826SOL    HW115377   0.215   6.515   0.604
 4826SOL    HW215378   0.318   6.438   0.503
 4827SOL     OW15379   5.136   0.759   1.815
 4827SOL    HW115380   5.089   0.675   1.840
 4827SOL    HW215381   5.068   0.828   1.789
 4828SOL     OW15382   5.725   3.886   1.629
 4828SOL    HW115383   5.726   3.928   1.720
 4828SOL    HW215384   5.640   3.909   1.582
 4829SOL     OW15385   3.535   0.110   5.995
 4829SOL    HW115386   3.527   0.039   6.065
 4829SOL    HW215387   3.598   0.080   5.923
 4830SOL     OW15388   4.916   5.844   3.878
 4830SOL    HW115389   4.969   5.759   3.874
 4830SOL    HW215390   4.977   5.921   3.859
 4831SOL     OW15391   6.726   5.005   5.307
 4831SOL    HW115392   6.631   5.019   5.280
 4831SOL    HW215393   6.785   5.015   5.227
 4832SOL     OW15394   3.286   2.651   6.303
 4832SOL    HW115395   3.244   2.712   6.370
 4832SOL    HW215396   3.215   2.616   6.242
 4833SOL     OW15397   4.262   1.749   2.792
 4833SOL    HW115398   4.215   1.798   2.719
 4833SOL    HW215399   4.361   1.762   2.783
 4834SOL     OW15400   3.869   0.332   0.713
 4834SOL    HW115401   3.814   0.258   0.751
 4834SOL    HW215402   3.950   0.293   0.667
 4835SOL     OW15403   1.578   0.011   6.342
 4835SOL    HW115404   1.528   6.948   6.348
 4835SOL    HW215405   1.520   0.085   6.376
 4836SOL     OW15406   4.197   1.981   3.720
 4836SOL    HW115407   4.236   1.893   3.690
 4836SOL    HW215408   4.270   2.038   3.757
 4837SOL     OW15409   3.255   2.782   1.787
 4837SOL    HW115410   3.353   2.794   1.773
 4837SOL    HW215411   3.225   2.697   1.743
 4838SOL     OW15412   3.267   4.881   2.191
 4838SOL    HW115413   3.209   4.846   2.117
 4838SOL    HW215414   3.236   4.843   2.278
 4839SOL     OW15415   0.230   4.530   5.567
 4839SOL    HW115416   0.263   4.436   5.580
 4839SOL    HW215417   0.308   4.593   5.567
 4840SOL     OW15418   5.969   6.508   6.484
 4840SOL    HW115419   5.997   6.543   6.574
 4840SOL    HW215420   5.911   6.576   6.438
 4841SOL     OW15421   3.423   5.627   1.771
 4841SOL    HW115422   3.489   5.625   1.846
 4841SOL    HW215423   3.369   5.711   1.777
 4842SOL     OW15424   3.380   5.240   1.557
 4842SOL    HW115425   3.364   5.164   1.620
 4842SOL    HW215426   3.293   5.268   1.517
 4843SOL     OW15427   6.288   4.115   0.521
 4843SOL    HW115428   6.348   4.037   0.541
 4843SOL    HW215429   6.262   4.159   0.607
 4844SOL     OW15430   0.119   4.168   0.030
 4844SOL    HW115431   0.104   4.087   6.998
 4844SOL    HW215432   0.036   4.225   0.028
 4845SOL     OW15433   6.829   5.173   4.442
 4845SOL    HW115434   6.888   5.143   4.367
 4845SOL    HW215435   6.875   5.247   4.492
 4846SOL     OW15436   0.212   3.710   0.957
 4846SOL    HW115437   0.281   3.752   0.899
 4846SOL    HW215438   0.166   3.637   0.907
 4847SOL     OW15439   3.805   1.890   5.698
 4847SOL    HW115440   3.807   1.832   5.779
 4847SOL    HW215441   3.894   1.934   5.686
 4848SOL     OW15442   1.683   1.454   5.012
 4848SOL    HW115443   1.651   1.435   5.105
 4848SOL    HW215444   1.782   1.438   5.007
 4849SOL     OW15445   1.610   6.377   0.043
 4849SOL    HW115446   1.514   6.370   0.017
 4849SOL    HW215447   1.627   6.467   0.084
 4850SOL     OW15448   3.578   0.538   1.904
 4850SOL    HW115449   3.515   0.477   1.951
 4850SOL    HW215450   3.671   0.502   1.912
 4851SOL     OW15451   3.772   6.398   5.128
 4851SOL    HW115452   3.761   6.304   5.162
 4851SOL    HW215453   3.690   6.425   5.078
 4852SOL     OW15454   1.488   0.354   6.873
 4852SOL    HW115455   1.506   0.448   6.902
 4852SOL    HW215456   1.536   0.336   6.787
 4853SOL     OW15457   3.522   1.528   2.229
 4853SOL    HW115458   3.428   1.555   2.210
 4853SOL    HW215459   3.523   1.437   2.269
 4854SOL     OW15460   4.657   6.143   2.574
 4854SOL    HW115461   4.611   6.059   2.603
 4854SOL    HW215462   4.602   6.189   2.505
 4855SOL     OW15463   5.813   2.011   1.663
 4855SOL    HW115464   5.829   1.914   1.681
 4855SOL    HW215465   5.883   2.066   1.709
 4856SOL     OW15466   2.401   4.748   2.910
 4856SOL    HW115467   2.399   4.823   2.976
 4856SOL    HW215468   2.489   4.699   2.918
 4857SOL     OW15469   1.289   1.660   5.893
 4857SOL    HW115470   1.309   1.737   5.953
 4857SOL    HW215471   1.310   1.574   5.940
 4858SOL     OW15472   1.806   1.157   4.021
 4858SOL    HW115473   1.746   1.203   4.086
 4858SOL    HW215474   1.855   1.083   4.067
 4859SOL     OW15475   1.172   5.958   4.130
 4859SOL    HW115476   1.250   5.952   4.068
 4859SOL    HW215477   1.116   6.037   4.105
 4860SOL     OW15478   3.902   5.407   2.195
 4860SOL    HW115479   3.966   5.334   2.221
 4860SOL    HW215480   3.814   5.366   2.170
 4861SOL     OW15481   5.437   5.281   0.472
 4861SOL    HW115482   5.532   5.302   0.452
 4861SOL    HW215483   5.392   5.245   0.391
 4862SOL     OW15484   1.969   5.094   4.102
 4862SOL    HW115485   2.015   5.006   4.112
 4862SOL    HW215486   1.989   5.152   4.181
 4863SOL     OW15487   5.696   4.863   0.592
 4863SOL    HW115488   5.686   4.870   0.692
 4863SOL    HW215489   5.606   4.851   0.551
 4864SOL     OW15490   3.451   1.463   4.196
 4864SOL    HW115491   3.540   1.440   4.155
 4864SOL    HW215492   3.464   1.500   4.287
 4865SOL     OW15493   2.094   0.243   5.006
 4865SOL    HW115494   2.149   0.314   4.963
 4865SOL    HW215495   2.006   0.236   4.959
 4866SOL     OW15496   6.709   4.078   1.198
 4866SOL    HW115497   6.739   4.173   1.195
 4866SOL    HW215498   6.610   4.074   1.187
 4867SOL     OW15499   4.532   5.505   2.296
 4867SOL    HW115500   4.446   5.454   2.300
 4867SOL    HW215501   4.553   5.543   2.386
 4868SOL     OW15502   6.625   4.687   2.445
 4868SOL    HW115503   6.551   4.724   2.390
 4868SOL    HW215504   6.592   4.670   2.538
 4869SOL     OW15505   1.391   1.620   0.746
 4869SOL    HW115506   1.367   1.655   0.836
 4869SOL    HW215507   1.353   1.528   0.734
 4870SOL     OW15508   0.423   6.307   1.767
 4870SOL    HW115509   0.353   6.239   1.742
 4870SOL    HW215510   0.418   6.325   1.865
 4871SOL     OW15511   0.864   0.546   4.460
 4871SOL    HW115512   0.911   0.522   4.375
 4871SOL    HW215513   0.894   0.636   4.491
 4872SOL     OW15514   6.374   0.013   3.068
 4872SOL    HW115515   6.404   7.009   2.976
 4872SOL    HW215516   6.291   0.068   3.060
 4873SOL     OW15517   6.718   6.060   4.530
 4873SOL    HW115518   6.759   6.150   4.548
 4873SOL    HW215519   6.790   5.994   4.509
 4874SOL     OW15520   5.231   3.133   2.396
 4874SOL    HW115521   5.291   3.195   2.446
 4874SOL    HW215522   5.145   3.180   2.374
 4875SOL     OW15523   5.251   0.336   6.872
 4875SOL    HW115524   5.305   0.304   6.795
 4875SOL    HW215525   5.181   0.268   6.895
 4876SOL     OW15526   6.948   1.368   3.761
 4876SOL    HW115527   6.988   1.303   3.697
 4876SOL    HW215528   7.021   1.415   3.811
 4877SOL     OW15529   0.301   2.204   5.510
 4877SOL    HW115530   0.239   2.240   5.440
 4877SOL    HW215531   0.281   2.248   5.598
 4878SOL     OW15532   6.866   1.783   2.100
 4878SOL    HW115533   6.912   1.712   2.153
 4878SOL    HW215534   6.866   1.868   2.152
 4879SOL     OW15535   4.463   2.516   1.739
 4879SOL    HW115536   4.493   2.453   1.811
 4879SOL    HW215537   4.473   2.471   1.650
 4880SOL     OW15538   6.227   3.630   0.233
 4880SOL    HW115539   6.162   3.559   0.208
 4880SOL    HW215540   6.308   3.588   0.275
 4881SOL     OW15541   1.796   1.898   0.237
 4881SOL    HW115542   1.723   1.829   0.239
 4881SOL    HW215543   1.831   1.911   0.330
 4882SOL     OW15544   4.035   2.077   5.724
 4882SOL    HW115545   4.058   2.095   5.820
 4882SOL    HW215546   4.020   2.164   5.676
 4883SOL     OW15547   5.213   4.048   1.190
 4883SOL    HW115548   5.309   4.028   1.170
 4883SOL    HW215549   5.178   4.114   1.123
 4884SOL     OW15550   3.730   5.100   0.999
 4884SOL    HW115551   3.685   5.059   1.078
 4884SOL    HW215552   3.781   5.181   1.027
 4885SOL     OW15553   2.191   4.516   1.739
 4885SOL    HW115554   2.210   4.576   1.661
 4885SOL    HW215555   2.255   4.536   1.813
 4886SOL     OW15556   3.511   6.846   1.523
 4886SOL    HW115557   3.450   6.790   1.467
 4886SOL    HW215558   3.556   6.914   1.464
 4887SOL     OW15559   0.674   6.192   1.733
 4887SOL    HW115560   0.649   6.098   1.708
 4887SOL    HW215561   0.591   6.244   1.754
 4888SOL     OW15562   2.612   0.155   2.578
 4888SOL    HW115563   2.679   0.117   2.642
 4888SOL    HW215564   2.579   0.083   2.517
 4889SOL     OW15565   6.539   1.820   5.287
 4889SOL    HW115566   6.579   1.907   5.316
 4889SOL    HW215567   6.576   1.794   5.198
 4890SOL     OW15568   0.828   1.581   5.792
 4890SOL    HW115569   0.744   1.602   5.842
 4890SOL    HW215570   0.898   1.649   5.813
 4891SOL     OW15571   3.125   5.070   0.015
 4891SOL    HW115572   3.160   5.072   6.946
 4891SOL    HW215573   3.076   4.985   0.031
 4892SOL     OW15574   5.499   5.685   2.059
 4892SOL    HW115575   5.516   5.733   1.973
 4892SOL    HW215576   5.551   5.727   2.132
 4893SOL     OW15577   6.266   3.584   2.127
 4893SOL    HW115578   6.277   3.629   2.039
 4893SOL    HW215579   6.315   3.497   2.127
 4894SOL     OW15580   3.591   0.170   2.593
 4894SOL    HW115581   3.607   0.250   2.651
 4894SOL    HW215582   3.663   0.102   2.611
 4895SOL     OW15583   0.931   4.638   3.331
 4895SOL    HW115584   0.904   4.570   3.263
 4895SOL    HW215585   0.850   4.666   3.384
 4896SOL     OW15586   2.604   4.858   2.659
 4896SOL    HW115587   2.697   4.834   2.688
 4896SOL    HW215588   2.567   4.784   2.602
 4897SOL     OW15589   1.783   5.816   5.836
 4897SOL    HW115590   1.836   5.733   5.818
 4897SOL    HW215591   1.693   5.808   5.794
 4898SOL     OW15592   4.219   0.895   5.033
 4898SOL    HW115593   4.288   0.963   5.009
 4898SOL    HW215594   4.130   0.921   4.994
 4899SOL     OW15595   6.311   5.064   3.098
 4899SOL    HW115596   6.234   5.128   3.097
 4899SOL    HW215597   6.352   5.060   3.007
 4900SOL     OW15598   3.871   5.970   6.015
 4900SOL    HW115599   3.853   5.922   5.929
 4900SOL    HW215600   3.834   5.917   6.091
 4901SOL     OW15601   2.028   1.403   6.000
 4901SOL    HW115602   2.111   1.428   5.948
 4901SOL    HW215603   1.979   1.331   5.951
 4902SOL     OW15604   1.285   1.026   5.593
 4902SOL    HW115605   1.259   1.002   5.499
 4902SOL    HW215606   1.380   1.001   5.608
 4903SOL     OW15607   4.504   5.644   1.107
 4903SOL    HW115608   4.411   5.628   1.074
 4903SOL    HW215609   4.505   5.722   1.169
 4904SOL     OW15610   2.070   0.765   5.606
 4904SOL    HW115611   2.049   0.858   5.576
 4904SOL    HW215612   1.991   0.706   5.592
 4905SOL     OW15613   2.135   0.800   3.650
 4905SOL    HW115614   2.142   0.735   3.574
 4905SOL    HW215615   2.043   0.838   3.653
 4906SOL     OW15616   4.739   3.176   5.779
 4906SOL    HW115617   4.829   3.138   5.761
 4906SOL    HW215618   4.673   3.103   5.790
 4907SOL     OW15619   4.745   1.095   1.078
 4907SOL    HW115620   4.783   1.114   0.987
 4907SOL    HW215621   4.773   1.004   1.108
 4908SOL     OW15622   5.207   6.768   0.279
 4908SOL    HW115623   5.172   6.698   0.216
 4908SOL    HW215624   5.225   6.726   0.368
 4909SOL     OW15625   6.957   4.687   3.797
 4909SOL    HW115626   6.862   4.712   3.777
 4909SOL    HW215627   6.984   4.727   3.884
 4910SOL     OW15628   5.675   0.883   4.396
 4910SOL    HW115629   5.761   0.914   4.355
 4910SOL    HW215630   5.601   0.893   4.330
 4911SOL     OW15631   1.830   3.533   3.245
 4911SOL    HW115632   1.839   3.515   3.147
 4911SOL    HW215633   1.806   3.448   3.292
 4912SOL     OW15634   5.366   1.535   5.603
 4912SOL    HW115635   5.325   1.579   5.523
 4912SOL    HW215636   5.340   1.587   5.685
 4913SOL     OW15637   5.093   3.560   5.624
 4913SOL    HW115638   5.142   3.566   5.711
 4913SOL    HW215639   4.995   3.567   5.641
 4914SOL     OW15640   4.453   0.103   5.468
 4914SOL    HW115641   4.516   0.180   5.478
 4914SOL    HW215642   4.452   0.072   5.373
 4915SOL     OW15643   2.903   6.382   5.494
 4915SOL    HW115644   2.927   6.370   5.398
 4915SOL    HW215645   2.803   6.382   5.504
 4916SOL     OW15646   0.383   0.849   3.848
 4916SOL    HW115647   0.334   0.786   3.908
 4916SOL    HW215648   0.330   0.864   3.765
 4917SOL     OW15649   3.966   5.734   0.707
 4917SOL    HW115650   4.062   5.759   0.697
 4917SOL    HW215651   3.916   5.758   0.624
 4918SOL     OW15652   6.055   6.421   2.372
 4918SOL    HW115653   6.015   6.406   2.462
 4918SOL    HW215654   6.043   6.517   2.346
 4919SOL     OW15655   3.871   2.952   2.752
 4919SOL    HW115656   3.935   3.027   2.738
 4919SOL    HW215657   3.903   2.871   2.702
 4920SOL     OW15658   5.485   0.147   4.955
 4920SOL    HW115659   5.573   0.188   4.930
 4920SOL    HW215660   5.414   0.182   4.893
 4921SOL     OW15661   1.677   5.095   0.227
 4921SOL    HW115662   1.680   5.004   0.187
 4921SOL    HW215663   1.585   5.132   0.219
 4922SOL     OW15664   3.242   2.120   4.835
 4922SOL    HW115665   3.200   2.184   4.899
 4922SOL    HW215666   3.340   2.111   4.856
 4923SOL     OW15667   2.316   1.478   2.934
 4923SOL    HW115668   2.250   1.524   2.874
 4923SOL    HW215669   2.393   1.445   2.879
 4924SOL     OW15670   2.115   1.964   5.036
 4924SOL    HW115671   2.035   1.946   5.094
 4924SOL    HW215672   2.136   2.062   5.038
 4925SOL     OW15673   4.509   0.368   2.972
 4925SOL    HW115674   4.442   0.441   2.986
 4925SOL    HW215675   4.575   0.370   3.046
 4926SOL     OW15676   5.592   1.960   1.457
 4926SOL    HW115677   5.553   1.901   1.387
 4926SOL    HW215678   5.689   1.940   1.468
 4927SOL     OW15679   2.806   3.169   5.785
 4927SOL    HW115680   2.873   3.140   5.853
 4927SOL    HW215681   2.789   3.267   5.794
 4928SOL     OW15682   1.538   0.846   0.153
 4928SOL    HW115683   1.535   0.875   0.249
 4928SOL    HW215684   1.592   0.911   0.100
 4929SOL     OW15685   6.731   0.285   3.591
 4929SOL    HW115686   6.777   0.203   3.555
 4929SOL    HW215687   6.651   0.305   3.535
 4930SOL     OW15688   5.892   0.222   2.945
 4930SOL    HW115689   5.817   0.287   2.956
 4930SOL    HW215690   5.963   0.262   2.887
 4931SOL     OW15691   6.410   6.369   1.570
 4931SOL    HW115692   6.325   6.371   1.519
 4931SOL    HW215693   6.449   6.461   1.574
 4932SOL     OW15694   3.977   3.936   3.408
 4932SOL    HW115695   3.965   4.018   3.465
 4932SOL    HW215696   3.913   3.939   3.331
 4933SOL     OW15697   2.378   6.731   2.994
 4933SOL    HW115698   2.396   6.829   2.997
 4933SOL    HW215699   2.280   6.715   3.002
 4934SOL     OW15700   3.715   5.908   2.663
 4934SOL    HW115701   3.751   5.991   2.705
 4934SOL    HW215702   3.733   5.829   2.722
 4935SOL     OW15703   1.889   2.032   6.676
 4935SOL    HW115704   1.793   2.044   6.703
 4935SOL    HW215705   1.900   2.058   6.581
 4936SOL     OW15706   2.889   4.681   0.913
 4936SOL    HW115707   2.985   4.692   0.939
 4936SOL    HW215708   2.867   4.583   0.911
 4937SOL     OW15709   5.238   3.069   5.119
 4937SOL    HW115710   5.179   3.048   5.040
 4937SOL    HW215711   5.181   3.078   5.200
 4938SOL     OW15712   3.254   5.356   5.930
 4938SOL    HW115713   3.350   5.382   5.930
 4938SOL    HW215714   3.243   5.269   5.979
 4939SOL     OW15715   5.460   2.356   4.890
 4939SOL    HW115716   5.472   2.360   4.989
 4939SOL    HW215717   5.541   2.314   4.848
 4940SOL     OW15718   1.244   0.803   4.910
 4940SOL    HW115719   1.267   0.894   4.875
 4940SOL    HW215720   1.218   0.810   5.006
 4941SOL     OW15721   3.433   1.890   6.216
 4941SOL    HW115722   3.496   1.946   6.271
 4941SOL    HW215723   3.445   1.911   6.119
 4942SOL     OW15724   4.827   3.220   5.309
 4942SOL    HW115725   4.758   3.275   5.356
 4942SOL    HW215726   4.908   3.275   5.292
 4943SOL     OW15727   3.967   2.412   0.011
 4943SOL    HW115728   3.988   2.323   0.051
 4943SOL    HW215729   3.942   2.476   0.084
 4944SOL     OW15730   2.138   3.920   3.104
 4944SOL    HW115731   2.045   3.955   3.116
 4944SOL    HW215732   2.170   3.939   3.011
 4945SOL     OW15733   0.843   0.835   3.899
 4945SOL    HW115734   0.844   0.935   3.911
 4945SOL    HW215735   0.936   0.802   3.889
 4946SOL     OW15736   0.882   2.833   1.269
 4946SOL    HW115737   0.837   2.880   1.192
 4946SOL    HW215738   0.941   2.760   1.234
 4947SOL     OW15739   0.949   6.353   0.651
 4947SOL    HW115740   0.998   6.266   0.648
 4947SOL    HW215741   0.855   6.338   0.681
 4948SOL     OW15742   2.871   0.903   2.348
 4948SOL    HW115743   2.894   1.000   2.349
 4948SOL    HW215744   2.773   0.893   2.330
 4949SOL     OW15745   4.549   0.705   5.539
 4949SOL    HW115746   4.582   0.681   5.631
 4949SOL    HW215747   4.493   0.787   5.545
 4950SOL     OW15748   2.924   5.767   3.774
 4950SOL    HW115749   2.960   5.699   3.710
 4950SOL    HW215750   2.989   5.842   3.783
 4951SOL     OW15751   4.969   1.455   4.645
 4951SOL    HW115752   5.044   1.465   4.580
 4951SOL    HW215753   4.998   1.398   4.721
 4952SOL     OW15754   0.635   6.329   5.235
 4952SOL    HW115755   0.689   6.281   5.165
 4952SOL    HW215756   0.574   6.394   5.191
 4953SOL     OW15757   2.548   5.518   2.023
 4953SOL    HW115758   2.619   5.480   1.963
 4953SOL    HW215759   2.564   5.616   2.035
 4954SOL     OW15760   4.610   4.469   6.946
 4954SOL    HW115761   4.536   4.514   6.894
 4954SOL    HW215762   4.689   4.456   6.887
 4955SOL     OW15763   1.912   5.657   6.588
 4955SOL    HW115764   1.963   5.742   6.598
 4955SOL    HW215765   1.960   5.596   6.525
 4956SOL     OW15766   4.008   0.108   5.108
 4956SOL    HW115767   3.953   0.070   5.033
 4956SOL    HW215768   4.095   0.142   5.073
 4957SOL     OW15769   6.983   1.578   3.972
 4957SOL    HW115770   6.890   1.582   4.007
 4957SOL    HW215771   0.022   1.559   4.047
 4958SOL     OW15772   0.355   6.494   6.353
 4958SOL    HW115773   0.321   6.569   6.295
 4958SOL    HW215774   0.395   6.532   6.436
 4959SOL     OW15775   0.893   0.912   6.442
 4959SOL    HW115776   0.885   0.866   6.354
 4959SOL    HW215777   0.905   1.010   6.427
 4960SOL     OW15778   3.336   6.554   4.296
 4960SOL    HW115779   3.316   6.624   4.228
 4960SOL    HW215780   3.427   6.515   4.278
 4961SOL     OW15781   5.492   1.449   4.924
 4961SOL    HW115782   5.583   1.463   4.885
 4961SOL    HW215783   5.500   1.417   5.018
 4962SOL     OW15784   5.630   2.884   1.849
 4962SOL    HW115785   5.702   2.896   1.917
 4962SOL    HW215786   5.597   2.790   1.852
 4963SOL     OW15787   6.796   5.866   1.519
 4963SOL    HW115788   6.806   5.859   1.420
 4963SOL    HW215789   6.704   5.898   1.541
 4964SOL     OW15790   3.465   5.938   2.775
 4964SOL    HW115791   3.499   6.018   2.823
 4964SOL    HW215792   3.541   5.891   2.730
 4965SOL     OW15793   0.526   6.767   4.604
 4965SOL    HW115794   0.429   6.780   4.583
 4965SOL    HW215795   0.563   6.849   4.647
 4966SOL     OW15796   2.361   5.953   4.777
 4966SOL    HW115797   2.284   6.007   4.741
 4966SOL    HW215798   2.326   5.870   4.819
 4967SOL     OW15799   4.202   2.871   6.830
 4967SOL    HW115800   4.127   2.807   6.851
 4967SOL    HW215801   4.178   2.962   6.863
 4968SOL     OW15802   4.827   3.437   3.333
 4968SOL    HW115803   4.859   3.526   3.300
 4968SOL    HW215804   4.796   3.382   3.256
 4969SOL     OW15805   1.506   0.761   2.402
 4969SOL    HW115806   1.563   0.837   2.375
 4969SOL    HW215807   1.561   0.678   2.410
 4970SOL     OW15808   1.322   2.257   4.852
 4970SOL    HW115809   1.291   2.228   4.942
 4970SOL    HW215810   1.305   2.355   4.841
 4971SOL     OW15811   6.182   6.154   3.976
 4971SOL    HW115812   6.189   6.164   3.876
 4971SOL    HW215813   6.197   6.242   4.020
 4972SOL     OW15814   2.603   3.277   0.270
 4972SOL    HW115815   2.612   3.366   0.226
 4972SOL    HW215816   2.600   3.289   0.370
 4973SOL     OW15817   6.394   6.425   1.877
 4973SOL    HW115818   6.298   6.422   1.905
 4973SOL    HW215819   6.403   6.384   1.786
 4974SOL     OW15820   5.936   5.331   1.748
 4974SOL    HW115821   5.861   5.379   1.793
 4974SOL    HW215822   5.957   5.247   1.799
 4975SOL     OW15823   6.027   6.335   0.922
 4975SOL    HW115824   5.979   6.275   0.858
 4975SOL    HW215825   6.109   6.373   0.878
 4976SOL     OW15826   3.271   0.598   3.908
 4976SOL    HW115827   3.188   0.652   3.895
 4976SOL    HW215828   3.342   0.629   3.845
 4977SOL     OW15829   4.987   3.572   0.583
 4977SOL    HW115830   5.047   3.609   0.512
 4977SOL    HW215831   4.896   3.556   0.545
 4978SOL     OW15832   6.385   3.981   5.336
 4978SOL    HW115833   6.321   4.057   5.343
 4978SOL    HW215834   6.464   4.008   5.282
 4979SOL     OW15835   6.688   2.566   5.349
 4979SOL    HW115836   6.621   2.574   5.275
 4979SOL    HW215837   6.666   2.631   5.421
 4980SOL     OW15838   3.815   6.437   2.798
 4980SOL    HW115839   3.825   6.337   2.804
 4980SOL    HW215840   3.768   6.471   2.879
 4981SOL     OW15841   4.323   6.373   5.743
 4981SOL    HW115842   4.326   6.472   5.740
 4981SOL    HW215843   4.354   6.336   5.655
 4982SOL     OW15844   2.059   1.913   6.826
 4982SOL    HW115845   2.008   1.972   6.763
 4982SOL    HW215846   2.101   1.838   6.775
 4983SOL     OW15847   5.771   3.241   4.060
 4983SOL    HW115848   5.793   3.154   4.016
 4983SOL    HW215849   5.731   3.225   4.150
 4984SOL     OW15850   5.504   3.381   4.671
 4984SOL    HW115851   5.510   3.384   4.571
 4984SOL    HW215852   5.483   3.473   4.706
 4985SOL     OW15853   6.179   5.694   3.725
 4985SOL    HW115854   6.181   5.638   3.642
 4985SOL    HW215855   6.262   5.676   3.779
 4986SOL     OW15856   6.322   4.624   3.024
 4986SOL    HW115857   6.275   4.552   3.076
 4986SOL    HW215858   6.270   4.645   2.941
 4987SOL     OW15859   0.684   2.921   1.056
 4987SOL    HW115860   0.681   2.998   0.992
 4987SOL    HW215861   0.632   2.845   1.018
 4988SOL     OW15862   0.070   2.024   3.935
 4988SOL    HW115863   0.016   2.017   3.852
 4988SOL    HW215864   0.163   2.055   3.912
 4989SOL     OW15865   5.689   1.565   1.542
 4989SOL    HW115866   5.618   1.590   1.475
 4989SOL    HW215867   5.690   1.466   1.553
 4990SOL     OW15868   0.649   2.602   6.189
 4990SOL    HW115869   0.594   2.586   6.107
 4990SOL    HW215870   0.708   2.681   6.174
 4991SOL     OW15871   0.503   3.050   4.188
 4991SOL    HW115872   0.440   2.996   4.133
 4991SOL    HW215873   0.568   3.097   4.129
 4992SOL     OW15874   4.086   0.369   4.432
 4992SOL    HW115875   3.992   0.351   4.407
 4992SOL    HW215876   4.113   0.459   4.399
 4993SOL     OW15877   2.504   4.860   3.786
 4993SOL    HW115878   2.496   4.906   3.874
 4993SOL    HW215879   2.556   4.918   3.723
 4994SOL     OW15880   1.301   0.017   2.698
 4994SOL    HW115881   1.239   6.964   2.694
 4994SOL    HW215882   1.266   0.092   2.642
 4995SOL     OW15883   6.843   2.643   6.287
 4995SOL    HW115884   6.791   2.701   6.224
 4995SOL    HW215885   6.861   2.554   6.245
 4996SOL     OW15886   0.458   0.952   1.734
 4996SOL    HW115887   0.529   0.891   1.771
 4996SOL    HW215888   0.498   1.009   1.661
 4997SOL     OW15889   6.788   2.451   2.986
 4997SOL    HW115890   6.865   2.422   3.043
 4997SOL    HW215891   6.778   2.388   2.909
 4998SOL     OW15892   1.877   4.574   5.220
 4998SOL    HW115893   1.922   4.624   5.294
 4998SOL    HW215894   1.817   4.504   5.259
 4999SOL     OW15895   4.910   5.581   1.226
 4999SOL    HW115896   4.838   5.511   1.219
 4999SOL    HW215897   4.992   5.540   1.265
 5000SOL     OW15898   1.040   0.368   4.666
 5000SOL    HW115899   1.084   0.302   4.604
 5000SOL    HW215900   0.941   0.367   4.651
 5001SOL     OW15901   1.908   3.929   6.314
 5001SOL    HW115902   1.988   3.985   6.294
 5001SOL    HW215903   1.825   3.982   6.296
 5002SOL     OW15904   1.365   2.436   3.371
 5002SOL    HW115905   1.462   2.432   3.345
 5002SOL    HW215906   1.333   2.530   3.366
 5003SOL     OW15907   0.461   6.793   3.295
 5003SOL    HW115908   0.498   6.726   3.231
 5003SOL    HW215909   0.523   6.871   3.301
 5004SOL     OW15910   2.793   5.520   5.701
 5004SOL    HW115911   2.811   5.515   5.603
 5004SOL    HW215912   2.706   5.475   5.722
 5005SOL     OW15913   3.651   2.067   0.794
 5005SOL    HW115914   3.596   2.032   0.718
 5005SOL    HW215915   3.747   2.044   0.779
 5006SOL     OW15916   5.926   0.036   5.615
 5006SOL    HW115917   5.911   7.018   5.525
 5006SOL    HW215918   5.855   0.103   5.633
 5007SOL     OW15919   3.291   0.298   5.831
 5007SOL    HW115920   3.391   0.293   5.835
 5007SOL    HW215921   3.254   0.303   5.924
 5008SOL     OW15922   5.893   1.056   3.039
 5008SOL    HW115923   5.922   0.960   3.044
 5008SOL    HW215924   5.974   1.115   3.041
 5009SOL     OW15925   1.538   6.015   1.786
 5009SOL    HW115926   1.552   6.107   1.750
 5009SOL    HW215927   1.620   5.960   1.768
 5010SOL     OW15928   3.388   4.018   3.959
 5010SOL    HW115929   3.465   4.066   3.999
 5010SOL    HW215930   3.307   4.030   4.017
 5011SOL     OW15931   2.011   3.222   1.935
 5011SOL    HW115932   1.999   3.296   2.002
 5011SOL    HW215933   2.013   3.261   1.843
 5012SOL     OW15934   6.387   2.750   5.817
 5012SOL    HW115935   6.447   2.830   5.814
 5012SOL    HW215936   6.292   2.779   5.808
 5013SOL     OW15937   4.448   0.607   6.061
 5013SOL    HW115938   4.386   0.610   6.140
 5013SOL    HW215939   4.532   0.560   6.087
 5014SOL     OW15940   6.071   5.958   0.892
 5014SOL    HW115941   6.155   6.003   0.922
 5014SOL    HW215942   5.995   6.023   0.894
 5015SOL     OW15943   4.463   1.672   3.416
 5015SOL    HW115944   4.446   1.702   3.322
 5015SOL    HW215945   4.537   1.605   3.417
 5016SOL     OW15946   2.046   1.323   2.989
 5016SOL    HW115947   2.001   1.385   3.053
 5016SOL    HW215948   2.142   1.348   2.981
 5017SOL     OW15949   2.381   2.281   0.429
 5017SOL    HW115950   2.344   2.189   0.427
 5017SOL    HW215951   2.314   2.345   0.392
 5018SOL     OW15952   0.181   4.058   2.394
 5018SOL    HW115953   0.215   4.152   2.391
 5018SOL    HW215954   0.257   3.996   2.417
 5019SOL     OW15955   2.342   3.953   0.055
 5019SOL    HW115956   2.367   3.961   6.983
 5019SOL    HW215957   2.268   4.017   0.076
 5020SOL     OW15958   5.807   5.671   5.951
 5020SOL    HW115959   5.896   5.709   5.927
 5020SOL    HW215960   5.763   5.731   6.019
 5021SOL     OW15961   1.074   4.606   6.040
 5021SOL    HW115962   1.003   4.647   6.098
 5021SOL    HW215963   1.039   4.521   6.000
 5022SOL     OW15964   2.033   6.599   0.406
 5022SOL    HW115965   2.047   6.605   0.505
 5022SOL    HW215966   2.084   6.672   0.361
 5023SOL     OW15967   6.323   2.551   0.933
 5023SOL    HW115968   6.352   2.645   0.953
 5023SOL    HW215969   6.240   2.531   0.985
 5024SOL     OW15970   6.900   3.821   3.122
 5024SOL    HW115971   6.942   3.733   3.100
 5024SOL    HW215972   6.833   3.844   3.051
 5025SOL     OW15973   4.528   1.821   2.629
 5025SOL    HW115974   4.520   1.894   2.561
 5025SOL    HW215975   4.594   1.848   2.699
 5026SOL     OW15976   6.393   5.719   5.526
 5026SOL    HW115977   6.328   5.664   5.578
 5026SOL    HW215978   6.389   5.814   5.558
 5027SOL     OW15979   0.561   6.983   3.042
 5027SOL    HW115980   0.616   0.025   2.992
 5027SOL    HW215981   0.601   6.892   3.031
 5028SOL     OW15982   0.129   5.927   2.002
 5028SOL    HW115983   0.043   5.878   2.018
 5028SOL    HW215984   0.204   5.876   2.044
 5029SOL     OW15985   6.942   2.414   2.523
 5029SOL    HW115986   6.996   2.420   2.439
 5029SOL    HW215987   6.884   2.332   2.520
 5030SOL     OW15988   0.152   6.967   0.173
 5030SOL    HW115989   0.066   6.977   0.222
 5030SOL    HW215990   0.162   6.873   0.141
 5031SOL     OW15991   5.889   1.022   4.326
 5031SOL    HW115992   5.909   1.068   4.240
 5031SOL    HW215993   5.974   1.007   4.377
 5032SOL     OW15994   1.600   4.993   0.795
 5032SOL    HW115995   1.538   5.066   0.767
 5032SOL    HW215996   1.557   4.939   0.868
 5033SOL     OW15997   2.995   5.255   5.338
 5033SOL    HW115998   2.938   5.206   5.404
 5033SOL    HW215999   3.029   5.191   5.269
 5034SOL     OW16000   6.549   2.728   2.212
 5034SOL    HW116001   6.622   2.756   2.149
 5034SOL    HW216002   6.512   2.809   2.257
 5035SOL     OW16003   5.335   5.077   0.634
 5035SOL    HW116004   5.390   5.149   0.592
 5035SOL    HW216005   5.396   5.007   0.672
 5036SOL     OW16006   1.389   5.987   6.461
 5036SOL    HW116007   1.475   5.964   6.416
 5036SOL    HW216008   1.324   6.023   6.393
 5037SOL     OW16009   4.019   1.979   3.440
 5037SOL    HW116010   4.068   2.025   3.514
 5037SOL    HW216011   4.019   1.880   3.456
 5038SOL     OW16012   1.143   5.820   5.610
 5038SOL    HW116013   1.136   5.870   5.696
 5038SOL    HW216014   1.064   5.760   5.600
 5039SOL     OW16015   2.455   3.185   5.401
 5039SOL    HW116016   2.453   3.113   5.470
 5039SOL    HW216017   2.477   3.145   5.312
 5040SOL     OW16018   2.563   3.220   6.771
 5040SOL    HW116019   2.598   3.266   6.689
 5040SOL    HW216020   2.608   3.257   6.852
 5041SOL     OW16021   0.814   4.297   1.387
 5041SOL    HW116022   0.789   4.243   1.467
 5041SOL    HW216023   0.901   4.344   1.404
 5042SOL     OW16024   6.782   3.174   6.883
 5042SOL    HW116025   6.852   3.104   6.866
 5042SOL    HW216026   6.697   3.148   6.836
 5043SOL     OW16027   3.757   1.562   4.827
 5043SOL    HW116028   3.843   1.556   4.776
 5043SOL    HW216029   3.703   1.480   4.811
 5044SOL     OW16030   6.351   6.367   3.856
 5044SOL    HW116031   6.327   6.460   3.881
 5044SOL    HW216032   6.286   6.333   3.788
 5045SOL     OW16033   6.036   2.974   0.430
 5045SOL    HW116034   5.963   2.914   0.464
 5045SOL    HW216035   6.098   2.997   0.505
 5046SOL     OW16036   3.776   2.922   4.911
 5046SOL    HW116037   3.864   2.874   4.913
 5046SOL    HW216038   3.730   2.910   4.999
 5047SOL     OW16039   5.541   0.990   2.710
 5047SOL    HW116040   5.532   1.038   2.623
 5047SOL    HW216041   5.613   1.033   2.765
 5048SOL     OW16042   6.619   2.448   2.091
 5048SOL    HW116043   6.600   2.505   2.011
 5048SOL    HW216044   6.634   2.507   2.171
 5049SOL     OW16045   0.935   1.709   2.375
 5049SOL    HW116046   0.915   1.765   2.455
 5049SOL    HW216047   1.020   1.740   2.333
 5050SOL     OW16048   6.775   1.371   1.990
 5050SOL    HW116049   6.831   1.366   2.073
 5050SOL    HW216050   6.833   1.358   1.910
 5051SOL     OW16051   2.838   3.913   1.352
 5051SOL    HW116052   2.818   3.849   1.426
 5051SOL    HW216053   2.937   3.915   1.335
 5052SOL     OW16054   3.692   4.302   0.718
 5052SOL    HW116055   3.713   4.359   0.638
 5052SOL    HW216056   3.632   4.228   0.691
 5053SOL     OW16057   2.091   4.207   2.131
 5053SOL    HW116058   2.075   4.249   2.042
 5053SOL    HW216059   2.038   4.255   2.201
 5054SOL     OW16060   3.602   5.778   5.385
 5054SOL    HW116061   3.540   5.749   5.312
 5054SOL    HW216062   3.648   5.698   5.424
 5055SOL     OW16063   0.365   1.901   4.725
 5055SOL    HW116064   0.267   1.913   4.735
 5055SOL    HW216065   0.383   1.826   4.661
 5056SOL     OW16066   0.064   4.019   6.545
 5056SOL    HW116067   6.995   3.984   6.554
 5056SOL    HW216068   0.104   3.986   6.460
 5057SOL     OW16069   0.739   5.386   3.377
 5057SOL    HW116070   0.700   5.360   3.466
 5057SOL    HW216071   0.668   5.384   3.307
 5058SOL     OW16072   4.054   4.302   7.008
 5058SOL    HW116073   4.050   4.203   7.002
 5058SOL    HW216074   3.961   4.339   7.002
 5059SOL     OW16075   4.184   2.240   4.618
 5059SOL    HW116076   4.253   2.296   4.573
 5059SOL    HW216077   4.203   2.236   4.716
 5060SOL     OW16078   6.994   3.456   5.611
 5060SOL    HW116079   6.901   3.431   5.637
 5060SOL    HW216080   0.035   3.415   5.675
 5061SOL     OW16081   2.966   3.719   4.388
 5061SOL    HW116082   2.980   3.752   4.295
 5061SOL    HW216083   2.965   3.797   4.451
 5062SOL     OW16084   4.970   1.536   2.402
 5062SOL    HW116085   4.882   1.491   2.383
 5062SOL    HW216086   4.957   1.605   2.472
 5063SOL     OW16087   1.954   6.426   1.546
 5063SOL    HW116088   1.925   6.442   1.452
 5063SOL    HW216089   2.037   6.370   1.546
 5064SOL     OW16090   4.610   5.220   0.908
 5064SOL    HW116091   4.520   5.257   0.932
 5064SOL    HW216092   4.602   5.164   0.825
 5065SOL     OW16093   1.615   0.623   3.491
 5065SOL    HW116094   1.552   0.612   3.415
 5065SOL    HW216095   1.699   0.666   3.459
 5066SOL     OW16096   2.395   4.421   2.342
 5066SOL    HW116097   2.469   4.473   2.301
 5066SOL    HW216098   2.313   4.479   2.349
 5067SOL     OW16099   4.100   1.950   1.928
 5067SOL    HW116100   4.070   1.881   1.862
 5067SOL    HW216101   4.039   2.029   1.924
 5068SOL     OW16102   3.790   6.027   0.699
 5068SOL    HW116103   3.694   6.053   0.701
 5068SOL    HW216104   3.806   5.965   0.621
 5069SOL     OW16105   2.237   3.651   6.220
 5069SOL    HW116106   2.233   3.586   6.296
 5069SOL    HW216107   2.314   3.629   6.161
 5070SOL     OW16108   5.813   2.791   3.826
 5070SOL    HW116109   5.889   2.730   3.847
 5070SOL    HW216110   5.738   2.739   3.785
 5071SOL     OW16111   3.645   1.406   4.010
 5071SOL    HW116112   3.700   1.480   3.973
 5071SOL    HW216113   3.703   1.326   4.026
 5072SOL     OW16114   1.617   0.790   0.946
 5072SOL    HW116115   1.530   0.813   0.991
 5072SOL    HW216116   1.643   0.864   0.884
 5073SOL     OW16117   2.621   6.015   2.246
 5073SOL    HW116118   2.712   5.982   2.271
 5073SOL    HW216119   2.615   6.113   2.264
 5074SOL     OW16120   3.214   1.590   1.897
 5074SOL    HW116121   3.243   1.683   1.875
 5074SOL    HW216122   3.171   1.549   1.817
 5075SOL     OW16123   1.043   3.100   7.013
 5075SOL    HW116124   1.044   3.001   0.000
 5075SOL    HW216125   1.136   3.132   6.996
 5076SOL     OW16126   5.235   0.607   6.824
 5076SOL    HW116127   5.308   0.635   6.761
 5076SOL    HW216128   5.246   0.510   6.847
 5077SOL     OW16129   1.567   3.959   4.762
 5077SOL    HW116130   1.507   3.881   4.781
 5077SOL    HW216131   1.638   3.965   4.832
 5078SOL     OW16132   0.449   1.322   4.164
 5078SOL    HW116133   0.539   1.334   4.205
 5078SOL    HW216134   0.460   1.304   4.066
 5079SOL     OW16135   1.882   1.901   5.780
 5079SOL    HW116136   1.830   1.980   5.746
 5079SOL    HW216137   1.841   1.817   5.746
 5080SOL     OW16138   5.777   5.460   5.573
 5080SOL    HW116139   5.761   5.395   5.648
 5080SOL    HW216140   5.762   5.553   5.607
 5081SOL     OW16141   3.042   5.468   5.184
 5081SOL    HW116142   2.954   5.513   5.176
 5081SOL    HW216143   3.032   5.383   5.237
 5082SOL     OW16144   4.683   6.591   0.210
 5082SOL    HW116145   4.645   6.531   0.281
 5082SOL    HW216146   4.699   6.538   0.127
 5083SOL     OW16147   2.980   0.764   2.001
 5083SOL    HW116148   3.009   0.677   2.040
 5083SOL    HW216149   2.973   0.833   2.074
 5084SOL     OW16150   0.978   4.938   5.462
 5084SOL    HW116151   0.958   5.028   5.421
 5084SOL    HW216152   0.915   4.870   5.424
 5085SOL     OW16153   1.285   2.934   5.706
 5085SOL    HW116154   1.241   2.963   5.620
 5085SOL    HW216155   1.274   3.006   5.774
 5086SOL     OW16156   0.247   4.376   2.680
 5086SOL    HW116157   0.265   4.362   2.582
 5086SOL    HW216158   0.152   4.352   2.700
 5087SOL     OW16159   6.809   5.443   2.516
 5087SOL    HW116160   6.826   5.381   2.593
 5087SOL    HW216161   6.877   5.425   2.444
 5088SOL     OW16162   4.511   5.923   2.698
 5088SOL    HW116163   4.422   5.945   2.737
 5088SOL    HW216164   4.555   5.852   2.753
 5089SOL     OW16165   6.081   4.351   4.147
 5089SOL    HW116166   6.151   4.413   4.112
 5089SOL    HW216167   6.058   4.376   4.241
 5090SOL     OW16168   1.662   0.324   3.789
 5090SOL    HW116169   1.591   0.394   3.779
 5090SOL    HW216170   1.680   0.309   3.887
 5091SOL     OW16171   6.442   0.115   0.032
 5091SOL    HW116172   6.347   0.088   0.049
 5091SOL    HW216173   6.494   0.107   0.116
 5092SOL     OW16174   4.151   3.428   4.520
 5092SOL    HW116175   4.242   3.454   4.552
 5092SOL    HW216176   4.119   3.348   4.572
 5093SOL     OW16177   2.548   1.348   2.818
 5093SOL    HW116178   2.604   1.281   2.868
 5093SOL    HW216179   2.508   1.303   2.738
 5094SOL     OW16180   2.866   6.025   6.769
 5094SOL    HW116181   2.809   5.944   6.785
 5094SOL    HW216182   2.808   6.101   6.739
 5095SOL     OW16183   0.594   1.592   3.777
 5095SOL    HW116184   0.582   1.681   3.820
 5095SOL    HW216185   0.533   1.525   3.821
 5096SOL     OW16186   5.646   4.180   6.441
 5096SOL    HW116187   5.638   4.106   6.508
 5096SOL    HW216188   5.580   4.164   6.367
 5097SOL     OW16189   6.573   6.875   0.024
 5097SOL    HW116190   6.578   6.809   6.974
 5097SOL    HW216191   6.503   6.943   0.003
 5098SOL     OW16192   3.929   2.343   1.784
 5098SOL    HW116193   3.947   2.249   1.757
 5098SOL    HW216194   3.833   2.354   1.807
 5099SOL     OW16195   7.019   5.987   1.343
 5099SOL    HW116196   0.002   5.907   1.402
 5099SOL    HW216197   6.980   5.960   1.255
 5100SOL     OW16198   4.652   5.493   2.958
 5100SOL    HW116199   4.743   5.462   2.986
 5100SOL    HW216200   4.584   5.464   3.026
 5101SOL     OW16201   4.255   0.471   4.852
 5101SOL    HW116202   4.213   0.506   4.935
 5101SOL    HW216203   4.272   0.547   4.789
 5102SOL     OW16204   5.047   5.627   4.125
 5102SOL    HW116205   4.950   5.620   4.099
 5102SOL    HW216206   5.060   5.588   4.216
 5103SOL     OW16207   0.696   0.545   4.867
 5103SOL    HW116208   0.712   0.489   4.785
 5103SOL    HW216209   0.640   0.623   4.843
 5104SOL     OW16210   3.330   5.886   1.877
 5104SOL    HW116211   3.317   5.976   1.836
 5104SOL    HW216212   3.273   5.879   1.960
 5105SOL     OW16213   3.040   3.332   0.315
 5105SOL    HW116214   3.003   3.248   0.276
 5105SOL    HW216215   3.041   3.403   0.245
 5106SOL     OW16216   4.051   1.785   0.780
 5106SOL    HW116217   4.125   1.720   0.800
 5106SOL    HW216218   3.966   1.735   0.764
 5107SOL     OW16219   5.568   3.297   1.275
 5107SOL    HW116220   5.585   3.393   1.299
 5107SOL    HW216221   5.557   3.243   1.359
 5108SOL     OW16222   4.690   4.079   5.773
 5108SOL    HW116223   4.750   4.006   5.806
 5108SOL    HW216224   4.595   4.048   5.773
 5109SOL     OW16225   1.673   2.615   0.966
 5109SOL    HW116226   1.758   2.600   0.915
 5109SOL    HW216227   1.595   2.589   0.908
 5110SOL     OW16228   0.114   0.062   6.409
 5110SOL    HW116229   0.198   0.104   6.377
 5110SOL    HW216230   0.093   7.005   6.354
 5111SOL     OW16231   0.953   6.478   4.747
 5111SOL    HW116232   0.863   6.510   4.715
 5111SOL    HW216233   0.962   6.497   4.845
 5112SOL     OW16234   0.455   0.202   2.471
 5112SOL    HW116235   0.408   0.239   2.391
 5112SOL    HW216236   0.491   0.277   2.526
 5113SOL     OW16237   1.740   5.321   0.618
 5113SOL    HW116238   1.822   5.263   0.617
 5113SOL    HW216239   1.671   5.283   0.557
 5114SOL     OW16240   3.549   6.989   0.305
 5114SOL    HW116241   3.459   6.947   0.297
 5114SOL    HW216242   3.620   6.920   0.290
 5115SOL     OW16243   2.066   3.715   1.680
 5115SOL    HW116244   2.160   3.684   1.687
 5115SOL    HW216245   2.063   3.814   1.673
 5116SOL     OW16246   2.708   6.003   0.044
 5116SOL    HW116247   2.731   6.061   0.122
 5116SOL    HW216248   2.766   5.922   0.045
 5117SOL     OW16249   0.871   3.391   4.273
 5117SOL    HW116250   0.932   3.323   4.232
 5117SOL    HW216251   0.840   3.455   4.203
 5118SOL     OW16252   5.894   0.084   0.219
 5118SOL    HW116253   5.801   0.117   0.202
 5118SOL    HW216254   5.946   0.155   0.267
 5119SOL     OW16255   5.024   1.831   0.771
 5119SOL    HW116256   5.039   1.899   0.700
 5119SOL    HW216257   4.945   1.774   0.748
 5120SOL     OW16258   4.949   0.187   5.125
 5120SOL    HW116259   4.925   0.221   5.215
 5120SOL    HW216260   5.019   0.245   5.084
 5121SOL     OW16261   3.566   3.519   0.164
 5121SOL    HW116262   3.648   3.560   0.124
 5121SOL    HW216263   3.490   3.526   0.099
 5122SOL     OW16264   3.576   5.557   3.099
 5122SOL    HW116265   3.527   5.482   3.144
 5122SOL    HW216266   3.675   5.538   3.100
 5123SOL     OW16267   5.734   2.666   2.340
 5123SOL    HW116268   5.811   2.646   2.400
 5123SOL    HW216269   5.726   2.594   2.270
 5124SOL     OW16270   2.120   6.459   3.027
 5124SOL    HW116271   2.129   6.417   2.937
 5124SOL    HW216272   2.186   6.418   3.091
 5125SOL     OW16273   0.377   2.074   3.595
 5125SOL    HW116274   0.458   2.018   3.616
 5125SOL    HW216275   0.399   2.170   3.612
 5126SOL     OW16276   1.348   6.552   7.008
 5126SOL    HW116277   1.287   6.630   7.000
 5126SOL    HW216278   1.390   6.532   6.919
 5127SOL     OW16279   2.313   5.659   0.232
 5127SOL    HW116280   2.320   5.567   0.193
 5127SOL    HW216281   2.221   5.696   0.217
 5128SOL     OW16282   0.051   6.022   0.775
 5128SOL    HW116283   0.127   5.965   0.806
 5128SOL    HW216284   0.073   6.118   0.792
 5129SOL     OW16285   4.933   6.442   1.434
 5129SOL    HW116286   4.987   6.361   1.454
 5129SOL    HW216287   4.965   6.519   1.490
 5130SOL     OW16288   0.046   4.581   2.855
 5130SOL    HW116289   0.071   4.499   2.907
 5130SOL    HW216290   0.076   4.662   2.905
 5131SOL     OW16291   1.468   3.342   3.988
 5131SOL    HW116292   1.545   3.290   4.025
 5131SOL    HW216293   1.407   3.368   4.062
 5132SOL     OW16294   4.123   3.458   6.297
 5132SOL    HW116295   4.053   3.418   6.356
 5132SOL    HW216296   4.086   3.538   6.250
 5133SOL     OW16297   3.284   4.881   0.378
 5133SOL    HW116298   3.280   4.980   0.394
 5133SOL    HW216299   3.303   4.834   0.464
 5134SOL     OW16300   0.502   2.756   1.504
 5134SOL    HW116301   0.523   2.810   1.423
 5134SOL    HW216302   0.447   2.810   1.568
 5135SOL     OW16303   6.433   1.872   5.960
 5135SOL    HW116304   6.504   1.841   6.024
 5135SOL    HW216305   6.343   1.846   5.995
 5136SOL     OW16306   5.063   0.761   4.913
 5136SOL    HW116307   5.014   0.693   4.967
 5136SOL    HW216308   5.053   0.851   4.955
 5137SOL     OW16309   6.040   3.214   6.267
 5137SOL    HW116310   6.000   3.123   6.253
 5137SOL    HW216311   5.991   3.261   6.340
 5138SOL     OW16312   3.882   3.216   6.769
 5138SOL    HW116313   3.900   3.118   6.761
 5138SOL    HW216314   3.785   3.231   6.787
 5139SOL     OW16315   1.455   6.666   4.177
 5139SOL    HW116316   1.447   6.731   4.254
 5139SOL    HW216317   1.376   6.677   4.117
 5140SOL     OW16318   2.403   1.586   6.996
 5140SOL    HW116319   2.392   1.520   0.046
 5140SOL    HW216320   2.500   1.597   6.975
 5141SOL     OW16321   6.079   3.278   0.966
 5141SOL    HW116322   6.025   3.196   0.987
 5141SOL    HW216323   6.028   3.359   0.993
 5142SOL     OW16324   5.679   2.044   4.149
 5142SOL    HW116325   5.630   2.129   4.166
 5142SOL    HW216326   5.770   2.048   4.191
 5143SOL     OW16327   0.941   4.081   4.214
 5143SOL    HW116328   0.942   3.983   4.194
 5143SOL    HW216329   0.849   4.117   4.201
 5144SOL     OW16330   1.845   6.742   6.261
 5144SOL    HW116331   1.788   6.824   6.273
 5144SOL    HW216332   1.941   6.768   6.267
 5145SOL     OW16333   2.677   5.190   6.137
 5145SOL    HW116334   2.766   5.216   6.099
 5145SOL    HW216335   2.604   5.230   6.081
 5146SOL     OW16336   4.642   3.835   6.690
 5146SOL    HW116337   4.678   3.927   6.677
 5146SOL    HW216338   4.562   3.822   6.631
 5147SOL     OW16339   6.875   3.966   2.093
 5147SOL    HW116340   6.936   3.910   2.036
 5147SOL    HW216341   6.888   3.942   2.189
 5148SOL     OW16342   0.879   6.269   0.995
 5148SOL    HW116343   0.937   6.188   0.985
 5148SOL    HW216344   0.808   6.268   0.924
 5149SOL     OW16345   5.749   0.058   3.829
 5149SOL    HW116346   5.781   0.010   3.748
 5149SOL    HW216347   5.750   7.020   3.907
 5150SOL     OW16348   1.956   5.585   3.964
 5150SOL    HW116349   1.922   5.562   4.055
 5150SOL    HW216350   1.991   5.679   3.964
 5151SOL     OW16351   5.746   0.905   6.642
 5151SOL    HW116352   5.680   0.834   6.618
 5151SOL    HW216353   5.710   0.994   6.616
 5152SOL     OW16354   2.494   4.951   6.668
 5152SOL    HW116355   2.489   5.037   6.718
 5152SOL    HW216356   2.554   4.888   6.718
 5153SOL     OW16357   2.101   1.347   6.439
 5153SOL    HW116358   2.107   1.253   6.472
 5153SOL    HW216359   2.130   1.351   6.343
 5154SOL     OW16360   2.115   3.204   6.444
 5154SOL    HW116361   2.183   3.191   6.372
 5154SOL    HW216362   2.060   3.284   6.424
 5155SOL     OW16363   4.618   6.733   2.113
 5155SOL    HW116364   4.712   6.704   2.092
 5155SOL    HW216365   4.609   6.831   2.095
 5156SOL     OW16366   6.740   2.299   6.296
 5156SOL    HW116367   6.666   2.289   6.229
 5156SOL    HW216368   6.733   2.226   6.363
 5157SOL     OW16369   4.953   3.099   3.204
 5157SOL    HW116370   5.044   3.075   3.240
 5157SOL    HW216371   4.963   3.172   3.137
 5158SOL     OW16372   3.170   2.211   1.451
 5158SOL    HW116373   3.138   2.239   1.542
 5158SOL    HW216374   3.116   2.258   1.381
 5159SOL     OW16375   1.248   3.880   4.976
 5159SOL    HW116376   1.245   3.941   4.897
 5159SOL    HW216377   1.166   3.893   5.031
 5160SOL     OW16378   1.603   4.038   4.474
 5160SOL    HW116379   1.696   4.075   4.484
 5160SOL    HW216380   1.580   3.983   4.554
 5161SOL     OW16381   1.276   4.275   5.314
 5161SOL    HW116382   1.324   4.324   5.241
 5161SOL    HW216383   1.311   4.306   5.403
 5162SOL     OW16384   0.226   5.362   4.251
 5162SOL    HW116385   0.201   5.265   4.249
 5162SOL    HW216386   0.307   5.374   4.308
 5163SOL     OW16387   4.516   5.001   1.501
 5163SOL    HW116388   4.593   4.990   1.438
 5163SOL    HW216389   4.432   4.972   1.456
 5164SOL     OW16390   5.685   2.291   6.078
 5164SOL    HW116391   5.621   2.238   6.133
 5164SOL    HW216392   5.718   2.370   6.130
 5165SOL     OW16393   6.025   4.599   4.621
 5165SOL    HW116394   5.976   4.612   4.534
 5165SOL    HW216395   6.099   4.666   4.628
 5166SOL     OW16396   1.932   5.382   2.003
 5166SOL    HW116397   1.834   5.399   2.016
 5166SOL    HW216398   1.946   5.291   1.965
 5167SOL     OW16399   6.352   6.910   5.493
 5167SOL    HW116400   6.415   6.969   5.442
 5167SOL    HW216401   6.368   6.921   5.591
 5168SOL     OW16402   4.919   2.664   3.667
 5168SOL    HW116403   5.014   2.636   3.673
 5168SOL    HW216404   4.875   2.652   3.756
 5169SOL     OW16405   3.634   3.360   6.764
 5169SOL    HW116406   3.570   3.387   6.836
 5169SOL    HW216407   3.622   3.421   6.685
 5170SOL     OW16408   6.732   4.318   6.145
 5170SOL    HW116409   6.785   4.378   6.085
 5170SOL    HW216410   6.780   4.309   6.233
 5171SOL     OW16411   2.365   4.412   4.601
 5171SOL    HW116412   2.323   4.503   4.606
 5171SOL    HW216413   2.374   4.374   4.693
 5172SOL     OW16414   1.309   3.293   1.476
 5172SOL    HW116415   1.256   3.324   1.555
 5172SOL    HW216416   1.285   3.198   1.455
 5173SOL     OW16417   5.847   4.266   6.252
 5173SOL    HW116418   5.933   4.267   6.304
 5173SOL    HW216419   5.771   4.247   6.313
 5174SOL     OW16420   1.781   4.699   4.608
 5174SOL    HW116421   1.825   4.784   4.580
 5174SOL    HW216422   1.828   4.621   4.566
 5175SOL     OW16423   2.315   4.674   0.008
 5175SOL    HW116424   2.257   4.745   6.993
 5175SOL    HW216425   2.321   4.597   6.969
 5176SOL     OW16426   3.896   2.953   0.583
 5176SOL    HW116427   3.980   2.985   0.539
 5176SOL    HW216428   3.866   2.868   0.541
 5177SOL     OW16429   4.844   0.008   5.622
 5177SOL    HW116430   4.861   0.084   5.685
 5177SOL    HW216431   4.875   6.947   5.663
 5178SOL     OW16432   2.686   2.170   1.067
 5178SOL    HW116433   2.632   2.086   1.065
 5178SOL    HW216434   2.759   2.160   1.135
 5179SOL     OW16435   4.992   6.380   5.222
 5179SOL    HW116436   4.907   6.351   5.178
 5179SOL    HW216437   4.982   6.474   5.254
 5180SOL     OW16438   3.460   2.662   6.674
 5180SOL    HW116439   3.512   2.631   6.594
 5180SOL    HW216440   3.363   2.671   6.649
 5181SOL     OW16441   4.042   0.943   2.986
 5181SOL    HW116442   4.084   0.903   3.068
 5181SOL    HW216443   3.950   0.906   2.974
 5182SOL     OW16444   5.549   4.807   1.751
 5182SOL    HW116445   5.458   4.808   1.711
 5182SOL    HW216446   5.609   4.750   1.695
 5183SOL     OW16447   4.762   6.660   1.563
 5183SOL    HW116448   4.745   6.703   1.474
 5183SOL    HW216449   4.847   6.695   1.601
 5184SOL     OW16450   0.940   1.943   4.022
 5184SOL    HW116451   0.922   2.016   3.956
 5184SOL    HW216452   0.936   1.854   3.976
 5185SOL     OW16453   4.026   0.209   2.834
 5185SOL    HW116454   4.048   0.306   2.830
 5185SOL    HW216455   4.073   0.161   2.760
 5186SOL     OW16456   6.602   4.317   0.980
 5186SOL    HW116457   6.533   4.253   1.015
 5186SOL    HW216458   6.674   4.267   0.932
 5187SOL     OW16459   6.541   0.899   3.893
 5187SOL    HW116460   6.449   0.863   3.882
 5187SOL    HW216461   6.603   0.854   3.828
 5188SOL     OW16462   0.581   5.011   0.269
 5188SOL    HW116463   0.494   4.983   0.227
 5188SOL    HW216464   0.576   4.998   0.368
 5189SOL     OW16465   4.752   5.075   6.897
 5189SOL    HW116466   4.737   4.977   6.887
 5189SOL    HW216467   4.706   5.124   6.823
 5190SOL     OW16468   1.075   2.143   4.406
 5190SOL    HW116469   1.146   2.092   4.358
 5190SOL    HW216470   0.985   2.116   4.372
 5191SOL     OW16471   3.565   0.913   1.277
 5191SOL    HW116472   3.567   1.010   1.254
 5191SOL    HW216473   3.491   0.895   1.343
 5192SOL     OW16474   4.701   5.728   2.802
 5192SOL    HW116475   4.777   5.788   2.827
 5192SOL    HW216476   4.708   5.642   2.852
 5193SOL     OW16477   4.458   4.645   3.688
 5193SOL    HW116478   4.536   4.587   3.663
 5193SOL    HW216479   4.445   4.715   3.618
 5194SOL     OW16480   5.086   0.056   5.779
 5194SOL    HW116481   5.088   0.018   5.872
 5194SOL    HW216482   5.023   0.133   5.776
 5195SOL     OW16483   6.538   6.918   4.629
 5195SOL    HW116484   6.442   6.945   4.627
 5195SOL    HW216485   6.564   6.894   4.723
 5196SOL     OW16486   0.833   3.977   1.734
 5196SOL    HW116487   0.801   3.938   1.648
 5196SOL    HW216488   0.862   3.903   1.795
 5197SOL     OW16489   1.985   5.979   4.247
 5197SOL    HW116490   1.967   6.070   4.209
 5197SOL    HW216491   2.062   5.984   4.310
 5198SOL     OW16492   2.863   0.006   5.032
 5198SOL    HW116493   2.775   7.015   5.076
 5198SOL    HW216494   2.936   6.991   5.088
 5199SOL     OW16495   2.523   5.460   1.147
 5199SOL    HW116496   2.529   5.469   1.047
 5199SOL    HW216497   2.597   5.513   1.189
 5200SOL     OW16498   0.776   1.925   5.024
 5200SOL    HW116499   0.822   1.882   4.946
 5200SOL    HW216500   0.679   1.937   5.004
 5201SOL     OW16501   5.821   5.269   4.330
 5201SOL    HW116502   5.798   5.181   4.288
 5201SOL    HW216503   5.836   5.338   4.259
 5202SOL     OW16504   5.429   3.167   0.045
 5202SOL    HW116505   5.363   3.158   6.994
 5202SOL    HW216506   5.419   3.257   0.087
 5203SOL     OW16507   1.509   0.372   5.984
 5203SOL    HW116508   1.409   0.383   5.984
 5203SOL    HW216509   1.539   0.350   6.077
 5204SOL     OW16510   3.087   6.786   6.384
 5204SOL    HW116511   3.042   6.786   6.295
 5204SOL    HW216512   3.019   6.778   6.456
 5205SOL     OW16513   6.457   5.759   1.020
 5205SOL    HW116514   6.415   5.716   1.101
 5205SOL    HW216515   6.555   5.738   1.018
 5206SOL     OW16516   0.992   4.347   5.437
 5206SOL    HW116517   0.905   4.352   5.387
 5206SOL    HW216518   1.068   4.357   5.373
 5207SOL     OW16519   7.012   0.130   4.147
 5207SOL    HW116520   0.052   0.055   4.161
 5207SOL    HW216521   6.931   0.096   4.100
 5208SOL     OW16522   4.608   2.774   0.164
 5208SOL    HW116523   4.663   2.858   0.173
 5208SOL    HW216524   4.528   2.793   0.107
 5209SOL     OW16525   4.619   6.989   3.423
 5209SOL    HW116526   4.570   0.049   3.404
 5209SOL    HW216527   4.578   6.944   3.503
 5210SOL     OW16528   5.097   4.396   1.470
 5210SOL    HW116529   5.016   4.426   1.420
 5210SOL    HW216530   5.168   4.369   1.404
 5211SOL     OW16531   4.689   2.143   4.574
 5211SOL    HW116532   4.609   2.134   4.514
 5211SOL    HW216533   4.754   2.207   4.534
 5212SOL     OW16534   1.572   2.328   0.713
 5212SOL    HW116535   1.651   2.316   0.774
 5212SOL    HW216536   1.520   2.242   0.709
 5213SOL     OW16537   4.008   3.759   2.065
 5213SOL    HW116538   3.911   3.750   2.042
 5213SOL    HW216539   4.062   3.759   1.980
 5214SOL     OW16540   5.350   4.235   6.295
 5214SOL    HW116541   5.335   4.158   6.232
 5214SOL    HW216542   5.395   4.309   6.246
 5215SOL     OW16543   0.255   3.149   4.645
 5215SOL    HW116544   0.302   3.148   4.557
 5215SOL    HW216545   0.214   3.238   4.660
 5216SOL     OW16546   5.066   5.391   1.076
 5216SOL    HW116547   5.023   5.301   1.084
 5216SOL    HW216548   5.098   5.421   1.166
 5217SOL     OW16549   3.613   5.428   4.154
 5217SOL    HW116550   3.564   5.380   4.081
 5217SOL    HW216551   3.555   5.431   4.236
 5218SOL     OW16552   0.560   1.445   0.699
 5218SOL    HW116553   0.654   1.411   0.701
 5218SOL    HW216554   0.540   1.487   0.611
 5219SOL     OW16555   3.280   1.517   4.641
 5219SOL    HW116556   3.355   1.515   4.707
 5219SOL    HW216557   3.193   1.521   4.690
 5220SOL     OW16558   1.970   5.712   3.530
 5220SOL    HW116559   1.933   5.638   3.586
 5220SOL    HW216560   2.064   5.731   3.557
 5221SOL     OW16561   6.862   0.124   1.437
 5221SOL    HW116562   6.953   0.138   1.477
 5221SOL    HW216563   6.803   0.202   1.460
 5222SOL     OW16564   4.376   4.752   1.806
 5222SOL    HW116565   4.469   4.785   1.795
 5222SOL    HW216566   4.344   4.773   1.899
 5223SOL     OW16567   0.277   2.429   0.980
 5223SOL    HW116568   0.352   2.362   0.979
 5223SOL    HW216569   0.215   2.408   1.056
 5224SOL     OW16570   0.787   1.852   4.659
 5224SOL    HW116571   0.820   1.779   4.717
 5224SOL    HW216572   0.863   1.910   4.630
 5225SOL     OW16573   6.476   1.295   4.560
 5225SOL    HW116574   6.511   1.346   4.481
 5225SOL    HW216575   6.518   1.204   4.562
 5226SOL     OW16576   0.331   5.848   3.564
 5226SOL    HW116577   0.269   5.855   3.642
 5226SOL    HW216578   0.291   5.790   3.493
 5227SOL     OW16579   6.927   3.942   6.017
 5227SOL    HW116580   6.952   3.846   6.027
 5227SOL    HW216581   6.870   3.970   6.094
 5228SOL     OW16582   1.058   3.019   6.401
 5228SOL    HW116583   1.096   3.001   6.492
 5228SOL    HW216584   0.965   2.983   6.396
 5229SOL     OW16585   3.356   6.163   0.018
 5229SOL    HW116586   3.277   6.106   7.020
 5229SOL    HW216587   3.418   6.112   0.077
 5230SOL     OW16588   6.530   6.827   2.406
 5230SOL    HW116589   6.571   6.752   2.355
 5230SOL    HW216590   6.518   6.906   2.345
 5231SOL     OW16591   5.502   1.464   3.424
 5231SOL    HW116592   5.560   1.461   3.342
 5231SOL    HW216593   5.556   1.501   3.501
 5232SOL     OW16594   1.726   4.104   6.223
 5232SOL    HW116595   1.643   4.078   6.272
 5232SOL    HW216596   1.742   4.202   6.233
 5233SOL     OW16597   3.144   1.409   2.545
 5233SOL    HW116598   3.048   1.426   2.569
 5233SOL    HW216599   3.199   1.488   2.570
 5234SOL     OW16600   2.065   3.076   0.439
 5234SOL    HW116601   2.033   2.984   0.416
 5234SOL    HW216602   2.050   3.137   0.361
 5235SOL     OW16603   2.024   2.121   0.392
 5235SOL    HW116604   2.007   2.181   0.314
 5235SOL    HW216605   2.118   2.130   0.422
 5236SOL     OW16606   3.463   4.982   2.027
 5236SOL    HW116607   3.402   4.935   2.091
 5236SOL    HW216608   3.549   4.931   2.019
 5237SOL     OW16609   1.760   1.982   4.950
 5237SOL    HW116610   1.799   1.890   4.954
 5237SOL    HW216611   1.780   2.029   5.036
 5238SOL     OW16612   1.138   4.561   2.875
 5238SOL    HW116613   1.152   4.658   2.852
 5238SOL    HW216614   1.041   4.538   2.865
 5239SOL     OW16615   3.468   4.169   1.041
 5239SOL    HW116616   3.417   4.138   0.960
 5239SOL    HW216617   3.478   4.093   1.105
 5240SOL     OW16618   2.623   2.912   5.762
 5240SOL    HW116619   2.623   2.881   5.857
 5240SOL    HW216620   2.693   2.982   5.750
 5241SOL     OW16621   1.448   5.869   2.354
 5241SOL    HW116622   1.460   5.882   2.255
 5241SOL    HW216623   1.527   5.819   2.390
 5242SOL     OW16624   5.010   0.802   1.440
 5242SOL    HW116625   5.077   0.848   1.382
 5242SOL    HW216626   5.033   0.705   1.447
 5243SOL     OW16627   2.480   6.293   1.795
 5243SOL    HW116628   2.438   6.384   1.793
 5243SOL    HW216629   2.534   6.279   1.712
 5244SOL     OW16630   5.236   3.289   0.501
 5244SOL    HW116631   5.168   3.254   0.565
 5244SOL    HW216632   5.319   3.315   0.551
 5245SOL     OW16633   3.819   4.375   0.226
 5245SOL    HW116634   3.779   4.412   0.143
 5245SOL    HW216635   3.919   4.379   0.220
 5246SOL     OW16636   6.910   2.543   2.008
 5246SOL    HW116637   6.844   2.483   1.963
 5246SOL    HW216638   6.955   2.493   2.082
 5247SOL     OW16639   3.908   1.573   5.295
 5247SOL    HW116640   3.892   1.636   5.370
 5247SOL    HW216641   3.991   1.520   5.313
 5248SOL     OW16642   6.805   1.977   2.980
 5248SOL    HW116643   6.870   1.924   3.035
 5248SOL    HW216644   6.844   1.996   2.890
 5249SOL     OW16645   1.303   5.257   6.896
 5249SOL    HW116646   1.254   5.223   6.976
 5249SOL    HW216647   1.262   5.344   6.867
 5250SOL     OW16648   1.585   5.436   0.816
 5250SOL    HW116649   1.654   5.425   0.745
 5250SOL    HW216650   1.607   5.376   0.894
 5251SOL     OW16651   0.808   4.622   1.085
 5251SOL    HW116652   0.859   4.642   1.002
 5251SOL    HW216653   0.842   4.679   1.160
 5252SOL     OW16654   3.078   6.830   2.299
 5252SOL    HW116655   3.155   6.831   2.235
 5252SOL    HW216656   2.992   6.824   2.247
 5253SOL     OW16657   5.782   4.287   4.810
 5253SOL    HW116658   5.842   4.354   4.854
 5253SOL    HW216659   5.765   4.315   4.716
 5254SOL     OW16660   5.518   0.577   3.424
 5254SOL    HW116661   5.517   0.668   3.383
 5254SOL    HW216662   5.425   0.545   3.437
 5255SOL     OW16663   5.237   2.187   4.616
 5255SOL    HW116664   5.230   2.112   4.682
 5255SOL    HW216665   5.215   2.273   4.661
 5256SOL     OW16666   4.900   1.180   3.030
 5256SOL    HW116667   4.933   1.098   3.075
 5256SOL    HW216668   4.973   1.248   3.024
 5257SOL     OW16669   4.712   0.186   0.354
 5257SOL    HW116670   4.633   0.139   0.315
 5257SOL    HW216671   4.796   0.149   0.314
 5258SOL     OW16672   5.782   1.839   2.609
 5258SOL    HW116673   5.851   1.884   2.553
 5258SOL    HW216674   5.691   1.868   2.580
 5259SOL     OW16675   5.181   5.823   2.734
 5259SOL    HW116676   5.114   5.879   2.782
 5259SOL    HW216677   5.267   5.873   2.725
 5260SOL     OW16678   3.313   5.317   6.992
 5260SOL    HW116679   3.373   5.346   0.042
 5260SOL    HW216680   3.229   5.279   0.006
 5261SOL     OW16681   0.221   4.991   0.928
 5261SOL    HW116682   0.223   5.023   1.022
 5261SOL    HW216683   0.127   4.976   0.899
 5262SOL     OW16684   2.721   0.612   3.041
 5262SOL    HW116685   2.698   0.689   2.982
 5262SOL    HW216686   2.783   0.550   2.992
 5263SOL     OW16687   2.032   1.397   3.302
 5263SOL    HW116688   2.023   1.480   3.357
 5263SOL    HW216689   2.128   1.383   3.278
 5264SOL     OW16690   6.840   2.059   1.926
 5264SOL    HW116691   6.825   2.079   2.023
 5264SOL    HW216692   6.773   1.991   1.895
 5265SOL     OW16693   5.857   2.763   4.530
 5265SOL    HW116694   5.917   2.687   4.508
 5265SOL    HW216695   5.813   2.748   4.619
 5266SOL     OW16696   2.305   6.582   0.865
 5266SOL    HW116697   2.283   6.673   0.898
 5266SOL    HW216698   2.222   6.538   0.830
 5267SOL     OW16699   4.555   2.234   4.954
 5267SOL    HW116700   4.478   2.298   4.944
 5267SOL    HW216701   4.520   2.141   4.963
 5268SOL     OW16702   5.390   0.681   6.551
 5268SOL    HW116703   5.487   0.679   6.526
 5268SOL    HW216704   5.357   0.775   6.545
 5269SOL     OW16705   0.758   6.755   2.262
 5269SOL    HW116706   0.752   6.810   2.179
 5269SOL    HW216707   0.667   6.724   2.289
 5270SOL     OW16708   5.404   1.568   0.216
 5270SOL    HW116709   5.415   1.655   0.265
 5270SOL    HW216710   5.424   1.492   0.277
 5271SOL     OW16711   6.535   5.284   4.639
 5271SOL    HW116712   6.533   5.188   4.613
 5271SOL    HW216713   6.530   5.292   4.739
 5272SOL     OW16714   4.185   6.170   1.091
 5272SOL    HW116715   4.201   6.267   1.073
 5272SOL    HW216716   4.273   6.123   1.101
 5273SOL     OW16717   0.986   3.037   2.769
 5273SOL    HW116718   1.018   3.127   2.738
 5273SOL    HW216719   0.889   3.027   2.745
 5274SOL     OW16720   4.517   6.718   2.637
 5274SOL    HW116721   4.597   6.756   2.589
 5274SOL    HW216722   4.547   6.673   2.721
 5275SOL     OW16723   2.729   0.741   1.007
 5275SOL    HW116724   2.644   0.724   0.958
 5275SOL    HW216725   2.726   0.696   1.096
 5276SOL     OW16726   2.520   0.228   2.118
 5276SOL    HW116727   2.570   0.240   2.032
 5276SOL    HW216728   2.576   0.263   2.193
 5277SOL     OW16729   3.219   0.904   2.629
 5277SOL    HW116730   3.161   0.844   2.574
 5277SOL    HW216731   3.309   0.861   2.641
 5278SOL     OW16732   4.447   4.506   3.118
 5278SOL    HW116733   4.464   4.604   3.127
 5278SOL    HW216734   4.371   4.479   3.176
 5279SOL     OW16735   2.762   5.356   0.661
 5279SOL    HW116736   2.823   5.381   0.737
 5279SOL    HW216737   2.729   5.439   0.617
 5280SOL     OW16738   2.822   6.333   5.098
 5280SOL    HW116739   2.831   6.328   4.999
 5280SOL    HW216740   2.836   6.242   5.137
 5281SOL     OW16741   7.008   1.714   2.776
 5281SOL    HW116742   6.951   1.700   2.857
 5281SOL    HW216743   0.080   1.713   2.802
 5282SOL     OW16744   2.069   1.888   3.869
 5282SOL    HW116745   2.129   1.853   3.798
 5282SOL    HW216746   2.046   1.984   3.849
 5283SOL     OW16747   5.506   6.100   1.099
 5283SOL    HW116748   5.493   6.163   1.022
 5283SOL    HW216749   5.427   6.039   1.105
 5284SOL     OW16750   5.587   4.624   2.853
 5284SOL    HW116751   5.661   4.688   2.873
 5284SOL    HW216752   5.538   4.602   2.938
 5285SOL     OW16753   3.157   4.875   3.827
 5285SOL    HW116754   3.250   4.840   3.834
 5285SOL    HW216755   3.122   4.859   3.734
 5286SOL     OW16756   2.269   4.244   1.262
 5286SOL    HW116757   2.316   4.260   1.348
 5286SOL    HW216758   2.197   4.312   1.249
 5287SOL     OW16759   2.712   1.461   0.664
 5287SOL    HW116760   2.696   1.450   0.763
 5287SOL    HW216761   2.652   1.398   0.614
 5288SOL     OW16762   3.242   0.250   1.389
 5288SOL    HW116763   3.300   0.301   1.327
 5288SOL    HW216764   3.222   0.305   1.470
 5289SOL     OW16765   0.822   5.075   0.398
 5289SOL    HW116766   0.727   5.085   0.369
 5289SOL    HW216767   0.837   4.983   0.433
 5290SOL     OW16768   3.720   5.912   6.848
 5290SOL    HW116769   3.756   5.978   6.782
 5290SOL    HW216770   3.699   5.826   6.803
 5291SOL     OW16771   1.767   4.894   5.811
 5291SOL    HW116772   1.686   4.884   5.752
 5291SOL    HW216773   1.835   4.950   5.764
 5292SOL     OW16774   5.259   3.160   6.846
 5292SOL    HW116775   5.234   3.255   6.827
 5292SOL    HW216776   5.179   3.101   6.830
 5293SOL     OW16777   1.011   1.174   4.609
 5293SOL    HW116778   1.087   1.234   4.634
 5293SOL    HW216779   0.928   1.229   4.599
 5294SOL     OW16780   5.836   2.988   6.150
 5294SOL    HW116781   5.762   3.038   6.195
 5294SOL    HW216782   5.804   2.954   6.061
 5295SOL     OW16783   5.236   1.120   2.866
 5295SOL    HW116784   5.197   1.176   2.940
 5295SOL    HW216785   5.336   1.128   2.869
 5296SOL     OW16786   1.864   4.374   0.190
 5296SOL    HW116787   1.910   4.455   0.152
 5296SOL    HW216788   1.890   4.293   0.137
 5297SOL     OW16789   2.014   1.739   0.924
 5297SOL    HW116790   1.958   1.811   0.884
 5297SOL    HW216791   1.987   1.651   0.886
 5298SOL     OW16792   6.372   4.802   2.067
 5298SOL    HW116793   6.285   4.756   2.050
 5298SOL    HW216794   6.442   4.766   2.005
 5299SOL     OW16795   2.628   0.340   1.535
 5299SOL    HW116796   2.618   0.254   1.485
 5299SOL    HW216797   2.725   0.359   1.549
 5300SOL     OW16798   0.075   6.014   3.409
 5300SOL    HW116799   0.064   5.939   3.343
 5300SOL    HW216800   0.045   5.984   3.499
 5301SOL     OW16801   4.258   1.605   6.967
 5301SOL    HW116802   4.214   1.552   0.015
 5301SOL    HW216803   4.257   1.553   6.882
 5302SOL     OW16804   0.170   4.327   3.392
 5302SOL    HW116805   0.101   4.291   3.455
 5302SOL    HW216806   0.129   4.337   3.301
 5303SOL     OW16807   0.166   4.663   3.689
 5303SOL    HW116808   0.162   4.687   3.592
 5303SOL    HW216809   0.074   4.662   3.727
 5304SOL     OW16810   5.078   1.907   5.692
 5304SOL    HW116811   5.022   1.968   5.636
 5304SOL    HW216812   5.094   1.949   5.781
 5305SOL     OW16813   2.000   0.610   3.908
 5305SOL    HW116814   2.063   0.661   3.967
 5305SOL    HW216815   1.950   0.543   3.963
 5306SOL     OW16816   2.627   6.938   5.625
 5306SOL    HW116817   2.548   6.999   5.626
 5306SOL    HW216818   2.661   6.926   5.718
 5307SOL     OW16819   4.257   6.533   6.178
 5307SOL    HW116820   4.253   6.535   6.078
 5307SOL    HW216821   4.184   6.590   6.215
 5308SOL     OW16822   6.765   0.546   3.460
 5308SOL    HW116823   6.811   0.604   3.528
 5308SOL    HW216824   6.761   0.452   3.493
 5309SOL     OW16825   3.805   4.104   3.778
 5309SOL    HW116826   3.832   4.008   3.773
 5309SOL    HW216827   3.756   4.129   3.694
 5310SOL     OW16828   5.406   2.471   1.507
 5310SOL    HW116829   5.327   2.532   1.508
 5310SOL    HW216830   5.482   2.515   1.460
 5311SOL     OW16831   2.589   5.178   0.038
 5311SOL    HW116832   2.686   5.199   0.046
 5311SOL    HW216833   2.535   5.249   0.082
 5312SOL     OW16834   1.029   4.181   2.868
 5312SOL    HW116835   1.115   4.142   2.833
 5312SOL    HW216836   1.049   4.259   2.926
 5313SOL     OW16837   1.104   6.020   6.401
 5313SOL    HW116838   1.023   6.001   6.455
 5313SOL    HW216839   1.100   5.968   6.315
 5314SOL     OW16840   4.397   5.380   6.679
 5314SOL    HW116841   4.301   5.397   6.654
 5314SOL    HW216842   4.401   5.347   6.773
 5315SOL     OW16843   5.897   3.852   1.426
 5315SOL    HW116844   5.820   3.863   1.489
 5315SOL    HW216845   5.888   3.765   1.378
 5316SOL     OW16846   0.173   5.081   4.695
 5316SOL    HW116847   0.182   4.999   4.639
 5316SOL    HW216848   0.264   5.119   4.714
 5317SOL     OW16849   5.416   0.647   2.797
 5317SOL    HW116850   5.424   0.700   2.882
 5317SOL    HW216851   5.346   0.689   2.739
 5318SOL     OW16852   6.924   2.680   4.564
 5318SOL    HW116853   6.950   2.775   4.548
 5318SOL    HW216854   6.927   2.661   4.662
 5319SOL     OW16855   5.651   0.192   0.180
 5319SOL    HW116856   5.616   0.231   0.265
 5319SOL    HW216857   5.645   0.260   0.108
 5320SOL     OW16858   5.419   3.506   6.602
 5320SOL    HW116859   5.374   3.514   6.691
 5320SOL    HW216860   5.391   3.583   6.544
 5321SOL     OW16861   1.938   5.631   5.664
 5321SOL    HW116862   1.860   5.621   5.603
 5321SOL    HW216863   2.020   5.594   5.620
 5322SOL     OW16864   4.000   5.729   6.311
 5322SOL    HW116865   3.971   5.745   6.405
 5322SOL    HW216866   4.078   5.666   6.311
 5323SOL     OW16867   3.824   1.635   0.345
 5323SOL    HW116868   3.822   1.735   0.342
 5323SOL    HW216869   3.904   1.604   0.397
 5324SOL     OW16870   4.233   3.007   1.438
 5324SOL    HW116871   4.214   2.962   1.526
 5324SOL    HW216872   4.327   3.038   1.435
 5325SOL     OW16873   5.230   6.346   1.972
 5325SOL    HW116874   5.321   6.373   1.942
 5325SOL    HW216875   5.238   6.268   2.034
 5326SOL     OW16876   6.599   5.776   2.024
 5326SOL    HW116877   6.645   5.849   1.974
 5326SOL    HW216878   6.609   5.792   2.123
 5327SOL     OW16879   6.759   6.890   4.473
 5327SOL    HW116880   6.707   6.899   4.558
 5327SOL    HW216881   6.704   6.922   4.396
 5328SOL     OW16882   3.818   3.891   0.105
 5328SOL    HW116883   3.887   3.960   0.081
 5328SOL    HW216884   3.785   3.908   0.198
 5329SOL     OW16885   0.615   4.747   0.703
 5329SOL    HW116886   0.554   4.757   0.782
 5329SOL    HW216887   0.704   4.713   0.734
 5330SOL     OW16888   4.067   3.907   1.429
 5330SOL    HW116889   4.099   3.831   1.373
 5330SOL    HW216890   3.988   3.951   1.385
 5331SOL     OW16891   4.040   2.105   0.395
 5331SOL    HW116892   4.135   2.123   0.370
 5331SOL    HW216893   4.012   2.168   0.467
 5332SOL     OW16894   6.034   5.132   0.439
 5332SOL    HW116895   6.092   5.176   0.369
 5332SOL    HW216896   6.088   5.118   0.522
 5333SOL     OW16897   1.439   1.176   3.717
 5333SOL    HW116898   1.370   1.191   3.647
 5333SOL    HW216899   1.527   1.214   3.687
 5334SOL     OW16900   4.679   4.308   3.137
 5334SOL    HW116901   4.662   4.276   3.230
 5334SOL    HW216902   4.605   4.368   3.108
 5335SOL     OW16903   0.192   4.850   1.423
 5335SOL    HW116904   0.286   4.814   1.427
 5335SOL    HW216905   0.133   4.783   1.378
 5336SOL     OW16906   1.773   2.367   4.380
 5336SOL    HW116907   1.804   2.296   4.443
 5336SOL    HW216908   1.787   2.457   4.421
 5337SOL     OW16909   6.777   4.568   1.371
 5337SOL    HW116910   6.744   4.661   1.357
 5337SOL    HW216911   6.844   4.567   1.445
 5338SOL     OW16912   6.152   3.157   0.249
 5338SOL    HW116913   6.078   3.105   0.292
 5338SOL    HW216914   6.240   3.126   0.286
 5339SOL     OW16915   6.103   2.420   2.743
 5339SOL    HW116916   6.123   2.331   2.702
 5339SOL    HW216917   6.115   2.414   2.842
 5340SOL     OW16918   5.677   2.993   2.577
 5340SOL    HW116919   5.667   2.950   2.487
 5340SOL    HW216920   5.715   2.927   2.641
 5341SOL     OW16921   4.604   4.955   3.377
 5341SOL    HW116922   4.675   5.013   3.416
 5341SOL    HW216923   4.515   5.000   3.383
 5342SOL     OW16924   6.075   0.158   5.321
 5342SOL    HW116925   5.987   0.110   5.311
 5342SOL    HW216926   6.112   0.142   5.412
 5343SOL     OW16927   4.004   3.629   5.483
 5343SOL    HW116928   4.030   3.683   5.563
 5343SOL    HW216929   4.042   3.672   5.400
 5344SOL     OW16930   0.279   1.825   6.378
 5344SOL    HW116931   0.272   1.875   6.465
 5344SOL    HW216932   0.191   1.782   6.358
 5345SOL     OW16933   5.354   1.106   6.662
 5345SOL    HW116934   5.454   1.095   6.661
 5345SOL    HW216935   5.325   1.138   6.751
 5346SOL     OW16936   2.883   5.314   3.670
 5346SOL    HW116937   2.785   5.325   3.682
 5346SOL    HW216938   2.920   5.262   3.748
 5347SOL     OW16939   6.267   2.068   4.052
 5347SOL    HW116940   6.226   1.998   4.111
 5347SOL    HW216941   6.363   2.046   4.036
 5348SOL     OW16942   5.282   2.242   4.113
 5348SOL    HW116943   5.301   2.325   4.164
 5348SOL    HW216944   5.334   2.243   4.027
 5349SOL     OW16945   0.858   2.850   1.815
 5349SOL    HW116946   0.902   2.771   1.772
 5349SOL    HW216947   0.815   2.906   1.745
 5350SOL     OW16948   2.611   6.686   5.500
 5350SOL    HW116949   2.527   6.632   5.502
 5350SOL    HW216950   2.603   6.762   5.565
 5351SOL     OW16951   0.359   5.494   1.739
 5351SOL    HW116952   0.445   5.525   1.780
 5351SOL    HW216953   0.376   5.414   1.682
 5352SOL     OW16954   2.000   3.986   4.152
 5352SOL    HW116955   2.097   4.010   4.163
 5352SOL    HW216956   1.963   4.031   4.071
 5353SOL     OW16957   4.711   5.389   3.283
 5353SOL    HW116958   4.725   5.368   3.380
 5353SOL    HW216959   4.748   5.313   3.228
 5354SOL     OW16960   4.302   5.524   0.535
 5354SOL    HW116961   4.209   5.555   0.517
 5354SOL    HW216962   4.341   5.578   0.609
 5355SOL     OW16963   5.462   4.787   5.120
 5355SOL    HW116964   5.504   4.869   5.081
 5355SOL    HW216965   5.397   4.748   5.054
 5356SOL     OW16966   0.484   4.826   0.941
 5356SOL    HW116967   0.397   4.876   0.941
 5356SOL    HW216968   0.493   4.775   1.027
 5357SOL     OW16969   4.798   4.767   2.035
 5357SOL    HW116970   4.706   4.741   2.065
 5357SOL    HW216971   4.822   4.856   2.074
 5358SOL     OW16972   4.538   1.161   0.029
 5358SOL    HW116973   4.542   1.157   0.128
 5358SOL    HW216974   4.546   1.256   7.023
 5359SOL     OW16975   1.549   2.014   6.890
 5359SOL    HW116976   1.534   1.922   6.926
 5359SOL    HW216977   1.617   2.061   6.946
 5360SOL     OW16978   5.793   4.522   3.700
 5360SOL    HW116979   5.814   4.477   3.787
 5360SOL    HW216980   5.694   4.535   3.692
 5361SOL     OW16981   3.562   6.252   2.639
 5361SOL    HW116982   3.519   6.183   2.580
 5361SOL    HW216983   3.647   6.283   2.597
 5362SOL     OW16984   5.472   6.977   2.329
 5362SOL    HW116985   5.467   0.022   2.400
 5362SOL    HW216986   5.380   6.948   2.302
 5363SOL     OW16987   5.581   5.438   4.915
 5363SOL    HW116988   5.543   5.438   5.008
 5363SOL    HW216989   5.525   5.379   4.856
 5364SOL     OW16990   4.806   0.925   2.549
 5364SOL    HW116991   4.850   0.836   2.531
 5364SOL    HW216992   4.874   0.988   2.585
 5365SOL     OW16993   3.246   3.187   4.133
 5365SOL    HW116994   3.324   3.224   4.083
 5365SOL    HW216995   3.215   3.253   4.201
 5366SOL     OW16996   6.496   6.632   1.595
 5366SOL    HW116997   6.437   6.683   1.532
 5366SOL    HW216998   6.557   6.696   1.642
 5367SOL     OW16999   7.003   6.324   1.032
 5367SOL    HW117000   0.038   6.293   0.958
 5367SOL    HW217001   6.995   6.423   1.028
 5368SOL     OW17002   6.545   5.700   3.372
 5368SOL    HW117003   6.489   5.669   3.296
 5368SOL    HW217004   6.521   5.649   3.455
 5369SOL     OW17005   2.956   5.610   2.087
 5369SOL    HW117006   2.928   5.528   2.038
 5369SOL    HW217007   2.878   5.673   2.094
 5370SOL     OW17008   3.117   3.874   1.323
 5370SOL    HW117009   3.199   3.922   1.290
 5370SOL    HW217010   3.138   3.777   1.335
 5371SOL     OW17011   6.824   5.152   5.508
 5371SOL    HW117012   6.827   5.068   5.454
 5371SOL    HW217013   6.764   5.219   5.463
 5372SOL     OW17014   0.906   0.453   2.345
 5372SOL    HW117015   0.852   0.531   2.376
 5372SOL    HW217016   1.001   0.480   2.335
 5373SOL     OW17017   3.902   0.250   5.971
 5373SOL    HW117018   3.996   0.218   5.983
 5373SOL    HW217019   3.838   0.175   5.990
 5374SOL     OW17020   2.823   5.274   1.374
 5374SOL    HW117021   2.790   5.207   1.441
 5374SOL    HW217022   2.773   5.360   1.386
 5375SOL     OW17023   0.744   5.909   4.738
 5375SOL    HW117024   0.795   5.984   4.695
 5375SOL    HW217025   0.699   5.942   4.821
 5376SOL     OW17026   0.879   1.540   0.248
 5376SOL    HW117027   0.879   1.518   0.150
 5376SOL    HW217028   0.805   1.489   0.293
 5377SOL     OW17029   2.476   0.485   3.150
 5377SOL    HW117030   2.546   0.503   3.081
 5377SOL    HW217031   2.400   0.549   3.137
 5378SOL     OW17032   5.895   0.766   1.539
 5378SOL    HW117033   5.845   0.853   1.535
 5378SOL    HW217034   5.874   0.720   1.625
 5379SOL     OW17035   0.844   3.297   6.048
 5379SOL    HW117036   0.930   3.272   6.094
 5379SOL    HW217037   0.842   3.255   5.957
 5380SOL     OW17038   5.014   0.455   1.223
 5380SOL    HW117039   4.999   0.421   1.316
 5380SOL    HW217040   4.956   0.405   1.159
 5381SOL     OW17041   4.825   6.345   2.997
 5381SOL    HW117042   4.755   6.306   2.938
 5381SOL    HW217043   4.787   6.422   3.048
 5382SOL     OW17044   4.292   1.948   2.178
 5382SOL    HW117045   4.270   1.976   2.084
 5382SOL    HW217046   4.259   1.855   2.194
 5383SOL     OW17047   2.215   3.046   4.579
 5383SOL    HW117048   2.232   2.997   4.664
 5383SOL    HW217049   2.269   3.130   4.577
 5384SOL     OW17050   4.706   5.956   5.490
 5384SOL    HW117051   4.725   6.019   5.565
 5384SOL    HW217052   4.779   5.963   5.421
 5385SOL     OW17053   5.911   2.622   5.707
 5385SOL    HW117054   5.950   2.566   5.780
 5385SOL    HW217055   5.872   2.563   5.637
 5386SOL     OW17056   6.790   4.227   4.058
 5386SOL    HW117057   6.698   4.246   4.023
 5386SOL    HW217058   6.855   4.293   4.020
 5387SOL     OW17059   1.960   1.368   2.714
 5387SOL    HW117060   2.025   1.417   2.656
 5387SOL    HW217061   1.982   1.383   2.810
 5388SOL     OW17062   1.004   6.825   2.388
 5388SOL    HW117063   1.074   6.849   2.320
 5388SOL    HW217064   0.924   6.788   2.341
 5389SOL     OW17065   4.706   1.847   4.023
 5389SOL    HW117066   4.618   1.857   3.977
 5389SOL    HW217067   4.768   1.794   3.965
 5390SOL     OW17068   6.523   3.217   3.877
 5390SOL    HW117069   6.502   3.199   3.973
 5390SOL    HW217070   6.476   3.150   3.820
 5391SOL     OW17071   2.159   2.784   0.157
 5391SOL    HW117072   2.138   2.700   0.108
 5391SOL    HW217073   2.089   2.799   0.227
 5392SOL     OW17074   5.266   1.639   3.443
 5392SOL    HW117075   5.245   1.685   3.356
 5392SOL    HW217076   5.358   1.600   3.439
 5393SOL     OW17077   3.822   1.540   5.778
 5393SOL    HW117078   3.812   1.470   5.707
 5393SOL    HW217079   3.912   1.582   5.771
 5394SOL     OW17080   2.012   0.310   0.808
 5394SOL    HW117081   2.053   0.246   0.742
 5394SOL    HW217082   2.061   0.303   0.895
 5395SOL     OW17083   5.446   2.214   1.004
 5395SOL    HW117084   5.399   2.293   1.044
 5395SOL    HW217085   5.544   2.221   1.019
 5396SOL     OW17086   6.122   5.257   3.080
 5396SOL    HW117087   6.052   5.195   3.113
 5396SOL    HW217088   6.095   5.293   2.990
 5397SOL     OW17089   6.625   1.318   3.126
 5397SOL    HW117090   6.633   1.219   3.120
 5397SOL    HW217091   6.626   1.358   3.035
 5398SOL     OW17092   4.920   1.833   3.365
 5398SOL    HW117093   4.919   1.917   3.310
 5398SOL    HW217094   4.887   1.854   3.457
 5399SOL     OW17095   2.271   0.010   5.495
 5399SOL    HW117096   2.235   6.943   5.515
 5399SOL    HW217097   2.197   0.068   5.461
 5400SOL     OW17098   3.598   3.370   1.360
 5400SOL    HW117099   3.590   3.399   1.455
 5400SOL    HW217100   3.553   3.281   1.349
 5401SOL     OW17101   6.049   4.395   1.895
 5401SOL    HW117102   5.967   4.439   1.859
 5401SOL    HW217103   6.131   4.441   1.860
 5402SOL     OW17104   1.719   6.880   0.770
 5402SOL    HW117105   1.707   6.949   0.841
 5402SOL    HW217106   1.723   6.924   0.680
 5403SOL     OW17107   5.166   3.519   0.384
 5403SOL    HW117108   5.254   3.562   0.364
 5403SOL    HW217109   5.182   3.432   0.432
 5404SOL     OW17110   6.184   0.845   1.278
 5404SOL    HW117111   6.187   0.780   1.354
 5404SOL    HW217112   6.206   0.936   1.311
 5405SOL     OW17113   5.115   5.679   6.883
 5405SOL    HW117114   5.183   5.659   6.953
 5405SOL    HW217115   5.093   5.595   6.832
 5406SOL     OW17116   2.643   0.317   3.889
 5406SOL    HW117117   2.721   0.315   3.951
 5406SOL    HW217118   2.668   0.272   3.803
 5407SOL     OW17119   2.246   0.502   1.504
 5407SOL    HW117120   2.301   0.586   1.500
 5407SOL    HW217121   2.262   0.448   1.422
 5408SOL     OW17122   2.570   2.525   4.435
 5408SOL    HW117123   2.557   2.468   4.354
 5408SOL    HW217124   2.591   2.467   4.514
 5409SOL     OW17125   1.208   2.838   1.130
 5409SOL    HW117126   1.151   2.791   1.198
 5409SOL    HW217127   1.203   2.789   1.043
 5410SOL     OW17128   1.014   2.406   0.999
 5410SOL    HW117129   1.111   2.428   0.997
 5410SOL    HW217130   0.966   2.460   0.929
 5411SOL     OW17131   4.094   5.151   6.899
 5411SOL    HW117132   4.018   5.200   6.857
 5411SOL    HW217133   4.091   5.055   6.871
 5412SOL     OW17134   0.318   2.376   5.722
 5412SOL    HW117135   0.249   2.356   5.792
 5412SOL    HW217136   0.409   2.362   5.761
 5413SOL     OW17137   6.601   6.774   4.864
 5413SOL    HW117138   6.687   6.823   4.881
 5413SOL    HW217139   6.621   6.678   4.845
 5414SOL     OW17140   6.581   3.843   5.554
 5414SOL    HW117141   6.649   3.861   5.624
 5414SOL    HW217142   6.539   3.929   5.525
 5415SOL     OW17143   3.460   0.635   0.489
 5415SOL    HW117144   3.405   0.626   0.406
 5415SOL    HW217145   3.528   0.706   0.477
 5416SOL     OW17146   3.467   5.009   5.515
 5416SOL    HW117147   3.400   4.936   5.501
 5416SOL    HW217148   3.434   5.093   5.472
 5417SOL     OW17149   4.524   6.165   3.662
 5417SOL    HW117150   4.553   6.071   3.645
 5417SOL    HW217151   4.455   6.191   3.594
 5418SOL     OW17152   6.383   3.852   4.506
 5418SOL    HW117153   6.427   3.889   4.425
 5418SOL    HW217154   6.445   3.862   4.585
 5419SOL     OW17155   3.905   6.841   6.540
 5419SOL    HW117156   3.851   6.821   6.458
 5419SOL    HW217157   3.962   6.921   6.523
 5420SOL     OW17158   1.423   0.870   1.533
 5420SOL    HW117159   1.431   0.778   1.571
 5420SOL    HW217160   1.366   0.867   1.451
 5421SOL     OW17161   3.605   5.136   2.303
 5421SOL    HW117162   3.505   5.137   2.298
 5421SOL    HW217163   3.643   5.175   2.220
 5422SOL     OW17164   2.241   6.382   3.890
 5422SOL    HW117165   2.329   6.421   3.917
 5422SOL    HW217166   2.203   6.436   3.814
 5423SOL     OW17167   6.416   6.371   2.316
 5423SOL    HW117168   6.393   6.367   2.413
 5423SOL    HW217169   6.371   6.297   2.267
 5424SOL     OW17170   4.366   4.187   5.401
 5424SOL    HW117171   4.390   4.283   5.407
 5424SOL    HW217172   4.449   4.133   5.385
 5425SOL     OW17173   7.021   3.570   6.306
 5425SOL    HW117174   6.950   3.622   6.259
 5425SOL    HW217175   6.986   3.539   6.395
 5426SOL     OW17176   5.937   5.297   2.722
 5426SOL    HW117177   5.889   5.295   2.810
 5426SOL    HW217178   5.891   5.361   2.660
 5427SOL     OW17179   4.723   2.657   6.494
 5427SOL    HW117180   4.809   2.606   6.501
 5427SOL    HW217181   4.732   2.744   6.542
 5428SOL     OW17182   6.798   5.418   3.256
 5428SOL    HW117183   6.851   5.404   3.172
 5428SOL    HW217184   6.808   5.339   3.316
 5429SOL     OW17185   2.634   0.219   3.605
 5429SOL    HW117186   2.707   0.160   3.570
 5429SOL    HW217187   2.601   0.278   3.531
 5430SOL     OW17188   2.491   3.604   6.551
 5430SOL    HW117189   2.576   3.550   6.555
 5430SOL    HW217190   2.509   3.697   6.582
 5431SOL     OW17191   3.211   5.073   5.808
 5431SOL    HW117192   3.269   4.991   5.805
 5431SOL    HW217193   3.259   5.149   5.763
 5432SOL     OW17194   5.450   5.509   0.978
 5432SOL    HW117195   5.462   5.605   0.954
 5432SOL    HW217196   5.372   5.471   0.927
 5433SOL     OW17197   1.582   6.659   0.864
 5433SOL    HW117198   1.642   6.737   0.846
 5433SOL    HW217199   1.512   6.686   0.930
 5434SOL     OW17200   5.150   0.772   4.630
 5434SOL    HW117201   5.142   0.786   4.729
 5434SOL    HW217202   5.180   0.857   4.587
 5435SOL     OW17203   6.541   4.053   0.842
 5435SOL    HW117204   6.630   4.099   0.847
 5435SOL    HW217205   6.550   3.961   0.878
 5436SOL     OW17206   1.582   4.638   3.081
 5436SOL    HW117207   1.637   4.714   3.116
 5436SOL    HW217208   1.592   4.634   2.981
 5437SOL     OW17209   3.768   5.816   0.509
 5437SOL    HW117210   3.669   5.832   0.504
 5437SOL    HW217211   3.802   5.790   0.419
 5438SOL     OW17212   4.630   4.476   2.615
 5438SOL    HW117213   4.549   4.492   2.672
 5438SOL    HW217214   4.632   4.380   2.587
 5439SOL     OW17215   1.053   4.587   1.573
 5439SOL    HW117216   1.074   4.524   1.499
 5439SOL    HW217217   0.957   4.576   1.600
 5440SOL     OW17218   5.356   6.062   3.430
 5440SOL    HW117219   5.442   6.013   3.443
 5440SOL    HW217220   5.329   6.057   3.334
 5441SOL     OW17221   4.468   2.420   3.769
 5441SOL    HW117222   4.384   2.442   3.719
 5441SOL    HW217223   4.469   2.322   3.790
 5442SOL     OW17224   5.352   6.859   4.487
 5442SOL    HW117225   5.268   6.907   4.463
 5442SOL    HW217226   5.332   6.763   4.506
 5443SOL     OW17227   4.555   0.195   4.550
 5443SOL    HW117228   4.606   0.250   4.484
 5443SOL    HW217229   4.464   0.176   4.514
 5444SOL     OW17230   0.119   1.100   4.302
 5444SOL    HW117231   0.199   1.136   4.350
 5444SOL    HW217232   0.049   1.170   4.297
 5445SOL     OW17233   5.213   5.408   5.298
 5445SOL    HW117234   5.117   5.380   5.304
 5445SOL    HW217235   5.219   5.507   5.295
 5446SOL     OW17236   0.869   4.560   5.825
 5446SOL    HW117237   0.771   4.538   5.824
 5446SOL    HW217238   0.921   4.476   5.837
 5447SOL     OW17239   0.840   1.535   0.699
 5447SOL    HW117240   0.885   1.446   0.693
 5447SOL    HW217241   0.836   1.576   0.608
 5448SOL     OW17242   4.131   5.565   3.522
 5448SOL    HW117243   4.092   5.492   3.579
 5448SOL    HW217244   4.092   5.559   3.430
 5449SOL     OW17245   2.958   1.889   2.279
 5449SOL    HW117246   3.027   1.925   2.342
 5449SOL    HW217247   2.908   1.964   2.237
 5450SOL     OW17248   4.092   5.441   1.579
 5450SOL    HW117249   4.114   5.475   1.487
 5450SOL    HW217250   3.996   5.461   1.599
 5451SOL     OW17251   1.257   0.479   3.203
 5451SOL    HW117252   1.200   0.559   3.219
 5451SOL    HW217253   1.200   0.400   3.183
 5452SOL     OW17254   2.007   4.897   2.126
 5452SOL    HW117255   1.916   4.915   2.163
 5452SOL    HW217256   1.998   4.856   2.035
 5453SOL     OW17257   5.570   4.432   3.166
 5453SOL    HW117258   5.495   4.491   3.135
 5453SOL    HW217259   5.620   4.478   3.240
 5454SOL     OW17260   5.935   5.344   3.636
 5454SOL    HW117261   6.006   5.411   3.612
 5454SOL    HW217262   5.864   5.390   3.689
 5455SOL     OW17263   0.520   1.717   3.105
 5455SOL    HW117264   0.501   1.645   3.038
 5455SOL    HW217265   0.604   1.765   3.079
 5456SOL     OW17266   5.390   1.041   6.276
 5456SOL    HW117267   5.465   0.988   6.236
 5456SOL    HW217268   5.388   1.131   6.234
 5457SOL     OW17269   6.218   2.223   0.313
 5457SOL    HW117270   6.296   2.242   0.372
 5457SOL    HW217271   6.240   2.148   0.251
 5458SOL     OW17272   6.333   4.558   0.932
 5458SOL    HW117273   6.243   4.583   0.969
 5458SOL    HW217274   6.396   4.541   1.007
 5459SOL     OW17275   2.259   4.599   5.802
 5459SOL    HW117276   2.297   4.538   5.872
 5459SOL    HW217277   2.197   4.548   5.743
 5460SOL     OW17278   1.865   0.216   0.335
 5460SOL    HW117279   1.792   0.176   0.280
 5460SOL    HW217280   1.847   0.313   0.350
 5461SOL     OW17281   6.803   1.257   6.578
 5461SOL    HW117282   6.784   1.193   6.652
 5461SOL    HW217283   6.879   1.224   6.524
 5462SOL     OW17284   5.474   5.854   6.795
 5462SOL    HW117285   5.413   5.882   6.870
 5462SOL    HW217286   5.566   5.840   6.831
 5463SOL     OW17287   0.036   2.650   0.202
 5463SOL    HW117288   6.993   2.715   0.237
 5463SOL    HW217289   0.020   2.635   0.104
 5464SOL     OW17290   6.501   6.391   5.073
 5464SOL    HW117291   6.577   6.412   5.134
 5464SOL    HW217292   6.440   6.325   5.117
 5465SOL     OW17293   6.884   6.728   3.448
 5465SOL    HW117294   6.895   6.748   3.545
 5465SOL    HW217295   6.965   6.759   3.398
 5466SOL     OW17296   6.139   2.933   5.246
 5466SOL    HW117297   6.193   3.005   5.291
 5466SOL    HW217298   6.112   2.964   5.155
 5467SOL     OW17299   5.423   3.905   3.227
 5467SOL    HW117300   5.388   3.910   3.133
 5467SOL    HW217301   5.460   3.994   3.253
 5468SOL     OW17302   0.135   1.258   2.396
 5468SOL    HW117303   0.088   1.209   2.469
 5468SOL    HW217304   0.072   1.271   2.319
 5469SOL     OW17305   2.204   0.887   5.075
 5469SOL    HW117306   2.246   0.967   5.033
 5469SOL    HW217307   2.261   0.857   5.152
 5470SOL     OW17308   4.123   5.257   4.370
 5470SOL    HW117309   4.084   5.207   4.293
 5470SOL    HW217310   4.182   5.197   4.423
 5471SOL     OW17311   4.798   0.097   2.656
 5471SOL    HW117312   4.799   0.196   2.640
 5471SOL    HW217313   4.892   0.062   2.654
 5472SOL     OW17314   3.071   1.366   6.012
 5472SOL    HW117315   3.026   1.371   5.924
 5472SOL    HW217316   3.004   1.382   6.085
 5473SOL     OW17317   2.444   4.780   1.649
 5473SOL    HW117318   2.455   4.727   1.733
 5473SOL    HW217319   2.358   4.755   1.605
 5474SOL     OW17320   0.333   5.560   3.384
 5474SOL    HW117321   0.419   5.543   3.336
 5474SOL    HW217322   0.339   5.524   3.477
 5475SOL     OW17323   0.085   1.917   6.742
 5475SOL    HW117324   0.112   1.934   6.837
 5475SOL    HW217325   0.160   1.942   6.681
 5476SOL     OW17326   2.538   6.339   6.079
 5476SOL    HW117327   2.471   6.411   6.059
 5476SOL    HW217328   2.627   6.381   6.097
 5477SOL     OW17329   2.109   5.099   4.496
 5477SOL    HW117330   2.172   5.150   4.555
 5477SOL    HW217331   2.049   5.163   4.449
 5478SOL     OW17332   5.846   4.629   6.502
 5478SOL    HW117333   5.758   4.668   6.474
 5478SOL    HW217334   5.831   4.540   6.545
 5479SOL     OW17335   4.297   2.045   4.473
 5479SOL    HW117336   4.242   1.968   4.441
 5479SOL    HW217337   4.244   2.101   4.536
 5480SOL     OW17338   6.282   4.474   4.936
 5480SOL    HW117339   6.315   4.466   5.030
 5480SOL    HW217340   6.359   4.459   4.873
 5481SOL     OW17341   4.187   0.936   6.190
 5481SOL    HW117342   4.180   0.929   6.290
 5481SOL    HW217343   4.230   1.022   6.166
 5482SOL     OW17344   3.858   3.512   1.704
 5482SOL    HW117345   3.892   3.605   1.689
 5482SOL    HW217346   3.911   3.448   1.650
 5483SOL     OW17347   6.831   3.291   5.881
 5483SOL    HW117348   6.735   3.265   5.888
 5483SOL    HW217349   6.880   3.258   5.961
 5484SOL     OW17350   0.045   6.669   4.121
 5484SOL    HW117351   0.054   6.634   4.027
 5484SOL    HW217352   0.089   6.605   4.184
 5485SOL     OW17353   3.881   6.921   4.885
 5485SOL    HW117354   3.929   6.893   4.968
 5485SOL    HW217355   3.847   6.841   4.837
 5486SOL     OW17356   1.469   0.562   3.723
 5486SOL    HW117357   1.488   0.621   3.801
 5486SOL    HW217358   1.524   0.591   3.645
 5487SOL     OW17359   6.258   4.554   0.243
 5487SOL    HW117360   6.354   4.579   0.227
 5487SOL    HW217361   6.217   4.620   0.305
 5488SOL     OW17362   4.955   2.183   0.047
 5488SOL    HW117363   5.051   2.192   0.070
 5488SOL    HW217364   4.946   2.149   6.978
 5489SOL     OW17365   1.737   4.581   2.548
 5489SOL    HW117366   1.722   4.658   2.487
 5489SOL    HW217367   1.833   4.579   2.577
 5490SOL     OW17368   3.671   0.774   0.051
 5490SOL    HW117369   3.754   0.740   0.096
 5490SOL    HW217370   3.614   0.697   0.023
 5491SOL     OW17371   1.916   4.765   0.443
 5491SOL    HW117372   1.917   4.676   0.489
 5491SOL    HW217373   1.829   4.811   0.460
 5492SOL     OW17374   0.925   2.248   6.506
 5492SOL    HW117375   0.859   2.189   6.553
 5492SOL    HW217376   0.876   2.308   6.443
 5493SOL     OW17377   3.798   3.347   5.905
 5493SOL    HW117378   3.715   3.300   5.935
 5493SOL    HW217379   3.876   3.285   5.916
 5494SOL     OW17380   6.778   3.617   1.281
 5494SOL    HW117381   6.809   3.694   1.225
 5494SOL    HW217382   6.831   3.536   1.258
 5495SOL     OW17383   3.827   3.915   1.872
 5495SOL    HW117384   3.865   3.872   1.790
 5495SOL    HW217385   3.739   3.874   1.894
 5496SOL     OW17386   3.467   5.976   1.528
 5496SOL    HW117387   3.520   5.986   1.444
 5496SOL    HW217388   3.524   6.000   1.606
 5497SOL     OW17389   0.624   1.411   3.130
 5497SOL    HW117390   0.659   1.364   3.211
 5497SOL    HW217391   0.527   1.431   3.142
 5498SOL     OW17392   4.328   0.846   5.901
 5498SOL    HW117393   4.241   0.858   5.948
 5498SOL    HW217394   4.383   0.778   5.950
 5499SOL     OW17395   0.126   0.988   3.757
 5499SOL    HW117396   0.186   1.022   3.685
 5499SOL    HW217397   0.138   1.043   3.839
 5500SOL     OW17398   2.525   5.140   0.461
 5500SOL    HW117399   2.619   5.171   0.445
 5500SOL    HW217400   2.477   5.132   0.374
 5501SOL     OW17401   2.803   0.015   1.987
 5501SOL    HW117402   2.809   0.048   2.082
 5501SOL    HW217403   2.741   0.074   1.935
 5502SOL     OW17404   5.850   4.157   5.758
 5502SOL    HW117405   5.880   4.252   5.769
 5502SOL    HW217406   5.909   4.098   5.812
 5503SOL     OW17407   1.165   4.746   3.322
 5503SOL    HW117408   1.224   4.702   3.254
 5503SOL    HW217409   1.071   4.713   3.311
 5504SOL     OW17410   3.656   0.813   4.803
 5504SOL    HW117411   3.564   0.845   4.824
 5504SOL    HW217412   3.660   0.714   4.808
 5505SOL     OW17413   2.512   5.872   5.204
 5505SOL    HW117414   2.435   5.807   5.210
 5505SOL    HW217415   2.567   5.866   5.287
 5506SOL     OW17416   6.540   0.666   4.926
 5506SOL    HW117417   6.639   0.655   4.916
 5506SOL    HW217418   6.499   0.679   4.836
 5507SOL     OW17419   2.089   6.741   3.057
 5507SOL    HW117420   2.027   6.777   2.987
 5507SOL    HW217421   2.086   6.641   3.055
 5508SOL     OW17422   2.313   0.645   6.462
 5508SOL    HW117423   2.308   0.598   6.374
 5508SOL    HW217424   2.384   0.715   6.459
 5509SOL     OW17425   5.747   6.316   0.494
 5509SOL    HW117426   5.694   6.400   0.482
 5509SOL    HW217427   5.757   6.269   0.406
 5510SOL     OW17428   4.051   6.707   6.312
 5510SOL    HW117429   4.078   6.803   6.315
 5510SOL    HW217430   3.952   6.700   6.302
 5511SOL     OW17431   0.735   0.675   2.726
 5511SOL    HW117432   0.719   0.673   2.825
 5511SOL    HW217433   0.735   0.770   2.695
 5512SOL     OW17434   6.578   2.086   0.596
 5512SOL    HW117435   6.669   2.128   0.599
 5512SOL    HW217436   6.587   1.989   0.574
 5513SOL     OW17437   4.536   4.655   4.641
 5513SOL    HW117438   4.532   4.620   4.734
 5513SOL    HW217439   4.445   4.686   4.613
 5514SOL     OW17440   5.976   5.041   3.100
 5514SOL    HW117441   5.886   5.046   3.143
 5514SOL    HW217442   5.999   4.946   3.080
 5515SOL     OW17443   6.898   2.970   1.709
 5515SOL    HW117444   6.828   3.039   1.718
 5515SOL    HW217445   6.967   3.000   1.643
 5516SOL     OW17446   1.324   2.776   6.748
 5516SOL    HW117447   1.301   2.796   6.843
 5516SOL    HW217448   1.415   2.736   6.743
 5517SOL     OW17449   3.208   2.508   1.693
 5517SOL    HW117450   3.265   2.431   1.722
 5517SOL    HW217451   3.220   2.522   1.595
 5518SOL     OW17452   5.282   5.065   6.303
 5518SOL    HW117453   5.346   4.990   6.315
 5518SOL    HW217454   5.239   5.088   6.390
 5519SOL     OW17455   5.114   4.036   2.851
 5519SOL    HW117456   5.090   4.094   2.774
 5519SOL    HW217457   5.040   4.037   2.918
 5520SOL     OW17458   1.689   4.300   2.951
 5520SOL    HW117459   1.780   4.339   2.950
 5520SOL    HW217460   1.627   4.361   3.001
 5521SOL     OW17461   5.041   6.282   1.754
 5521SOL    HW117462   5.112   6.293   1.823
 5521SOL    HW217463   5.078   6.235   1.674
 5522SOL     OW17464   2.687   3.377   1.254
 5522SOL    HW117465   2.726   3.287   1.235
 5522SOL    HW217466   2.590   3.367   1.278
 5523SOL     OW17467   3.371   6.738   3.229
 5523SOL    HW117468   3.352   6.665   3.294
 5523SOL    HW217469   3.315   6.725   3.147
 5524SOL     OW17470   0.491   5.746   4.957
 5524SOL    HW117471   0.576   5.698   4.979
 5524SOL    HW217472   0.442   5.697   4.885
 5525SOL     OW17473   6.647   4.900   6.984
 5525SOL    HW117474   6.622   4.916   0.055
 5525SOL    HW217475   6.697   4.814   6.976
 5526SOL     OW17476   6.092   3.210   4.190
 5526SOL    HW117477   6.048   3.288   4.146
 5526SOL    HW217478   6.141   3.241   4.272
 5527SOL     OW17479   0.766   2.457   1.973
 5527SOL    HW117480   0.680   2.438   2.020
 5527SOL    HW217481   0.754   2.446   1.874
 5528SOL     OW17482   0.061   2.962   5.295
 5528SOL    HW117483   0.103   2.973   5.205
 5528SOL    HW217484   0.063   2.865   5.321
 5529SOL     OW17485   2.259   0.421   4.861
 5529SOL    HW117486   2.326   0.348   4.854
 5529SOL    HW217487   2.205   0.424   4.777
 5530SOL     OW17488   6.981   2.677   1.361
 5530SOL    HW117489   6.953   2.681   1.265
 5530SOL    HW217490   0.054   2.654   1.365
 5531SOL     OW17491   4.040   3.231   4.656
 5531SOL    HW117492   3.957   3.188   4.620
 5531SOL    HW217493   4.024   3.260   4.750
 5532SOL     OW17494   1.435   0.781   0.570
 5532SOL    HW117495   1.492   0.810   0.493
 5532SOL    HW217496   1.365   0.717   0.537
 5533SOL     OW17497   2.701   0.796   3.241
 5533SOL    HW117498   2.780   0.856   3.256
 5533SOL    HW217499   2.721   0.733   3.166
 5534SOL     OW17500   0.925   3.125   6.765
 5534SOL    HW117501   0.967   3.133   6.855
 5534SOL    HW217502   0.958   3.043   6.719
 5535SOL     OW17503   6.694   2.971   3.104
 5535SOL    HW117504   6.659   2.994   3.195
 5535SOL    HW217505   6.642   2.894   3.067
 5536SOL     OW17506   2.210   0.663   4.096
 5536SOL    HW117507   2.290   0.656   4.036
 5536SOL    HW217508   2.200   0.758   4.127
 5537SOL     OW17509   3.867   0.284   4.726
 5537SOL    HW117510   3.854   0.302   4.824
 5537SOL    HW217511   3.965   0.274   4.707
 5538SOL     OW17512   4.308   0.595   5.350
 5538SOL    HW117513   4.279   0.500   5.340
 5538SOL    HW217514   4.337   0.610   5.444
 5539SOL     OW17515   0.722   1.516   1.865
 5539SOL    HW117516   0.696   1.420   1.860
 5539SOL    HW217517   0.737   1.551   1.773
 5540SOL     OW17518   5.231   2.914   1.354
 5540SOL    HW117519   5.139   2.927   1.392
 5540SOL    HW217520   5.240   2.965   1.269
 5541SOL     OW17521   5.109   3.145   5.523
 5541SOL    HW117522   5.091   3.128   5.620
 5541SOL    HW217523   5.123   3.057   5.477
 5542SOL     OW17524   5.573   5.397   6.013
 5542SOL    HW117525   5.501   5.433   6.072
 5542SOL    HW217526   5.635   5.471   5.987
 5543SOL     OW17527   2.597   5.592   6.961
 5543SOL    HW117528   2.510   5.556   6.927
 5543SOL    HW217529   2.586   5.622   0.031
 5544SOL     OW17530   5.332   5.032   5.811
 5544SOL    HW117531   5.338   4.979   5.726
 5544SOL    HW217532   5.248   5.008   5.859
 5545SOL     OW17533   4.210   1.175   2.632
 5545SOL    HW117534   4.212   1.115   2.713
 5545SOL    HW217535   4.297   1.223   2.624
 5546SOL     OW17536   1.171   6.741   4.421
 5546SOL    HW117537   1.150   6.793   4.338
 5546SOL    HW217538   1.243   6.787   4.473
 5547SOL     OW17539   3.528   1.202   5.417
 5547SOL    HW117540   3.465   1.279   5.418
 5547SOL    HW217541   3.586   1.207   5.335
 5548SOL     OW17542   6.466   4.312   6.023
 5548SOL    HW117543   6.555   4.313   6.068
 5548SOL    HW217544   6.394   4.307   6.092
 5549SOL     OW17545   4.011   3.139   1.369
 5549SOL    HW117546   3.944   3.110   1.437
 5549SOL    HW217547   4.102   3.106   1.397
 5550SOL     OW17548   2.533   4.542   3.205
 5550SOL    HW117549   2.585   4.565   3.123
 5550SOL    HW217550   2.460   4.478   3.181
 5551SOL     OW17551   1.231   6.457   2.670
 5551SOL    HW117552   1.168   6.385   2.699
 5551SOL    HW217553   1.266   6.436   2.578
 5552SOL     OW17554   5.957   0.404   6.193
 5552SOL    HW117555   6.019   0.482   6.188
 5552SOL    HW217556   5.915   0.401   6.284
 5553SOL     OW17557   4.253   6.567   6.680
 5553SOL    HW117558   4.271   6.637   6.610
 5553SOL    HW217559   4.264   6.476   6.640
 5554SOL     OW17560   5.009   3.323   1.833
 5554SOL    HW117561   4.932   3.387   1.834
 5554SOL    HW217562   5.001   3.263   1.753
 5555SOL     OW17563   1.161   3.503   2.030
 5555SOL    HW117564   1.181   3.547   2.118
 5555SOL    HW217565   1.068   3.526   2.002
 5556SOL     OW17566   6.237   0.813   3.858
 5556SOL    HW117567   6.276   0.722   3.872
 5556SOL    HW217568   6.214   0.825   3.762
 5557SOL     OW17569   4.182   5.280   1.993
 5557SOL    HW117570   4.194   5.351   1.922
 5557SOL    HW217571   4.109   5.218   1.965
 5558SOL     OW17572   3.801   3.638   0.098
 5558SOL    HW117573   3.804   3.738   0.107
 5558SOL    HW217574   3.889   3.605   0.064
 5559SOL     OW17575   1.618   0.389   1.874
 5559SOL    HW117576   1.652   0.436   1.792
 5559SOL    HW217577   1.557   0.450   1.925
 5560SOL     OW17578   0.128   5.734   1.459
 5560SOL    HW117579   0.130   5.744   1.559
 5560SOL    HW217580   0.213   5.692   1.428
 5561SOL     OW17581   2.719   0.562   4.441
 5561SOL    HW117582   2.707   0.614   4.526
 5561SOL    HW217583   2.658   0.599   4.371
 5562SOL     OW17584   4.518   3.556   0.665
 5562SOL    HW117585   4.591   3.488   0.657
 5562SOL    HW217586   4.432   3.511   0.688
 5563SOL     OW17587   2.811   5.158   2.874
 5563SOL    HW117588   2.822   5.251   2.911
 5563SOL    HW217589   2.718   5.126   2.892
 5564SOL     OW17590   4.428   6.840   6.066
 5564SOL    HW117591   4.359   6.802   6.004
 5564SOL    HW217592   4.464   6.926   6.028
 5565SOL     OW17593   3.783   2.673   6.199
 5565SOL    HW117594   3.847   2.623   6.257
 5565SOL    HW217595   3.711   2.712   6.255
 5566SOL     OW17596   2.347   4.364   0.197
 5566SOL    HW117597   2.412   4.332   0.266
 5566SOL    HW217598   2.304   4.449   0.227
 5567SOL     OW17599   6.868   3.822   1.836
 5567SOL    HW117600   6.784   3.871   1.812
 5567SOL    HW217601   6.927   3.815   1.756
 5568SOL     OW17602   4.757   1.179   3.353
 5568SOL    HW117603   4.818   1.253   3.324
 5568SOL    HW217604   4.740   1.117   3.276
 5569SOL     OW17605   2.200   2.265   2.280
 5569SOL    HW117606   2.213   2.310   2.369
 5569SOL    HW217607   2.265   2.191   2.270
 5570SOL     OW17608   6.220   3.292   3.762
 5570SOL    HW117609   6.211   3.389   3.783
 5570SOL    HW217610   6.284   3.279   3.686
 5571SOL     OW17611   6.634   5.845   2.277
 5571SOL    HW117612   6.588   5.842   2.366
 5571SOL    HW217613   6.731   5.824   2.289
 5572SOL     OW17614   1.366   4.278   4.980
 5572SOL    HW117615   1.278   4.266   4.933
 5572SOL    HW217616   1.434   4.310   4.914
 5573SOL     OW17617   1.360   5.875   5.451
 5573SOL    HW117618   1.350   5.966   5.410
 5573SOL    HW217619   1.284   5.859   5.514
 5574SOL     OW17620   0.373   3.041   0.788
 5574SOL    HW117621   0.356   3.134   0.821
 5574SOL    HW217622   0.471   3.024   0.786
 5575SOL     OW17623   6.593   0.710   0.710
 5575SOL    HW117624   6.670   0.725   0.771
 5575SOL    HW217625   6.517   0.768   0.737
 5576SOL     OW17626   1.328   4.341   2.580
 5576SOL    HW117627   1.400   4.389   2.528
 5576SOL    HW217628   1.239   4.379   2.555
 5577SOL     OW17629   2.334   2.549   6.650
 5577SOL    HW117630   2.295   2.504   6.570
 5577SOL    HW217631   2.385   2.630   6.621
 5578SOL     OW17632   3.330   4.110   2.377
 5578SOL    HW117633   3.243   4.083   2.420
 5578SOL    HW217634   3.395   4.136   2.448
 5579SOL     OW17635   0.569   4.044   0.672
 5579SOL    HW117636   0.660   4.002   0.673
 5579SOL    HW217637   0.579   4.144   0.666
 5580SOL     OW17638   4.429   1.772   5.420
 5580SOL    HW117639   4.523   1.792   5.393
 5580SOL    HW217640   4.394   1.846   5.477
 5581SOL     OW17641   1.466   0.599   1.607
 5581SOL    HW117642   1.563   0.593   1.582
 5581SOL    HW217643   1.427   0.507   1.612
 5582SOL     OW17644   2.617   4.278   6.390
 5582SOL    HW117645   2.547   4.346   6.371
 5582SOL    HW217646   2.586   4.188   6.360
 5583SOL     OW17647   4.260   1.006   2.833
 5583SOL    HW117648   4.329   1.038   2.898
 5583SOL    HW217649   4.173   0.993   2.880
 5584SOL     OW17650   6.569   3.571   4.570
 5584SOL    HW117651   6.600   3.592   4.477
 5584SOL    HW217652   6.524   3.652   4.609
 5585SOL     OW17653   5.706   5.728   3.085
 5585SOL    HW117654   5.717   5.670   3.166
 5585SOL    HW217655   5.750   5.685   3.006
 5586SOL     OW17656   0.164   4.041   5.964
 5586SOL    HW117657   0.074   4.007   5.992
 5586SOL    HW217658   0.209   4.085   6.041
 5587SOL     OW17659   4.355   6.982   0.465
 5587SOL    HW117660   4.326   0.053   0.454
 5587SOL    HW217661   4.422   6.960   0.394
 5588SOL     OW17662   2.270   5.921   3.051
 5588SOL    HW117663   2.258   5.962   3.141
 5588SOL    HW217664   2.317   5.985   2.991
 5589SOL     OW17665   6.293   3.951   5.888
 5589SOL    HW117666   6.219   3.954   5.821
 5589SOL    HW217667   6.321   3.856   5.902
 5590SOL     OW17668   6.771   6.672   3.832
 5590SOL    HW117669   6.675   6.683   3.857
 5590SOL    HW217670   6.795   6.575   3.836
 5591SOL     OW17671   6.691   2.088   1.674
 5591SOL    HW117672   6.781   2.120   1.705
 5591SOL    HW217673   6.662   2.012   1.733
 5592SOL     OW17674   2.199   5.797   3.651
 5592SOL    HW117675   2.237   5.851   3.576
 5592SOL    HW217676   2.261   5.799   3.729
 5593SOL     OW17677   0.150   2.773   6.863
 5593SOL    HW117678   0.153   2.820   6.775
 5593SOL    HW217679   0.159   2.675   6.849
 5594SOL     OW17680   5.214   0.490   5.182
 5594SOL    HW117681   5.127   0.517   5.224
 5594SOL    HW217682   5.209   0.502   5.083
 5595SOL     OW17683   0.942   1.720   4.849
 5595SOL    HW117684   0.866   1.665   4.882
 5595SOL    HW217685   1.020   1.661   4.829
 5596SOL     OW17686   3.792   0.084   2.889
 5596SOL    HW117687   3.770   7.021   2.844
 5596SOL    HW217688   3.883   0.114   2.861
 5597SOL     OW17689   4.718   2.636   4.600
 5597SOL    HW117690   4.691   2.586   4.682
 5597SOL    HW217691   4.805   2.683   4.617
 5598SOL     OW17692   5.319   3.611   4.447
 5598SOL    HW117693   5.243   3.622   4.511
 5598SOL    HW217694   5.387   3.682   4.464
 5599SOL     OW17695   1.115   1.587   4.423
 5599SOL    HW117696   1.077   1.570   4.332
 5599SOL    HW217697   1.162   1.505   4.455
 5600SOL     OW17698   1.127   0.924   1.758
 5600SOL    HW117699   1.063   0.852   1.730
 5600SOL    HW217700   1.120   0.937   1.857
 5601SOL     OW17701   2.674   0.743   5.149
 5601SOL    HW117702   2.602   0.722   5.215
 5601SOL    HW217703   2.762   0.715   5.185
 5602SOL     OW17704   6.118   1.953   1.223
 5602SOL    HW117705   6.205   1.903   1.224
 5602SOL    HW217706   6.058   1.914   1.154
 5603SOL     OW17707   5.485   1.777   6.565
 5603SOL    HW117708   5.454   1.688   6.597
 5603SOL    HW217709   5.414   1.845   6.579
 5604SOL     OW17710   6.242   1.977   4.692
 5604SOL    HW117711   6.261   1.981   4.594
 5604SOL    HW217712   6.153   2.019   4.709
 5605SOL     OW17713   0.591   0.592   5.195
 5605SOL    HW117714   0.632   0.669   5.244
 5605SOL    HW217715   0.631   0.506   5.228
 5606SOL     OW17716   4.874   6.784   0.129
 5606SOL    HW117717   4.953   6.723   0.116
 5606SOL    HW217718   4.807   6.739   0.189
 5607SOL     OW17719   5.143   0.678   2.687
 5607SOL    HW117720   5.168   0.774   2.696
 5607SOL    HW217721   5.122   0.657   2.592
 5608SOL     OW17722   5.054   6.963   4.726
 5608SOL    HW117723   5.034   0.033   4.702
 5608SOL    HW217724   5.052   6.953   4.826
 5609SOL     OW17725   2.937   6.316   1.142
 5609SOL    HW117726   2.927   6.220   1.167
 5609SOL    HW217727   2.879   6.372   1.201
 5610SOL     OW17728   4.490   6.322   0.666
 5610SOL    HW117729   4.475   6.232   0.705
 5610SOL    HW217730   4.405   6.375   0.669
 5611SOL     OW17731   0.719   5.309   2.717
 5611SOL    HW117732   0.802   5.349   2.756
 5611SOL    HW217733   0.737   5.279   2.623
 5612SOL     OW17734   3.798   2.006   6.729
 5612SOL    HW117735   3.815   1.908   6.720
 5612SOL    HW217736   3.858   2.044   6.800
 5613SOL     OW17737   5.600   3.865   3.722
 5613SOL    HW117738   5.670   3.911   3.775
 5613SOL    HW217739   5.569   3.784   3.771
 5614SOL     OW17740   4.646   2.688   4.353
 5614SOL    HW117741   4.658   2.784   4.329
 5614SOL    HW217742   4.644   2.678   4.452
 5615SOL     OW17743   0.652   1.220   4.676
 5615SOL    HW117744   0.586   1.282   4.634
 5615SOL    HW217745   0.615   1.185   4.763
 5616SOL     OW17746   2.379   1.834   5.067
 5616SOL    HW117747   2.296   1.876   5.029
 5616SOL    HW217748   2.441   1.906   5.099
 5617SOL     OW17749   3.317   0.526   6.085
 5617SOL    HW117750   3.324   0.545   6.183
 5617SOL    HW217751   3.261   0.445   6.070
 5618SOL     OW17752   0.328   4.140   3.766
 5618SOL    HW117753   0.392   4.100   3.700
 5618SOL    HW217754   0.370   4.141   3.856
 5619SOL     OW17755   2.762   3.953   5.742
 5619SOL    HW117756   2.800   3.873   5.696
 5619SOL    HW217757   2.824   4.031   5.727
 5620SOL     OW17758   3.598   2.800   0.797
 5620SOL    HW117759   3.646   2.888   0.794
 5620SOL    HW217760   3.500   2.815   0.806
 5621SOL     OW17761   1.041   2.360   6.257
 5621SOL    HW117762   1.094   2.325   6.334
 5621SOL    HW217763   0.944   2.362   6.281
 5622SOL     OW17764   4.534   0.046   5.980
 5622SOL    HW117765   4.500   0.092   6.062
 5622SOL    HW217766   4.503   0.096   5.899
 5623SOL     OW17767   2.046   6.176   5.436
 5623SOL    HW117768   1.965   6.234   5.445
 5623SOL    HW217769   2.059   6.152   5.340
 5624SOL     OW17770   1.283   4.469   3.330
 5624SOL    HW117771   1.264   4.519   3.245
 5624SOL    HW217772   1.203   4.472   3.390
 5625SOL     OW17773   6.520   1.820   4.466
 5625SOL    HW117774   6.567   1.752   4.523
 5625SOL    HW217775   6.499   1.780   4.377
 5626SOL     OW17776   2.840   6.521   3.816
 5626SOL    HW117777   2.813   6.617   3.825
 5626SOL    HW217778   2.758   6.463   3.814
 5627SOL     OW17779   0.880   5.873   6.515
 5627SOL    HW117780   0.812   5.827   6.458
 5627SOL    HW217781   0.838   5.899   6.602
 5628SOL     OW17782   1.368   2.398   6.694
 5628SOL    HW117783   1.362   2.301   6.716
 5628SOL    HW217784   1.343   2.412   6.599
 5629SOL     OW17785   3.008   3.925   2.206
 5629SOL    HW117786   2.909   3.923   2.195
 5629SOL    HW217787   3.030   3.936   2.303
 5630SOL     OW17788   1.959   4.679   0.954
 5630SOL    HW117789   1.980   4.587   0.989
 5630SOL    HW217790   2.020   4.700   0.878
 5631SOL     OW17791   4.443   2.012   0.393
 5631SOL    HW117792   4.392   1.998   0.477
 5631SOL    HW217793   4.515   1.943   0.386
 5632SOL     OW17794   3.585   3.079   6.205
 5632SOL    HW117795   3.684   3.092   6.198
 5632SOL    HW217796   3.565   2.997   6.258
 5633SOL     OW17797   7.019   2.951   4.457
 5633SOL    HW117798   6.952   3.007   4.409
 5633SOL    HW217799   0.081   2.949   4.407
 5634SOL     OW17800   1.848   5.560   4.980
 5634SOL    HW117801   1.800   5.501   5.045
 5634SOL    HW217802   1.895   5.633   5.029
 5635SOL     OW17803   2.016   3.838   5.540
 5635SOL    HW117804   2.091   3.891   5.499
 5635SOL    HW217805   1.936   3.842   5.480
 5636SOL     OW17806   3.720   6.639   3.635
 5636SOL    HW117807   3.647   6.641   3.567
 5636SOL    HW217808   3.757   6.731   3.647
 5637SOL     OW17809   4.771   6.594   3.695
 5637SOL    HW117810   4.729   6.568   3.608
 5637SOL    HW217811   4.816   6.682   3.685
 5638SOL     OW17812   6.061   4.066   1.512
 5638SOL    HW117813   5.978   4.014   1.490
 5638SOL    HW217814   6.069   4.078   1.611
 5639SOL     OW17815   0.619   0.634   0.239
 5639SOL    HW117816   0.607   0.703   0.167
 5639SOL    HW217817   0.529   0.605   0.272
 5640SOL     OW17818   2.820   0.605   3.954
 5640SOL    HW117819   2.815   0.586   3.856
 5640SOL    HW217820   2.730   0.634   3.987
 5641SOL     OW17821   0.642   5.039   5.427
 5641SOL    HW117822   0.548   5.033   5.460
 5641SOL    HW217823   0.685   4.949   5.432
 5642SOL     OW17824   1.992   6.900   5.785
 5642SOL    HW117825   1.968   6.996   5.791
 5642SOL    HW217826   1.917   6.849   5.743
 5643SOL     OW17827   4.462   1.274   5.163
 5643SOL    HW117828   4.475   1.204   5.093
 5643SOL    HW217829   4.452   1.231   5.253
 5644SOL     OW17830   3.245   6.983   4.810
 5644SOL    HW117831   3.203   6.892   4.801
 5644SOL    HW217832   3.213   0.017   4.736
 5645SOL     OW17833   6.490   4.177   4.122
 5645SOL    HW117834   6.536   4.118   4.189
 5645SOL    HW217835   6.415   4.127   4.080
 5646SOL     OW17836   1.888   5.675   3.051
 5646SOL    HW117837   1.978   5.665   3.009
 5646SOL    HW217838   1.823   5.709   2.982
 5647SOL     OW17839   5.083   0.003   1.170
 5647SOL    HW117840   5.123   6.936   1.169
 5647SOL    HW217841   5.052   0.027   1.078
 5648SOL     OW17842   2.046   6.044   2.942
 5648SOL    HW117843   1.969   6.061   3.003
 5648SOL    HW217844   2.125   6.013   2.995
 5649SOL     OW17845   1.059   6.666   3.830
 5649SOL    HW117846   1.100   6.632   3.746
 5649SOL    HW217847   1.009   6.592   3.875
 5650SOL     OW17848   1.192   4.812   1.693
 5650SOL    HW117849   1.284   4.845   1.673
 5650SOL    HW217850   1.159   4.755   1.618
 5651SOL     OW17851   1.253   0.799   0.282
 5651SOL    HW117852   1.227   0.710   0.318
 5651SOL    HW217853   1.274   0.790   0.184
 5652SOL     OW17854   6.738   5.708   0.942
 5652SOL    HW117855   6.784   5.629   0.902
 5652SOL    HW217856   6.807   5.774   0.974
 5653SOL     OW17857   0.555   6.110   6.759
 5653SOL    HW117858   0.523   6.140   6.670
 5653SOL    HW217859   0.594   6.018   6.752
 5654SOL     OW17860   1.424   5.691   4.321
 5654SOL    HW117861   1.330   5.717   4.298
 5654SOL    HW217862   1.430   5.592   4.331
 5655SOL     OW17863   0.111   2.776   3.230
 5655SOL    HW117864   0.205   2.800   3.204
 5655SOL    HW217865   0.111   2.738   3.323
 5656SOL     OW17866   6.886   4.258   6.365
 5656SOL    HW117867   6.851   4.310   6.443
 5656SOL    HW217868   6.981   4.282   6.348
 5657SOL     OW17869   4.691   4.156   5.144
 5657SOL    HW117870   4.626   4.232   5.149
 5657SOL    HW217871   4.760   4.176   5.075
 5658SOL     OW17872   2.796   3.680   5.645
 5658SOL    HW117873   2.771   3.629   5.563
 5658SOL    HW217874   2.765   3.629   5.726
 5659SOL     OW17875   3.596   3.999   5.903
 5659SOL    HW117876   3.646   3.915   5.881
 5659SOL    HW217877   3.540   3.983   5.985
 5660SOL     OW17878   4.206   6.278   6.285
 5660SOL    HW117879   4.193   6.210   6.213
 5660SOL    HW217880   4.237   6.365   6.244
 5661SOL     OW17881   1.398   5.455   4.998
 5661SOL    HW117882   1.473   5.467   5.062
 5661SOL    HW217883   1.397   5.531   4.932
 5662SOL     OW17884   2.559   0.355   2.371
 5662SOL    HW117885   2.552   0.316   2.462
 5662SOL    HW217886   2.504   0.438   2.366
 5663SOL     OW17887   2.397   2.165   0.753
 5663SOL    HW117888   2.495   2.150   0.762
 5663SOL    HW217889   2.349   2.078   0.758
 5664SOL     OW17890   6.292   3.286   4.386
 5664SOL    HW117891   6.377   3.285   4.440
 5664SOL    HW217892   6.215   3.304   4.447
 5665SOL     OW17893   0.972   5.723   0.057
 5665SOL    HW117894   0.922   5.775   0.126
 5665SOL    HW217895   0.966   5.626   0.078
 5666SOL     OW17896   6.045   0.515   3.652
 5666SOL    HW117897   6.022   0.436   3.595
 5666SOL    HW217898   6.115   0.570   3.606
 5667SOL     OW17899   1.247   5.052   5.126
 5667SOL    HW117900   1.265   5.096   5.214
 5667SOL    HW217901   1.287   5.108   5.053
 5668SOL     OW17902   5.894   2.833   2.999
 5668SOL    HW117903   5.875   2.850   2.902
 5668SOL    HW217904   5.809   2.832   3.050
 5669SOL     OW17905   6.852   5.131   0.533
 5669SOL    HW117906   6.930   5.149   0.593
 5669SOL    HW217907   6.769   5.124   0.589
 5670SOL     OW17908   1.645   3.202   4.152
 5670SOL    HW117909   1.735   3.243   4.138
 5670SOL    HW217910   1.643   3.112   4.110
 5671SOL     OW17911   6.008   5.343   5.518
 5671SOL    HW117912   5.927   5.400   5.536
 5671SOL    HW217913   6.060   5.382   5.442
 5672SOL     OW17914   4.926   4.150   4.912
 5672SOL    HW117915   4.942   4.054   4.934
 5672SOL    HW217916   4.990   4.179   4.841
 5673SOL     OW17917   1.287   6.189   0.953
 5673SOL    HW117918   1.264   6.244   0.872
 5673SOL    HW217919   1.205   6.143   0.986
 5674SOL     OW17920   2.215   4.832   4.992
 5674SOL    HW117921   2.205   4.843   4.893
 5674SOL    HW217922   2.195   4.919   5.038
 5675SOL     OW17923   4.299   2.202   0.297
 5675SOL    HW117924   4.331   2.223   0.204
 5675SOL    HW217925   4.354   2.127   0.334
 5676SOL     OW17926   2.629   1.616   2.527
 5676SOL    HW117927   2.638   1.672   2.445
 5676SOL    HW217928   2.540   1.570   2.527
 5677SOL     OW17929   0.305   0.758   0.031
 5677SOL    HW117930   0.286   0.678   0.088
 5677SOL    HW217931   0.269   0.840   0.075
 5678SOL     OW17932   4.355   1.101   2.322
 5678SOL    HW117933   4.284   1.067   2.384
 5678SOL    HW217934   4.435   1.128   2.375
 5679SOL     OW17935   5.470   1.806   4.188
 5679SOL    HW117936   5.533   1.875   4.153
 5679SOL    HW217937   5.521   1.740   4.243
 5680SOL     OW17938   1.715   5.046   6.580
 5680SOL    HW117939   1.660   4.963   6.578
 5680SOL    HW217940   1.655   5.125   6.594
 5681SOL     OW17941   0.361   3.667   2.151
 5681SOL    HW117942   0.321   3.620   2.072
 5681SOL    HW217943   0.408   3.600   2.209
 5682SOL     OW17944   2.238   5.391   4.434
 5682SOL    HW117945   2.261   5.340   4.351
 5682SOL    HW217946   2.275   5.343   4.514
 5683SOL     OW17947   3.952   2.661   5.947
 5683SOL    HW117948   3.867   2.644   5.898
 5683SOL    HW217949   3.932   2.701   6.036
 5684SOL     OW17950   1.831   3.673   6.333
 5684SOL    HW117951   1.731   3.681   6.327
 5684SOL    HW217952   1.873   3.760   6.306
 5685SOL     OW17953   2.198   2.224   3.014
 5685SOL    HW117954   2.277   2.178   2.973
 5685SOL    HW217955   2.115   2.175   2.989
 5686SOL     OW17956   3.020   1.521   4.731
 5686SOL    HW117957   2.991   1.616   4.748
 5686SOL    HW217958   2.978   1.489   4.646
 5687SOL     OW17959   1.091   5.871   6.164
 5687SOL    HW117960   1.155   5.848   6.090
 5687SOL    HW217961   1.058   5.787   6.207
 5688SOL     OW17962   2.096   2.974   2.896
 5688SOL    HW117963   2.014   2.930   2.859
 5688SOL    HW217964   2.159   2.994   2.821
 5689SOL     OW17965   2.735   0.450   1.844
 5689SOL    HW117966   2.744   0.499   1.930
 5689SOL    HW217967   2.815   0.470   1.786
 5690SOL     OW17968   1.293   5.208   6.598
 5690SOL    HW117969   1.308   5.111   6.576
 5690SOL    HW217970   1.256   5.216   6.690
 5691SOL     OW17971   3.812   0.893   2.709
 5691SOL    HW117972   3.720   0.914   2.743
 5691SOL    HW217973   3.863   0.978   2.697
 5692SOL     OW17974   4.896   4.498   1.304
 5692SOL    HW117975   4.801   4.525   1.316
 5692SOL    HW217976   4.930   4.532   1.216
 5693SOL     OW17977   4.551   0.348   1.527
 5693SOL    HW117978   4.611   0.269   1.513
 5693SOL    HW217979   4.599   0.432   1.504
 5694SOL     OW17980   0.365   0.268   2.211
 5694SOL    HW117981   0.386   0.170   2.203
 5694SOL    HW217982   0.379   0.312   2.122
 5695SOL     OW17983   1.107   1.177   3.081
 5695SOL    HW117984   1.107   1.202   2.985
 5695SOL    HW217985   1.060   1.090   3.094
 5696SOL     OW17986   1.263   0.213   4.005
 5696SOL    HW117987   1.252   0.149   3.929
 5696SOL    HW217988   1.315   0.293   3.974
 5697SOL     OW17989   5.889   1.967   2.371
 5697SOL    HW117990   5.808   1.927   2.328
 5697SOL    HW217991   5.882   2.067   2.369
 5698SOL     OW17992   1.538   3.740   4.295
 5698SOL    HW117993   1.502   3.753   4.203
 5698SOL    HW217994   1.633   3.771   4.298
 5699SOL     OW17995   1.896   2.857   2.762
 5699SOL    HW117996   1.824   2.857   2.831
 5699SOL    HW217997   1.902   2.766   2.720
 5700SOL     OW17998   6.555   0.254   3.360
 5700SOL    HW117999   6.572   0.166   3.316
 5700SOL    HW218000   6.459   0.259   3.387
 5701SOL     OW18001   6.733   0.424   1.410
 5701SOL    HW118002   6.677   0.503   1.435
 5701SOL    HW218003   6.762   0.432   1.315
 5702SOL     OW18004   1.408   6.493   4.574
 5702SOL    HW118005   1.384   6.402   4.539
 5702SOL    HW218006   1.482   6.485   4.640
 5703SOL     OW18007   6.844   3.988   6.848
 5703SOL    HW118008   6.853   3.974   6.750
 5703SOL    HW218009   6.782   4.065   6.865
 5704SOL     OW18010   4.915   3.717   3.242
 5704SOL    HW118011   4.987   3.787   3.242
 5704SOL    HW218012   4.918   3.667   3.155
 5705SOL     OW18013   5.576   5.626   6.582
 5705SOL    HW118014   5.637   5.686   6.634
 5705SOL    HW218015   5.520   5.681   6.520
 5706SOL     OW18016   5.116   2.799   1.838
 5706SOL    HW118017   5.064   2.740   1.900
 5706SOL    HW218018   5.070   2.888   1.831
 5707SOL     OW18019   6.171   0.020   0.786
 5707SOL    HW118020   6.089   0.020   0.844
 5707SOL    HW218021   6.176   0.106   0.736
 5708SOL     OW18022   4.993   6.358   2.758
 5708SOL    HW118023   4.945   6.408   2.686
 5708SOL    HW218024   4.934   6.354   2.839
 5709SOL     OW18025   0.600   0.850   2.526
 5709SOL    HW118026   0.597   0.919   2.599
 5709SOL    HW218027   0.525   0.785   2.539
 5710SOL     OW18028   2.946   2.081   0.602
 5710SOL    HW118029   3.011   2.025   0.551
 5710SOL    HW218030   2.996   2.142   0.664
 5711SOL     OW18031   4.815   0.154   1.883
 5711SOL    HW118032   4.850   0.205   1.962
 5711SOL    HW218033   4.750   0.211   1.832
 5712SOL     OW18034   6.490   6.719   0.243
 5712SOL    HW118035   6.522   6.778   0.168
 5712SOL    HW218036   6.461   6.776   0.320
 5713SOL     OW18037   3.407   4.622   0.832
 5713SOL    HW118038   3.329   4.577   0.789
 5713SOL    HW218039   3.446   4.690   0.769
 5714SOL     OW18040   6.898   6.231   0.598
 5714SOL    HW118041   6.914   6.329   0.606
 5714SOL    HW218042   6.964   6.191   0.534
 5715SOL     OW18043   6.735   0.422   2.606
 5715SOL    HW118044   6.741   0.385   2.513
 5715SOL    HW218045   6.690   0.510   2.604
 5716SOL     OW18046   1.046   5.618   6.246
 5716SOL    HW118047   0.991   5.604   6.328
 5716SOL    HW218048   1.097   5.535   6.225
 5717SOL     OW18049   2.337   5.313   1.804
 5717SOL    HW118050   2.311   5.405   1.832
 5717SOL    HW218051   2.275   5.281   1.732
 5718SOL     OW18052   0.674   3.496   0.246
 5718SOL    HW118053   0.726   3.581   0.260
 5718SOL    HW218054   0.577   3.516   0.255
 5719SOL     OW18055   3.055   3.710   1.000
 5719SOL    HW118056   2.967   3.691   1.042
 5719SOL    HW218057   3.111   3.627   1.000
 5720SOL     OW18058   1.731   6.881   4.967
 5720SOL    HW118059   1.655   6.875   5.031
 5720SOL    HW218060   1.807   6.824   5.001
 5721SOL     OW18061   6.003   4.284   0.727
 5721SOL    HW118062   5.927   4.220   0.734
 5721SOL    HW218063   5.982   4.354   0.659
 5722SOL     OW18064   0.025   2.394   5.534
 5722SOL    HW118065   0.052   2.489   5.550
 5722SOL    HW218066   0.039   2.340   5.617
 5723SOL     OW18067   4.125   3.878   0.020
 5723SOL    HW118068   4.120   3.783   0.051
 5723SOL    HW218069   4.207   3.921   0.055
 5724SOL     OW18070   6.064   2.974   3.369
 5724SOL    HW118071   6.036   2.886   3.331
 5724SOL    HW218072   5.999   3.001   3.440
 5725SOL     OW18073   6.574   5.226   4.319
 5725SOL    HW118074   6.605   5.151   4.260
 5725SOL    HW218075   6.639   5.238   4.395
 5726SOL     OW18076   6.175   5.232   4.071
 5726SOL    HW118077   6.182   5.168   4.148
 5726SOL    HW218078   6.120   5.192   3.999
 5727SOL     OW18079   6.974   2.564   4.960
 5727SOL    HW118080   7.007   2.653   4.992
 5727SOL    HW218081   6.898   2.577   4.897
 5728SOL     OW18082   5.330   6.042   5.222
 5728SOL    HW118083   5.409   6.087   5.264
 5728SOL    HW218084   5.360   5.963   5.169
 5729SOL     OW18085   1.024   2.337   5.973
 5729SOL    HW118086   0.989   2.245   5.960
 5729SOL    HW218087   1.088   2.338   6.050
 5730SOL     OW18088   6.443   4.235   6.352
 5730SOL    HW118089   6.532   4.191   6.336
 5730SOL    HW218090   6.421   4.231   6.449
 5731SOL     OW18091   6.710   6.941   1.915
 5731SOL    HW118092   6.706   7.012   1.986
 5731SOL    HW218093   6.782   6.964   1.849
 5732SOL     OW18094   1.319   6.770   3.372
 5732SOL    HW118095   1.327   6.777   3.472
 5732SOL    HW218096   1.249   6.703   3.349
 5733SOL     OW18097   4.235   6.626   5.338
 5733SOL    HW118098   4.306   6.601   5.404
 5733SOL    HW218099   4.156   6.664   5.387
 5734SOL     OW18100   1.152   6.711   4.935
 5734SOL    HW118101   1.221   6.719   4.863
 5734SOL    HW218102   1.186   6.754   5.019
 5735SOL     OW18103   3.149   1.340   1.251
 5735SOL    HW118104   3.053   1.326   1.227
 5735SOL    HW218105   3.182   1.263   1.306
 5736SOL     OW18106   0.377   4.225   0.142
 5736SOL    HW118107   0.288   4.209   0.100
 5736SOL    HW218108   0.448   4.178   0.089
 5737SOL     OW18109   5.663   6.300   6.643
 5737SOL    HW118110   5.712   6.345   6.718
 5737SOL    HW218111   5.645   6.365   6.570
 5738SOL     OW18112   1.439   3.430   6.647
 5738SOL    HW118113   1.378   3.366   6.601
 5738SOL    HW218114   1.519   3.381   6.682
 5739SOL     OW18115   1.520   1.189   6.588
 5739SOL    HW118116   1.509   1.090   6.592
 5739SOL    HW218117   1.617   1.212   6.597
 5740SOL     OW18118   4.470   5.858   0.288
 5740SOL    HW118119   4.383   5.907   0.295
 5740SOL    HW218120   4.503   5.837   0.380
 5741SOL     OW18121   6.886   5.866   4.469
 5741SOL    HW118122   6.977   5.829   4.451
 5741SOL    HW218123   6.829   5.795   4.511
 5742SOL     OW18124   5.389   6.442   2.337
 5742SOL    HW118125   5.439   6.502   2.275
 5742SOL    HW218126   5.346   6.368   2.285
 5743SOL     OW18127   2.486   6.958   4.666
 5743SOL    HW118128   2.419   6.956   4.740
 5743SOL    HW218129   2.563   7.017   4.692
 5744SOL     OW18130   4.953   1.024   0.415
 5744SOL    HW118131   4.938   0.999   0.319
 5744SOL    HW218132   4.902   0.962   0.474
 5745SOL     OW18133   1.846   1.778   4.730
 5745SOL    HW118134   1.845   1.711   4.655
 5745SOL    HW218135   1.769   1.842   4.718
 5746SOL     OW18136   4.894   0.982   0.151
 5746SOL    HW118137   4.915   0.891   0.115
 5746SOL    HW218138   4.807   1.013   0.113
 5747SOL     OW18139   0.188   5.306   3.132
 5747SOL    HW118140   0.259   5.338   3.069
 5747SOL    HW218141   0.098   5.326   3.093
 5748SOL     OW18142   2.129   5.007   1.784
 5748SOL    HW118143   2.213   5.005   1.839
 5748SOL    HW218144   2.108   4.915   1.752
 5749SOL     OW18145   2.005   1.290   4.295
 5749SOL    HW118146   2.105   1.292   4.294
 5749SOL    HW218147   1.970   1.382   4.283
 5750SOL     OW18148   6.205   5.134   4.652
 5750SOL    HW118149   6.213   5.186   4.738
 5750SOL    HW218150   6.258   5.180   4.580
 5751SOL     OW18151   2.212   2.834   5.159
 5751SOL    HW118152   2.274   2.900   5.117
 5751SOL    HW218153   2.266   2.762   5.203
 5752SOL     OW18154   6.656   0.535   5.706
 5752SOL    HW118155   6.741   0.584   5.690
 5752SOL    HW218156   6.651   0.455   5.646
 5753SOL     OW18157   3.525   3.142   6.656
 5753SOL    HW118158   3.442   3.165   6.606
 5753SOL    HW218159   3.579   3.224   6.672
 5754SOL     OW18160   5.883   5.118   2.436
 5754SOL    HW118161   5.835   5.200   2.404
 5754SOL    HW218162   5.828   5.037   2.417
 5755SOL     OW18163   2.959   3.598   6.379
 5755SOL    HW118164   2.979   3.526   6.446
 5755SOL    HW218165   3.045   3.639   6.349
 5756SOL     OW18166   6.823   4.667   3.398
 5756SOL    HW118167   6.747   4.698   3.454
 5756SOL    HW218168   6.807   4.693   3.303
 5757SOL     OW18169   6.313   5.909   1.248
 5757SOL    HW118170   6.223   5.869   1.229
 5757SOL    HW218171   6.341   5.965   1.170
 5758SOL     OW18172   2.769   2.310   4.831
 5758SOL    HW118173   2.856   2.293   4.784
 5758SOL    HW218174   2.787   2.331   4.927
 5759SOL     OW18175   5.022   2.340   6.211
 5759SOL    HW118176   5.051   2.387   6.128
 5759SOL    HW218177   5.101   2.331   6.273
 5760SOL     OW18178   2.001   6.004   2.371
 5760SOL    HW118179   2.091   5.976   2.406
 5760SOL    HW218180   1.933   5.934   2.395
 5761SOL     OW18181   5.675   0.313   4.717
 5761SOL    HW118182   5.763   0.273   4.690
 5761SOL    HW218183   5.690   0.408   4.746
 5762SOL     OW18184   5.508   6.839   0.453
 5762SOL    HW118185   5.486   6.870   0.361
 5762SOL    HW218186   5.590   6.886   0.485
 5763SOL     OW18187   0.971   6.843   0.358
 5763SOL    HW118188   0.968   6.939   0.330
 5763SOL    HW218189   0.878   6.811   0.380
 5764SOL     OW18190   5.657   4.410   5.520
 5764SOL    HW118191   5.755   4.421   5.502
 5764SOL    HW218192   5.610   4.388   5.435
 5765SOL     OW18193   6.378   4.097   6.616
 5765SOL    HW118194   6.413   4.069   6.705
 5765SOL    HW218195   6.280   4.116   6.623
 5766SOL     OW18196   3.276   1.325   2.015
 5766SOL    HW118197   3.289   1.424   2.007
 5766SOL    HW218198   3.248   1.302   2.109
 5767SOL     OW18199   1.020   6.067   0.617
 5767SOL    HW118200   1.119   6.061   0.608
 5767SOL    HW218201   0.983   5.977   0.642
 5768SOL     OW18202   6.738   0.793   3.160
 5768SOL    HW118203   6.703   0.715   3.211
 5768SOL    HW218204   6.792   0.761   3.082
 5769SOL     OW18205   2.711   6.316   3.085
 5769SOL    HW118206   2.735   6.404   3.126
 5769SOL    HW218207   2.774   6.245   3.118
 5770SOL     OW18208   0.249   6.642   0.926
 5770SOL    HW118209   0.263   6.645   1.025
 5770SOL    HW218210   0.259   6.734   0.889
 5771SOL     OW18211   1.314   0.683   1.110
 5771SOL    HW118212   1.275   0.630   1.034
 5771SOL    HW218213   1.243   0.698   1.179
 5772SOL     OW18214   6.038   2.604   0.524
 5772SOL    HW118215   6.069   2.667   0.454
 5772SOL    HW218216   6.008   2.518   0.482
 5773SOL     OW18217   5.410   6.768   3.753
 5773SOL    HW118218   5.353   6.687   3.735
 5773SOL    HW218219   5.501   6.754   3.715
 5774SOL     OW18220   2.406   4.648   3.438
 5774SOL    HW118221   2.408   4.742   3.405
 5774SOL    HW218222   2.448   4.588   3.370
 5775SOL     OW18223   0.106   0.118   0.446
 5775SOL    HW118224   0.053   0.142   0.528
 5775SOL    HW218225   0.060   0.045   0.396
 5776SOL     OW18226   5.388   0.545   6.261
 5776SOL    HW118227   5.394   0.448   6.239
 5776SOL    HW218228   5.412   0.559   6.357
 5777SOL     OW18229   6.282   0.635   4.258
 5777SOL    HW118230   6.311   0.542   4.237
 5777SOL    HW218231   6.273   0.645   4.357
 5778SOL     OW18232   1.548   6.891   2.645
 5778SOL    HW118233   1.508   6.829   2.578
 5778SOL    HW218234   1.479   6.957   2.675
 5779SOL     OW18235   3.870   1.162   1.282
 5779SOL    HW118236   3.862   1.122   1.191
 5779SOL    HW218237   3.895   1.091   1.348
 5780SOL     OW18238   6.665   3.995   1.722
 5780SOL    HW118239   6.725   4.012   1.643
 5780SOL    HW218240   6.616   4.079   1.745
 5781SOL     OW18241   1.834   4.124   4.856
 5781SOL    HW118242   1.793   4.213   4.874
 5781SOL    HW218243   1.811   4.061   4.930
 5782SOL     OW18244   1.810   1.263   1.508
 5782SOL    HW118245   1.905   1.230   1.511
 5782SOL    HW218246   1.753   1.194   1.464
 5783SOL     OW18247   1.461   0.047   0.926
 5783SOL    HW118248   1.460   0.083   0.833
 5783SOL    HW218249   1.413   6.984   0.929
 5784SOL     OW18250   0.914   6.308   6.891
 5784SOL    HW118251   0.890   6.396   6.933
 5784SOL    HW218252   0.850   6.238   6.921
 5785SOL     OW18253   1.362   0.978   1.015
 5785SOL    HW118254   1.318   1.023   0.937
 5785SOL    HW218255   1.297   0.917   1.060
 5786SOL     OW18256   1.930   3.486   1.299
 5786SOL    HW118257   1.841   3.452   1.270
 5786SOL    HW218258   1.969   3.424   1.367
 5787SOL     OW18259   5.832   2.507   4.697
 5787SOL    HW118260   5.828   2.559   4.781
 5787SOL    HW218261   5.928   2.492   4.671
 5788SOL     OW18262   3.310   0.842   2.122
 5788SOL    HW118263   3.272   0.752   2.145
 5788SOL    HW218264   3.263   0.913   2.175
 5789SOL     OW18265   4.143   3.985   0.384
 5789SOL    HW118266   4.226   4.024   0.425
 5789SOL    HW218267   4.164   3.895   0.345
 5790SOL     OW18268   5.645   5.267   4.533
 5790SOL    HW118269   5.617   5.363   4.541
 5790SOL    HW218270   5.710   5.258   4.457
 5791SOL     OW18271   3.844   1.348   2.663
 5791SOL    HW118272   3.890   1.423   2.711
 5791SOL    HW218273   3.754   1.380   2.630
 5792SOL     OW18274   4.911   3.815   2.801
 5792SOL    HW118275   4.879   3.886   2.864
 5792SOL    HW218276   5.011   3.813   2.800
 5793SOL     OW18277   5.849   2.461   5.500
 5793SOL    HW118278   5.865   2.518   5.419
 5793SOL    HW218279   5.861   2.365   5.477
 5794SOL     OW18280   2.976   6.610   5.632
 5794SOL    HW118281   3.035   6.595   5.711
 5794SOL    HW218282   3.000   6.546   5.559
 5795SOL     OW18283   1.023   5.083   1.779
 5795SOL    HW118284   1.019   5.030   1.694
 5795SOL    HW218285   1.062   5.027   1.851
 5796SOL     OW18286   4.273   1.294   6.071
 5796SOL    HW118287   4.180   1.315   6.101
 5796SOL    HW218288   4.338   1.323   6.141
 5797SOL     OW18289   4.942   2.026   6.831
 5797SOL    HW118290   4.983   1.935   6.834
 5797SOL    HW218291   4.844   2.018   6.812
 5798SOL     OW18292   1.411   3.636   5.113
 5798SOL    HW118293   1.434   3.643   5.016
 5798SOL    HW218294   1.343   3.563   5.126
 5799SOL     OW18295   1.512   6.636   3.159
 5799SOL    HW118296   1.454   6.556   3.140
 5799SOL    HW218297   1.482   6.679   3.244
 5800SOL     OW18298   0.283   6.897   0.865
 5800SOL    HW118299   0.371   6.903   0.911
 5800SOL    HW218300   0.282   6.958   0.786
 5801SOL     OW18301   2.245   2.899   2.332
 5801SOL    HW118302   2.182   2.930   2.403
 5801SOL    HW218303   2.301   2.824   2.368
 5802SOL     OW18304   0.041   1.781   2.531
 5802SOL    HW118305   0.049   1.705   2.467
 5802SOL    HW218306   0.029   1.746   2.623
 5803SOL     OW18307   1.040   5.680   4.545
 5803SOL    HW118308   0.952   5.691   4.499
 5803SOL    HW218309   1.087   5.769   4.548
 5804SOL     OW18310   5.955   6.741   3.573
 5804SOL    HW118311   5.994   6.671   3.513
 5804SOL    HW218312   5.987   6.725   3.667
 5805SOL     OW18313   2.307   3.308   0.681
 5805SOL    HW118314   2.334   3.380   0.618
 5805SOL    HW218315   2.252   3.347   0.754
 5806SOL     OW18316   0.588   2.939   3.198
 5806SOL    HW118317   0.686   2.939   3.179
 5806SOL    HW218318   0.538   2.965   3.116
 5807SOL     OW18319   0.965   6.168   0.165
 5807SOL    HW118320   0.998   6.260   0.183
 5807SOL    HW218321   1.003   6.135   0.079
 5808SOL     OW18322   6.023   0.718   4.256
 5808SOL    HW118323   5.975   0.806   4.249
 5808SOL    HW218324   6.121   0.732   4.244
 5809SOL     OW18325   0.233   2.758   6.153
 5809SOL    HW118326   0.233   2.659   6.162
 5809SOL    HW218327   0.327   2.792   6.157
 5810SOL     OW18328   4.058   6.645   4.541
 5810SOL    HW118329   4.100   6.611   4.457
 5810SOL    HW218330   3.991   6.716   4.518
 5811SOL     OW18331   3.138   3.415   6.175
 5811SOL    HW118332   3.211   3.482   6.163
 5811SOL    HW218333   3.178   3.328   6.205
 5812SOL     OW18334   5.911   3.032   0.748
 5812SOL    HW118335   5.978   2.969   0.788
 5812SOL    HW218336   5.826   2.982   0.730
 5813SOL     OW18337   4.867   6.463   0.849
 5813SOL    HW118338   4.780   6.509   0.830
 5813SOL    HW218339   4.878   6.450   0.947
 5814SOL     OW18340   5.659   1.838   2.279
 5814SOL    HW118341   5.602   1.919   2.264
 5814SOL    HW218342   5.601   1.756   2.277
 5815SOL     OW18343   6.684   0.899   4.113
 5815SOL    HW118344   6.636   0.904   4.026
 5815SOL    HW218345   6.702   0.803   4.136
 5816SOL     OW18346   0.175   3.963   3.176
 5816SOL    HW118347   0.113   3.894   3.138
 5816SOL    HW218348   0.199   3.938   3.269
 5817SOL     OW18349   5.349   4.044   4.305
 5817SOL    HW118350   5.438   3.999   4.313
 5817SOL    HW218351   5.295   3.997   4.236
 5818SOL     OW18352   1.900   0.235   4.714
 5818SOL    HW118353   1.865   0.257   4.623
 5818SOL    HW218354   1.887   0.313   4.775
 5819SOL     OW18355   4.335   4.910   6.827
 5819SOL    HW118356   4.398   4.959   6.887
 5819SOL    HW218357   4.350   4.812   6.835
 5820SOL     OW18358   6.112   4.982   2.803
 5820SOL    HW118359   6.114   4.973   2.903
 5820SOL    HW218360   6.017   4.996   2.774
 5821SOL     OW18361   6.492   0.839   1.438
 5821SOL    HW118362   6.518   0.925   1.483
 5821SOL    HW218363   6.568   0.806   1.382
 5822SOL     OW18364   1.318   2.804   2.216
 5822SOL    HW118365   1.357   2.788   2.125
 5822SOL    HW218366   1.226   2.843   2.206
 5823SOL     OW18367   2.185   6.281   3.482
 5823SOL    HW118368   2.239   6.325   3.410
 5823SOL    HW218369   2.123   6.214   3.441
 5824SOL     OW18370   1.173   0.489   2.316
 5824SOL    HW118371   1.217   0.547   2.385
 5824SOL    HW218372   1.240   0.466   2.245
 5825SOL     OW18373   6.302   0.390   4.143
 5825SOL    HW118374   6.208   0.406   4.172
 5825SOL    HW218375   6.303   0.373   4.044
 5826SOL     OW18376   0.441   6.627   4.855
 5826SOL    HW118377   0.501   6.686   4.800
 5826SOL    HW218378   0.458   6.532   4.830
 5827SOL     OW18379   2.103   4.291   5.142
 5827SOL    HW118380   2.113   4.390   5.137
 5827SOL    HW218381   2.080   4.255   5.052
 5828SOL     OW18382   4.745   0.074   3.995
 5828SOL    HW118383   4.679   0.000   3.984
 5828SOL    HW218384   4.715   0.154   3.943
 5829SOL     OW18385   2.314   0.906   3.837
 5829SOL    HW118386   2.244   0.863   3.779
 5829SOL    HW218387   2.405   0.881   3.804
 5830SOL     OW18388   3.832   5.824   4.970
 5830SOL    HW118389   3.878   5.786   4.889
 5830SOL    HW218390   3.859   5.920   4.981
 5831SOL     OW18391   1.551   1.241   5.535
 5831SOL    HW118392   1.479   1.217   5.470
 5831SOL    HW218393   1.514   1.237   5.628
 5832SOL     OW18394   3.576   5.002   1.229
 5832SOL    HW118395   3.500   4.941   1.250
 5832SOL    HW218396   3.575   5.080   1.292
 5833SOL     OW18397   3.796   3.542   5.703
 5833SOL    HW118398   3.829   3.505   5.616
 5833SOL    HW218399   3.802   3.472   5.774
 5834SOL     OW18400   6.391   4.594   6.864
 5834SOL    HW118401   6.379   4.608   6.765
 5834SOL    HW218402   6.341   4.665   6.914
 5835SOL     OW18403   5.637   1.134   2.365
 5835SOL    HW118404   5.624   1.037   2.341
 5835SOL    HW218405   5.551   1.183   2.353
 5836SOL     OW18406   4.523   6.960   1.509
 5836SOL    HW118407   4.439   7.009   1.488
 5836SOL    HW218408   4.502   6.881   1.567
 5837SOL     OW18409   3.506   4.467   0.333
 5837SOL    HW118410   3.552   4.516   0.259
 5837SOL    HW218411   3.438   4.404   0.294
 5838SOL     OW18412   2.577   1.929   1.085
 5838SOL    HW118413   2.659   1.887   1.123
 5838SOL    HW218414   2.542   1.873   1.010
 5839SOL     OW18415   1.486   2.362   1.786
 5839SOL    HW118416   1.416   2.386   1.718
 5839SOL    HW218417   1.489   2.263   1.796
 5840SOL     OW18418   0.629   3.060   2.138
 5840SOL    HW118419   0.634   3.150   2.095
 5840SOL    HW218420   0.579   3.068   2.225
 5841SOL     OW18421   4.650   1.411   0.197
 5841SOL    HW118422   4.691   1.405   0.106
 5841SOL    HW218423   4.712   1.369   0.264
 5842SOL     OW18424   3.202   1.259   0.867
 5842SOL    HW118425   3.287   1.224   0.906
 5842SOL    HW218426   3.138   1.183   0.853
 5843SOL     OW18427   1.681   3.406   1.182
 5843SOL    HW118428   1.632   3.343   1.241
 5843SOL    HW218429   1.702   3.361   1.095
 5844SOL     OW18430   0.882   0.752   4.970
 5844SOL    HW118431   0.894   0.793   4.880
 5844SOL    HW218432   0.883   0.652   4.961
 5845SOL     OW18433   0.633   5.996   2.019
 5845SOL    HW118434   0.600   5.991   1.925
 5845SOL    HW218435   0.634   6.091   2.049
 5846SOL     OW18436   6.416   3.696   5.984
 5846SOL    HW118437   6.395   3.623   6.048
 5846SOL    HW218438   6.507   3.682   5.946
 5847SOL     OW18439   2.836   3.215   0.592
 5847SOL    HW118440   2.892   3.298   0.591
 5847SOL    HW218441   2.896   3.135   0.596
 5848SOL     OW18442   1.627   6.026   3.730
 5848SOL    HW118443   1.585   5.937   3.745
 5848SOL    HW218444   1.565   6.098   3.760
 5849SOL     OW18445   2.271   6.222   5.620
 5849SOL    HW118446   2.358   6.172   5.610
 5849SOL    HW218447   2.234   6.242   5.530
 5850SOL     OW18448   1.464   1.883   1.808
 5850SOL    HW118449   1.439   1.798   1.762
 5850SOL    HW218450   1.457   1.959   1.744
 5851SOL     OW18451   5.621   2.996   4.624
 5851SOL    HW118452   5.616   3.039   4.534
 5851SOL    HW218453   5.609   3.065   4.695
 5852SOL     OW18454   5.060   5.167   3.310
 5852SOL    HW118455   5.013   5.102   3.251
 5852SOL    HW218456   5.128   5.119   3.365
 5853SOL     OW18457   3.748   5.077   5.768
 5853SOL    HW118458   3.715   5.046   5.679
 5853SOL    HW218459   3.813   5.152   5.756
 5854SOL     OW18460   2.534   4.845   5.978
 5854SOL    HW118461   2.620   4.795   5.986
 5854SOL    HW218462   2.521   4.873   5.882
 5855SOL     OW18463   2.071   2.626   3.821
 5855SOL    HW118464   2.155   2.657   3.864
 5855SOL    HW218465   2.011   2.705   3.804
 5856SOL     OW18466   1.766   0.218   2.958
 5856SOL    HW118467   1.823   0.145   2.997
 5856SOL    HW218468   1.670   0.199   2.978
 5857SOL     OW18469   0.550   3.985   6.435
 5857SOL    HW118470   0.509   3.936   6.358
 5857SOL    HW218471   0.627   4.040   6.402
 5858SOL     OW18472   1.658   2.035   3.013
 5858SOL    HW118473   1.583   2.098   2.990
 5858SOL    HW218474   1.636   1.987   3.098
 5859SOL     OW18475   6.106   0.338   2.784
 5859SOL    HW118476   6.180   0.272   2.799
 5859SOL    HW218477   6.077   0.335   2.688
 5860SOL     OW18478   6.968   3.278   3.929
 5860SOL    HW118479   0.038   3.310   3.920
 5860SOL    HW218480   6.961   3.218   4.009
 5861SOL     OW18481   5.774   1.380   4.944
 5861SOL    HW118482   5.832   1.360   5.024
 5861SOL    HW218483   5.770   1.299   4.885
 5862SOL     OW18484   6.954   5.322   3.055
 5862SOL    HW118485   6.909   5.233   3.048
 5862SOL    HW218486   6.991   5.349   2.966
 5863SOL     OW18487   3.566   0.239   4.999
 5863SOL    HW118488   3.516   0.309   4.948
 5863SOL    HW218489   3.619   0.182   4.936
 5864SOL     OW18490   3.296   4.109   3.192
 5864SOL    HW118491   3.319   4.044   3.120
 5864SOL    HW218492   3.272   4.197   3.151
 5865SOL     OW18493   5.910   1.207   5.527
 5865SOL    HW118494   5.852   1.165   5.458
 5865SOL    HW218495   6.004   1.172   5.516
 5866SOL     OW18496   4.098   3.176   2.024
 5866SOL    HW118497   4.172   3.109   2.022
 5866SOL    HW218498   4.089   3.213   2.116
 5867SOL     OW18499   2.650   2.191   1.562
 5867SOL    HW118500   2.693   2.216   1.649
 5867SOL    HW218501   2.567   2.245   1.549
 5868SOL     OW18502   0.395   1.625   6.231
 5868SOL    HW118503   0.355   1.688   6.297
 5868SOL    HW218504   0.381   1.531   6.262
 5869SOL     OW18505   1.063   4.554   4.106
 5869SOL    HW118506   1.030   4.459   4.101
 5869SOL    HW218507   1.147   4.563   4.053
 5870SOL     OW18508   4.445   4.829   5.261
 5870SOL    HW118509   4.351   4.834   5.294
 5870SOL    HW218510   4.465   4.908   5.203
 5871SOL     OW18511   2.863   3.471   3.440
 5871SOL    HW118512   2.889   3.375   3.437
 5871SOL    HW218513   2.870   3.510   3.348
 5872SOL     OW18514   4.516   6.500   2.155
 5872SOL    HW118515   4.499   6.491   2.253
 5872SOL    HW218516   4.570   6.583   2.138
 5873SOL     OW18517   3.829   5.019   3.093
 5873SOL    HW118518   3.816   4.980   3.002
 5873SOL    HW218519   3.922   5.053   3.102
 5874SOL     OW18520   2.219   3.936   5.724
 5874SOL    HW118521   2.267   3.986   5.652
 5874SOL    HW218522   2.136   3.895   5.687
 5875SOL     OW18523   3.312   1.640   0.169
 5875SOL    HW118524   3.354   1.681   0.088
 5875SOL    HW218525   3.246   1.704   0.209
 5876SOL     OW18526   3.897   3.082   1.834
 5876SOL    HW118527   3.949   3.128   1.906
 5876SOL    HW218528   3.855   2.999   1.871
 5877SOL     OW18529   6.066   5.734   1.183
 5877SOL    HW118530   6.006   5.654   1.184
 5877SOL    HW218531   6.035   5.798   1.113
 5878SOL     OW18532   1.886   4.955   2.614
 5878SOL    HW118533   1.893   5.053   2.597
 5878SOL    HW218534   1.973   4.911   2.594
 5879SOL     OW18535   6.244   3.938   0.154
 5879SOL    HW118536   6.192   3.983   0.227
 5879SOL    HW218537   6.225   3.840   0.155
 5880SOL     OW18538   3.053   6.699   1.347
 5880SOL    HW118539   2.999   6.645   1.412
 5880SOL    HW218540   2.998   6.720   1.267
 5881SOL     OW18541   0.698   4.833   3.820
 5881SOL    HW118542   0.697   4.745   3.867
 5881SOL    HW218543   0.625   4.891   3.855
 5882SOL     OW18544   5.077   0.736   0.907
 5882SOL    HW118545   5.060   0.770   0.814
 5882SOL    HW218546   5.166   0.769   0.939
 5883SOL     OW18547   6.548   2.729   6.427
 5883SOL    HW118548   6.618   2.751   6.496
 5883SOL    HW218549   6.473   2.680   6.471
 5884SOL     OW18550   0.966   1.134   3.454
 5884SOL    HW118551   0.989   1.038   3.439
 5884SOL    HW218552   0.979   1.185   3.369
 5885SOL     OW18553   6.919   6.610   1.065
 5885SOL    HW118554   6.881   6.578   1.152
 5885SOL    HW218555   6.876   6.697   1.041
 5886SOL     OW18556   0.546   2.618   5.220
 5886SOL    HW118557   0.580   2.654   5.307
 5886SOL    HW218558   0.595   2.535   5.196
 5887SOL     OW18559   3.180   0.867   4.223
 5887SOL    HW118560   3.113   0.853   4.296
 5887SOL    HW218561   3.175   0.961   4.189
 5888SOL     OW18562   1.708   6.512   2.846
 5888SOL    HW118563   1.752   6.472   2.765
 5888SOL    HW218564   1.609   6.504   2.837
 5889SOL     OW18565   2.337   0.579   0.939
 5889SOL    HW118566   2.420   0.632   0.929
 5889SOL    HW218567   2.310   0.540   0.851
 5890SOL     OW18568   1.514   6.252   5.000
 5890SOL    HW118569   1.583   6.182   4.984
 5890SOL    HW218570   1.427   6.224   4.958
 5891SOL     OW18571   4.182   3.142   6.901
 5891SOL    HW118572   4.267   3.132   6.952
 5891SOL    HW218573   4.193   3.212   6.830
 5892SOL     OW18574   1.060   5.932   1.234
 5892SOL    HW118575   1.073   6.003   1.304
 5892SOL    HW218576   1.096   5.845   1.267
 5893SOL     OW18577   1.466   2.832   3.528
 5893SOL    HW118578   1.419   2.915   3.496
 5893SOL    HW218579   1.532   2.856   3.599
 5894SOL     OW18580   1.848   4.432   3.706
 5894SOL    HW118581   1.859   4.394   3.798
 5894SOL    HW218582   1.841   4.531   3.712
 5895SOL     OW18583   5.214   2.773   4.576
 5895SOL    HW118584   5.206   2.811   4.483
 5895SOL    HW218585   5.268   2.689   4.573
 5896SOL     OW18586   3.921   2.571   6.399
 5896SOL    HW118587   3.893   2.615   6.484
 5896SOL    HW218588   3.916   2.472   6.409
 5897SOL     OW18589   4.055   0.382   1.071
 5897SOL    HW118590   3.963   0.343   1.062
 5897SOL    HW218591   4.050   0.467   1.123
 5898SOL     OW18592   1.389   0.066   1.233
 5898SOL    HW118593   1.472   0.071   1.289
 5898SOL    HW218594   1.409   0.101   1.141
 5899SOL     OW18595   5.736   6.997   5.078
 5899SOL    HW118596   5.828   6.990   5.041
 5899SOL    HW218597   5.689   0.051   5.036
 5900SOL     OW18598   5.000   4.773   3.041
 5900SOL    HW118599   5.093   4.768   3.007
 5900SOL    HW218600   4.942   4.709   2.989
 5901SOL     OW18601   2.325   6.455   6.648
 5901SOL    HW118602   2.393   6.488   6.582
 5901SOL    HW218603   2.342   6.359   6.667
 5902SOL     OW18604   6.920   2.353   0.813
 5902SOL    HW118605   6.820   2.350   0.820
 5902SOL    HW218606   6.945   2.395   0.726
 5903SOL     OW18607   5.872   4.574   0.313
 5903SOL    HW118608   5.904   4.662   0.277
 5903SOL    HW218609   5.777   4.559   0.286
 5904SOL     OW18610   0.428   3.438   2.327
 5904SOL    HW118611   0.361   3.366   2.310
 5904SOL    HW218612   0.469   3.424   2.417
 5905SOL     OW18613   6.859   6.343   2.781
 5905SOL    HW118614   6.802   6.276   2.732
 5905SOL    HW218615   6.930   6.295   2.831
 5906SOL     OW18616   5.576   0.943   4.146
 5906SOL    HW118617   5.550   0.997   4.066
 5906SOL    HW218618   5.660   0.893   4.126
 5907SOL     OW18619   1.256   6.428   0.800
 5907SOL    HW118620   1.200   6.400   0.722
 5907SOL    HW218621   1.312   6.507   0.774
 5908SOL     OW18622   0.738   2.253   5.662
 5908SOL    HW118623   0.776   2.223   5.575
 5908SOL    HW218624   0.802   2.316   5.706
 5909SOL     OW18625   1.220   5.991   0.264
 5909SOL    HW118626   1.139   6.030   0.221
 5909SOL    HW218627   1.290   5.973   0.195
 5910SOL     OW18628   1.070   2.706   3.245
 5910SOL    HW118629   1.115   2.653   3.318
 5910SOL    HW218630   1.140   2.752   3.191
 5911SOL     OW18631   6.523   5.475   6.343
 5911SOL    HW118632   6.593   5.419   6.298
 5911SOL    HW218633   6.455   5.503   6.275
 5912SOL     OW18634   6.305   1.395   5.677
 5912SOL    HW118635   6.385   1.335   5.681
 5912SOL    HW218636   6.329   1.485   5.714
 5913SOL     OW18637   5.487   2.892   0.415
 5913SOL    HW118638   5.444   2.887   0.325
 5913SOL    HW218639   5.487   2.987   0.447
 5914SOL     OW18640   0.574   6.656   6.109
 5914SOL    HW118641   0.590   6.749   6.145
 5914SOL    HW218642   0.479   6.630   6.125
 5915SOL     OW18643   3.089   6.706   0.155
 5915SOL    HW118644   3.048   6.700   0.246
 5915SOL    HW218645   3.102   6.614   0.118
 5916SOL     OW18646   1.024   6.477   1.814
 5916SOL    HW118647   1.054   6.390   1.775
 5916SOL    HW218648   1.085   6.550   1.783
 5917SOL     OW18649   3.290   4.230   6.553
 5917SOL    HW118650   3.341   4.171   6.490
 5917SOL    HW218651   3.192   4.212   6.543
 5918SOL     OW18652   2.363   5.870   5.803
 5918SOL    HW118653   2.267   5.850   5.822
 5918SOL    HW218654   2.384   5.963   5.831
 5919SOL     OW18655   3.238   3.517   3.371
 5919SOL    HW118656   3.160   3.517   3.308
 5919SOL    HW218657   3.322   3.494   3.321
 5920SOL     OW18658   5.484   1.132   6.010
 5920SOL    HW118659   5.549   1.068   6.051
 5920SOL    HW218660   5.532   1.217   5.985
 5921SOL     OW18661   4.062   4.787   6.999
 5921SOL    HW118662   4.148   4.790   0.027
 5921SOL    HW218663   3.990   4.833   0.026
 5922SOL     OW18664   6.443   3.978   3.770
 5922SOL    HW118665   6.352   4.018   3.787
 5922SOL    HW218666   6.476   4.009   3.681
 5923SOL     OW18667   6.218   1.085   1.392
 5923SOL    HW118668   6.231   1.072   1.490
 5923SOL    HW218669   6.299   1.129   1.353
 5924SOL     OW18670   5.254   6.688   2.999
 5924SOL    HW118671   5.311   6.718   3.076
 5924SOL    HW218672   5.235   6.766   2.940
 5925SOL     OW18673   4.223   5.567   1.346
 5925SOL    HW118674   4.201   5.664   1.357
 5925SOL    HW218675   4.318   5.551   1.372
 5926SOL     OW18676   3.968   4.855   3.554
 5926SOL    HW118677   4.009   4.925   3.495
 5926SOL    HW218678   3.977   4.766   3.511
 5927SOL     OW18679   1.734   3.976   2.126
 5927SOL    HW118680   1.690   4.053   2.081
 5927SOL    HW218681   1.788   3.925   2.059
 5928SOL     OW18682   4.463   0.221   1.062
 5928SOL    HW118683   4.365   0.201   1.054
 5928SOL    HW218684   4.509   0.194   0.978
 5929SOL     OW18685   6.609   0.306   5.530
 5929SOL    HW118686   6.512   0.330   5.520
 5929SOL    HW218687   6.647   0.286   5.440
 5930SOL     OW18688   1.424   2.984   1.139
 5930SOL    HW118689   1.467   2.971   1.050
 5930SOL    HW218690   1.331   2.946   1.138
 5931SOL     OW18691   5.537   6.215   2.850
 5931SOL    HW118692   5.554   6.251   2.758
 5931SOL    HW218693   5.469   6.272   2.896
 5932SOL     OW18694   3.278   0.065   6.565
 5932SOL    HW118695   3.309   0.152   6.603
 5932SOL    HW218696   3.178   0.062   6.565
 5933SOL     OW18697   0.094   5.759   4.386
 5933SOL    HW118698   0.153   5.828   4.428
 5933SOL    HW218699   0.077   5.783   4.291
 5934SOL     OW18700   3.466   3.860   5.568
 5934SOL    HW118701   3.443   3.876   5.665
 5934SOL    HW218702   3.481   3.763   5.553
 5935SOL     OW18703   0.135   5.843   5.497
 5935SOL    HW118704   0.178   5.760   5.530
 5935SOL    HW218705   0.130   5.841   5.397
 5936SOL     OW18706   3.173   3.004   2.412
 5936SOL    HW118707   3.163   3.021   2.314
 5936SOL    HW218708   3.237   2.928   2.426
 5937SOL     OW18709   0.068   2.175   2.125
 5937SOL    HW118710   7.019   2.121   2.083
 5937SOL    HW218711   0.027   2.248   2.180
 5938SOL     OW18712   5.865   5.391   4.905
 5938SOL    HW118713   5.895   5.319   4.968
 5938SOL    HW218714   5.767   5.407   4.917
 5939SOL     OW18715   3.607   6.391   4.300
 5939SOL    HW118716   3.603   6.298   4.338
 5939SOL    HW218717   3.648   6.388   4.209
 5940SOL     OW18718   4.819   5.274   3.069
 5940SOL    HW118719   4.842   5.288   2.973
 5940SOL    HW218720   4.840   5.180   3.095
 5941SOL     OW18721   6.176   2.461   2.253
 5941SOL    HW118722   6.188   2.439   2.156
 5941SOL    HW218723   6.263   2.494   2.290
 5942SOL     OW18724   6.305   3.140   5.763
 5942SOL    HW118725   6.350   3.137   5.852
 5942SOL    HW218726   6.252   3.225   5.754
 5943SOL     OW18727   4.359   3.769   0.593
 5943SOL    HW118728   4.423   3.701   0.630
 5943SOL    HW218729   4.409   3.854   0.574
 5944SOL     OW18730   0.814   2.695   6.872
 5944SOL    HW118731   0.773   2.776   6.913
 5944SOL    HW218732   0.768   2.613   6.907
 5945SOL     OW18733   0.775   6.180   4.993
 5945SOL    HW118734   0.725   6.106   4.948
 5945SOL    HW218735   0.864   6.146   5.024
 5946SOL     OW18736   3.711   4.667   6.636
 5946SOL    HW118737   3.625   4.685   6.685
 5946SOL    HW218738   3.786   4.664   6.702
 5947SOL     OW18739   3.110   3.132   4.589
 5947SOL    HW118740   3.158   3.054   4.547
 5947SOL    HW218741   3.062   3.102   4.671
 5948SOL     OW18742   4.751   4.234   2.274
 5948SOL    HW118743   4.794   4.153   2.236
 5948SOL    HW218744   4.668   4.256   2.223
 5949SOL     OW18745   5.620   5.321   1.327
 5949SOL    HW118746   5.709   5.297   1.290
 5949SOL    HW218747   5.631   5.366   1.416
 5950SOL     OW18748   5.153   2.289   5.372
 5950SOL    HW118749   5.244   2.328   5.384
 5950SOL    HW218750   5.090   2.361   5.340
 5951SOL     OW18751   0.654   5.215   5.015
 5951SOL    HW118752   0.658   5.194   4.917
 5951SOL    HW218753   0.729   5.276   5.039
 5952SOL     OW18754   4.072   5.209   2.301
 5952SOL    HW118755   4.102   5.133   2.243
 5952SOL    HW218756   4.000   5.176   2.363
 5953SOL     OW18757   6.310   2.969   4.861
 5953SOL    HW118758   6.277   2.875   4.866
 5953SOL    HW218759   6.401   2.974   4.902
 5954SOL     OW18760   0.264   5.339   5.623
 5954SOL    HW118761   0.244   5.256   5.571
 5954SOL    HW218762   0.350   5.327   5.672
 5955SOL     OW18763   4.775   4.983   1.375
 5955SOL    HW118764   4.819   4.978   1.286
 5955SOL    HW218765   4.795   4.899   1.427
 5956SOL     OW18766   5.427   2.352   4.346
 5956SOL    HW118767   5.380   2.287   4.407
 5956SOL    HW218768   5.369   2.432   4.334
 5957SOL     OW18769   1.380   1.075   3.092
 5957SOL    HW118770   1.406   1.053   2.998
 5957SOL    HW218771   1.281   1.085   3.099
 5958SOL     OW18772   3.997   0.062   3.082
 5958SOL    HW118773   4.030   0.142   3.031
 5958SOL    HW218774   3.911   0.031   3.042
 5959SOL     OW18775   4.855   2.378   5.681
 5959SOL    HW118776   4.805   2.409   5.762
 5959SOL    HW218777   4.790   2.361   5.606
 5960SOL     OW18778   3.044   6.317   4.621
 5960SOL    HW118779   3.077   6.227   4.595
 5960SOL    HW218780   2.957   6.308   4.670
 5961SOL     OW18781   4.049   1.949   2.365
 5961SOL    HW118782   4.129   1.927   2.309
 5961SOL    HW218783   3.980   1.995   2.309
 5962SOL     OW18784   4.786   6.177   6.268
 5962SOL    HW118785   4.778   6.222   6.179
 5962SOL    HW218786   4.863   6.218   6.318
 5963SOL     OW18787   3.245   4.533   6.501
 5963SOL    HW118788   3.175   4.534   6.573
 5963SOL    HW218789   3.282   4.441   6.491
 5964SOL     OW18790   2.404   0.003   2.869
 5964SOL    HW118791   2.478   0.056   2.911
 5964SOL    HW218792   2.318   0.024   2.915
 5965SOL     OW18793   1.996   0.452   6.793
 5965SOL    HW118794   1.931   0.477   6.721
 5965SOL    HW218795   2.085   0.431   6.753
 5966SOL     OW18796   1.892   0.112   5.635
 5966SOL    HW118797   1.868   0.209   5.636
 5966SOL    HW218798   1.871   0.073   5.546
 5967SOL     OW18799   2.551   2.049   5.119
 5967SOL    HW118800   2.631   1.991   5.138
 5967SOL    HW218801   2.550   2.073   5.022
 5968SOL     OW18802   5.447   2.287   6.963
 5968SOL    HW118803   5.407   2.199   6.987
 5968SOL    HW218804   5.491   2.327   0.020
 5969SOL     OW18805   4.923   0.222   6.603
 5969SOL    HW118806   4.967   0.301   6.559
 5969SOL    HW218807   4.841   0.252   6.651
 5970SOL     OW18808   0.250   4.068   0.787
 5970SOL    HW118809   0.262   4.161   0.751
 5970SOL    HW218810   0.335   4.037   0.828
 5971SOL     OW18811   5.757   0.364   2.378
 5971SOL    HW118812   5.670   0.396   2.416
 5971SOL    HW218813   5.741   0.320   2.290
 5972SOL     OW18814   5.239   5.115   6.849
 5972SOL    HW118815   5.258   5.110   6.947
 5972SOL    HW218816   5.147   5.079   6.830
 5973SOL     OW18817   2.015   3.928   2.646
 5973SOL    HW118818   1.926   3.925   2.692
 5973SOL    HW218819   2.083   3.966   2.708
 5974SOL     OW18820   4.267   0.751   0.096
 5974SOL    HW118821   4.267   0.801   0.183
 5974SOL    HW218822   4.175   0.751   0.057
 5975SOL     OW18823   5.071   5.067   1.123
 5975SOL    HW118824   5.150   5.069   1.184
 5975SOL    HW218825   5.038   4.973   1.114
 5976SOL     OW18826   3.468   3.608   5.832
 5976SOL    HW118827   3.445   3.510   5.836
 5976SOL    HW218828   3.500   3.631   5.740
 5977SOL     OW18829   0.768   5.454   0.117
 5977SOL    HW118830   0.700   5.493   0.180
 5977SOL    HW218831   0.734   5.459   0.024
 5978SOL     OW18832   3.634   5.157   0.290
 5978SOL    HW118833   3.681   5.211   0.220
 5978SOL    HW218834   3.669   5.181   0.380
 5979SOL     OW18835   6.215   0.423   2.348
 5979SOL    HW118836   6.154   0.380   2.415
 5979SOL    HW218837   6.169   0.502   2.307
 5980SOL     OW18838   3.391   2.871   2.031
 5980SOL    HW118839   3.459   2.931   1.989
 5980SOL    HW218840   3.326   2.840   1.961
 5981SOL     OW18841   4.935   2.342   0.413
 5981SOL    HW118842   4.877   2.327   0.333
 5981SOL    HW218843   4.910   2.428   0.457
 5982SOL     OW18844   5.590   2.172   2.172
 5982SOL    HW118845   5.571   2.264   2.205
 5982SOL    HW218846   5.504   2.125   2.153
 5983SOL     OW18847   0.698   0.812   4.124
 5983SOL    HW118848   0.761   0.813   4.047
 5983SOL    HW218849   0.615   0.863   4.101
 5984SOL     OW18850   5.691   6.551   3.177
 5984SOL    HW118851   5.695   6.523   3.081
 5984SOL    HW218852   5.698   6.650   3.183
 5985SOL     OW18853   6.137   2.230   3.836
 5985SOL    HW118854   6.208   2.178   3.882
 5985SOL    HW218855   6.053   2.229   3.890
 5986SOL     OW18856   4.364   3.771   5.602
 5986SOL    HW118857   4.420   3.790   5.522
 5986SOL    HW218858   4.412   3.801   5.684
 5987SOL     OW18859   6.478   0.887   4.305
 5987SOL    HW118860   6.423   0.804   4.311
 5987SOL    HW218861   6.560   0.869   4.251
 5988SOL     OW18862   3.167   1.094   6.788
 5988SOL    HW118863   3.165   0.997   6.766
 5988SOL    HW218864   3.168   1.148   6.703
 5989SOL     OW18865   1.407   5.667   6.417
 5989SOL    HW118866   1.320   5.708   6.444
 5989SOL    HW218867   1.397   5.568   6.414
 5990SOL     OW18868   4.404   3.876   1.087
 5990SOL    HW118869   4.485   3.842   1.040
 5990SOL    HW218870   4.323   3.829   1.052
 5991SOL     OW18871   4.451   5.556   0.253
 5991SOL    HW118872   4.395   5.505   0.317
 5991SOL    HW218873   4.441   5.654   0.271
 5992SOL     OW18874   3.151   0.155   2.291
 5992SOL    HW118875   3.229   0.216   2.276
 5992SOL    HW218876   3.171   0.093   2.368
 5993SOL     OW18877   6.332   3.780   6.610
 5993SOL    HW118878   6.313   3.768   6.707
 5993SOL    HW218879   6.246   3.793   6.561
 5994SOL     OW18880   6.981   3.227   0.850
 5994SOL    HW118881   7.013   3.170   0.926
 5994SOL    HW218882   6.928   3.171   0.786
 5995SOL     OW18883   4.384   3.212   1.563
 5995SOL    HW118884   4.343   3.252   1.481
 5995SOL    HW218885   4.333   3.244   1.644
 5996SOL     OW18886   2.229   5.864   1.327
 5996SOL    HW118887   2.294   5.791   1.306
 5996SOL    HW218888   2.252   5.945   1.272
 5997SOL     OW18889   0.009   6.932   3.326
 5997SOL    HW118890   0.066   7.013   3.341
 5997SOL    HW218891   6.969   6.950   3.251
 5998SOL     OW18892   5.649   0.334   1.660
 5998SOL    HW118893   5.590   0.402   1.617
 5998SOL    HW218894   5.628   0.328   1.758
 5999SOL     OW18895   3.908   3.173   1.129
 5999SOL    HW118896   3.872   3.083   1.102
 5999SOL    HW218897   3.938   3.169   1.224
 6000SOL     OW18898   0.280   5.949   0.212
 6000SOL    HW118899   0.253   5.913   0.123
 6000SOL    HW218900   0.338   5.882   0.259
 6001SOL     OW18901   5.473   6.137   6.203
 6001SOL    HW118902   5.521   6.084   6.273
 6001SOL    HW218903   5.530   6.214   6.175
 6002SOL     OW18904   0.154   0.015   4.810
 6002SOL    HW118905   0.132   6.995   4.897
 6002SOL    HW218906   0.132   0.112   4.816
 6003SOL     OW18907   6.748   2.587   4.806
 6003SOL    HW118908   6.782   2.497   4.778
 6003SOL    HW218909   6.655   2.599   4.771
 6004SOL     OW18910   5.548   2.276   3.155
 6004SOL    HW118911   5.565   2.325   3.240
 6004SOL    HW218912   5.457   2.299   3.120
 6005SOL     OW18913   5.547   4.365   5.234
 6005SOL    HW118914   5.458   4.408   5.251
 6005SOL    HW218915   5.578   4.391   5.143
 6006SOL     OW18916   3.340   0.052   5.054
 6006SOL    HW118917   3.289   0.016   4.976
 6006SOL    HW218918   3.422   0.100   5.021
 6007SOL     OW18919   0.013   3.674   0.003
 6007SOL    HW118920   0.072   3.596   0.025
 6007SOL    HW218921   7.017   3.725   0.087
 6008SOL     OW18922   2.120   4.478   5.597
 6008SOL    HW118923   2.030   4.500   5.636
 6008SOL    HW218924   2.108   4.414   5.521
 6009SOL     OW18925   5.059   5.778   3.042
 6009SOL    HW118926   5.009   5.839   2.981
 6009SOL    HW218927   5.011   5.691   3.049
 6010SOL     OW18928   0.264   3.840   4.487
 6010SOL    HW118929   0.322   3.820   4.408
 6010SOL    HW218930   0.196   3.768   4.497
 6011SOL     OW18931   4.611   2.492   2.447
 6011SOL    HW118932   4.689   2.432   2.429
 6011SOL    HW218933   4.580   2.532   2.361
 6012SOL     OW18934   5.710   0.509   6.657
 6012SOL    HW118935   5.649   0.432   6.643
 6012SOL    HW218936   5.702   0.542   6.751
 6013SOL     OW18937   4.810   1.285   2.631
 6013SOL    HW118938   4.830   1.378   2.660
 6013SOL    HW218939   4.762   1.237   2.704
 6014SOL     OW18940   3.397   3.398   3.797
 6014SOL    HW118941   3.428   3.400   3.702
 6014SOL    HW218942   3.300   3.423   3.802
 6015SOL     OW18943   6.034   2.946   4.456
 6015SOL    HW118944   5.960   2.888   4.491
 6015SOL    HW218945   6.042   2.933   4.357
 6016SOL     OW18946   4.910   2.105   5.611
 6016SOL    HW118947   4.927   2.198   5.645
 6016SOL    HW218948   4.842   2.107   5.539
 6017SOL     OW18949   0.378   3.884   4.720
 6017SOL    HW118950   0.335   3.870   4.631
 6017SOL    HW218951   0.464   3.933   4.709
 6018SOL     OW18952   3.257   1.299   4.181
 6018SOL    HW118953   3.347   1.342   4.187
 6018SOL    HW218954   3.261   1.223   4.116
 6019SOL     OW18955   0.973   3.908   6.081
 6019SOL    HW118956   0.998   3.831   6.023
 6019SOL    HW218957   0.997   3.888   6.176
 6020SOL     OW18958   1.099   4.962   0.970
 6020SOL    HW118959   1.122   4.869   0.997
 6020SOL    HW218960   1.069   5.014   1.049
 6021SOL     OW18961   4.469   0.239   2.728
 6021SOL    HW118962   4.553   0.252   2.675
 6021SOL    HW218963   4.474   0.294   2.812
 6022SOL     OW18964   6.481   2.152   3.233
 6022SOL    HW118965   6.400   2.107   3.273
 6022SOL    HW218966   6.502   2.109   3.145
 6023SOL     OW18967   5.330   0.283   1.420
 6023SOL    HW118968   5.384   0.365   1.438
 6023SOL    HW218969   5.373   0.204   1.465
 6024SOL     OW18970   0.600   4.978   0.565
 6024SOL    HW118971   0.634   5.054   0.621
 6024SOL    HW218972   0.631   4.892   0.604
 6025SOL     OW18973   2.518   1.572   3.614
 6025SOL    HW118974   2.580   1.647   3.636
 6025SOL    HW218975   2.561   1.485   3.639
 6026SOL     OW18976   6.384   4.805   4.485
 6026SOL    HW118977   6.353   4.821   4.578
 6026SOL    HW218978   6.350   4.716   4.453
 6027SOL     OW18979   6.128   3.387   6.074
 6027SOL    HW118980   6.081   3.325   6.137
 6027SOL    HW218981   6.178   3.456   6.126
 6028SOL     OW18982   5.436   5.118   1.668
 6028SOL    HW118983   5.529   5.123   1.633
 6028SOL    HW218984   5.398   5.027   1.651
 6029SOL     OW18985   2.158   6.684   3.431
 6029SOL    HW118986   2.192   6.609   3.375
 6029SOL    HW218987   2.068   6.713   3.397
 6030SOL     OW18988   4.965   3.596   4.803
 6030SOL    HW118989   4.931   3.518   4.748
 6030SOL    HW218990   4.910   3.604   4.886
 6031SOL     OW18991   1.408   5.941   3.952
 6031SOL    HW118992   1.324   5.935   3.898
 6031SOL    HW218993   1.432   6.037   3.966
 6032SOL     OW18994   3.125   5.961   3.804
 6032SOL    HW118995   3.190   5.921   3.868
 6032SOL    HW218996   3.173   5.989   3.721
 6033SOL     OW18997   2.365   2.665   2.442
 6033SOL    HW118998   2.384   2.612   2.360
 6033SOL    HW218999   2.451   2.696   2.483
 6034SOL     OW19000   0.832   0.453   6.441
 6034SOL    HW119001   0.898   0.398   6.390
 6034SOL    HW219002   0.863   0.464   6.535
 6035SOL     OW19003   0.899   1.345   2.743
 6035SOL    HW119004   0.942   1.313   2.658
 6035SOL    HW219005   0.843   1.425   2.724
 6036SOL     OW19006   6.117   4.868   1.779
 6036SOL    HW119007   6.211   4.902   1.774
 6036SOL    HW219008   6.104   4.797   1.710
 6037SOL     OW19009   4.118   0.780   0.995
 6037SOL    HW119010   4.052   0.738   1.057
 6037SOL    HW219011   4.109   0.740   0.904
 6038SOL     OW19012   0.063   2.467   6.419
 6038SOL    HW119013   0.064   2.387   6.478
 6038SOL    HW219014   0.023   2.443   6.331
 6039SOL     OW19015   4.165   3.508   3.977
 6039SOL    HW119016   4.178   3.416   3.939
 6039SOL    HW219017   4.131   3.500   4.071
 6040SOL     OW19018   1.847   1.495   0.616
 6040SOL    HW119019   1.762   1.522   0.570
 6040SOL    HW219020   1.902   1.439   0.554
 6041SOL     OW19021   3.109   2.991   5.431
 6041SOL    HW119022   3.035   3.057   5.447
 6041SOL    HW219023   3.149   3.007   5.341
 6042SOL     OW19024   4.233   5.928   3.088
 6042SOL    HW119025   4.177   5.872   3.026
 6042SOL    HW219026   4.177   6.001   3.127
 6043SOL     OW19027   1.347   1.003   4.134
 6043SOL    HW119028   1.380   1.076   4.074
 6043SOL    HW219029   1.411   0.927   4.133
 6044SOL     OW19030   2.134   1.702   2.139
 6044SOL    HW119031   2.050   1.648   2.144
 6044SOL    HW219032   2.192   1.665   2.066
 6045SOL     OW19033   4.916   3.102   3.782
 6045SOL    HW119034   4.948   3.139   3.695
 6045SOL    HW219035   4.897   3.177   3.845
 6046SOL     OW19036   3.313   2.843   1.312
 6046SOL    HW119037   3.365   2.776   1.259
 6046SOL    HW219038   3.301   2.926   1.258
 6047SOL     OW19039   5.593   2.373   0.779
 6047SOL    HW119040   5.494   2.369   0.790
 6047SOL    HW219041   5.632   2.281   0.792
 6048SOL     OW19042   5.517   5.086   5.098
 6048SOL    HW119043   5.458   5.084   5.179
 6048SOL    HW219044   5.471   5.138   5.026
 6049SOL     OW19045   5.528   4.424   6.187
 6049SOL    HW119046   5.563   4.517   6.175
 6049SOL    HW219047   5.559   4.367   6.111
 6050SOL     OW19048   3.043   5.074   0.894
 6050SOL    HW119049   3.023   5.110   0.985
 6050SOL    HW219050   2.961   5.077   0.838
 6051SOL     OW19051   0.853   0.947   2.622
 6051SOL    HW119052   0.909   1.005   2.563
 6051SOL    HW219053   0.770   0.920   2.572
 6052SOL     OW19054   5.479   0.511   1.531
 6052SOL    HW119055   5.382   0.535   1.542
 6052SOL    HW219056   5.520   0.574   1.465
 6053SOL     OW19057   4.288   0.368   6.189
 6053SOL    HW119058   4.266   0.455   6.234
 6053SOL    HW219059   4.279   0.379   6.090
 6054SOL     OW19060   3.512   5.194   0.758
 6054SOL    HW119061   3.572   5.209   0.679
 6054SOL    HW219062   3.561   5.141   0.827
 6055SOL     OW19063   3.464   5.078   6.491
 6055SOL    HW119064   3.435   5.137   6.415
 6055SOL    HW219065   3.552   5.036   6.469
 6056SOL     OW19066   5.925   2.881   4.816
 6056SOL    HW119067   6.020   2.850   4.821
 6056SOL    HW219068   5.864   2.802   4.819
 6057SOL     OW19069   5.559   0.478   2.221
 6057SOL    HW119070   5.562   0.550   2.290
 6057SOL    HW219071   5.541   0.519   2.131
 6058SOL     OW19072   6.036   3.492   0.497
 6058SOL    HW119073   6.017   3.577   0.547
 6058SOL    HW219074   6.036   3.415   0.561
 6059SOL     OW19075   5.087   3.850   5.539
 6059SOL    HW119076   4.996   3.847   5.581
 6059SOL    HW219077   5.131   3.761   5.548
 6060SOL     OW19078   3.288   3.147   0.598
 6060SOL    HW119079   3.368   3.109   0.645
 6060SOL    HW219080   3.213   3.081   0.603
 6061SOL     OW19081   4.582   4.588   0.169
 6061SOL    HW119082   4.497   4.567   0.217
 6061SOL    HW219083   4.590   4.530   0.089
 6062SOL     OW19084   2.439   1.893   6.830
 6062SOL    HW119085   2.499   1.921   6.904
 6062SOL    HW219086   2.414   1.797   6.841
 6063SOL     OW19087   3.678   4.222   5.513
 6063SOL    HW119088   3.662   4.131   5.473
 6063SOL    HW219089   3.591   4.262   5.540
 6064SOL     OW19090   0.598   0.395   0.905
 6064SOL    HW119091   0.552   0.323   0.957
 6064SOL    HW219092   0.625   0.360   0.816
 6065SOL     OW19093   0.947   5.196   1.462
 6065SOL    HW119094   0.952   5.193   1.363
 6065SOL    HW219095   0.855   5.171   1.492
 6066SOL     OW19096   5.164   1.425   3.831
 6066SOL    HW119097   5.236   1.487   3.800
 6066SOL    HW219098   5.184   1.394   3.924
 6067SOL     OW19099   5.594   0.191   6.022
 6067SOL    HW119100   5.598   0.092   6.009
 6067SOL    HW219101   5.523   0.229   5.963
 6068SOL     OW19102   5.197   2.350   4.831
 6068SOL    HW119103   5.147   2.266   4.853
 6068SOL    HW219104   5.289   2.344   4.870
 6069SOL     OW19105   6.679   3.005   6.148
 6069SOL    HW119106   6.719   2.998   6.056
 6069SOL    HW219107   6.716   3.087   6.193
 6070SOL     OW19108   3.618   2.328   1.617
 6070SOL    HW119109   3.661   2.332   1.707
 6070SOL    HW219110   3.678   2.281   1.553
 6071SOL     OW19111   0.222   6.307   4.176
 6071SOL    HW119112   0.150   6.292   4.244
 6071SOL    HW219113   0.181   6.309   4.085
 6072SOL     OW19114   6.549   2.036   1.244
 6072SOL    HW119115   6.482   1.977   1.199
 6072SOL    HW219116   6.593   1.985   1.319
 6073SOL     OW19117   5.116   2.870   0.991
 6073SOL    HW119118   5.150   2.955   1.032
 6073SOL    HW219119   5.193   2.811   0.967
 6074SOL     OW19120   1.735   0.222   2.057
 6074SOL    HW119121   1.673   0.276   2.000
 6074SOL    HW219122   1.803   0.282   2.099
 6075SOL     OW19123   4.553   6.920   5.686
 6075SOL    HW119124   4.580   6.995   5.746
 6075SOL    HW219125   4.579   6.940   5.592
 6076SOL     OW19126   2.606   5.318   3.712
 6076SOL    HW119127   2.512   5.286   3.695
 6076SOL    HW219128   2.606   5.381   3.789
 6077SOL     OW19129   5.686   6.658   1.069
 6077SOL    HW119130   5.647   6.750   1.067
 6077SOL    HW219131   5.785   6.664   1.061
 6078SOL     OW19132   4.646   4.343   0.808
 6078SOL    HW119133   4.671   4.439   0.797
 6078SOL    HW219134   4.552   4.336   0.842
 6079SOL     OW19135   4.742   4.622   6.631
 6079SOL    HW119136   4.839   4.601   6.617
 6079SOL    HW219137   4.689   4.538   6.622
 6080SOL     OW19138   0.405   5.247   1.650
 6080SOL    HW119139   0.423   5.219   1.555
 6080SOL    HW219140   0.358   5.173   1.698
 6081SOL     OW19141   0.186   3.377   5.772
 6081SOL    HW119142   0.269   3.346   5.724
 6081SOL    HW219143   0.202   3.376   5.871
 6082SOL     OW19144   3.264   6.589   2.028
 6082SOL    HW119145   3.350   6.541   2.008
 6082SOL    HW219146   3.264   6.678   1.984
 6083SOL     OW19147   5.580   6.092   0.109
 6083SOL    HW119148   5.500   6.032   0.102
 6083SOL    HW219149   5.556   6.183   0.074
 6084SOL     OW19150   0.689   6.255   2.109
 6084SOL    HW119151   0.779   6.242   2.151
 6084SOL    HW219152   0.696   6.322   2.036
 6085SOL     OW19153   5.820   6.020   6.023
 6085SOL    HW119154   5.774   5.946   6.071
 6085SOL    HW219155   5.895   6.054   6.080
 6086SOL     OW19156   3.848   3.106   6.186
 6086SOL    HW119157   3.867   3.014   6.221
 6086SOL    HW219158   3.911   3.127   6.111
 6087SOL     OW19159   5.117   6.369   1.236
 6087SOL    HW119160   5.099   6.279   1.277
 6087SOL    HW219161   5.138   6.434   1.308
 6088SOL     OW19162   5.897   6.230   5.019
 6088SOL    HW119163   5.964   6.298   5.047
 6088SOL    HW219164   5.880   6.167   5.094
 6089SOL     OW19165   6.700   2.210   2.472
 6089SOL    HW119166   6.683   2.126   2.522
 6089SOL    HW219167   6.613   2.255   2.451
 6090SOL     OW19168   2.689   4.943   4.379
 6090SOL    HW119169   2.664   4.936   4.283
 6090SOL    HW219170   2.697   4.852   4.419
 6091SOL     OW19171   2.762   1.550   1.070
 6091SOL    HW119172   2.849   1.501   1.061
 6091SOL    HW219173   2.774   1.646   1.044
 6092SOL     OW19174   4.162   1.018   1.997
 6092SOL    HW119175   4.104   0.967   1.933
 6092SOL    HW219176   4.224   0.955   2.042
 6093SOL     OW19177   2.735   1.939   2.516
 6093SOL    HW119178   2.733   1.915   2.613
 6093SOL    HW219179   2.765   1.861   2.462
 6094SOL     OW19180   1.544   6.495   3.432
 6094SOL    HW119181   1.530   6.594   3.442
 6094SOL    HW219182   1.634   6.479   3.392
 6095SOL     OW19183   4.713   5.223   6.644
 6095SOL    HW119184   4.792   5.213   6.583
 6095SOL    HW219185   4.629   5.205   6.593
 6096SOL     OW19186   5.490   6.473   1.898
 6096SOL    HW119187   5.583   6.438   1.883
 6096SOL    HW219188   5.484   6.513   1.989
 6097SOL     OW19189   1.081   5.716   1.929
 6097SOL    HW119190   1.023   5.794   1.950
 6097SOL    HW219191   1.156   5.711   1.995
 6098SOL     OW19192   5.850   0.373   5.921
 6098SOL    HW119193   5.894   0.444   5.866
 6098SOL    HW219194   5.898   0.362   6.008
 6099SOL     OW19195   4.448   6.052   5.678
 6099SOL    HW119196   4.430   6.118   5.605
 6099SOL    HW219197   4.475   6.101   5.761
 6100SOL     OW19198   0.121   5.528   1.860
 6100SOL    HW119199   0.105   5.626   1.844
 6100SOL    HW219200   0.215   5.506   1.837
 6101SOL     OW19201   5.844   2.784   2.706
 6101SOL    HW119202   5.823   2.686   2.701
 6101SOL    HW219203   5.898   2.811   2.627
 6102SOL     OW19204   4.055   5.802   2.912
 6102SOL    HW119205   4.084   5.722   2.965
 6102SOL    HW219206   4.062   5.782   2.815
 6103SOL     OW19207   6.313   1.140   1.035
 6103SOL    HW119208   6.316   1.238   1.016
 6103SOL    HW219209   6.361   1.121   1.121
 6104SOL     OW19210   5.946   1.061   5.247
 6104SOL    HW119211   6.019   1.092   5.187
 6104SOL    HW219212   5.858   1.097   5.215
 6105SOL     OW19213   2.346   5.616   5.626
 6105SOL    HW119214   2.351   5.712   5.653
 6105SOL    HW219215   2.306   5.562   5.700
 6106SOL     OW19216   1.364   4.857   0.575
 6106SOL    HW119217   1.426   4.933   0.553
 6106SOL    HW219218   1.273   4.893   0.596
 6107SOL     OW19219   4.719   5.562   4.028
 6107SOL    HW119220   4.649   5.513   3.976
 6107SOL    HW219221   4.705   5.547   4.125
 6108SOL     OW19222   1.058   2.134   3.017
 6108SOL    HW119223   0.969   2.098   2.991
 6108SOL    HW219224   1.051   2.232   3.035
 6109SOL     OW19225   4.924   1.197   4.572
 6109SOL    HW119226   4.911   1.169   4.477
 6109SOL    HW219227   4.910   1.295   4.581
 6110SOL     OW19228   1.544   2.616   6.686
 6110SOL    HW119229   1.481   2.541   6.665
 6110SOL    HW219230   1.622   2.612   6.622
 6111SOL     OW19231   1.560   3.458   1.494
 6111SOL    HW119232   1.638   3.437   1.553
 6111SOL    HW219233   1.494   3.383   1.497
 6112SOL     OW19234   4.295   0.178   2.322
 6112SOL    HW119235   4.248   0.142   2.402
 6112SOL    HW219236   4.312   0.103   2.257
 6113SOL     OW19237   2.783   3.862   6.407
 6113SOL    HW119238   2.804   3.767   6.430
 6113SOL    HW219239   2.867   3.909   6.380
 6114SOL     OW19240   5.048   2.865   2.202
 6114SOL    HW119241   4.962   2.911   2.223
 6114SOL    HW219242   5.094   2.841   2.288
 6115SOL     OW19243   6.951   1.602   5.277
 6115SOL    HW119244   6.927   1.512   5.239
 6115SOL    HW219245   6.934   1.672   5.208
 6116SOL     OW19246   4.120   2.579   5.592
 6116SOL    HW119247   4.069   2.496   5.611
 6116SOL    HW219248   4.059   2.646   5.549
 6117SOL     OW19249   0.982   1.585   3.443
 6117SOL    HW119250   1.000   1.487   3.455
 6117SOL    HW219251   1.069   1.633   3.429
 6118SOL     OW19252   5.583   1.271   1.584
 6118SOL    HW119253   5.575   1.187   1.531
 6118SOL    HW219254   5.592   1.249   1.681
 6119SOL     OW19255   0.746   2.887   0.269
 6119SOL    HW119256   0.718   2.894   0.173
 6119SOL    HW219257   0.823   2.949   0.286
 6120SOL     OW19258   1.552   6.607   5.565
 6120SOL    HW119259   1.606   6.684   5.531
 6120SOL    HW219260   1.605   6.557   5.633
 6121SOL     OW19261   0.651   4.337   5.559
 6121SOL    HW119262   0.713   4.264   5.589
 6121SOL    HW219263   0.571   4.297   5.516
 6122SOL     OW19264   5.019   5.521   6.354
 6122SOL    HW119265   5.069   5.512   6.268
 6122SOL    HW219266   4.927   5.555   6.335
 6123SOL     OW19267   5.140   0.865   5.363
 6123SOL    HW119268   5.072   0.811   5.314
 6123SOL    HW219269   5.097   0.910   5.441
 6124SOL     OW19270   0.895   6.571   5.636
 6124SOL    HW119271   0.852   6.645   5.584
 6124SOL    HW219272   0.989   6.559   5.605
 6125SOL     OW19273   2.459   3.735   6.859
 6125SOL    HW119274   2.375   3.782   6.833
 6125SOL    HW219275   2.442   3.637   6.869
 6126SOL     OW19276   1.027   1.934   5.653
 6126SOL    HW119277   0.947   1.921   5.595
 6126SOL    HW219278   1.110   1.914   5.600
 6127SOL     OW19279   4.459   1.149   1.362
 6127SOL    HW119280   4.393   1.222   1.382
 6127SOL    HW219281   4.541   1.163   1.418
 6128SOL     OW19282   5.672   5.412   0.517
 6128SOL    HW119283   5.655   5.505   0.486
 6128SOL    HW219284   5.750   5.410   0.578
 6129SOL     OW19285   1.457   4.217   3.399
 6129SOL    HW119286   1.535   4.260   3.446
 6129SOL    HW219287   1.372   4.247   3.441
 6130SOL     OW19288   6.231   2.416   3.042
 6130SOL    HW119289   6.305   2.415   3.109
 6130SOL    HW219290   6.254   2.355   2.966
 6131SOL     OW19291   1.007   2.115   2.197
 6131SOL    HW119292   1.043   2.031   2.237
 6131SOL    HW219293   0.961   2.169   2.268
 6132SOL     OW19294   3.688   2.135   6.380
 6132SOL    HW119295   3.656   2.107   6.471
 6132SOL    HW219296   3.770   2.083   6.356
 6133SOL     OW19297   1.242   2.272   3.565
 6133SOL    HW119298   1.189   2.328   3.628
 6133SOL    HW219299   1.304   2.330   3.512
 6134SOL     OW19300   4.513   0.117   6.467
 6134SOL    HW119301   4.520   0.216   6.466
 6134SOL    HW219302   4.449   0.089   6.539
 6135SOL     OW19303   5.556   6.535   0.433
 6135SOL    HW119304   5.473   6.558   0.483
 6135SOL    HW219305   5.561   6.589   0.349
 6136SOL     OW19306   1.563   2.212   1.229
 6136SOL    HW119307   1.651   2.246   1.196
 6136SOL    HW219308   1.523   2.279   1.292
 6137SOL     OW19309   0.654   3.798   2.400
 6137SOL    HW119310   0.680   3.876   2.343
 6137SOL    HW219311   0.733   3.769   2.455
 6138SOL     OW19312   3.699   0.144   2.052
 6138SOL    HW119313   3.638   0.068   2.070
 6138SOL    HW219314   3.705   0.160   1.953
 6139SOL     OW19315   0.605   6.929   5.487
 6139SOL    HW119316   0.516   6.884   5.495
 6139SOL    HW219317   0.596   7.008   5.426
 6140SOL     OW19318   0.705   0.991   3.197
 6140SOL    HW119319   0.661   1.039   3.121
 6140SOL    HW219320   0.648   0.997   3.278
 6141SOL     OW19321   0.872   0.591   6.087
 6141SOL    HW119322   0.871   0.683   6.127
 6141SOL    HW219323   0.794   0.539   6.122
 6142SOL     OW19324   1.038   0.498   5.671
 6142SOL    HW119325   1.105   0.509   5.598
 6142SOL    HW219326   0.981   0.579   5.677
 6143SOL     OW19327   0.077   4.365   1.150
 6143SOL    HW119328   0.099   4.275   1.113
 6143SOL    HW219329   0.059   4.429   1.075
 6144SOL     OW19330   5.228   4.359   3.264
 6144SOL    HW119331   5.304   4.298   3.241
 6144SOL    HW219332   5.182   4.387   3.180
 6145SOL     OW19333   5.724   4.473   4.055
 6145SOL    HW119334   5.819   4.503   4.045
 6145SOL    HW219335   5.684   4.518   4.135
 6146SOL     OW19336   3.580   6.518   3.844
 6146SOL    HW119337   3.639   6.564   3.777
 6146SOL    HW219338   3.540   6.586   3.905
 6147SOL     OW19339   2.022   2.748   4.604
 6147SOL    HW119340   2.088   2.809   4.648
 6147SOL    HW219341   2.069   2.667   4.569
 6148SOL     OW19342   3.939   5.310   6.703
 6148SOL    HW119343   3.920   5.260   6.618
 6148SOL    HW219344   4.020   5.367   6.690
 6149SOL     OW19345   1.780   6.795   1.832
 6149SOL    HW119346   1.852   6.728   1.810
 6149SOL    HW219347   1.777   6.864   1.760
 6150SOL     OW19348   5.875   4.157   6.740
 6150SOL    HW119349   5.862   4.090   6.813
 6150SOL    HW219350   5.838   4.120   6.655
 6151SOL     OW19351   5.138   4.900   4.205
 6151SOL    HW119352   5.075   4.833   4.243
 6151SOL    HW219353   5.230   4.860   4.199
 6152SOL     OW19354   0.746   5.647   4.638
 6152SOL    HW119355   0.751   5.636   4.539
 6152SOL    HW219356   0.748   5.745   4.661
 6153SOL     OW19357   4.841   5.228   1.055
 6153SOL    HW119358   4.907   5.152   1.059
 6153SOL    HW219359   4.765   5.203   0.995
 6154SOL     OW19360   5.548   3.472   2.872
 6154SOL    HW119361   5.601   3.453   2.790
 6154SOL    HW219362   5.531   3.387   2.922
 6155SOL     OW19363   3.009   0.771   2.841
 6155SOL    HW119364   3.042   0.746   2.750
 6155SOL    HW219365   2.952   0.853   2.834
 6156SOL     OW19366   5.130   3.964   1.835
 6156SOL    HW119367   5.118   3.902   1.913
 6156SOL    HW219368   5.206   4.025   1.853
 6157SOL     OW19369   0.578   2.252   3.179
 6157SOL    HW119370   0.513   2.200   3.123
 6157SOL    HW219371   0.548   2.347   3.185
 6158SOL     OW19372   2.924   2.022   0.118
 6158SOL    HW119373   2.934   1.929   0.084
 6158SOL    HW219374   2.976   2.085   0.061
 6159SOL     OW19375   5.456   3.336   0.672
 6159SOL    HW119376   5.544   3.294   0.650
 6159SOL    HW219377   5.423   3.301   0.760
 6160SOL     OW19378   0.093   6.707   0.010
 6160SOL    HW119379   0.037   6.725   6.953
 6160SOL    HW219380   0.034   6.675   0.084
 6161SOL     OW19381   5.035   1.508   0.030
 6161SOL    HW119382   5.057   1.460   0.115
 6161SOL    HW219383   5.014   1.603   0.050
 6162SOL     OW19384   6.054   6.724   3.823
 6162SOL    HW119385   6.125   6.682   3.879
 6162SOL    HW219386   6.082   6.817   3.798
 6163SOL     OW19387   5.665   5.805   2.418
 6163SOL    HW119388   5.709   5.766   2.499
 6163SOL    HW219389   5.700   5.897   2.402
 6164SOL     OW19390   3.628   3.774   4.538
 6164SOL    HW119391   3.659   3.852   4.593
 6164SOL    HW219392   3.660   3.689   4.580
 6165SOL     OW19393   4.007   2.124   6.008
 6165SOL    HW119394   3.986   2.213   6.048
 6165SOL    HW219395   3.936   2.059   6.034
 6166SOL     OW19396   6.378   1.803   0.293
 6166SOL    HW119397   6.353   1.888   0.248
 6166SOL    HW219398   6.300   1.766   0.342
 6167SOL     OW19399   0.967   4.433   3.088
 6167SOL    HW119400   0.874   4.396   3.087
 6167SOL    HW219401   0.964   4.531   3.071
 6168SOL     OW19402   0.283   2.441   3.408
 6168SOL    HW119403   0.310   2.536   3.390
 6168SOL    HW219404   0.336   2.405   3.484
 6169SOL     OW19405   0.624   1.192   6.361
 6169SOL    HW119406   0.563   1.133   6.308
 6169SOL    HW219407   0.717   1.186   6.323
 6170SOL     OW19408   3.450   4.469   6.186
 6170SOL    HW119409   3.382   4.405   6.221
 6170SOL    HW219410   3.526   4.476   6.251
 6171SOL     OW19411   1.452   3.724   1.933
 6171SOL    HW119412   1.405   3.648   1.889
 6171SOL    HW219413   1.520   3.762   1.871
 6172SOL     OW19414   0.241   0.490   2.614
 6172SOL    HW119415   0.321   0.478   2.555
 6172SOL    HW219416   0.158   0.486   2.559
 6173SOL     OW19417   0.068   5.205   2.605
 6173SOL    HW119418   7.003   5.230   2.569
 6173SOL    HW219419   0.056   5.147   2.686
 6174SOL     OW19420   5.735   4.816   2.974
 6174SOL    HW119421   5.681   4.886   3.020
 6174SOL    HW219422   5.830   4.847   2.966
 6175SOL     OW19423   5.359   0.293   3.039
 6175SOL    HW119424   5.308   0.361   3.092
 6175SOL    HW219425   5.453   0.288   3.074
 6176SOL     OW19426   6.289   2.983   6.801
 6176SOL    HW119427   6.371   2.996   6.746
 6176SOL    HW219428   6.311   2.927   6.881
 6177SOL     OW19429   5.428   1.865   1.229
 6177SOL    HW119430   5.336   1.902   1.227
 6177SOL    HW219431   5.447   1.819   1.142
 6178SOL     OW19432   5.083   5.505   1.718
 6178SOL    HW119433   5.061   5.412   1.690
 6178SOL    HW219434   5.103   5.507   1.815
 6179SOL     OW19435   0.143   3.853   4.929
 6179SOL    HW119436   0.185   3.912   4.860
 6179SOL    HW219437   0.183   3.872   5.019
 6180SOL     OW19438   3.058   6.751   6.107
 6180SOL    HW119439   3.094   6.777   6.017
 6180SOL    HW219440   3.096   6.662   6.134
 6181SOL     OW19441   4.991   6.712   0.576
 6181SOL    HW119442   5.052   6.701   0.655
 6181SOL    HW219443   4.950   6.624   0.554
 6182SOL     OW19444   5.341   4.806   5.627
 6182SOL    HW119445   5.306   4.789   5.535
 6182SOL    HW219446   5.274   4.772   5.695
 6183SOL     OW19447   2.315   0.266   2.759
 6183SOL    HW119448   2.307   0.364   2.740
 6183SOL    HW219449   2.405   0.246   2.797
 6184SOL     OW19450   1.839   6.648   5.640
 6184SOL    HW119451   1.774   6.663   5.714
 6184SOL    HW219452   1.910   6.584   5.670
 6185SOL     OW19453   1.774   3.916   7.014
 6185SOL    HW119454   1.691   3.879   0.031
 6185SOL    HW219455   1.843   3.844   7.007
 6186SOL     OW19456   5.883   0.296   4.061
 6186SOL    HW119457   5.858   0.354   3.983
 6186SOL    HW219458   5.834   0.210   4.055
 6187SOL     OW19459   4.879   4.425   4.105
 6187SOL    HW119460   4.934   4.488   4.051
 6187SOL    HW219461   4.834   4.358   4.045
 6188SOL     OW19462   2.608   5.987   1.331
 6188SOL    HW119463   2.635   6.047   1.256
 6188SOL    HW219464   2.553   5.911   1.295
 6189SOL     OW19465   4.389   4.694   3.980
 6189SOL    HW119466   4.378   4.684   3.881
 6189SOL    HW219467   4.409   4.605   4.021
 6190SOL     OW19468   6.020   3.618   5.937
 6190SOL    HW119469   6.060   3.537   5.979
 6190SOL    HW219470   6.021   3.609   5.837
 6191SOL     OW19471   4.690   2.791   0.639
 6191SOL    HW119472   4.657   2.784   0.733
 6191SOL    HW219473   4.711   2.699   0.605
 6192SOL     OW19474   3.954   3.480   0.370
 6192SOL    HW119475   3.933   3.397   0.422
 6192SOL    HW219476   3.871   3.536   0.360
 6193SOL     OW19477   3.974   0.750   2.497
 6193SOL    HW119478   3.937   0.808   2.569
 6193SOL    HW219479   3.912   0.673   2.480
 6194SOL     OW19480   1.871   6.539   0.032
 6194SOL    HW119481   1.938   6.466   0.023
 6194SOL    HW219482   1.897   6.616   6.998
 6195SOL     OW19483   3.664   5.498   5.338
 6195SOL    HW119484   3.627   5.416   5.292
 6195SOL    HW219485   3.760   5.482   5.360
 6196SOL     OW19486   6.174   2.254   0.835
 6196SOL    HW119487   6.241   2.236   0.907
 6196SOL    HW219488   6.209   2.327   0.775
 6197SOL     OW19489   4.761   3.464   0.502
 6197SOL    HW119490   4.765   3.399   0.426
 6197SOL    HW219491   4.757   3.415   0.589
 6198SOL     OW19492   3.341   5.520   2.572
 6198SOL    HW119493   3.383   5.519   2.663
 6198SOL    HW219494   3.260   5.461   2.572
 6199SOL     OW19495   0.062   0.200   1.559
 6199SOL    HW119496   0.096   0.193   1.653
 6199SOL    HW219497   0.125   0.153   1.497
 6200SOL     OW19498   2.492   1.157   5.703
 6200SOL    HW119499   2.506   1.254   5.684
 6200SOL    HW219500   2.428   1.119   5.636
 6201SOL     OW19501   2.307   3.724   5.879
 6201SOL    HW119502   2.320   3.651   5.812
 6201SOL    HW219503   2.266   3.803   5.835
 6202SOL     OW19504   3.820   1.838   1.526
 6202SOL    HW119505   3.809   1.794   1.437
 6202SOL    HW219506   3.749   1.804   1.588
 6203SOL     OW19507   5.055   0.350   3.919
 6203SOL    HW119508   5.089   0.257   3.930
 6203SOL    HW219509   5.123   0.405   3.870
 6204SOL     OW19510   0.845   4.824   5.150
 6204SOL    HW119511   0.913   4.886   5.112
 6204SOL    HW219512   0.754   4.867   5.145
 6205SOL     OW19513   5.706   6.798   6.633
 6205SOL    HW119514   5.616   6.842   6.633
 6205SOL    HW219515   5.728   6.767   6.726
 6206SOL     OW19516   6.420   0.255   2.811
 6206SOL    HW119517   6.403   0.298   2.722
 6206SOL    HW219518   6.362   0.175   2.821
 6207SOL     OW19519   1.739   3.938   5.021
 6207SOL    HW119520   1.737   3.843   5.054
 6207SOL    HW219521   1.701   3.998   5.090
 6208SOL     OW19522   6.332   0.180   6.387
 6208SOL    HW119523   6.356   0.199   6.291
 6208SOL    HW219524   6.335   0.265   6.439
 6209SOL     OW19525   4.615   5.756   6.669
 6209SOL    HW119526   4.581   5.683   6.609
 6209SOL    HW219527   4.709   5.737   6.695
 6210SOL     OW19528   5.394   4.552   3.437
 6210SOL    HW119529   5.383   4.638   3.386
 6210SOL    HW219530   5.311   4.498   3.430
 6211SOL     OW19531   3.075   6.379   4.937
 6211SOL    HW119532   3.034   6.317   4.870
 6211SOL    HW219533   3.030   6.468   4.932
 6212SOL     OW19534   0.937   5.335   3.200
 6212SOL    HW119535   0.912   5.248   3.156
 6212SOL    HW219536   0.889   5.343   3.287
 6213SOL     OW19537   5.104   0.033   6.232
 6213SOL    HW119538   5.135   0.124   6.204
 6213SOL    HW219539   5.062   7.010   6.154
 6214SOL     OW19540   6.197   5.146   3.472
 6214SOL    HW119541   6.173   5.056   3.435
 6214SOL    HW219542   6.284   5.139   3.521
 6215SOL     OW19543   3.380   1.513   6.830
 6215SOL    HW119544   3.314   1.474   6.895
 6215SOL    HW219545   3.456   1.449   6.819
 6216SOL     OW19546   6.412   2.535   2.366
 6216SOL    HW119547   6.477   2.581   2.305
 6216SOL    HW219548   6.406   2.585   2.452
 6217SOL     OW19549   6.244   2.875   2.160
 6217SOL    HW119550   6.284   2.842   2.245
 6217SOL    HW219551   6.276   2.968   2.142
 6218SOL     OW19552   3.514   5.295   4.381
 6218SOL    HW119553   3.529   5.355   4.460
 6218SOL    HW219554   3.417   5.289   4.362
 6219SOL     OW19555   0.429   1.378   4.563
 6219SOL    HW119556   0.456   1.418   4.650
 6219SOL    HW219557   0.383   1.447   4.507
 6220SOL     OW19558   1.382   4.110   5.760
 6220SOL    HW119559   1.310   4.090   5.826
 6220SOL    HW219560   1.404   4.027   5.708
 6221SOL     OW19561   6.192   5.295   5.732
 6221SOL    HW119562   6.139   5.275   5.650
 6221SOL    HW219563   6.133   5.291   5.812
 6222SOL     OW19564   0.744   6.645   1.320
 6222SOL    HW119565   0.690   6.579   1.268
 6222SOL    HW219566   0.736   6.625   1.418
 6223SOL     OW19567   0.120   3.608   4.535
 6223SOL    HW119568   0.051   3.618   4.464
 6223SOL    HW219569   0.164   3.519   4.527
 6224SOL     OW19570   1.771   2.087   6.119
 6224SOL    HW119571   1.778   2.130   6.210
 6224SOL    HW219572   1.697   2.131   6.068
 6225SOL     OW19573   2.795   3.138   1.255
 6225SOL    HW119574   2.853   3.124   1.335
 6225SOL    HW219575   2.829   3.083   1.179
 6226SOL     OW19576   5.389   1.968   4.398
 6226SOL    HW119577   5.427   1.904   4.331
 6226SOL    HW219578   5.308   2.012   4.360
 6227SOL     OW19579   3.788   5.224   6.484
 6227SOL    HW119580   3.785   5.131   6.446
 6227SOL    HW219581   3.826   5.286   6.416
 6228SOL     OW19582   0.054   2.472   2.261
 6228SOL    HW119583   0.029   2.565   2.290
 6228SOL    HW219584   0.144   2.449   2.298
 6229SOL     OW19585   0.941   2.845   2.381
 6229SOL    HW119586   0.872   2.796   2.434
 6229SOL    HW219587   0.943   2.808   2.288
 6230SOL     OW19588   1.290   1.056   4.444
 6230SOL    HW119589   1.267   0.962   4.466
 6230SOL    HW219590   1.338   1.098   4.521
 6231SOL     OW19591   6.603   4.530   1.693
 6231SOL    HW119592   6.539   4.471   1.644
 6231SOL    HW219593   6.697   4.504   1.669
 6232SOL     OW19594   6.287   1.684   0.994
 6232SOL    HW119595   6.297   1.718   0.900
 6232SOL    HW219596   6.193   1.654   1.008
 6233SOL     OW19597   5.149   1.213   0.131
 6233SOL    HW119598   5.062   1.180   0.167
 6233SOL    HW219599   5.219   1.143   0.143
 6234SOL     OW19600   6.915   0.951   5.810
 6234SOL    HW119601   6.919   0.981   5.715
 6234SOL    HW219602   6.823   0.967   5.846
 6235SOL     OW19603   1.393   0.165   2.186
 6235SOL    HW119604   1.442   0.077   2.188
 6235SOL    HW219605   1.431   0.226   2.256
 6236SOL     OW19606   0.932   5.237   0.029
 6236SOL    HW119607   0.884   5.305   0.083
 6236SOL    HW219608   0.883   5.150   0.033
 6237SOL     OW19609   3.681   6.461   0.726
 6237SOL    HW119610   3.772   6.432   0.696
 6237SOL    HW219611   3.683   6.558   0.749
 6238SOL     OW19612   4.596   4.668   3.427
 6238SOL    HW119613   4.626   4.763   3.416
 6238SOL    HW219614   4.512   4.653   3.375
 6239SOL     OW19615   2.872   6.663   1.588
 6239SOL    HW119616   2.816   6.738   1.622
 6239SOL    HW219617   2.943   6.640   1.655
 6240SOL     OW19618   3.216   2.445   0.178
 6240SOL    HW119619   3.315   2.452   0.176
 6240SOL    HW219620   3.187   2.355   0.145
 6241SOL     OW19621   2.398   0.966   2.713
 6241SOL    HW119622   2.440   0.887   2.757
 6241SOL    HW219623   2.304   0.976   2.745
 6242SOL     OW19624   5.380   0.961   3.608
 6242SOL    HW119625   5.396   1.059   3.619
 6242SOL    HW219626   5.299   0.934   3.659
 6243SOL     OW19627   5.443   6.829   3.185
 6243SOL    HW119628   5.433   6.928   3.197
 6243SOL    HW219629   5.412   6.783   3.269
 6244SOL     OW19630   1.797   2.166   1.958
 6244SOL    HW119631   1.775   2.156   1.861
 6244SOL    HW219632   1.896   2.163   1.970
 6245SOL     OW19633   2.757   4.562   1.350
 6245SOL    HW119634   2.801   4.557   1.440
 6245SOL    HW219635   2.709   4.649   1.342
 6246SOL     OW19636   2.625   3.080   6.396
 6246SOL    HW119637   2.640   3.173   6.431
 6246SOL    HW219638   2.610   3.018   6.473
 6247SOL     OW19639   0.645   6.365   3.117
 6247SOL    HW119640   0.551   6.340   3.142
 6247SOL    HW219641   0.702   6.367   3.199
 6248SOL     OW19642   2.151   3.836   0.981
 6248SOL    HW119643   2.169   3.929   1.012
 6248SOL    HW219644   2.134   3.778   1.061
 6249SOL     OW19645   0.639   4.613   0.227
 6249SOL    HW119646   0.650   4.658   0.138
 6249SOL    HW219647   0.544   4.583   0.237
 6250SOL     OW19648   6.213   5.838   0.388
 6250SOL    HW119649   6.141   5.783   0.431
 6250SOL    HW219650   6.295   5.835   0.445
 6251SOL     OW19651   3.732   6.802   0.258
 6251SOL    HW119652   3.781   6.744   0.323
 6251SOL    HW219653   3.713   6.750   0.175
 6252SOL     OW19654   1.780   6.700   4.600
 6252SOL    HW119655   1.809   6.794   4.619
 6252SOL    HW219656   1.781   6.685   4.501
 6253SOL     OW19657   2.213   4.022   2.505
 6253SOL    HW119658   2.229   4.028   2.407
 6253SOL    HW219659   2.127   3.973   2.522
 6254SOL     OW19660   5.463   1.033   0.509
 6254SOL    HW119661   5.553   1.023   0.467
 6254SOL    HW219662   5.397   0.975   0.461
 6255SOL     OW19663   2.003   0.565   1.207
 6255SOL    HW119664   1.917   0.541   1.163
 6255SOL    HW219665   1.984   0.613   1.293
 6256SOL     OW19666   3.590   4.926   3.240
 6256SOL    HW119667   3.620   4.935   3.335
 6256SOL    HW219668   3.660   4.965   3.180
 6257SOL     OW19669   5.712   2.239   1.066
 6257SOL    HW119670   5.792   2.215   1.011
 6257SOL    HW219671   5.728   2.212   1.161
 6258SOL     OW19672   4.293   6.974   3.566
 6258SOL    HW119673   4.242   6.896   3.531
 6258SOL    HW219674   4.342   7.018   3.491
 6259SOL     OW19675   2.840   1.808   1.051
 6259SOL    HW119676   2.905   1.833   1.122
 6259SOL    HW219677   2.876   1.834   0.961
 6260SOL     OW19678   2.571   4.382   0.008
 6260SOL    HW119679   2.503   4.338   0.067
 6260SOL    HW219680   2.604   4.315   6.965
 6261SOL     OW19681   2.805   0.058   6.349
 6261SOL    HW119682   2.831   0.143   6.394
 6261SOL    HW219683   2.824   0.066   6.251
 6262SOL     OW19684   1.810   4.210   1.171
 6262SOL    HW119685   1.786   4.177   1.262
 6262SOL    HW219686   1.758   4.293   1.150
 6263SOL     OW19687   0.551   0.514   5.672
 6263SOL    HW119688   0.462   0.470   5.683
 6263SOL    HW219689   0.568   0.575   5.749
 6264SOL     OW19690   1.387   6.656   0.675
 6264SOL    HW119691   1.442   6.681   0.595
 6264SOL    HW219692   1.448   6.645   0.754
 6265SOL     OW19693   3.384   3.981   1.234
 6265SOL    HW119694   3.344   3.942   1.151
 6265SOL    HW219695   3.388   3.910   1.305
 6266SOL     OW19696   4.426   0.748   4.579
 6266SOL    HW119697   4.511   0.795   4.602
 6266SOL    HW219698   4.447   0.657   4.542
 6267SOL     OW19699   3.590   0.310   0.112
 6267SOL    HW119700   3.509   0.319   0.170
 6267SOL    HW219701   3.571   0.247   0.037
 6268SOL     OW19702   3.248   6.427   2.712
 6268SOL    HW119703   3.194   6.439   2.629
 6268SOL    HW219704   3.339   6.468   2.699
 6269SOL     OW19705   6.570   5.871   2.518
 6269SOL    HW119706   6.565   5.779   2.557
 6269SOL    HW219707   6.524   5.935   2.579
 6270SOL     OW19708   1.880   0.451   4.852
 6270SOL    HW119709   1.919   0.462   4.944
 6270SOL    HW219710   1.808   0.520   4.838
 6271SOL     OW19711   6.201   2.251   5.448
 6271SOL    HW119712   6.224   2.154   5.446
 6271SOL    HW219713   6.281   2.305   5.420
 6272SOL     OW19714   0.910   2.841   5.570
 6272SOL    HW119715   0.912   2.921   5.630
 6272SOL    HW219716   0.995   2.837   5.517
 6273SOL     OW19717   1.710   0.490   2.702
 6273SOL    HW119718   1.736   0.550   2.627
 6273SOL    HW219719   1.778   0.417   2.712
 6274SOL     OW19720   2.525   5.695   5.929
 6274SOL    HW119721   2.471   5.754   5.870
 6274SOL    HW219722   2.504   5.599   5.909
 6275SOL     OW19723   2.208   6.444   5.068
 6275SOL    HW119724   2.275   6.370   5.058
 6275SOL    HW219725   2.137   6.434   4.998
 6276SOL     OW19726   1.248   5.189   3.822
 6276SOL    HW119727   1.282   5.262   3.882
 6276SOL    HW219728   1.263   5.100   3.866
 6277SOL     OW19729   5.529   3.201   2.124
 6277SOL    HW119730   5.431   3.209   2.105
 6277SOL    HW219731   5.566   3.124   2.072
 6278SOL     OW19732   4.783   0.200   4.886
 6278SOL    HW119733   4.784   0.295   4.856
 6278SOL    HW219734   4.821   0.193   4.978
 6279SOL     OW19735   3.738   0.947   6.447
 6279SOL    HW119736   3.819   0.898   6.479
 6279SOL    HW219737   3.694   0.894   6.375
 6280SOL     OW19738   0.183   2.306   6.103
 6280SOL    HW119739   0.223   2.383   6.152
 6280SOL    HW219740   0.202   2.221   6.152
 6281SOL     OW19741   1.896   5.912   4.968
 6281SOL    HW119742   1.887   6.011   4.967
 6281SOL    HW219743   1.925   5.881   5.058
 6282SOL     OW19744   1.228   0.328   4.869
 6282SOL    HW119745   1.163   0.325   4.792
 6282SOL    HW219746   1.265   0.421   4.877
 6283SOL     OW19747   6.121   3.132   5.020
 6283SOL    HW119748   6.077   3.212   4.979
 6283SOL    HW219749   6.134   3.061   4.950
 6284SOL     OW19750   2.144   5.779   4.809
 6284SOL    HW119751   2.078   5.833   4.861
 6284SOL    HW219752   2.122   5.784   4.712
 6285SOL     OW19753   1.587   2.844   3.770
 6285SOL    HW119754   1.671   2.832   3.822
 6285SOL    HW219755   1.509   2.849   3.832
 6286SOL     OW19756   6.147   2.261   4.222
 6286SOL    HW119757   6.203   2.262   4.304
 6286SOL    HW219758   6.174   2.183   4.164
 6287SOL     OW19759   4.160   4.742   3.072
 6287SOL    HW119760   4.184   4.747   2.975
 6287SOL    HW219761   4.125   4.650   3.093
 6288SOL     OW19762   5.815   4.481   2.163
 6288SOL    HW119763   5.836   4.388   2.134
 6288SOL    HW219764   5.735   4.514   2.111
 6289SOL     OW19765   1.300   4.092   2.721
 6289SOL    HW119766   1.303   4.185   2.685
 6289SOL    HW219767   1.377   4.039   2.683
 6290SOL     OW19768   6.018   3.934   4.281
 6290SOL    HW119769   6.050   3.862   4.342
 6290SOL    HW219770   5.942   3.983   4.324
 6291SOL     OW19771   3.583   3.090   3.225
 6291SOL    HW119772   3.579   3.090   3.125
 6291SOL    HW219773   3.662   3.036   3.255
 6292SOL     OW19774   0.706   2.565   3.388
 6292SOL    HW119775   0.774   2.601   3.452
 6292SOL    HW219776   0.749   2.496   3.330
 6293SOL     OW19777   4.336   6.932   6.840
 6293SOL    HW119778   4.332   6.997   6.765
 6293SOL    HW219779   4.425   6.886   6.840
 6294SOL     OW19780   3.413   4.874   3.890
 6294SOL    HW119781   3.415   4.909   3.984
 6294SOL    HW219782   3.506   4.859   3.858
 6295SOL     OW19783   5.131   4.922   5.428
 6295SOL    HW119784   5.168   5.008   5.392
 6295SOL    HW219785   5.184   4.845   5.392
 6296SOL     OW19786   6.687   6.488   4.593
 6296SOL    HW119787   6.768   6.431   4.606
 6296SOL    HW219788   6.650   6.514   4.682
 6297SOL     OW19789   5.053   6.854   5.118
 6297SOL    HW119790   4.968   6.892   5.082
 6297SOL    HW219791   5.131   6.895   5.071
 6298SOL     OW19792   1.548   2.447   5.739
 6298SOL    HW119793   1.487   2.368   5.741
 6298SOL    HW219794   1.495   2.530   5.724
 6299SOL     OW19795   4.889   2.016   0.407
 6299SOL    HW119796   4.901   2.112   0.383
 6299SOL    HW219797   4.955   1.991   0.478
 6300SOL     OW19798   5.058   1.361   4.942
 6300SOL    HW119799   4.997   1.439   4.923
 6300SOL    HW219800   5.087   1.365   5.038
 6301SOL     OW19801   2.678   0.456   1.065
 6301SOL    HW119802   2.778   0.459   1.067
 6301SOL    HW219803   2.642   0.475   1.157
 6302SOL     OW19804   1.525   1.798   4.484
 6302SOL    HW119805   1.434   1.768   4.513
 6302SOL    HW219806   1.566   1.852   4.558
 6303SOL     OW19807   2.503   0.924   4.454
 6303SOL    HW119808   2.551   0.860   4.513
 6303SOL    HW219809   2.497   1.013   4.499
 6304SOL     OW19810   1.987   1.239   0.955
 6304SOL    HW119811   2.070   1.234   1.012
 6304SOL    HW219812   1.908   1.209   1.009
 6305SOL     OW19813   6.554   6.807   0.657
 6305SOL    HW119814   6.646   6.825   0.621
 6305SOL    HW219815   6.560   6.737   0.729
 6306SOL     OW19816   1.207   4.125   4.310
 6306SOL    HW119817   1.108   4.113   4.310
 6306SOL    HW219818   1.251   4.039   4.337
 6307SOL     OW19819   4.229   4.032   5.611
 6307SOL    HW119820   4.301   4.088   5.571
 6307SOL    HW219821   4.252   3.935   5.599
 6308SOL     OW19822   1.501   2.028   5.012
 6308SOL    HW119823   1.499   2.077   5.099
 6308SOL    HW219824   1.591   1.988   4.999
 6309SOL     OW19825   4.888   3.663   4.379
 6309SOL    HW119826   4.812   3.726   4.397
 6309SOL    HW219827   4.891   3.640   4.282
 6310SOL     OW19828   1.951   5.254   4.339
 6310SOL    HW119829   1.986   5.344   4.365
 6310SOL    HW219830   1.852   5.260   4.322
 6311SOL     OW19831   5.926   0.393   5.462
 6311SOL    HW119832   5.882   0.483   5.453
 6311SOL    HW219833   5.873   0.325   5.413
 6312SOL     OW19834   5.728   5.073   5.673
 6312SOL    HW119835   5.827   5.071   5.688
 6312SOL    HW219836   5.688   4.986   5.701
 6313SOL     OW19837   1.415   6.184   3.226
 6313SOL    HW119838   1.416   6.279   3.194
 6313SOL    HW219839   1.387   6.125   3.151
 6314SOL     OW19840   4.291   6.806   1.724
 6314SOL    HW119841   4.335   6.717   1.714
 6314SOL    HW219842   4.279   6.848   1.634
 6315SOL     OW19843   3.909   2.943   6.711
 6315SOL    HW119844   3.874   2.917   6.801
 6315SOL    HW219845   3.896   2.868   6.647
 6316SOL     OW19846   4.673   2.408   6.261
 6316SOL    HW119847   4.584   2.368   6.282
 6316SOL    HW219848   4.678   2.500   6.299
 6317SOL     OW19849   5.318   5.237   3.519
 6317SOL    HW119850   5.277   5.328   3.517
 6317SOL    HW219851   5.408   5.240   3.475
 6318SOL     OW19852   2.755   1.878   5.080
 6318SOL    HW119853   2.753   1.806   5.150
 6318SOL    HW219854   2.847   1.916   5.074
 6319SOL     OW19855   0.003   2.422   3.114
 6319SOL    HW119856   0.099   2.409   3.090
 6319SOL    HW219857   7.018   2.426   3.214
 6320SOL     OW19858   6.161   5.030   4.242
 6320SOL    HW119859   6.189   4.936   4.220
 6320SOL    HW219860   6.095   5.028   4.317
 6321SOL     OW19861   3.262   5.263   0.866
 6321SOL    HW119862   3.344   5.235   0.816
 6321SOL    HW219863   3.239   5.193   0.934
 6322SOL     OW19864   1.605   2.322   6.408
 6322SOL    HW119865   1.540   2.398   6.413
 6322SOL    HW219866   1.642   2.302   6.499
 6323SOL     OW19867   3.454   2.667   1.107
 6323SOL    HW119868   3.548   2.637   1.126
 6323SOL    HW219869   3.427   2.634   1.016
 6324SOL     OW19870   4.720   0.556   6.125
 6324SOL    HW119871   4.776   0.475   6.146
 6324SOL    HW219872   4.778   0.627   6.086
 6325SOL     OW19873   1.129   1.874   2.268
 6325SOL    HW119874   1.186   1.844   2.344
 6325SOL    HW219875   1.187   1.889   2.188
 6326SOL     OW19876   5.126   6.197   1.506
 6326SOL    HW119877   5.122   6.121   1.441
 6326SOL    HW219878   5.218   6.202   1.545
 6327SOL     OW19879   6.977   0.383   5.527
 6327SOL    HW119880   6.912   0.426   5.465
 6327SOL    HW219881   6.945   0.291   5.549
 6328SOL     OW19882   1.646   3.514   0.480
 6328SOL    HW119883   1.682   3.605   0.501
 6328SOL    HW219884   1.708   3.445   0.516
 6329SOL     OW19885   1.981   2.824   3.194
 6329SOL    HW119886   2.021   2.915   3.189
 6329SOL    HW219887   2.052   2.756   3.211
 6330SOL     OW19888   4.698   0.967   1.604
 6330SOL    HW119889   4.621   0.938   1.660
 6330SOL    HW219890   4.782   0.926   1.640
 6331SOL     OW19891   5.645   2.086   0.209
 6331SOL    HW119892   5.637   2.176   0.252
 6331SOL    HW219893   5.556   2.040   0.214
 6332SOL     OW19894   6.921   4.183   2.345
 6332SOL    HW119895   7.012   4.153   2.376
 6332SOL    HW219896   6.902   4.143   2.256
 6333SOL     OW19897   3.775   4.855   4.184
 6333SOL    HW119898   3.785   4.770   4.132
 6333SOL    HW219899   3.739   4.926   4.124
 6334SOL     OW19900   2.322   0.611   2.439
 6334SOL    HW119901   2.394   0.680   2.438
 6334SOL    HW219902   2.254   0.632   2.368
 6335SOL     OW19903   4.857   1.627   0.655
 6335SOL    HW119904   4.759   1.647   0.647
 6335SOL    HW219905   4.869   1.530   0.677
 6336SOL     OW19906   6.972   1.623   6.023
 6336SOL    HW119907   6.980   1.524   6.007
 6336SOL    HW219908   6.938   1.666   5.939
 6337SOL     OW19909   4.893   3.911   6.504
 6337SOL    HW119910   4.833   3.953   6.436
 6337SOL    HW219911   4.976   3.966   6.512
 6338SOL     OW19912   2.777   2.312   2.688
 6338SOL    HW119913   2.796   2.286   2.593
 6338SOL    HW219914   2.679   2.313   2.704
 6339SOL     OW19915   0.367   2.908   3.979
 6339SOL    HW119916   0.323   2.818   3.979
 6339SOL    HW219917   0.311   2.972   3.926
 6340SOL     OW19918   2.123   5.215   3.140
 6340SOL    HW119919   2.048   5.160   3.179
 6340SOL    HW219920   2.187   5.239   3.212
 6341SOL     OW19921   0.817   4.660   3.060
 6341SOL    HW119922   0.725   4.637   3.030
 6341SOL    HW219923   0.813   4.738   3.123
 6342SOL     OW19924   2.864   1.376   1.554
 6342SOL    HW119925   2.852   1.457   1.496
 6342SOL    HW219926   2.831   1.395   1.646
 6343SOL     OW19927   5.117   2.841   6.521
 6343SOL    HW119928   5.141   2.751   6.558
 6343SOL    HW219929   5.117   2.909   6.595
 6344SOL     OW19930   6.086   3.659   5.655
 6344SOL    HW119931   6.038   3.613   5.581
 6344SOL    HW219932   6.185   3.648   5.642
 6345SOL     OW19933   4.472   1.389   2.172
 6345SOL    HW119934   4.394   1.345   2.127
 6345SOL    HW219935   4.441   1.433   2.256
 6346SOL     OW19936   6.932   3.585   3.285
 6346SOL    HW119937   7.008   3.546   3.337
 6346SOL    HW219938   6.913   3.677   3.317
 6347SOL     OW19939   2.558   0.493   1.303
 6347SOL    HW119940   2.581   0.438   1.384
 6347SOL    HW219941   2.472   0.541   1.320
 6348SOL     OW19942   1.283   3.823   5.295
 6348SOL    HW119943   1.213   3.763   5.255
 6348SOL    HW219944   1.373   3.799   5.259
 6349SOL     OW19945   2.928   0.408   1.342
 6349SOL    HW119946   2.868   0.328   1.331
 6349SOL    HW219947   2.985   0.417   1.260
 6350SOL     OW19948   2.477   4.925   4.052
 6350SOL    HW119949   2.574   4.945   4.067
 6350SOL    HW219950   2.439   4.880   4.133
 6351SOL     OW19951   6.778   3.318   2.446
 6351SOL    HW119952   6.761   3.386   2.517
 6351SOL    HW219953   6.767   3.359   2.356
 6352SOL     OW19954   1.826   5.224   4.682
 6352SOL    HW119955   1.809   5.186   4.773
 6352SOL    HW219956   1.878   5.309   4.690
 6353SOL     OW19957   6.187   0.750   5.876
 6353SOL    HW119958   6.208   0.795   5.963
 6353SOL    HW219959   6.268   0.700   5.844
 6354SOL     OW19960   1.138   0.235   2.608
 6354SOL    HW119961   1.118   0.200   2.517
 6354SOL    HW219962   1.149   0.334   2.604
 6355SOL     OW19963   1.306   4.571   5.692
 6355SOL    HW119964   1.403   4.593   5.679
 6355SOL    HW219965   1.261   4.643   5.744
 6356SOL     OW19966   4.402   4.814   2.067
 6356SOL    HW119967   4.435   4.909   2.057
 6356SOL    HW219968   4.453   4.769   2.140
 6357SOL     OW19969   4.901   2.763   1.624
 6357SOL    HW119970   4.802   2.754   1.639
 6357SOL    HW219971   4.949   2.740   1.708
 6358SOL     OW19972   0.548   2.301   5.843
 6358SOL    HW119973   0.617   2.290   5.772
 6358SOL    HW219974   0.541   2.216   5.896
 6359SOL     OW19975   5.981   6.880   5.808
 6359SOL    HW119976   5.970   6.952   5.740
 6359SOL    HW219977   5.895   6.869   5.859
 6360SOL     OW19978   2.322   4.259   4.063
 6360SOL    HW119979   2.292   4.219   3.977
 6360SOL    HW219980   2.243   4.295   4.113
 6361SOL     OW19981   5.845   0.513   0.291
 6361SOL    HW119982   5.755   0.481   0.262
 6361SOL    HW219983   5.876   0.586   0.231
 6362SOL     OW19984   5.768   5.200   6.415
 6362SOL    HW119985   5.856   5.154   6.429
 6362SOL    HW219986   5.775   5.295   6.445
 6363SOL     OW19987   2.456   4.927   3.136
 6363SOL    HW119988   2.397   4.948   3.214
 6363SOL    HW219989   2.549   4.910   3.169
 6364SOL     OW19990   3.178   0.947   5.553
 6364SOL    HW119991   3.145   0.886   5.481
 6364SOL    HW219992   3.103   0.970   5.614
 6365SOL     OW19993   4.716   6.769   4.276
 6365SOL    HW119994   4.693   6.816   4.191
 6365SOL    HW219995   4.765   6.832   4.336
 6366SOL     OW19996   0.135   6.094   6.544
 6366SOL    HW119997   0.103   6.189   6.534
 6366SOL    HW219998   0.182   6.067   6.460
 6367SOL     OW19999   3.772   0.508   4.092
 6367SOL    HW120000   3.677   0.507   4.121
 6367SOL    HW220001   3.822   0.435   4.138
 6368SOL     OW20002   3.386   0.519   3.431
 6368SOL    HW120003   3.324   0.587   3.472
 6368SOL    HW220004   3.341   0.476   3.353
 6369SOL     OW20005   2.682   5.244   4.761
 6369SOL    HW120006   2.601   5.204   4.717
 6369SOL    HW220007   2.718   5.180   4.829
 6370SOL     OW20008   1.212   3.119   2.499
 6370SOL    HW120009   1.136   3.184   2.499
 6370SOL    HW220010   1.292   3.160   2.457
 6371SOL     OW20011   4.917   3.222   4.042
 6371SOL    HW120012   4.958   3.131   4.048
 6371SOL    HW220013   4.984   3.287   4.008
 6372SOL     OW20014   3.340   6.775   1.793
 6372SOL    HW120015   3.397   6.820   1.724
 6372SOL    HW220016   3.245   6.802   1.780
 6373SOL     OW20017   6.192   4.091   4.156
 6373SOL    HW120018   6.146   4.179   4.169
 6373SOL    HW220019   6.141   4.019   4.201
 6374SOL     OW20020   3.941   3.808   4.274
 6374SOL    HW120021   3.892   3.875   4.330
 6374SOL    HW220022   3.960   3.848   4.184
 6375SOL     OW20023   0.560   1.807   3.945
 6375SOL    HW120024   0.607   1.761   4.020
 6375SOL    HW220025   0.462   1.808   3.962
 6376SOL     OW20026   6.527   2.461   5.610
 6376SOL    HW120027   6.496   2.440   5.517
 6376SOL    HW220028   6.459   2.428   5.676
 6377SOL     OW20029   6.728   1.595   6.145
 6377SOL    HW120030   6.828   1.601   6.143
 6377SOL    HW220031   6.690   1.675   6.192
 6378SOL     OW20032   5.655   4.788   3.904
 6378SOL    HW120033   5.602   4.765   3.823
 6378SOL    HW220034   5.738   4.837   3.877
 6379SOL     OW20035   2.133   4.684   4.384
 6379SOL    HW120036   2.152   4.605   4.327
 6379SOL    HW220037   2.043   4.722   4.360
 6380SOL     OW20038   1.013   1.453   5.539
 6380SOL    HW120039   1.010   1.535   5.482
 6380SOL    HW220040   0.966   1.471   5.625
 6381SOL     OW20041   3.473   3.334   2.998
 6381SOL    HW120042   3.493   3.294   2.908
 6381SOL    HW220043   3.388   3.295   3.034
 6382SOL     OW20044   1.301   2.648   0.287
 6382SOL    HW120045   1.378   2.584   0.288
 6382SOL    HW220046   1.326   2.731   0.338
 6383SOL     OW20047   2.262   2.403   2.530
 6383SOL    HW120048   2.194   2.475   2.539
 6383SOL    HW220049   2.354   2.440   2.547
 6384SOL     OW20050   5.685   4.690   1.541
 6384SOL    HW120051   5.624   4.659   1.469
 6384SOL    HW220052   5.716   4.783   1.522
 6385SOL     OW20053   6.984   5.136   4.239
 6385SOL    HW120054   0.059   5.131   4.247
 6385SOL    HW220055   6.947   5.046   4.215
 6386SOL     OW20056   2.561   4.117   6.673
 6386SOL    HW120057   2.534   4.207   6.638
 6386SOL    HW220058   2.557   4.050   6.599
 6387SOL     OW20059   0.506   1.771   6.744
 6387SOL    HW120060   0.534   1.675   6.744
 6387SOL    HW220061   0.561   1.822   6.810
 6388SOL     OW20062   4.396   4.463   1.792
 6388SOL    HW120063   4.425   4.376   1.830
 6388SOL    HW220064   4.409   4.535   1.860
 6389SOL     OW20065   0.417   6.027   2.416
 6389SOL    HW120066   0.341   5.978   2.372
 6389SOL    HW220067   0.423   6.119   2.378
 6390SOL     OW20068   1.090   2.544   4.312
 6390SOL    HW120069   1.047   2.486   4.380
 6390SOL    HW220070   1.171   2.498   4.275
 6391SOL     OW20071   3.137   0.305   6.073
 6391SOL    HW120072   3.112   0.221   6.122
 6391SOL    HW220073   3.060   0.368   6.074
 6392SOL     OW20074   2.448   6.667   3.259
 6392SOL    HW120075   2.445   6.668   3.160
 6392SOL    HW220076   2.429   6.759   3.294
 6393SOL     OW20077   6.184   6.294   1.467
 6393SOL    HW120078   6.143   6.299   1.376
 6393SOL    HW220079   6.185   6.199   1.498
 6394SOL     OW20080   2.410   3.827   1.467
 6394SOL    HW120081   2.386   3.789   1.556
 6394SOL    HW220082   2.509   3.837   1.460
 6395SOL     OW20083   5.757   2.534   1.323
 6395SOL    HW120084   5.836   2.490   1.281
 6395SOL    HW220085   5.786   2.614   1.375
 6396SOL     OW20086   5.431   2.819   6.605
 6396SOL    HW120087   5.422   2.917   6.588
 6396SOL    HW220088   5.432   2.803   6.704
 6397SOL     OW20089   5.774   1.924   6.895
 6397SOL    HW120090   5.749   2.021   6.888
 6397SOL    HW220091   5.752   1.877   6.810
 6398SOL     OW20092   3.403   0.820   0.691
 6398SOL    HW120093   3.403   0.742   0.629
 6398SOL    HW220094   3.331   0.809   0.760
 6399SOL     OW20095   1.974   4.848   6.074
 6399SOL    HW120096   2.024   4.895   6.002
 6399SOL    HW220097   2.035   4.783   6.120
 6400SOL     OW20098   1.811   5.714   3.311
 6400SOL    HW120099   1.835   5.705   3.215
 6400SOL    HW220100   1.895   5.719   3.365
 6401SOL     OW20101   6.725   4.313   3.796
 6401SOL    HW120102   6.758   4.218   3.792
 6401SOL    HW220103   6.786   4.371   3.742
 6402SOL     OW20104   3.019   0.593   3.036
 6402SOL    HW120105   3.058   0.628   3.122
 6402SOL    HW220106   3.027   0.663   2.965
 6403SOL     OW20107   0.184   6.322   6.704
 6403SOL    HW120108   0.166   6.421   6.701
 6403SOL    HW220109   0.247   6.303   6.780
 6404SOL     OW20110   4.106   1.332   2.981
 6404SOL    HW120111   4.039   1.396   2.943
 6404SOL    HW220112   4.060   1.263   3.035
 6405SOL     OW20113   1.980   1.115   3.697
 6405SOL    HW120114   2.009   1.200   3.741
 6405SOL    HW220115   1.921   1.064   3.759
 6406SOL     OW20116   1.538   2.474   3.804
 6406SOL    HW120117   1.617   2.509   3.856
 6406SOL    HW220118   1.568   2.445   3.714
 6407SOL     OW20119   3.166   6.756   3.048
 6407SOL    HW120120   3.122   6.842   3.076
 6407SOL    HW220121   3.095   6.688   3.030
 6408SOL     OW20122   6.246   2.618   0.094
 6408SOL    HW120123   6.194   2.532   0.093
 6408SOL    HW220124   6.234   2.663   0.182
 6409SOL     OW20125   7.000   4.191   3.517
 6409SOL    HW120126   6.951   4.165   3.434
 6409SOL    HW220127   7.011   4.112   3.577
 6410SOL     OW20128   1.701   1.635   0.805
 6410SOL    HW120129   1.761   1.575   0.753
 6410SOL    HW220130   1.607   1.600   0.802
 6411SOL     OW20131   0.806   2.815   2.942
 6411SOL    HW120132   0.871   2.824   2.866
 6411SOL    HW220133   0.839   2.867   3.020
 6412SOL     OW20134   0.150   3.124   5.510
 6412SOL    HW120135   0.079   3.126   5.580
 6412SOL    HW220136   0.109   3.096   5.423
 6413SOL     OW20137   5.399   5.065   2.970
 6413SOL    HW120138   5.414   4.996   2.900
 6413SOL    HW220139   5.302   5.092   2.970
 6414SOL     OW20140   5.873   0.574   2.031
 6414SOL    HW120141   5.907   0.480   2.032
 6414SOL    HW220142   5.860   0.607   2.124
 6415SOL     OW20143   2.973   2.234   2.890
 6415SOL    HW120144   3.058   2.235   2.837
 6415SOL    HW220145   2.901   2.281   2.839
 6416SOL     OW20146   0.536   0.967   6.157
 6416SOL    HW120147   0.458   0.928   6.204
 6416SOL    HW220148   0.538   0.936   6.062
 6417SOL     OW20149   0.406   4.847   2.731
 6417SOL    HW120150   0.338   4.897   2.677
 6417SOL    HW220151   0.401   4.876   2.826
 6418SOL     OW20152   6.263   4.860   2.490
 6418SOL    HW120153   6.174   4.863   2.446
 6418SOL    HW220154   6.307   4.772   2.470
 6419SOL     OW20155   2.814   5.040   2.469
 6419SOL    HW120156   2.906   5.078   2.482
 6419SOL    HW220157   2.746   5.105   2.503
 6420SOL     OW20158   3.087   3.663   5.581
 6420SOL    HW120159   2.990   3.685   5.585
 6420SOL    HW220160   3.132   3.722   5.514
 6421SOL     OW20161   6.091   1.557   1.782
 6421SOL    HW120162   6.169   1.545   1.843
 6421SOL    HW220163   6.047   1.468   1.767
 6422SOL     OW20164   6.714   0.346   3.880
 6422SOL    HW120165   6.733   0.341   3.782
 6422SOL    HW220166   6.752   0.431   3.917
 6423SOL     OW20167   4.435   4.474   2.431
 6423SOL    HW120168   4.446   4.407   2.358
 6423SOL    HW220169   4.522   4.486   2.479
 6424SOL     OW20170   6.537   5.324   5.647
 6424SOL    HW120171   6.576   5.331   5.555
 6424SOL    HW220172   6.608   5.297   5.712
 6425SOL     OW20173   6.769   5.682   4.196
 6425SOL    HW120174   6.694   5.656   4.136
 6425SOL    HW220175   6.826   5.602   4.214
 6426SOL     OW20176   0.785   4.082   3.702
 6426SOL    HW120177   0.809   4.019   3.775
 6426SOL    HW220178   0.798   4.037   3.613
 6427SOL     OW20179   1.916   3.388   0.029
 6427SOL    HW120180   1.823   3.412   0.058
 6427SOL    HW220181   1.924   3.403   6.954
 6428SOL     OW20182   6.055   3.233   0.657
 6428SOL    HW120183   6.137   3.237   0.715
 6428SOL    HW220184   5.982   3.186   0.706
 6429SOL     OW20185   0.740   1.528   4.910
 6429SOL    HW120186   0.657   1.548   4.858
 6429SOL    HW220187   0.793   1.457   4.862
 6430SOL     OW20188   4.850   1.201   2.017
 6430SOL    HW120189   4.815   1.152   2.098
 6430SOL    HW220190   4.813   1.294   2.015
 6431SOL     OW20191   5.591   0.149   3.375
 6431SOL    HW120192   5.560   0.153   3.470
 6431SOL    HW220193   5.681   0.104   3.371
 6432SOL     OW20194   4.348   4.238   6.940
 6432SOL    HW120195   4.424   4.302   6.930
 6432SOL    HW220196   4.262   4.288   6.943
 6433SOL     OW20197   3.730   4.328   1.101
 6433SOL    HW120198   3.632   4.307   1.094
 6433SOL    HW220199   3.744   4.426   1.088
 6434SOL     OW20200   1.530   3.918   0.469
 6434SOL    HW120201   1.628   3.920   0.445
 6434SOL    HW220202   1.517   3.861   0.550
 6435SOL     OW20203   3.980   5.195   0.163
 6435SOL    HW120204   3.993   5.153   0.073
 6435SOL    HW220205   4.055   5.258   0.181
 6436SOL     OW20206   2.202   3.260   3.754
 6436SOL    HW120207   2.176   3.337   3.813
 6436SOL    HW220208   2.191   3.287   3.659
 6437SOL     OW20209   1.446   1.030   0.659
 6437SOL    HW120210   1.424   0.940   0.623
 6437SOL    HW220211   1.506   1.021   0.738
 6438SOL     OW20212   0.171   4.830   5.689
 6438SOL    HW120213   0.175   4.777   5.773
 6438SOL    HW220214   0.264   4.845   5.655
 6439SOL     OW20215   0.436   6.965   1.647
 6439SOL    HW120216   0.346   6.937   1.682
 6439SOL    HW220217   0.464   6.904   1.574
 6440SOL     OW20218   2.290   1.257   2.182
 6440SOL    HW120219   2.378   1.212   2.165
 6440SOL    HW220220   2.302   1.329   2.251
 6441SOL     OW20221   0.862   0.188   2.425
 6441SOL    HW120222   0.950   0.151   2.394
 6441SOL    HW220223   0.867   0.288   2.426
 6442SOL     OW20224   1.691   1.270   3.713
 6442SOL    HW120225   1.680   1.361   3.673
 6442SOL    HW220226   1.761   1.272   3.784
 6443SOL     OW20227   3.721   2.834   0.342
 6443SOL    HW120228   3.697   2.898   0.415
 6443SOL    HW220229   3.786   2.766   0.377
 6444SOL     OW20230   0.905   2.674   3.848
 6444SOL    HW120231   0.875   2.605   3.913
 6444SOL    HW220232   0.978   2.730   3.890
 6445SOL     OW20233   5.222   2.578   5.641
 6445SOL    HW120234   5.190   2.487   5.614
 6445SOL    HW220235   5.151   2.646   5.623
 6446SOL     OW20236   0.566   1.831   6.367
 6446SOL    HW120237   0.593   1.752   6.312
 6446SOL    HW220238   0.466   1.837   6.371
 6447SOL     OW20239   6.991   5.994   2.329
 6447SOL    HW120240   6.901   5.972   2.366
 6447SOL    HW220241   6.981   6.057   2.251
 6448SOL     OW20242   6.260   4.581   2.430
 6448SOL    HW120243   6.338   4.524   2.454
 6448SOL    HW220244   6.188   4.523   2.392
 6449SOL     OW20245   3.951   4.367   1.275
 6449SOL    HW120246   3.879   4.313   1.232
 6449SOL    HW220247   4.004   4.413   1.204
 6450SOL     OW20248   0.086   3.565   1.463
 6450SOL    HW120249   0.104   3.596   1.370
 6450SOL    HW220250   0.170   3.531   1.504
 6451SOL     OW20251   2.747   5.840   5.048
 6451SOL    HW120252   2.716   5.809   4.958
 6451SOL    HW220253   2.669   5.872   5.101
 6452SOL     OW20254   3.509   6.095   5.341
 6452SOL    HW120255   3.424   6.047   5.363
 6452SOL    HW220256   3.557   6.117   5.426
 6453SOL     OW20257   2.223   5.916   6.660
 6453SOL    HW120258   2.169   5.986   6.613
 6453SOL    HW220259   2.317   5.949   6.671
 6454SOL     OW20260   2.992   0.931   3.537
 6454SOL    HW120261   3.014   0.949   3.633
 6454SOL    HW220262   2.979   1.018   3.489
 6455SOL     OW20263   0.491   2.307   4.428
 6455SOL    HW120264   0.544   2.287   4.346
 6455SOL    HW220265   0.403   2.346   4.402
 6456SOL     OW20266   1.450   0.043   3.696
 6456SOL    HW120267   1.504   0.088   3.624
 6456SOL    HW220268   1.385   0.108   3.734
 6457SOL     OW20269   5.501   1.297   1.162
 6457SOL    HW120270   5.564   1.319   1.236
 6457SOL    HW220271   5.407   1.300   1.196
 6458SOL     OW20272   1.039   6.808   3.498
 6458SOL    HW120273   1.126   6.858   3.491
 6458SOL    HW220274   0.975   6.861   3.554
 6459SOL     OW20275   5.852   5.290   1.027
 6459SOL    HW120276   5.927   5.225   1.039
 6459SOL    HW220277   5.827   5.294   0.930
 6460SOL     OW20278   4.349   5.376   5.769
 6460SOL    HW120279   4.369   5.279   5.756
 6460SOL    HW220280   4.340   5.395   5.867
 6461SOL     OW20281   3.154   4.911   4.975
 6461SOL    HW120282   3.246   4.919   4.936
 6461SOL    HW220283   3.155   4.841   5.047
 6462SOL     OW20284   2.436   2.768   5.349
 6462SOL    HW120285   2.463   2.858   5.315
 6462SOL    HW220286   2.489   2.746   5.431
 6463SOL     OW20287   1.657   4.086   6.596
 6463SOL    HW120288   1.664   4.172   6.545
 6463SOL    HW220289   1.614   4.016   6.539
 6464SOL     OW20290   1.041   4.678   5.284
 6464SOL    HW120291   0.983   4.746   5.240
 6464SOL    HW220292   1.021   4.675   5.381
 6465SOL     OW20293   6.560   2.762   4.067
 6465SOL    HW120294   6.483   2.782   4.007
 6465SOL    HW220295   6.549   2.811   4.154
 6466SOL     OW20296   0.039   1.760   6.255
 6466SOL    HW120297   6.997   1.721   6.319
 6466SOL    HW220298   0.024   1.722   6.164
 6467SOL     OW20299   3.007   1.235   6.970
 6467SOL    HW120300   3.081   1.197   6.914
 6467SOL    HW220301   3.046   1.279   0.026
 6468SOL     OW20302   4.199   5.826   1.404
 6468SOL    HW120303   4.119   5.875   1.438
 6468SOL    HW220304   4.276   5.839   1.467
 6469SOL     OW20305   4.958   0.654   5.320
 6469SOL    HW120306   4.913   0.662   5.231
 6469SOL    HW220307   4.907   0.705   5.389
 6470SOL     OW20308   6.400   5.288   6.085
 6470SOL    HW120309   6.367   5.236   6.164
 6470SOL    HW220310   6.364   5.246   6.001
 6471SOL     OW20311   6.270   5.943   5.946
 6471SOL    HW120312   6.349   5.887   5.973
 6471SOL    HW220313   6.301   6.018   5.888
 6472SOL     OW20314   0.318   4.949   0.637
 6472SOL    HW120315   0.416   4.954   0.616
 6472SOL    HW220316   0.303   4.977   0.732
 6473SOL     OW20317   2.186   1.746   5.387
 6473SOL    HW120318   2.138   1.675   5.336
 6473SOL    HW220319   2.250   1.794   5.326
 6474SOL     OW20320   1.539   3.519   5.822
 6474SOL    HW120321   1.606   3.543   5.892
 6474SOL    HW220322   1.553   3.577   5.741
 6475SOL     OW20323   6.861   5.656   4.827
 6475SOL    HW120324   6.834   5.635   4.733
 6475SOL    HW220325   6.926   5.732   4.826
 6476SOL     OW20326   4.758   3.881   1.830
 6476SOL    HW120327   4.747   3.969   1.875
 6476SOL    HW220328   4.675   3.859   1.778
 6477SOL     OW20329   0.134   5.020   1.190
 6477SOL    HW120330   0.123   4.983   1.282
 6477SOL    HW220331   0.051   5.003   1.137
 6478SOL     OW20332   3.656   5.850   2.178
 6478SOL    HW120333   3.710   5.822   2.257
 6478SOL    HW220334   3.561   5.862   2.207
 6479SOL     OW20335   3.710   5.289   2.883
 6479SOL    HW120336   3.613   5.264   2.883
 6479SOL    HW220337   3.739   5.306   2.977
 6480SOL     OW20338   3.484   2.885   5.717
 6480SOL    HW120339   3.485   2.785   5.719
 6480SOL    HW220340   3.510   2.916   5.626
 6481SOL     OW20341   3.411   2.253   1.771
 6481SOL    HW120342   3.501   2.276   1.734
 6481SOL    HW220343   3.390   2.157   1.752
 6482SOL     OW20344   0.174   1.202   6.232
 6482SOL    HW120345   0.141   1.239   6.145
 6482SOL    HW220346   0.119   1.122   6.256
 6483SOL     OW20347   2.240   5.594   1.505
 6483SOL    HW120348   2.166   5.545   1.551
 6483SOL    HW220349   2.262   5.548   1.419
 6484SOL     OW20350   3.975   0.538   3.065
 6484SOL    HW120351   4.048   0.598   3.100
 6484SOL    HW220352   3.995   0.513   2.971
 6485SOL     OW20353   1.645   3.772   3.696
 6485SOL    HW120354   1.659   3.753   3.599
 6485SOL    HW220355   1.567   3.834   3.707
 6486SOL     OW20356   1.282   4.677   3.991
 6486SOL    HW120357   1.253   4.767   4.022
 6486SOL    HW220358   1.301   4.680   3.893
 6487SOL     OW20359   6.510   5.574   5.026
 6487SOL    HW120360   6.497   5.642   4.954
 6487SOL    HW220361   6.607   5.570   5.051
 6488SOL     OW20362   2.806   5.589   5.166
 6488SOL    HW120363   2.719   5.561   5.125
 6488SOL    HW220364   2.814   5.689   5.162
 6489SOL     OW20365   2.402   3.479   6.911
 6489SOL    HW120366   2.361   3.452   6.824
 6489SOL    HW220367   2.375   3.413   6.982
 6490SOL     OW20368   4.260   2.531   6.472
 6490SOL    HW120369   4.270   2.602   6.402
 6490SOL    HW220370   4.195   2.561   6.541
 6491SOL     OW20371   3.971   1.259   6.572
 6491SOL    HW120372   3.911   1.196   6.621
 6491SOL    HW220373   4.003   1.330   6.634
 6492SOL     OW20374   5.917   6.075   6.859
 6492SOL    HW120375   5.955   6.163   6.830
 6492SOL    HW220376   5.965   6.043   6.940
 6493SOL     OW20377   1.344   6.124   5.330
 6493SOL    HW120378   1.247   6.141   5.345
 6493SOL    HW220379   1.398   6.186   5.387
 6494SOL     OW20380   0.108   0.898   3.268
 6494SOL    HW120381   0.178   0.939   3.327
 6494SOL    HW220382   0.151   0.835   3.204
 6495SOL     OW20383   5.063   5.946   4.425
 6495SOL    HW120384   5.050   5.850   4.453
 6495SOL    HW220385   5.073   5.950   4.326
 6496SOL     OW20386   0.061   6.320   2.234
 6496SOL    HW120387   0.074   6.291   2.328
 6496SOL    HW220388   7.011   6.387   2.230
 6497SOL     OW20389   2.311   3.298   0.086
 6497SOL    HW120390   2.254   3.217   0.070
 6497SOL    HW220391   2.280   3.345   0.168
 6498SOL     OW20392   2.508   4.536   4.367
 6498SOL    HW120393   2.517   4.506   4.272
 6498SOL    HW220394   2.440   4.479   4.413
 6499SOL     OW20395   5.785   1.866   5.039
 6499SOL    HW120396   5.786   1.860   5.139
 6499SOL    HW220397   5.720   1.937   5.010
 6500SOL     OW20398   0.205   5.008   3.983
 6500SOL    HW120399   0.127   5.068   3.968
 6500SOL    HW220400   0.274   5.024   3.912
 6501SOL     OW20401   0.233   2.505   0.723
 6501SOL    HW120402   0.292   2.580   0.692
 6501SOL    HW220403   0.239   2.497   0.823
 6502SOL     OW20404   6.839   3.894   3.569
 6502SOL    HW120405   6.755   3.841   3.557
 6502SOL    HW220406   6.862   3.939   3.483
 6503SOL     OW20407   5.133   0.084   3.916
 6503SOL    HW120408   5.065   0.030   3.866
 6503SOL    HW220409   5.211   0.026   3.939
 6504SOL     OW20410   4.452   6.206   5.907
 6504SOL    HW120411   4.397   6.263   5.846
 6504SOL    HW220412   4.394   6.169   5.980
 6505SOL     OW20413   6.233   4.501   1.665
 6505SOL    HW120414   6.318   4.448   1.662
 6505SOL    HW220415   6.238   4.575   1.598
 6506SOL     OW20416   0.791   3.173   0.618
 6506SOL    HW120417   0.747   3.189   0.530
 6506SOL    HW220418   0.798   3.260   0.667
 6507SOL     OW20419   1.669   5.784   6.839
 6507SOL    HW120420   1.574   5.779   6.807
 6507SOL    HW220421   1.731   5.773   6.761
 6508SOL     OW20422   1.781   2.174   3.582
 6508SOL    HW120423   1.880   2.167   3.597
 6508SOL    HW220424   1.762   2.162   3.484
 6509SOL     OW20425   2.278   2.424   4.880
 6509SOL    HW120426   2.213   2.500   4.889
 6509SOL    HW220427   2.371   2.459   4.884
 6510SOL     OW20428   0.569   5.631   6.632
 6510SOL    HW120429   0.505   5.602   6.704
 6510SOL    HW220430   0.528   5.614   6.542
 6511SOL     OW20431   5.516   0.483   4.455
 6511SOL    HW120432   5.463   0.498   4.371
 6511SOL    HW220433   5.502   0.389   4.486
 6512SOL     OW20434   4.922   0.414   2.830
 6512SOL    HW120435   4.869   0.387   2.911
 6512SOL    HW220436   5.014   0.376   2.837
 6513SOL     OW20437   3.748   5.944   3.872
 6513SOL    HW120438   3.689   5.968   3.796
 6513SOL    HW220439   3.694   5.937   3.956
 6514SOL     OW20440   5.623   0.260   3.127
 6514SOL    HW120441   5.601   0.232   3.221
 6514SOL    HW220442   5.684   0.340   3.130
 6515SOL     OW20443   0.010   5.620   3.932
 6515SOL    HW120444   0.013   5.521   3.936
 6515SOL    HW220445   0.029   5.658   4.022
 6516SOL     OW20446   0.053   2.064   0.586
 6516SOL    HW120447   0.070   2.123   0.507
 6516SOL    HW220448   0.114   2.090   0.661
 6517SOL     OW20449   5.910   1.346   0.674
 6517SOL    HW120450   5.922   1.307   0.765
 6517SOL    HW220451   5.812   1.355   0.655
 6518SOL     OW20452   0.710   6.138   0.009
 6518SOL    HW120453   0.646   6.063   7.021
 6518SOL    HW220454   0.795   6.104   0.050
 6519SOL     OW20455   1.783   2.157   3.315
 6519SOL    HW120456   1.866   2.179   3.264
 6519SOL    HW220457   1.711   2.129   3.251
 6520SOL     OW20458   6.391   5.939   3.499
 6520SOL    HW120459   6.436   5.851   3.484
 6520SOL    HW220460   6.460   6.011   3.508
 6521SOL     OW20461   0.905   1.321   4.843
 6521SOL    HW120462   0.961   1.264   4.902
 6521SOL    HW220463   0.835   1.264   4.799
 6522SOL     OW20464   3.240   4.648   6.897
 6522SOL    HW120465   3.185   4.604   6.826
 6522SOL    HW220466   3.191   4.726   6.934
 6523SOL     OW20467   3.039   1.788   6.297
 6523SOL    HW120468   3.007   1.711   6.243
 6523SOL    HW220469   3.134   1.773   6.325
 6524SOL     OW20470   3.322   2.904   3.216
 6524SOL    HW120471   3.252   2.975   3.221
 6524SOL    HW220472   3.363   2.891   3.306
 6525SOL     OW20473   2.262   3.028   2.675
 6525SOL    HW120474   2.217   3.110   2.640
 6525SOL    HW220475   2.353   3.052   2.709
 6526SOL     OW20476   0.551   6.229   4.567
 6526SOL    HW120477   0.578   6.253   4.473
 6526SOL    HW220478   0.535   6.131   4.573
 6527SOL     OW20479   0.301   1.516   4.372
 6527SOL    HW120480   0.217   1.561   4.401
 6527SOL    HW220481   0.363   1.583   4.331
 6528SOL     OW20482   6.922   0.733   3.606
 6528SOL    HW120483   6.885   0.760   3.694
 6528SOL    HW220484   6.924   0.811   3.544
 6529SOL     OW20485   5.933   1.632   3.672
 6529SOL    HW120486   5.983   1.619   3.586
 6529SOL    HW220487   5.870   1.556   3.686
 6530SOL     OW20488   6.811   3.907   0.882
 6530SOL    HW120489   6.861   3.884   0.966
 6530SOL    HW220490   6.739   3.839   0.866
 6531SOL     OW20491   5.351   3.408   4.069
 6531SOL    HW120492   5.258   3.393   4.033
 6531SOL    HW220493   5.353   3.385   4.166
 6532SOL     OW20494   5.562   1.549   1.014
 6532SOL    HW120495   5.496   1.484   1.052
 6532SOL    HW220496   5.655   1.523   1.043
 6533SOL     OW20497   5.721   5.502   1.813
 6533SOL    HW120498   5.732   5.530   1.718
 6533SOL    HW220499   5.647   5.435   1.820
 6534SOL     OW20500   2.537   4.324   1.571
 6534SOL    HW120501   2.577   4.403   1.616
 6534SOL    HW220502   2.609   4.270   1.527
 6535SOL     OW20503   0.627   3.203   4.606
 6535SOL    HW120504   0.693   3.127   4.603
 6535SOL    HW220505   0.594   3.213   4.700
 6536SOL     OW20506   6.810   2.591   5.997
 6536SOL    HW120507   6.711   2.589   6.006
 6536SOL    HW220508   6.846   2.498   5.997
 6537SOL     OW20509   6.075   5.705   6.874
 6537SOL    HW120510   6.039   5.614   6.855
 6537SOL    HW220511   6.109   5.746   6.790
 6538SOL     OW20512   3.732   4.141   0.320
 6538SOL    HW120513   3.734   4.158   0.418
 6538SOL    HW220514   3.762   4.222   0.270
 6539SOL     OW20515   2.752   1.598   6.280
 6539SOL    HW120516   2.785   1.650   6.202
 6539SOL    HW220517   2.795   1.507   6.280
 6540SOL     OW20518   4.390   1.921   4.724
 6540SOL    HW120519   4.472   1.869   4.702
 6540SOL    HW220520   4.381   1.998   4.660
 6541SOL     OW20521   3.395   2.068   4.601
 6541SOL    HW120522   3.341   2.115   4.671
 6541SOL    HW220523   3.482   2.038   4.640
 6542SOL     OW20524   0.234   4.687   3.250
 6542SOL    HW120525   0.160   4.705   3.314
 6542SOL    HW220526   0.290   4.611   3.285
 6543SOL     OW20527   6.618   4.356   0.157
 6543SOL    HW120528   6.702   4.405   0.176
 6543SOL    HW220529   6.587   4.376   0.064
 6544SOL     OW20530   0.465   6.367   3.890
 6544SOL    HW120531   0.509   6.404   3.808
 6544SOL    HW220532   0.427   6.442   3.944
 6545SOL     OW20533   4.857   2.167   6.086
 6545SOL    HW120534   4.769   2.202   6.055
 6545SOL    HW220535   4.902   2.237   6.142
 6546SOL     OW20536   4.284   4.595   6.285
 6546SOL    HW120537   4.372   4.560   6.317
 6546SOL    HW220538   4.213   4.528   6.305
 6547SOL     OW20539   4.068   1.654   5.745
 6547SOL    HW120540   4.094   1.643   5.650
 6547SOL    HW220541   4.106   1.740   5.780
 6548SOL     OW20542   0.539   4.090   6.969
 6548SOL    HW120543   0.557   4.116   6.875
 6548SOL    HW220544   0.625   4.085   7.019
 6549SOL     OW20545   3.436   1.105   0.936
 6549SOL    HW120546   3.505   1.107   1.007
 6549SOL    HW220547   3.472   1.145   0.852
 6550SOL     OW20548   0.066   6.341   3.038
 6550SOL    HW120549   0.114   6.398   3.105
 6550SOL    HW220550   0.048   6.251   3.078
 6551SOL     OW20551   1.880   4.171   2.535
 6551SOL    HW120552   1.797   4.190   2.587
 6551SOL    HW220553   1.938   4.107   2.586
 6552SOL     OW20554   2.543   6.731   4.311
 6552SOL    HW120555   2.484   6.652   4.294
 6552SOL    HW220556   2.490   6.804   4.354
 6553SOL     OW20557   0.051   2.196   1.428
 6553SOL    HW120558   6.985   2.177   1.389
 6553SOL    HW220559   0.040   2.254   1.508
 6554SOL     OW20560   5.964   1.622   5.902
 6554SOL    HW120561   5.962   1.655   5.807
 6554SOL    HW220562   5.926   1.529   5.905
 6555SOL     OW20563   1.748   0.939   2.821
 6555SOL    HW120564   1.754   0.847   2.859
 6555SOL    HW220565   1.823   0.996   2.857
 6556SOL     OW20566   4.601   4.521   5.248
 6556SOL    HW120567   4.640   4.477   5.328
 6556SOL    HW220568   4.668   4.524   5.174
 6557SOL     OW20569   5.151   5.494   1.299
 6557SOL    HW120570   5.219   5.444   1.352
 6557SOL    HW220571   5.188   5.584   1.274
 6558SOL     OW20572   6.505   5.916   1.597
 6558SOL    HW120573   6.481   6.008   1.628
 6558SOL    HW220574   6.439   5.887   1.527
 6559SOL     OW20575   6.570   4.087   0.561
 6559SOL    HW120576   6.551   4.185   0.550
 6559SOL    HW220577   6.562   4.062   0.657
 6560SOL     OW20578   3.791   2.841   1.917
 6560SOL    HW120579   3.838   2.781   1.981
 6560SOL    HW220580   3.775   2.792   1.831
 6561SOL     OW20581   3.860   4.019   2.538
 6561SOL    HW120582   3.896   4.110   2.560
 6561SOL    HW220583   3.932   3.951   2.548
 6562SOL     OW20584   6.384   4.695   6.613
 6562SOL    HW120585   6.426   4.748   6.540
 6562SOL    HW220586   6.303   4.648   6.577
 6563SOL     OW20587   0.842   6.532   6.988
 6563SOL    HW120588   0.918   6.572   0.016
 6563SOL    HW220589   0.782   6.605   6.957
 6564SOL     OW20590   0.713   3.673   2.044
 6564SOL    HW120591   0.801   3.713   2.069
 6564SOL    HW220592   0.678   3.719   1.962
 6565SOL     OW20593   6.604   2.215   4.779
 6565SOL    HW120594   6.562   2.204   4.869
 6565SOL    HW220595   6.612   2.125   4.735
 6566SOL     OW20596   3.701   6.680   1.082
 6566SOL    HW120597   3.606   6.648   1.079
 6566SOL    HW220598   3.705   6.767   1.132
 6567SOL     OW20599   4.171   2.125   1.478
 6567SOL    HW120600   4.189   2.118   1.576
 6567SOL    HW220601   4.167   2.034   1.439
 6568SOL     OW20602   4.732   4.981   2.241
 6568SOL    HW120603   4.675   4.904   2.270
 6568SOL    HW220604   4.674   5.061   2.227
 6569SOL     OW20605   3.063   4.740   1.321
 6569SOL    HW120606   3.128   4.716   1.393
 6569SOL    HW220607   3.070   4.675   1.246
 6570SOL     OW20608   4.971   0.048   1.429
 6570SOL    HW120609   5.040   0.016   1.493
 6570SOL    HW220610   5.006   0.043   1.336
 6571SOL     OW20611   2.289   6.609   2.130
 6571SOL    HW120612   2.334   6.585   2.216
 6571SOL    HW220613   2.222   6.682   2.147
 6572SOL     OW20614   6.405   4.946   5.032
 6572SOL    HW120615   6.462   4.975   4.955
 6572SOL    HW220616   6.315   4.988   5.024
 6573SOL     OW20617   3.045   1.531   3.147
 6573SOL    HW120618   2.968   1.590   3.174
 6573SOL    HW220619   3.122   1.588   3.118
 6574SOL     OW20620   2.852   5.950   2.029
 6574SOL    HW120621   2.775   5.992   1.981
 6574SOL    HW220622   2.902   5.890   1.966
 6575SOL     OW20623   0.950   1.351   1.680
 6575SOL    HW120624   0.903   1.425   1.632
 6575SOL    HW220625   0.947   1.268   1.624
 6576SOL     OW20626   1.624   6.223   6.231
 6576SOL    HW120627   1.650   6.139   6.279
 6576SOL    HW220628   1.679   6.299   6.266
 6577SOL     OW20629   0.427   1.354   3.410
 6577SOL    HW120630   0.399   1.448   3.391
 6577SOL    HW220631   0.499   1.354   3.480
 6578SOL     OW20632   0.092   5.015   3.118
 6578SOL    HW120633   0.004   5.048   3.152
 6578SOL    HW220634   0.160   5.019   3.192
 6579SOL     OW20635   0.178   4.119   4.426
 6579SOL    HW120636   0.232   4.047   4.383
 6579SOL    HW220637   0.092   4.130   4.377
 6580SOL     OW20638   5.925   1.289   1.232
 6580SOL    HW120639   6.008   1.334   1.266
 6580SOL    HW220640   5.928   1.192   1.253
 6581SOL     OW20641   3.648   0.804   6.057
 6581SOL    HW120642   3.712   0.880   6.066
 6581SOL    HW220643   3.632   0.785   5.961
 6582SOL     OW20644   1.484   0.175   1.738
 6582SOL    HW120645   1.457   0.088   1.779
 6582SOL    HW220646   1.537   0.228   1.804
 6583SOL     OW20647   4.051   0.927   5.901
 6583SOL    HW120648   3.973   0.934   5.963
 6583SOL    HW220649   4.103   1.013   5.902
 6584SOL     OW20650   5.379   1.272   0.344
 6584SOL    HW120651   5.407   1.178   0.329
 6584SOL    HW220652   5.298   1.292   0.287
 6585SOL     OW20653   6.407   0.892   0.544
 6585SOL    HW120654   6.406   0.971   0.606
 6585SOL    HW220655   6.317   0.882   0.502
 6586SOL     OW20656   6.092   2.051   5.994
 6586SOL    HW120657   6.013   2.045   5.934
 6586SOL    HW220658   6.130   1.960   6.008
 6587SOL     OW20659   2.954   5.709   4.212
 6587SOL    HW120660   2.887   5.689   4.140
 6587SOL    HW220661   3.037   5.747   4.171
 6588SOL     OW20662   1.913   4.048   1.718
 6588SOL    HW120663   1.960   4.047   1.630
 6588SOL    HW220664   1.824   4.091   1.708
 6589SOL     OW20665   4.458   0.537   6.811
 6589SOL    HW120666   4.415   0.464   6.865
 6589SOL    HW220667   4.482   0.613   6.870
 6590SOL     OW20668   0.636   1.822   5.952
 6590SOL    HW120669   0.707   1.790   6.015
 6590SOL    HW220670   0.678   1.860   5.870
 6591SOL     OW20671   5.816   6.020   2.393
 6591SOL    HW120672   5.894   5.978   2.441
 6591SOL    HW220673   5.849   6.095   2.336
 6592SOL     OW20674   4.926   6.980   3.799
 6592SOL    HW120675   4.915   6.905   3.864
 6592SOL    HW220676   4.856   0.025   3.816
 6593SOL     OW20677   2.208   2.598   3.524
 6593SOL    HW120678   2.262   2.664   3.577
 6593SOL    HW220679   2.139   2.557   3.583
 6594SOL     OW20680   4.060   1.305   0.572
 6594SOL    HW120681   4.036   1.323   0.477
 6594SOL    HW220682   4.057   1.207   0.590
 6595SOL     OW20683   0.481   4.029   1.347
 6595SOL    HW120684   0.418   4.088   1.297
 6595SOL    HW220685   0.574   4.044   1.313
 6596SOL     OW20686   4.259   0.266   5.038
 6596SOL    HW120687   4.320   0.194   5.006
 6596SOL    HW220688   4.249   0.336   4.968
 6597SOL     OW20689   1.089   6.563   3.378
 6597SOL    HW120690   1.041   6.651   3.378
 6597SOL    HW220691   1.104   6.534   3.473
 6598SOL     OW20692   1.774   6.085   5.292
 6598SOL    HW120693   1.844   6.073   5.222
 6598SOL    HW220694   1.747   6.181   5.296
 6599SOL     OW20695   3.959   5.390   5.482
 6599SOL    HW120696   4.052   5.355   5.469
 6599SOL    HW220697   3.949   5.475   5.430
 6600SOL     OW20698   5.113   5.177   5.075
 6600SOL    HW120699   5.059   5.249   5.119
 6600SOL    HW220700   5.152   5.117   5.144
 6601SOL     OW20701   1.003   0.414   0.809
 6601SOL    HW120702   1.071   0.448   0.874
 6601SOL    HW220703   0.942   0.350   0.855
 6602SOL     OW20704   6.939   1.784   1.575
 6602SOL    HW120705   6.993   1.773   1.658
 6602SOL    HW220706   6.994   1.831   1.505
 6603SOL     OW20707   1.273   3.075   4.027
 6603SOL    HW120708   1.303   3.144   3.960
 6603SOL    HW220709   1.285   3.111   4.119
 6604SOL     OW20710   2.849   6.420   1.431
 6604SOL    HW120711   2.948   6.413   1.435
 6604SOL    HW220712   2.820   6.508   1.468
 6605SOL     OW20713   4.829   4.779   0.807
 6605SOL    HW120714   4.876   4.700   0.767
 6605SOL    HW220715   4.810   4.846   0.736
 6606SOL     OW20716   4.919   6.586   2.107
 6606SOL    HW120717   4.846   6.529   2.068
 6606SOL    HW220718   4.984   6.611   2.036
 6607SOL     OW20719   2.281   1.490   1.723
 6607SOL    HW120720   2.334   1.558   1.671
 6607SOL    HW220721   2.296   1.504   1.821
 6608SOL     OW20722   5.382   4.833   2.430
 6608SOL    HW120723   5.312   4.900   2.408
 6608SOL    HW220724   5.449   4.830   2.356
 6609SOL     OW20725   4.781   0.906   6.285
 6609SOL    HW120726   4.804   0.808   6.284
 6609SOL    HW220727   4.695   0.919   6.334
 6610SOL     OW20728   2.369   0.176   6.699
 6610SOL    HW120729   2.356   0.254   6.638
 6610SOL    HW220730   2.284   0.157   6.749
 6611SOL     OW20731   6.770   2.259   2.794
 6611SOL    HW120732   6.851   2.210   2.760
 6611SOL    HW220733   6.695   2.248   2.729
 6612SOL     OW20734   0.363   3.909   0.009
 6612SOL    HW120735   0.438   3.961   6.992
 6612SOL    HW220736   0.276   3.950   7.006
 6613SOL     OW20737   6.144   6.211   3.697
 6613SOL    HW120738   6.086   6.266   3.636
 6613SOL    HW220739   6.127   6.114   3.682
 6614SOL     OW20740   4.567   6.499   6.622
 6614SOL    HW120741   4.483   6.449   6.602
 6614SOL    HW220742   4.554   6.596   6.600
 6615SOL     OW20743   0.691   3.773   4.918
 6615SOL    HW120744   0.783   3.748   4.950
 6615SOL    HW220745   0.635   3.690   4.912
 6616SOL     OW20746   4.223   1.165   5.829
 6616SOL    HW120747   4.234   1.225   5.908
 6616SOL    HW220748   4.308   1.117   5.811
 6617SOL     OW20749   3.120   6.156   3.368
 6617SOL    HW120750   3.115   6.182   3.464
 6617SOL    HW220751   3.205   6.105   3.352
 6618SOL     OW20752   1.016   3.361   2.625
 6618SOL    HW120753   1.083   3.435   2.621
 6618SOL    HW220754   0.986   3.338   2.532
 6619SOL     OW20755   6.267   0.008   4.761
 6619SOL    HW120756   6.218   6.976   4.828
 6619SOL    HW220757   6.201   0.055   4.703
 6620SOL     OW20758   1.857   2.741   5.558
 6620SOL    HW120759   1.935   2.804   5.563
 6620SOL    HW220760   1.829   2.731   5.462
 6621SOL     OW20761   2.974   3.453   0.549
 6621SOL    HW120762   3.011   3.414   0.464
 6621SOL    HW220763   2.927   3.539   0.528
 6622SOL     OW20764   6.376   6.152   1.721
 6622SOL    HW120765   6.279   6.142   1.742
 6622SOL    HW220766   6.388   6.226   1.655
 6623SOL     OW20767   3.478   3.201   1.780
 6623SOL    HW120768   3.400   3.231   1.834
 6623SOL    HW220769   3.540   3.148   1.838
 6624SOL     OW20770   2.673   6.825   4.087
 6624SOL    HW120771   2.624   6.803   4.172
 6624SOL    HW220772   2.697   6.922   4.087
 6625SOL     OW20773   5.265   2.336   6.317
 6625SOL    HW120774   5.354   2.346   6.273
 6625SOL    HW220775   5.273   2.356   6.414
 6626SOL     OW20776   3.374   4.913   3.408
 6626SOL    HW120777   3.458   4.892   3.358
 6626SOL    HW220778   3.397   4.955   3.495
 6627SOL     OW20779   2.291   0.640   5.637
 6627SOL    HW120780   2.203   0.687   5.624
 6627SOL    HW220781   2.356   0.703   5.679
 6628SOL     OW20782   5.070   5.427   3.370
 6628SOL    HW120783   5.156   5.449   3.416
 6628SOL    HW220784   5.073   5.331   3.340
 6629SOL     OW20785   2.995   6.568   0.669
 6629SOL    HW120786   3.077   6.615   0.702
 6629SOL    HW220787   2.983   6.483   0.720
 6630SOL     OW20788   3.763   1.973   1.037
 6630SOL    HW120789   3.725   1.971   1.129
 6630SOL    HW220790   3.691   1.997   0.971
 6631SOL     OW20791   4.542   0.248   2.358
 6631SOL    HW120792   4.535   0.334   2.408
 6631SOL    HW220793   4.451   0.218   2.331
 6632SOL     OW20794   6.880   1.055   1.597
 6632SOL    HW120795   6.781   1.055   1.584
 6632SOL    HW220796   6.907   0.976   1.654
 6633SOL     OW20797   1.585   5.502   5.877
 6633SOL    HW120798   1.542   5.441   5.943
 6633SOL    HW220799   1.558   5.596   5.895
 6634SOL     OW20800   5.748   3.424   5.775
 6634SOL    HW120801   5.689   3.371   5.714
 6634SOL    HW220802   5.766   3.514   5.734
 6635SOL     OW20803   4.121   5.007   2.871
 6635SOL    HW120804   4.187   5.017   2.797
 6635SOL    HW220805   4.041   4.956   2.838
 6636SOL     OW20806   2.010   2.389   5.815
 6636SOL    HW120807   1.934   2.453   5.810
 6636SOL    HW220808   2.061   2.391   5.729
 6637SOL     OW20809   1.188   0.555   6.973
 6637SOL    HW120810   1.213   0.645   7.010
 6637SOL    HW220811   1.225   0.546   6.880
 6638SOL     OW20812   3.966   4.730   5.207
 6638SOL    HW120813   4.044   4.789   5.189
 6638SOL    HW220814   3.994   4.654   5.265
 6639SOL     OW20815   5.510   6.330   5.877
 6639SOL    HW120816   5.431   6.342   5.817
 6639SOL    HW220817   5.573   6.263   5.837
 6640SOL     OW20818   0.156   1.889   5.139
 6640SOL    HW120819   0.246   1.929   5.121
 6640SOL    HW220820   0.143   1.881   5.238
 6641SOL     OW20821   2.278   2.960   6.509
 6641SOL    HW120822   2.271   3.034   6.576
 6641SOL    HW220823   2.299   2.998   6.419
 6642SOL     OW20824   2.948   4.962   0.232
 6642SOL    HW120825   2.982   4.870   0.248
 6642SOL    HW220826   2.995   5.026   0.294
 6643SOL     OW20827   6.796   4.666   6.928
 6643SOL    HW120828   6.889   4.643   6.901
 6643SOL    HW220829   6.733   4.644   6.853
 6644SOL     OW20830   3.058   4.823   1.995
 6644SOL    HW120831   3.049   4.874   1.909
 6644SOL    HW220832   2.987   4.753   2.001
 6645SOL     OW20833   6.429   5.024   0.510
 6645SOL    HW120834   6.461   4.929   0.505
 6645SOL    HW220835   6.497   5.079   0.558
 6646SOL     OW20836   4.370   5.655   4.194
 6646SOL    HW120837   4.276   5.625   4.181
 6646SOL    HW220838   4.387   5.675   4.291
 6647SOL     OW20839   3.553   1.446   2.636
 6647SOL    HW120840   3.568   1.392   2.719
 6647SOL    HW220841   3.523   1.538   2.662
 6648SOL     OW20842   3.604   5.890   1.805
 6648SOL    HW120843   3.512   5.860   1.832
 6648SOL    HW220844   3.644   5.945   1.879
 6649SOL     OW20845   4.867   1.688   6.405
 6649SOL    HW120846   4.797   1.725   6.467
 6649SOL    HW220847   4.927   1.625   6.456
 6650SOL     OW20848   3.936   1.656   4.328
 6650SOL    HW120849   3.936   1.634   4.230
 6650SOL    HW220850   4.029   1.644   4.364
 6651SOL     OW20851   1.204   1.585   6.954
 6651SOL    HW120852   1.230   1.638   0.011
 6651SOL    HW220853   1.119   1.623   6.916
 6652SOL     OW20854   6.519   4.626   0.235
 6652SOL    HW120855   6.586   4.559   0.202
 6652SOL    HW220856   6.564   4.716   0.241
 6653SOL     OW20857   3.880   3.108   3.124
 6653SOL    HW120858   3.955   3.140   3.066
 6653SOL    HW220859   3.806   3.074   3.066
 6654SOL     OW20860   2.339   2.883   1.110
 6654SOL    HW120861   2.397   2.964   1.101
 6654SOL    HW220862   2.350   2.825   1.029
 6655SOL     OW20863   2.729   6.854   1.769
 6655SOL    HW120864   2.741   6.892   1.861
 6655SOL    HW220865   2.636   6.819   1.760
 6656SOL     OW20866   6.275   1.479   3.051
 6656SOL    HW120867   6.364   1.481   3.097
 6656SOL    HW220868   6.251   1.571   3.021
 6657SOL     OW20869   4.493   6.394   6.280
 6657SOL    HW120870   4.557   6.356   6.214
 6657SOL    HW220871   4.418   6.439   6.233
 6658SOL     OW20872   5.977   1.364   5.152
 6658SOL    HW120873   6.070   1.344   5.182
 6658SOL    HW220874   5.961   1.463   5.157
 6659SOL     OW20875   2.587   2.164   0.258
 6659SOL    HW120876   2.654   2.127   0.322
 6659SOL    HW220877   2.510   2.203   0.310
 6660SOL     OW20878   0.166   6.172   1.219
 6660SOL    HW120879   0.123   6.261   1.232
 6660SOL    HW220880   0.118   6.103   1.273
 6661SOL     OW20881   0.538   5.017   3.937
 6661SOL    HW120882   0.535   5.085   4.010
 6661SOL    HW220883   0.464   5.035   3.872
 6662SOL     OW20884   1.555   0.620   7.021
 6662SOL    HW120885   1.561   0.692   0.065
 6662SOL    HW220886   1.521   0.658   6.935
 6663SOL     OW20887   0.105   5.841   3.133
 6663SOL    HW120888   0.185   5.788   3.105
 6663SOL    HW220889   0.023   5.784   3.126
 6664SOL     OW20890   1.628   6.903   1.098
 6664SOL    HW120891   1.622   6.991   1.051
 6664SOL    HW220892   1.546   6.889   1.154
 6665SOL     OW20893   1.922   0.745   3.094
 6665SOL    HW120894   1.992   0.798   3.141
 6665SOL    HW220895   1.961   0.658   3.063
 6666SOL     OW20896   5.821   1.801   5.290
 6666SOL    HW120897   5.913   1.795   5.329
 6666SOL    HW220898   5.769   1.720   5.315
 6667SOL     OW20899   0.029   4.982   4.946
 6667SOL    HW120900   0.044   5.042   5.025
 6667SOL    HW220901   0.062   5.027   4.863
 6668SOL     OW20902   6.589   6.137   2.275
 6668SOL    HW120903   6.610   6.196   2.197
 6668SOL    HW220904   6.624   6.045   2.257
 6669SOL     OW20905   1.901   3.508   3.697
 6669SOL    HW120906   1.899   3.605   3.721
 6669SOL    HW220907   1.922   3.498   3.600
 6670SOL     OW20908   3.538   3.964   6.625
 6670SOL    HW120909   3.559   4.031   6.697
 6670SOL    HW220910   3.615   3.903   6.612
 6671SOL     OW20911   5.828   5.274   0.765
 6671SOL    HW120912   5.846   5.183   0.726
 6671SOL    HW220913   5.914   5.324   0.774
 6672SOL     OW20914   0.846   1.375   5.289
 6672SOL    HW120915   0.926   1.434   5.276
 6672SOL    HW220916   0.783   1.419   5.353
 6673SOL     OW20917   4.426   5.743   2.983
 6673SOL    HW120918   4.478   5.677   3.037
 6673SOL    HW220919   4.407   5.824   3.038
 6674SOL     OW20920   0.837   5.262   6.124
 6674SOL    HW120921   0.766   5.324   6.154
 6674SOL    HW220922   0.807   5.167   6.136
 6675SOL     OW20923   4.666   4.154   1.641
 6675SOL    HW120924   4.567   4.162   1.654
 6675SOL    HW220925   4.710   4.139   1.730
 6676SOL     OW20926   0.173   3.654   5.729
 6676SOL    HW120927   0.182   3.711   5.811
 6676SOL    HW220928   0.164   3.558   5.755
 6677SOL     OW20929   0.106   3.154   0.231
 6677SOL    HW120930   0.189   3.179   0.281
 6677SOL    HW220931   0.130   3.092   0.156
 6678SOL     OW20932   1.515   2.398   7.006
 6678SOL    HW120933   1.417   2.418   6.996
 6678SOL    HW220934   1.567   2.481   6.991
 6679SOL     OW20935   1.865   1.726   4.984
 6679SOL    HW120936   1.920   1.651   5.020
 6679SOL    HW220937   1.880   1.734   4.885
 6680SOL     OW20938   4.409   5.804   5.725
 6680SOL    HW120939   4.311   5.807   5.707
 6680SOL    HW220940   4.449   5.894   5.708
 6681SOL     OW20941   4.883   5.199   0.096
 6681SOL    HW120942   4.930   5.120   0.058
 6681SOL    HW220943   4.843   5.253   0.022
 6682SOL     OW20944   0.845   4.025   2.465
 6682SOL    HW120945   0.811   3.979   2.547
 6682SOL    HW220946   0.945   4.024   2.465
 6683SOL     OW20947   5.327   2.285   5.877
 6683SOL    HW120948   5.351   2.365   5.933
 6683SOL    HW220949   5.248   2.307   5.820
 6684SOL     OW20950   1.849   6.469   0.997
 6684SOL    HW120951   1.816   6.561   1.021
 6684SOL    HW220952   1.779   6.421   0.944
 6685SOL     OW20953   5.374   1.797   6.043
 6685SOL    HW120954   5.327   1.745   6.115
 6685SOL    HW220955   5.328   1.885   6.030
 6686SOL     OW20956   5.847   4.899   3.775
 6686SOL    HW120957   5.882   4.837   3.706
 6686SOL    HW220958   5.917   4.966   3.798
 6687SOL     OW20959   0.730   2.008   1.419
 6687SOL    HW120960   0.793   1.958   1.479
 6687SOL    HW220961   0.773   2.020   1.330
 6688SOL     OW20962   0.506   4.186   1.790
 6688SOL    HW120963   0.521   4.163   1.886
 6688SOL    HW220964   0.408   4.184   1.770
 6689SOL     OW20965   4.165   2.531   0.576
 6689SOL    HW120966   4.249   2.583   0.562
 6689SOL    HW220967   4.177   2.468   0.653
 6690SOL     OW20968   2.715   1.066   1.838
 6690SOL    HW120969   2.766   1.145   1.872
 6690SOL    HW220970   2.779   1.003   1.792
 6691SOL     OW20971   3.147   5.751   1.141
 6691SOL    HW120972   3.245   5.729   1.136
 6691SOL    HW220973   3.098   5.676   1.184
 6692SOL     OW20974   2.860   4.840   5.114
 6692SOL    HW120975   2.946   4.829   5.164
 6692SOL    HW220976   2.820   4.750   5.095
 6693SOL     OW20977   5.254   3.345   6.438
 6693SOL    HW120978   5.313   3.379   6.511
 6693SOL    HW220979   5.266   3.401   6.356
 6694SOL     OW20980   4.613   5.897   6.992
 6694SOL    HW120981   4.541   5.836   6.957
 6694SOL    HW220982   4.687   5.903   6.925
 6695SOL     OW20983   0.784   2.040   6.667
 6695SOL    HW120984   0.763   1.956   6.618
 6695SOL    HW220985   0.727   2.045   6.749
 6696SOL     OW20986   1.921   2.413   0.487
 6696SOL    HW120987   1.922   2.461   0.399
 6696SOL    HW220988   1.837   2.360   0.494
 6697SOL     OW20989   4.555   2.480   2.967
 6697SOL    HW120990   4.591   2.566   2.930
 6697SOL    HW220991   4.529   2.494   3.063
 6698SOL     OW20992   3.875   2.379   0.315
 6698SOL    HW120993   3.975   2.386   0.315
 6698SOL    HW220994   3.837   2.458   0.267
 6699SOL     OW20995   3.589   4.547   0.103
 6699SOL    HW120996   3.557   4.498   0.022
 6699SOL    HW220997   3.656   4.616   0.076
 6700SOL     OW20998   0.592   5.613   0.903
 6700SOL    HW120999   0.630   5.704   0.883
 6700SOL    HW221000   0.654   5.543   0.868
 6701SOL     OW21001   6.007   3.030   1.374
 6701SOL    HW121002   6.090   3.021   1.428
 6701SOL    HW221003   5.956   2.944   1.377
 6702SOL     OW21004   2.917   2.414   6.977
 6702SOL    HW121005   2.842   2.393   0.015
 6702SOL    HW221006   2.964   2.496   7.008
 6703SOL     OW21007   6.230   1.825   6.945
 6703SOL    HW121008   6.297   1.796   6.877
 6703SOL    HW221009   6.221   1.925   6.942
 6704SOL     OW21010   4.428   2.356   2.613
 6704SOL    HW121011   4.340   2.333   2.573
 6704SOL    HW221012   4.476   2.422   2.555
 6705SOL     OW21013   0.275   1.913   1.955
 6705SOL    HW121014   0.347   1.934   1.888
 6705SOL    HW221015   0.311   1.927   2.047
 6706SOL     OW21016   1.440   4.465   0.574
 6706SOL    HW121017   1.402   4.506   0.491
 6706SOL    HW221018   1.518   4.408   0.549
 6707SOL     OW21019   6.396   5.778   4.877
 6707SOL    HW121020   6.351   5.835   4.946
 6707SOL    HW221021   6.458   5.835   4.823
 6708SOL     OW21022   1.716   5.775   2.428
 6708SOL    HW121023   1.799   5.725   2.454
 6708SOL    HW221024   1.730   5.818   2.339
 6709SOL     OW21025   3.243   5.971   1.256
 6709SOL    HW121026   3.187   5.897   1.218
 6709SOL    HW221027   3.257   5.955   1.354
 6710SOL     OW21028   2.515   2.049   6.296
 6710SOL    HW121029   2.601   2.094   6.271
 6710SOL    HW221030   2.471   2.100   6.370
 6711SOL     OW21031   5.764   4.376   6.589
 6711SOL    HW121032   5.724   4.298   6.541
 6711SOL    HW221033   5.720   4.386   6.679
 6712SOL     OW21034   4.532   5.315   0.478
 6712SOL    HW121035   4.475   5.395   0.495
 6712SOL    HW221036   4.627   5.345   0.466
 6713SOL     OW21037   2.422   1.577   1.429
 6713SOL    HW121038   2.455   1.626   1.509
 6713SOL    HW221039   2.499   1.553   1.370
 6714SOL     OW21040   5.421   0.118   5.247
 6714SOL    HW121041   5.438   0.133   5.150
 6714SOL    HW221042   5.418   0.206   5.294
 6715SOL     OW21043   0.105   0.975   0.179
 6715SOL    HW121044   0.011   0.970   0.212
 6715SOL    HW221045   0.109   1.028   0.094
 6716SOL     OW21046   1.542   6.491   1.319
 6716SOL    HW121047   1.636   6.459   1.324
 6716SOL    HW221048   1.495   6.443   1.244
 6717SOL     OW21049   4.222   2.941   0.749
 6717SOL    HW121050   4.274   2.922   0.832
 6717SOL    HW221051   4.285   2.965   0.675
 6718SOL     OW21052   4.202   5.743   6.644
 6718SOL    HW121053   4.259   5.749   6.562
 6718SOL    HW221054   4.116   5.792   6.629
 6719SOL     OW21055   0.558   0.363   6.005
 6719SOL    HW121056   0.601   0.398   6.088
 6719SOL    HW221057   0.627   0.320   5.947
 6720SOL     OW21058   2.647   6.012   1.857
 6720SOL    HW121059   2.558   6.010   1.901
 6720SOL    HW221060   2.635   6.024   1.759
 6721SOL     OW21061   5.398   6.492   4.208
 6721SOL    HW121062   5.448   6.529   4.286
 6721SOL    HW221063   5.454   6.501   4.125
 6722SOL     OW21064   5.346   3.260   0.909
 6722SOL    HW121065   5.336   3.315   0.992
 6722SOL    HW221066   5.256   3.243   0.869
 6723SOL     OW21067   2.202   0.069   3.036
 6723SOL    HW121068   2.257   0.119   3.103
 6723SOL    HW221069   2.113   0.048   3.075
 6724SOL     OW21070   1.865   4.501   5.668
 6724SOL    HW121071   1.775   4.465   5.644
 6724SOL    HW221072   1.865   4.528   5.764
 6725SOL     OW21073   1.063   4.448   2.530
 6725SOL    HW121074   0.986   4.387   2.552
 6725SOL    HW221075   1.044   4.539   2.565
 6726SOL     OW21076   1.832   2.342   5.002
 6726SOL    HW121077   1.846   2.422   5.060
 6726SOL    HW221078   1.742   2.349   4.958
 6727SOL     OW21079   5.548   3.691   6.042
 6727SOL    HW121080   5.645   3.716   6.033
 6727SOL    HW221081   5.528   3.613   5.983
 6728SOL     OW21082   4.639   1.705   4.485
 6728SOL    HW121083   4.656   1.743   4.576
 6728SOL    HW221084   4.651   1.776   4.416
 6729SOL     OW21085   6.488   1.142   2.607
 6729SOL    HW121086   6.428   1.161   2.529
 6729SOL    HW221087   6.516   1.229   2.648
 6730SOL     OW21088   2.263   6.886   6.892
 6730SOL    HW121089   2.276   6.789   6.908
 6730SOL    HW221090   2.273   6.906   6.795
 6731SOL     OW21091   2.805   4.292   1.225
 6731SOL    HW121092   2.795   4.378   1.276
 6731SOL    HW221093   2.902   4.267   1.222
 6732SOL     OW21094   2.846   5.778   0.087
 6732SOL    HW121095   2.773   5.726   0.132
 6732SOL    HW221096   2.913   5.715   0.048
 6733SOL     OW21097   4.513   5.547   6.502
 6733SOL    HW121098   4.560   5.492   6.433
 6733SOL    HW221099   4.462   5.487   6.563
 6734SOL     OW21100   0.869   3.220   5.775
 6734SOL    HW121101   0.788   3.178   5.733
 6734SOL    HW221102   0.948   3.208   5.716
 6735SOL     OW21103   0.563   4.993   5.162
 6735SOL    HW121104   0.596   5.013   5.254
 6735SOL    HW221105   0.577   5.072   5.103
 6736SOL     OW21106   2.057   3.582   0.689
 6736SOL    HW121107   2.080   3.584   0.786
 6736SOL    HW221108   2.002   3.662   0.665
 6737SOL     OW21109   2.077   1.331   1.535
 6737SOL    HW121110   2.041   1.423   1.542
 6737SOL    HW221111   2.153   1.329   1.469
 6738SOL     OW21112   2.101   2.681   2.519
 6738SOL    HW121113   2.197   2.700   2.538
 6738SOL    HW221114   2.090   2.658   2.422
 6739SOL     OW21115   3.178   5.580   5.416
 6739SOL    HW121116   3.167   5.541   5.324
 6739SOL    HW221117   3.154   5.511   5.484
 6740SOL     OW21118   1.788   1.172   4.428
 6740SOL    HW121119   1.786   1.240   4.501
 6740SOL    HW221120   1.852   1.202   4.357
 6741SOL     OW21121   4.719   1.882   6.032
 6741SOL    HW121122   4.741   1.973   6.068
 6741SOL    HW221123   4.709   1.888   5.933
 6742SOL     OW21124   0.254   5.955   4.500
 6742SOL    HW121125   0.242   6.052   4.523
 6742SOL    HW221126   0.351   5.935   4.487
 6743SOL     OW21127   3.996   3.841   6.680
 6743SOL    HW121128   4.088   3.840   6.718
 6743SOL    HW221129   3.968   3.936   6.663
 6744SOL     OW21130   3.635   5.069   6.039
 6744SOL    HW121131   3.609   4.980   6.076
 6744SOL    HW221132   3.671   5.057   5.946
 6745SOL     OW21133   1.101   5.161   2.884
 6745SOL    HW121134   1.084   5.119   2.795
 6745SOL    HW221135   1.183   5.121   2.925
 6746SOL     OW21136   0.933   0.760   1.684
 6746SOL    HW121137   0.967   0.679   1.732
 6746SOL    HW221138   0.835   0.770   1.701
 6747SOL     OW21139   5.114   6.328   4.454
 6747SOL    HW121140   5.106   6.274   4.538
 6747SOL    HW221141   5.051   6.293   4.385
 6748SOL     OW21142   1.052   1.252   2.217
 6748SOL    HW121143   1.148   1.274   2.199
 6748SOL    HW221144   1.001   1.251   2.131
 6749SOL     OW21145   3.544   0.541   7.001
 6749SOL    HW121146   3.564   0.532   6.903
 6749SOL    HW221147   3.576   0.459   0.025
 6750SOL     OW21148   2.811   1.958   4.334
 6750SOL    HW121149   2.871   1.906   4.395
 6750SOL    HW221150   2.849   2.050   4.320
 6751SOL     OW21151   2.568   2.118   4.075
 6751SOL    HW121152   2.505   2.106   3.998
 6751SOL    HW221153   2.547   2.052   4.147
 6752SOL     OW21154   6.150   2.749   1.225
 6752SOL    HW121155   6.178   2.839   1.191
 6752SOL    HW221156   6.106   2.698   1.151
 6753SOL     OW21157   4.003   1.400   6.294
 6753SOL    HW121158   3.964   1.309   6.308
 6753SOL    HW221159   3.987   1.430   6.200
 6754SOL     OW21160   6.542   2.040   6.385
 6754SOL    HW121161   6.614   2.086   6.436
 6754SOL    HW221162   6.476   2.108   6.353
 6755SOL     OW21163   5.005   1.576   3.463
 6755SOL    HW121164   5.097   1.611   3.476
 6755SOL    HW221165   4.943   1.651   3.438
 6756SOL     OW21166   4.796   3.966   4.438
 6756SOL    HW121167   4.882   3.985   4.390
 6756SOL    HW221168   4.752   4.052   4.464
 6757SOL     OW21169   4.537   5.812   0.534
 6757SOL    HW121170   4.514   5.898   0.579
 6757SOL    HW221171   4.533   5.737   0.600
 6758SOL     OW21172   5.387   3.736   2.137
 6758SOL    HW121173   5.453   3.664   2.160
 6758SOL    HW221174   5.311   3.695   2.086
 6759SOL     OW21175   1.745   4.519   3.318
 6759SOL    HW121176   1.810   4.593   3.334
 6759SOL    HW221177   1.690   4.540   3.237
 6760SOL     OW21178   0.632   4.807   4.695
 6760SOL    HW121179   0.661   4.745   4.621
 6760SOL    HW221180   0.611   4.753   4.776
 6761SOL     OW21181   5.560   2.542   5.514
 6761SOL    HW121182   5.637   2.484   5.541
 6761SOL    HW221183   5.595   2.625   5.472
 6762SOL     OW21184   6.489   4.914   3.464
 6762SOL    HW121185   6.547   4.851   3.516
 6762SOL    HW221186   6.464   4.991   3.521
 6763SOL     OW21187   6.068   5.856   4.772
 6763SOL    HW121188   6.101   5.821   4.685
 6763SOL    HW221189   6.038   5.779   4.829
 6764SOL     OW21190   2.945   3.784   6.100
 6764SOL    HW121191   2.892   3.711   6.142
 6764SOL    HW221192   2.966   3.759   6.006
 6765SOL     OW21193   6.594   4.691   3.578
 6765SOL    HW121194   6.646   4.671   3.661
 6765SOL    HW221195   6.501   4.655   3.587
 6766SOL     OW21196   1.871   0.626   6.334
 6766SOL    HW121197   1.876   0.607   6.236
 6766SOL    HW221198   1.918   0.711   6.354
 6767SOL     OW21199   0.214   2.459   0.181
 6767SOL    HW121200   0.131   2.515   0.186
 6767SOL    HW221201   0.286   2.501   0.235
 6768SOL     OW21202   0.684   0.259   3.936
 6768SOL    HW121203   0.778   0.283   3.960
 6768SOL    HW221204   0.664   0.167   3.969
 6769SOL     OW21205   2.907   2.019   5.318
 6769SOL    HW121206   2.862   1.930   5.329
 6769SOL    HW221207   2.935   2.030   5.222
 6770SOL     OW21208   0.312   2.643   3.679
 6770SOL    HW121209   0.396   2.680   3.639
 6770SOL    HW221210   0.329   2.552   3.715
 6771SOL     OW21211   3.565   2.135   3.454
 6771SOL    HW121212   3.587   2.192   3.376
 6771SOL    HW221213   3.641   2.073   3.473
 6772SOL     OW21214   6.064   1.464   2.582
 6772SOL    HW121215   6.098   1.507   2.498
 6772SOL    HW221216   6.054   1.366   2.568
 6773SOL     OW21217   6.955   6.050   1.682
 6773SOL    HW121218   6.909   5.989   1.617
 6773SOL    HW221219   6.889   6.114   1.720
 6774SOL     OW21220   1.528   1.876   5.350
 6774SOL    HW121221   1.513   1.975   5.339
 6774SOL    HW221222   1.586   1.843   5.275
 6775SOL     OW21223   0.821   1.666   4.433
 6775SOL    HW121224   0.800   1.752   4.479
 6775SOL    HW221225   0.917   1.643   4.448
 6776SOL     OW21226   3.963   4.239   1.693
 6776SOL    HW121227   4.010   4.293   1.762
 6776SOL    HW221228   3.881   4.287   1.662
 6777SOL     OW21229   4.735   5.526   1.544
 6777SOL    HW121230   4.745   5.428   1.559
 6777SOL    HW221231   4.816   5.573   1.578
 6778SOL     OW21232   6.072   3.701   2.696
 6778SOL    HW121233   6.045   3.706   2.600
 6778SOL    HW221234   5.990   3.701   2.754
 6779SOL     OW21235   5.924   4.410   5.810
 6779SOL    HW121236   5.838   4.452   5.782
 6779SOL    HW221237   6.000   4.472   5.790
 6780SOL     OW21238   2.808   2.379   3.338
 6780SOL    HW121239   2.729   2.375   3.277
 6780SOL    HW221240   2.777   2.400   3.431
 6781SOL     OW21241   6.664   1.400   4.206
 6781SOL    HW121242   6.659   1.437   4.298
 6781SOL    HW221243   6.613   1.314   4.202
 6782SOL     OW21244   6.698   1.973   3.697
 6782SOL    HW121245   6.756   1.972   3.616
 6782SOL    HW221246   6.750   2.006   3.776
 6783SOL     OW21247   1.250   4.966   5.428
 6783SOL    HW121248   1.168   4.934   5.475
 6783SOL    HW221249   1.284   4.892   5.369
 6784SOL     OW21250   1.993   3.742   1.239
 6784SOL    HW121251   1.924   3.767   1.170
 6784SOL    HW221252   1.972   3.651   1.276
 6785SOL     OW21253   5.676   4.750   4.548
 6785SOL    HW121254   5.692   4.849   4.549
 6785SOL    HW221255   5.745   4.706   4.491
 6786SOL     OW21256   6.669   2.427   0.721
 6786SOL    HW121257   6.658   2.332   0.749
 6786SOL    HW221258   6.579   2.465   0.699
 6787SOL     OW21259   3.760   2.636   6.859
 6787SOL    HW121260   3.694   2.681   6.918
 6787SOL    HW221261   3.741   2.538   6.855
 6788SOL     OW21262   0.615   3.794   4.045
 6788SOL    HW121263   0.625   3.776   4.143
 6788SOL    HW221264   0.559   3.876   4.032
 6789SOL     OW21265   6.603   3.822   3.926
 6789SOL    HW121266   6.551   3.887   3.871
 6789SOL    HW221267   6.624   3.741   3.870
 6790SOL     OW21268   1.534   4.662   6.316
 6790SOL    HW121269   1.591   4.723   6.261
 6790SOL    HW221270   1.437   4.680   6.296
 6791SOL     OW21271   4.298   1.345   4.019
 6791SOL    HW121272   4.386   1.357   4.066
 6791SOL    HW221273   4.278   1.427   3.966
 6792SOL     OW21274   4.444   0.002   5.191
 6792SOL    HW121275   4.395   0.018   5.105
 6792SOL    HW221276   4.542   7.015   5.173
 6793SOL     OW21277   2.134   3.463   0.231
 6793SOL    HW121278   2.129   3.562   0.243
 6793SOL    HW221279   2.090   3.438   0.145
 6794SOL     OW21280   4.537   1.454   5.702
 6794SOL    HW121281   4.604   1.529   5.707
 6794SOL    HW221282   4.456   1.479   5.754
 6795SOL     OW21283   1.025   0.829   1.432
 6795SOL    HW121284   0.984   0.804   1.520
 6795SOL    HW221285   1.096   0.763   1.409
 6796SOL     OW21286   5.691   1.414   2.398
 6796SOL    HW121287   5.784   1.438   2.369
 6796SOL    HW221288   5.689   1.319   2.428
 6797SOL     OW21289   0.477   1.959   1.800
 6797SOL    HW121290   0.467   1.988   1.704
 6797SOL    HW221291   0.573   1.944   1.820
 6798SOL     OW21292   5.750   0.186   2.122
 6798SOL    HW121293   5.695   0.255   2.074
 6798SOL    HW221294   5.749   0.101   2.069
 6799SOL     OW21295   4.949   0.275   3.314
 6799SOL    HW121296   4.886   0.203   3.343
 6799SOL    HW221297   4.972   0.333   3.392
 6800SOL     OW21298   0.156   1.160   1.450
 6800SOL    HW121299   0.202   1.072   1.441
 6800SOL    HW221300   0.142   1.181   1.547
 6801SOL     OW21301   1.199   5.919   4.881
 6801SOL    HW121302   1.264   5.963   4.941
 6801SOL    HW221303   1.115   5.973   4.876
 6802SOL     OW21304   3.223   5.862   1.506
 6802SOL    HW121305   3.149   5.887   1.568
 6802SOL    HW221306   3.311   5.875   1.552
 6803SOL     OW21307   4.991   4.542   6.508
 6803SOL    HW121308   5.003   4.446   6.482
 6803SOL    HW221309   4.984   4.598   6.425
 6804SOL     OW21310   2.609   4.562   2.906
 6804SOL    HW121311   2.693   4.599   2.868
 6804SOL    HW221312   2.554   4.521   2.834
 6805SOL     OW21313   0.156   4.521   5.849
 6805SOL    HW121314   0.173   4.508   5.752
 6805SOL    HW221315   0.083   4.460   5.879
 6806SOL     OW21316   6.880   0.921   3.380
 6806SOL    HW121317   6.969   0.936   3.336
 6806SOL    HW221318   6.810   0.906   3.311
 6807SOL     OW21319   3.221   3.675   1.768
 6807SOL    HW121320   3.170   3.716   1.844
 6807SOL    HW221321   3.168   3.598   1.731
 6808SOL     OW21322   4.053   1.553   4.706
 6808SOL    HW121323   4.126   1.528   4.770
 6808SOL    HW221324   4.090   1.615   4.636
 6809SOL     OW21325   5.927   4.146   2.140
 6809SOL    HW121326   5.899   4.195   2.058
 6809SOL    HW221327   5.850   4.094   2.176
 6810SOL     OW21328   2.642   1.310   3.702
 6810SOL    HW121329   2.656   1.328   3.799
 6810SOL    HW221330   2.562   1.250   3.691
 6811SOL     OW21331   6.313   1.708   2.394
 6811SOL    HW121332   6.265   1.756   2.320
 6811SOL    HW221333   6.267   1.726   2.481
 6812SOL     OW21334   2.888   3.875   5.030
 6812SOL    HW121335   2.796   3.879   4.989
 6812SOL    HW221336   2.902   3.957   5.086
 6813SOL     OW21337   5.932   3.706   1.740
 6813SOL    HW121338   5.873   3.773   1.694
 6813SOL    HW221339   5.949   3.737   1.834
 6814SOL     OW21340   4.691   1.654   6.197
 6814SOL    HW121341   4.704   1.721   6.124
 6814SOL    HW221342   4.773   1.651   6.254
 6815SOL     OW21343   2.524   5.231   6.345
 6815SOL    HW121344   2.588   5.290   6.393
 6815SOL    HW221345   2.571   5.186   6.269
 6816SOL     OW21346   0.588   2.077   3.949
 6816SOL    HW121347   0.589   1.977   3.958
 6816SOL    HW221348   0.673   2.107   3.904
 6817SOL     OW21349   3.566   2.000   2.112
 6817SOL    HW121350   3.595   2.087   2.074
 6817SOL    HW221351   3.587   1.998   2.210
 6818SOL     OW21352   2.112   6.527   6.350
 6818SOL    HW121353   2.080   6.528   6.255
 6818SOL    HW221354   2.093   6.438   6.391
 6819SOL     OW21355   4.264   4.704   2.525
 6819SOL    HW121356   4.317   4.622   2.506
 6819SOL    HW221357   4.318   4.766   2.584
 6820SOL     OW21358   2.557   6.214   1.139
 6820SOL    HW121359   2.497   6.289   1.112
 6820SOL    HW221360   2.651   6.248   1.147
 6821SOL     OW21361   4.499   2.907   5.332
 6821SOL    HW121362   4.570   2.948   5.275
 6821SOL    HW221363   4.505   2.946   5.425
 6822SOL     OW21364   6.748   2.437   6.552
 6822SOL    HW121365   6.752   2.402   6.458
 6822SOL    HW221366   6.797   2.524   6.557
 6823SOL     OW21367   5.566   3.523   6.922
 6823SOL    HW121368   5.487   3.470   6.893
 6823SOL    HW221369   5.615   3.473   6.993
 6824SOL     OW21370   1.188   2.239   6.464
 6824SOL    HW121371   1.235   2.156   6.493
 6824SOL    HW221372   1.094   2.239   6.499
 6825SOL     OW21373   6.485   6.067   1.956
 6825SOL    HW121374   6.434   6.092   1.874
 6825SOL    HW221375   6.480   5.968   1.970
 6826SOL     OW21376   0.594   3.434   3.494
 6826SOL    HW121377   0.694   3.430   3.495
 6826SOL    HW221378   0.557   3.360   3.549
 6827SOL     OW21379   4.412   6.071   4.706
 6827SOL    HW121380   4.457   6.124   4.635
 6827SOL    HW221381   4.345   6.009   4.664
 6828SOL     OW21382   3.425   1.686   2.810
 6828SOL    HW121383   3.522   1.695   2.830
 6828SOL    HW221384   3.379   1.640   2.885
 6829SOL     OW21385   5.611   6.802   4.617
 6829SOL    HW121386   5.525   6.846   4.594
 6829SOL    HW221387   5.620   6.797   4.717
 6830SOL     OW21388   5.133   0.271   2.871
 6830SOL    HW121389   5.104   0.211   2.945
 6830SOL    HW221390   5.212   0.324   2.901
 6831SOL     OW21391   1.272   1.616   6.601
 6831SOL    HW121392   1.177   1.590   6.587
 6831SOL    HW221393   1.310   1.652   6.516
 6832SOL     OW21394   3.196   2.277   0.582
 6832SOL    HW121395   3.128   2.303   0.514
 6832SOL    HW221396   3.288   2.283   0.543
 6833SOL     OW21397   3.026   5.339   5.724
 6833SOL    HW121398   3.069   5.344   5.814
 6833SOL    HW221399   2.955   5.410   5.717
 6834SOL     OW21400   5.270   0.036   0.224
 6834SOL    HW121401   5.250   6.963   0.226
 6834SOL    HW221402   5.193   0.086   0.185
 6835SOL     OW21403   2.606   2.055   4.539
 6835SOL    HW121404   2.619   2.065   4.440
 6835SOL    HW221405   2.514   2.019   4.557
 6836SOL     OW21406   2.131   4.976   6.422
 6836SOL    HW121407   2.079   5.004   6.503
 6836SOL    HW221408   2.131   4.876   6.416
 6837SOL     OW21409   0.941   0.398   1.780
 6837SOL    HW121410   0.864   0.461   1.790
 6837SOL    HW221411   0.952   0.372   1.684
 6838SOL     OW21412   2.731   4.592   5.355
 6838SOL    HW121413   2.669   4.516   5.337
 6838SOL    HW221414   2.801   4.596   5.283
 6839SOL     OW21415   5.567   2.673   3.765
 6839SOL    HW121416   5.522   2.715   3.687
 6839SOL    HW221417   5.536   2.717   3.850
 6840SOL     OW21418   2.686   6.730   4.997
 6840SOL    HW121419   2.693   6.676   5.081
 6840SOL    HW221420   2.666   6.825   5.021
 6841SOL     OW21421   3.719   5.805   1.283
 6841SOL    HW121422   3.698   5.789   1.187
 6841SOL    HW221423   3.664   5.881   1.318
 6842SOL     OW21424   0.518   4.140   6.674
 6842SOL    HW121425   0.611   4.156   6.708
 6842SOL    HW221426   0.516   4.059   6.616
 6843SOL     OW21427   4.097   2.252   2.015
 6843SOL    HW121428   4.039   2.280   1.938
 6843SOL    HW221429   4.040   2.218   2.089
 6844SOL     OW21430   4.825   5.039   3.916
 6844SOL    HW121431   4.789   4.960   3.867
 6844SOL    HW221432   4.768   5.119   3.896
 6845SOL     OW21433   4.344   5.021   2.426
 6845SOL    HW121434   4.282   5.076   2.482
 6845SOL    HW221435   4.315   5.027   2.330
 6846SOL     OW21436   3.562   3.235   2.730
 6846SOL    HW121437   3.553   3.136   2.722
 6846SOL    HW221438   3.639   3.266   2.674
 6847SOL     OW21439   5.185   3.824   1.613
 6847SOL    HW121440   5.172   3.882   1.693
 6847SOL    HW221441   5.156   3.874   1.531
 6848SOL     OW21442   0.906   5.587   4.115
 6848SOL    HW121443   0.929   5.585   4.018
 6848SOL    HW221444   0.825   5.645   4.129
 6849SOL     OW21445   3.478   5.745   3.966
 6849SOL    HW121446   3.508   5.810   3.896
 6849SOL    HW221447   3.558   5.712   4.018
 6850SOL     OW21448   5.372   2.493   2.944
 6850SOL    HW121449   5.397   2.449   2.858
 6850SOL    HW221450   5.295   2.445   2.986
 6851SOL     OW21451   1.739   5.068   6.033
 6851SOL    HW121452   1.750   4.999   5.961
 6851SOL    HW221453   1.826   5.080   6.081
 6852SOL     OW21454   1.532   4.188   2.044
 6852SOL    HW121455   1.443   4.151   2.072
 6852SOL    HW221456   1.558   4.262   2.107
 6853SOL     OW21457   0.614   4.521   5.785
 6853SOL    HW121458   0.587   4.458   5.712
 6853SOL    HW221459   0.570   4.495   5.871
 6854SOL     OW21460   0.091   1.928   6.000
 6854SOL    HW121461   0.129   1.858   5.939
 6854SOL    HW221462   0.154   1.945   6.075
 6855SOL     OW21463   3.482   6.792   2.618
 6855SOL    HW121464   3.543   6.844   2.559
 6855SOL    HW221465   3.481   6.696   2.589
 6856SOL     OW21466   6.003   3.951   4.598
 6856SOL    HW121467   5.933   3.994   4.541
 6856SOL    HW221468   6.030   3.863   4.559
 6857SOL     OW21469   2.700   2.310   5.918
 6857SOL    HW121470   2.617   2.267   5.954
 6857SOL    HW221471   2.721   2.271   5.829
 6858SOL     OW21472   3.988   3.610   4.670
 6858SOL    HW121473   3.992   3.709   4.660
 6858SOL    HW221474   4.051   3.567   4.605
 6859SOL     OW21475   2.710   6.649   0.659
 6859SOL    HW121476   2.612   6.655   0.642
 6859SOL    HW221477   2.757   6.621   0.574
 6860SOL     OW21478   5.842   4.698   1.213
 6860SOL    HW121479   5.874   4.703   1.119
 6860SOL    HW221480   5.817   4.790   1.244
 6861SOL     OW21481   5.485   6.063   6.638
 6861SOL    HW121482   5.551   6.123   6.682
 6861SOL    HW221483   5.466   5.985   6.697
 6862SOL     OW21484   2.992   5.434   4.886
 6862SOL    HW121485   2.940   5.514   4.857
 6862SOL    HW221486   2.991   5.427   4.986
 6863SOL     OW21487   5.373   1.620   4.011
 6863SOL    HW121488   5.402   1.647   3.919
 6863SOL    HW221489   5.403   1.688   4.077
 6864SOL     OW21490   2.896   6.126   3.199
 6864SOL    HW121491   2.898   6.040   3.148
 6864SOL    HW221492   2.971   6.128   3.265
 6865SOL     OW21493   6.684   4.087   4.760
 6865SOL    HW121494   6.746   4.163   4.743
 6865SOL    HW221495   6.624   4.109   4.838
 6866SOL     OW21496   6.570   3.833   2.266
 6866SOL    HW121497   6.598   3.884   2.184
 6866SOL    HW221498   6.473   3.810   2.260
 6867SOL     OW21499   2.342   4.341   2.077
 6867SOL    HW121500   2.265   4.277   2.078
 6867SOL    HW221501   2.355   4.378   2.169
 6868SOL     OW21502   2.122   6.161   4.767
 6868SOL    HW121503   2.051   6.163   4.838
 6868SOL    HW221504   2.079   6.151   4.677
 6869SOL     OW21505   5.227   1.682   5.800
 6869SOL    HW121506   5.157   1.744   5.764
 6869SOL    HW221507   5.265   1.721   5.884
 6870SOL     OW21508   5.830   3.707   2.834
 6870SOL    HW121509   5.752   3.692   2.773
 6870SOL    HW221510   5.821   3.648   2.914
 6871SOL     OW21511   6.159   4.778   1.098
 6871SOL    HW121512   6.203   4.744   1.181
 6871SOL    HW221513   6.223   4.836   1.047
 6872SOL     OW21514   2.117   3.008   0.813
 6872SOL    HW121515   2.114   2.908   0.816
 6872SOL    HW221516   2.197   3.037   0.760
 6873SOL     OW21517   5.903   3.041   5.694
 6873SOL    HW121518   5.821   2.985   5.706
 6873SOL    HW221519   5.918   3.096   5.776
 6874SOL     OW21520   0.021   2.907   3.852
 6874SOL    HW121521   0.068   2.995   3.850
 6874SOL    HW221522   6.984   2.901   3.774
 6875SOL     OW21523   1.581   1.527   2.672
 6875SOL    HW121524   1.651   1.478   2.725
 6875SOL    HW221525   1.548   1.468   2.598
 6876SOL     OW21526   3.651   5.688   0.075
 6876SOL    HW121527   3.743   5.727   0.073
 6876SOL    HW221528   3.657   5.590   0.095
 6877SOL     OW21529   2.329   4.017   6.795
 6877SOL    HW121530   2.265   4.091   6.774
 6877SOL    HW221531   2.422   4.046   6.774
 6878SOL     OW21532   1.779   1.833   5.477
 6878SOL    HW121533   1.797   1.736   5.460
 6878SOL    HW221534   1.686   1.855   5.447
 6879SOL     OW21535   0.084   2.206   6.532
 6879SOL    HW121536   0.069   2.130   6.469
 6879SOL    HW221537   0.030   2.193   6.615
 6880SOL     OW21538   2.089   3.901   5.174
 6880SOL    HW121539   2.138   3.908   5.262
 6880SOL    HW221540   2.139   3.952   5.104
 6881SOL     OW21541   0.191   4.269   1.611
 6881SOL    HW121542   0.261   4.333   1.579
 6881SOL    HW221543   0.130   4.245   1.536
 6882SOL     OW21544   1.967   0.764   5.163
 6882SOL    HW121545   2.055   0.799   5.132
 6882SOL    HW221546   1.921   0.832   5.220
 6883SOL     OW21547   3.787   0.261   1.080
 6883SOL    HW121548   3.699   0.252   1.127
 6883SOL    HW221549   3.782   0.215   0.991
 6884SOL     OW21550   2.376   4.438   4.917
 6884SOL    HW121551   2.423   4.427   5.005
 6884SOL    HW221552   2.307   4.366   4.908
 6885SOL     OW21553   2.600   6.266   3.399
 6885SOL    HW121554   2.680   6.213   3.425
 6885SOL    HW221555   2.579   6.251   3.302
 6886SOL     OW21556   5.273   0.913   2.692
 6886SOL    HW121557   5.242   0.994   2.742
 6886SOL    HW221558   5.367   0.892   2.717
 6887SOL     OW21559   5.881   0.467   5.136
 6887SOL    HW121560   5.840   0.512   5.215
 6887SOL    HW221561   5.968   0.426   5.161
 6888SOL     OW21562   6.164   0.425   4.770
 6888SOL    HW121563   6.239   0.482   4.804
 6888SOL    HW221564   6.193   0.379   4.686
 6889SOL     OW21565   1.160   3.374   6.137
 6889SOL    HW121566   1.259   3.387   6.149
 6889SOL    HW221567   1.111   3.444   6.187
 6890SOL     OW21568   2.472   0.265   1.084
 6890SOL    HW121569   2.405   0.286   1.154
 6890SOL    HW221570   2.508   0.350   1.046
 6891SOL     OW21571   2.149   3.831   4.489
 6891SOL    HW121572   2.094   3.867   4.564
 6891SOL    HW221573   2.241   3.808   4.523
 6892SOL     OW21574   3.726   0.180   4.066
 6892SOL    HW121575   3.799   0.112   4.075
 6892SOL    HW221576   3.758   0.256   4.009
 6893SOL     OW21577   5.407   5.774   3.565
 6893SOL    HW121578   5.481   5.825   3.520
 6893SOL    HW221579   5.364   5.832   3.634
 6894SOL     OW21580   5.982   5.551   0.221
 6894SOL    HW121581   5.912   5.612   0.184
 6894SOL    HW221582   6.072   5.584   0.196
 6895SOL     OW21583   2.669   3.756   0.274
 6895SOL    HW121584   2.763   3.724   0.281
 6895SOL    HW221585   2.615   3.717   0.349
 6896SOL     OW21586   3.463   1.051   3.383
 6896SOL    HW121587   3.399   1.057   3.459
 6896SOL    HW221588   3.500   1.141   3.362
 6897SOL     OW21589   3.389   3.599   0.372
 6897SOL    HW121590   3.353   3.507   0.385
 6897SOL    HW221591   3.481   3.593   0.332
 6898SOL     OW21592   4.149   0.815   1.726
 6898SOL    HW121593   4.190   0.732   1.688
 6898SOL    HW221594   4.220   0.883   1.744
 6899SOL     OW21595   5.134   6.695   6.088
 6899SOL    HW121596   5.139   6.606   6.042
 6899SOL    HW221597   5.169   6.687   6.181
 6900SOL     OW21598   5.452   0.861   5.840
 6900SOL    HW121599   5.454   0.943   5.897
 6900SOL    HW221600   5.425   0.782   5.895
 6901SOL     OW21601   1.178   0.133   6.097
 6901SOL    HW121602   1.138   0.208   6.043
 6901SOL    HW221603   1.214   0.169   6.183
 6902SOL     OW21604   0.693   6.730   6.839
 6902SOL    HW121605   0.725   6.707   6.747
 6902SOL    HW221606   0.706   6.827   6.856
 6903SOL     OW21607   3.722   3.635   0.408
 6903SOL    HW121608   3.773   3.720   0.413
 6903SOL    HW221609   3.669   3.633   0.322
 6904SOL     OW21610   6.286   0.968   4.075
 6904SOL    HW121611   6.339   0.924   4.147
 6904SOL    HW221612   6.266   0.902   4.003
 6905SOL     OW21613   6.620   6.223   1.303
 6905SOL    HW121614   6.673   6.187   1.226
 6905SOL    HW221615   6.659   6.192   1.389
 6906SOL     OW21616   3.555   1.312   3.783
 6906SOL    HW121617   3.596   1.349   3.867
 6906SOL    HW221618   3.536   1.388   3.720
 6907SOL     OW21619   3.789   0.980   1.906
 6907SOL    HW121620   3.708   0.934   1.942
 6907SOL    HW221621   3.858   0.911   1.882
 6908SOL     OW21622   1.160   6.707   5.572
 6908SOL    HW121623   1.197   6.622   5.533
 6908SOL    HW221624   1.232   6.756   5.619
 6909SOL     OW21625   4.549   4.536   0.614
 6909SOL    HW121626   4.574   4.543   0.711
 6909SOL    HW221627   4.561   4.442   0.583
 6910SOL     OW21628   6.398   1.628   1.982
 6910SOL    HW121629   6.371   1.725   1.982
 6910SOL    HW221630   6.495   1.621   2.003
 6911SOL     OW21631   4.280   0.058   3.821
 6911SOL    HW121632   4.268   0.039   3.724
 6911SOL    HW221633   4.362   0.114   3.835
 6912SOL     OW21634   4.888   4.868   1.085
 6912SOL    HW121635   4.854   4.791   1.138
 6912SOL    HW221636   4.874   4.851   0.988
 6913SOL     OW21637   4.999   4.702   4.335
 6913SOL    HW121638   4.904   4.712   4.364
 6913SOL    HW221639   5.021   4.605   4.325
 6914SOL     OW21640   5.998   5.042   6.490
 6914SOL    HW121641   6.072   4.995   6.442
 6914SOL    HW221642   5.954   4.978   6.553
 6915SOL     OW21643   0.645   4.294   2.493
 6915SOL    HW121644   0.655   4.204   2.451
 6915SOL    HW221645   0.734   4.325   2.527
 6916SOL     OW21646   6.706   4.219   6.832
 6916SOL    HW121647   6.623   4.253   6.875
 6916SOL    HW221648   6.737   4.285   6.763
 6917SOL     OW21649   3.958   6.232   6.000
 6917SOL    HW121650   3.982   6.253   5.905
 6917SOL    HW221651   3.916   6.142   6.004
 6918SOL     OW21652   0.463   4.040   4.039
 6918SOL    HW121653   0.379   3.986   4.043
 6918SOL    HW221654   0.455   4.118   4.101
 6919SOL     OW21655   2.443   6.071   2.542
 6919SOL    HW121656   2.470   6.050   2.449
 6919SOL    HW221657   2.449   6.170   2.557
 6920SOL     OW21658   5.232   5.158   4.286
 6920SOL    HW121659   5.193   5.169   4.377
 6920SOL    HW221660   5.204   5.070   4.248
 6921SOL     OW21661   6.110   6.556   3.446
 6921SOL    HW121662   6.195   6.603   3.420
 6921SOL    HW221663   6.087   6.489   3.375
 6922SOL     OW21664   2.127   6.188   6.656
 6922SOL    HW121665   2.175   6.153   6.737
 6922SOL    HW221666   2.193   6.213   6.586
 6923SOL     OW21667   4.305   6.609   3.744
 6923SOL    HW121668   4.363   6.567   3.813
 6923SOL    HW221669   4.252   6.683   3.786
 6924SOL     OW21670   1.101   4.893   0.212
 6924SOL    HW121671   1.164   4.816   0.204
 6924SOL    HW221672   1.020   4.875   0.156
 6925SOL     OW21673   4.294   5.772   3.533
 6925SOL    HW121674   4.236   5.693   3.511
 6925SOL    HW221675   4.358   5.747   3.606
 6926SOL     OW21676   3.942   3.762   3.642
 6926SOL    HW121677   3.843   3.768   3.653
 6926SOL    HW221678   3.969   3.814   3.561
 6927SOL     OW21679   5.065   3.660   6.613
 6927SOL    HW121680   4.996   3.590   6.636
 6927SOL    HW221681   5.020   3.738   6.571
 6928SOL     OW21682   4.035   0.566   6.561
 6928SOL    HW121683   4.131   0.569   6.587
 6928SOL    HW221684   4.013   0.476   6.524
 6929SOL     OW21685   4.648   6.277   6.750
 6929SOL    HW121686   4.615   6.367   6.723
 6929SOL    HW221687   4.618   6.209   6.683
 6930SOL     OW21688   0.754   6.460   1.931
 6930SOL    HW121689   0.832   6.458   1.868
 6930SOL    HW221690   0.692   6.533   1.904
 6931SOL     OW21691   0.750   0.191   1.674
 6931SOL    HW121692   0.804   0.226   1.597
 6931SOL    HW221693   0.729   0.266   1.737
 6932SOL     OW21694   2.810   1.173   6.773
 6932SOL    HW121695   2.878   1.184   6.845
 6932SOL    HW221696   2.730   1.229   6.794
 6933SOL     OW21697   3.575   5.699   4.930
 6933SOL    HW121698   3.557   5.623   4.993
 6933SOL    HW221699   3.668   5.732   4.944
 6934SOL     OW21700   5.150   2.458   6.989
 6934SOL    HW121701   5.187   2.380   0.015
 6934SOL    HW221702   5.211   2.481   6.914
 6935SOL     OW21703   3.906   5.753   3.824
 6935SOL    HW121704   3.841   5.827   3.841
 6935SOL    HW221705   3.999   5.784   3.845
 6936SOL     OW21706   0.295   2.348   2.207
 6936SOL    HW121707   0.314   2.397   2.122
 6936SOL    HW221708   0.210   2.295   2.197
 6937SOL     OW21709   4.069   6.279   5.735
 6937SOL    HW121710   4.035   6.271   5.641
 6937SOL    HW221711   4.155   6.331   5.735
 6938SOL     OW21712   4.972   3.575   5.905
 6938SOL    HW121713   4.972   3.664   5.951
 6938SOL    HW221714   5.066   3.543   5.894
 6939SOL     OW21715   0.282   4.614   2.245
 6939SOL    HW121716   0.341   4.654   2.316
 6939SOL    HW221717   0.251   4.687   2.184
 6940SOL     OW21718   4.496   0.367   6.434
 6940SOL    HW121719   4.550   0.451   6.441
 6940SOL    HW221720   4.441   0.369   6.351
 6941SOL     OW21721   3.186   3.082   2.153
 6941SOL    HW121722   3.090   3.069   2.127
 6941SOL    HW221723   3.245   3.027   2.094
 6942SOL     OW21724   0.488   2.355   0.614
 6942SOL    HW121725   0.466   2.294   0.690
 6942SOL    HW221726   0.414   2.421   0.602
 6943SOL     OW21727   5.240   6.437   6.015
 6943SOL    HW121728   5.339   6.427   6.003
 6943SOL    HW221729   5.197   6.346   6.015
 6944SOL     OW21730   0.866   5.754   5.628
 6944SOL    HW121731   0.872   5.759   5.727
 6944SOL    HW221732   0.796   5.687   5.602
 6945SOL     OW21733   6.263   3.373   6.430
 6945SOL    HW121734   6.240   3.316   6.351
 6945SOL    HW221735   6.191   3.367   6.498
 6946SOL     OW21736   6.020   4.791   3.004
 6946SOL    HW121737   5.998   4.707   3.055
 6946SOL    HW221738   6.026   4.769   2.907
 6947SOL     OW21739   3.589   6.766   3.437
 6947SOL    HW121740   3.514   6.735   3.378
 6947SOL    HW221741   3.666   6.796   3.380
 6948SOL     OW21742   5.151   0.499   0.535
 6948SOL    HW121743   5.204   0.433   0.588
 6948SOL    HW221744   5.054   0.472   0.535
 6949SOL     OW21745   4.748   6.301   3.364
 6949SOL    HW121746   4.827   6.260   3.409
 6949SOL    HW221747   4.765   6.398   3.347
 6950SOL     OW21748   2.054   0.598   3.479
 6950SOL    HW121749   2.081   0.533   3.408
 6950SOL    HW221750   1.959   0.625   3.466
 6951SOL     OW21751   6.503   6.349   6.007
 6951SOL    HW121752   6.539   6.399   5.929
 6951SOL    HW221753   6.542   6.385   6.091
 6952SOL     OW21754   6.802   5.177   3.409
 6952SOL    HW121755   6.870   5.118   3.453
 6952SOL    HW221756   6.711   5.154   3.443
 6953SOL     OW21757   5.317   0.734   6.075
 6953SOL    HW121758   5.356   0.667   6.139
 6953SOL    HW221759   5.250   0.790   6.123
 6954SOL     OW21760   0.234   2.940   4.334
 6954SOL    HW121761   0.324   2.941   4.289
 6954SOL    HW221762   0.169   2.890   4.277
 6955SOL     OW21763   0.569   6.455   1.545
 6955SOL    HW121764   0.512   6.398   1.604
 6955SOL    HW221765   0.606   6.532   1.598
 6956SOL     OW21766   4.845   5.440   2.090
 6956SOL    HW121767   4.854   5.396   2.179
 6956SOL    HW221768   4.799   5.378   2.027
 6957SOL     OW21769   6.591   4.704   1.914
 6957SOL    HW121770   6.567   4.661   1.827
 6957SOL    HW221771   6.654   4.646   1.964
 6958SOL     OW21772   2.184   2.130   6.256
 6958SOL    HW121773   2.199   2.050   6.198
 6958SOL    HW221774   2.120   2.192   6.211
 6959SOL     OW21775   3.453   1.465   4.858
 6959SOL    HW121776   3.462   1.366   4.870
 6959SOL    HW221777   3.483   1.511   4.942
 6960SOL     OW21778   7.023   4.930   0.214
 6960SOL    HW121779   7.011   5.000   0.144
 6960SOL    HW221780   6.947   4.933   0.279
 6961SOL     OW21781   0.659   2.236   3.474
 6961SOL    HW121782   0.609   2.231   3.388
 6961SOL    HW221783   0.730   2.306   3.468
 6962SOL     OW21784   5.498   5.628   2.744
 6962SOL    HW121785   5.489   5.601   2.840
 6962SOL    HW221786   5.456   5.718   2.731
 6963SOL     OW21787   0.225   5.070   1.782
 6963SOL    HW121788   0.203   5.079   1.879
 6963SOL    HW221789   0.144   5.095   1.727
 6964SOL     OW21790   4.837   5.011   5.257
 6964SOL    HW121791   4.885   4.971   5.179
 6964SOL    HW221792   4.792   4.938   5.309
 6965SOL     OW21793   6.513   3.300   6.227
 6965SOL    HW121794   6.478   3.234   6.294
 6965SOL    HW221795   6.613   3.301   6.231
 6966SOL     OW21796   5.180   2.874   2.474
 6966SOL    HW121797   5.211   2.964   2.443
 6966SOL    HW221798   5.103   2.885   2.537
 6967SOL     OW21799   1.334   2.237   6.019
 6967SOL    HW121800   1.308   2.178   5.942
 6967SOL    HW221801   1.335   2.183   6.103
 6968SOL     OW21802   4.469   6.066   1.181
 6968SOL    HW121803   4.475   5.979   1.229
 6968SOL    HW221804   4.440   6.050   1.087
 6969SOL     OW21805   3.872   1.220   1.773
 6969SOL    HW121806   3.840   1.140   1.824
 6969SOL    HW221807   3.886   1.296   1.836
 6970SOL     OW21808   4.055   4.593   0.720
 6970SOL    HW121809   3.986   4.540   0.670
 6970SOL    HW221810   4.013   4.635   0.800
 6971SOL     OW21811   6.489   2.732   1.493
 6971SOL    HW121812   6.571   2.756   1.545
 6971SOL    HW221813   6.420   2.695   1.554
 6972SOL     OW21814   5.531   4.405   3.892
 6972SOL    HW121815   5.442   4.413   3.938
 6972SOL    HW221816   5.603   4.435   3.954
 6973SOL     OW21817   1.530   4.661   4.444
 6973SOL    HW121818   1.433   4.638   4.442
 6973SOL    HW221819   1.577   4.601   4.508
 6974SOL     OW21820   3.902   3.447   3.156
 6974SOL    HW121821   3.868   3.541   3.155
 6974SOL    HW221822   3.862   3.396   3.080
 6975SOL     OW21823   3.688   0.159   5.529
 6975SOL    HW121824   3.695   0.125   5.435
 6975SOL    HW221825   3.608   0.218   5.537
 6976SOL     OW21826   3.265   4.904   6.587
 6976SOL    HW121827   3.185   4.906   6.526
 6976SOL    HW221828   3.334   4.968   6.554
 6977SOL     OW21829   4.801   1.926   2.337
 6977SOL    HW121830   4.742   1.872   2.276
 6977SOL    HW221831   4.831   2.009   2.289
 6978SOL     OW21832   6.744   0.722   2.025
 6978SOL    HW121833   6.746   0.652   2.097
 6978SOL    HW221834   6.782   0.684   1.941
 6979SOL     OW21835   1.352   5.059   2.060
 6979SOL    HW121836   1.427   5.042   1.997
 6979SOL    HW221837   1.388   5.092   2.147
 6980SOL     OW21838   2.379   0.977   3.555
 6980SOL    HW121839   2.283   0.982   3.580
 6980SOL    HW221840   2.397   0.889   3.509
 6981SOL     OW21841   2.672   4.141   6.925
 6981SOL    HW121842   2.676   4.046   6.955
 6981SOL    HW221843   2.662   4.145   6.825
 6982SOL     OW21844   1.097   1.091   4.059
 6982SOL    HW121845   1.170   1.023   4.070
 6982SOL    HW221846   1.091   1.147   4.142
 6983SOL     OW21847   6.998   0.494   4.424
 6983SOL    HW121848   6.971   0.590   4.413
 6983SOL    HW221849   7.015   0.454   4.334
 6984SOL     OW21850   2.029   1.944   5.478
 6984SOL    HW121851   2.080   1.861   5.456
 6984SOL    HW221852   1.936   1.920   5.506
 6985SOL     OW21853   3.977   5.668   2.199
 6985SOL    HW121854   3.957   5.570   2.186
 6985SOL    HW221855   3.927   5.701   2.279
 6986SOL     OW21856   2.071   6.450   6.082
 6986SOL    HW121857   2.002   6.515   6.050
 6986SOL    HW221858   2.037   6.357   6.070
 6987SOL     OW21859   0.386   2.235   6.377
 6987SOL    HW121860   0.368   2.325   6.338
 6987SOL    HW221861   0.369   2.238   6.476
 6988SOL     OW21862   5.470   1.454   4.511
 6988SOL    HW121863   5.476   1.507   4.595
 6988SOL    HW221864   5.543   1.386   4.509
 6989SOL     OW21865   0.768   1.760   3.580
 6989SOL    HW121866   0.682   1.713   3.601
 6989SOL    HW221867   0.821   1.704   3.516
 6990SOL     OW21868   4.595   2.189   0.145
 6990SOL    HW121869   4.542   2.273   0.132
 6990SOL    HW221870   4.547   2.113   0.103
 6991SOL     OW21871   2.535   4.467   5.151
 6991SOL    HW121872   2.628   4.494   5.125
 6991SOL    HW221873   2.538   4.375   5.191
 6992SOL     OW21874   6.156   6.282   4.719
 6992SOL    HW121875   6.249   6.283   4.681
 6992SOL    HW221876   6.147   6.206   4.784
 6993SOL     OW21877   6.513   6.490   3.113
 6993SOL    HW121878   6.483   6.582   3.137
 6993SOL    HW221879   6.433   6.432   3.094
 6994SOL     OW21880   1.052   3.914   5.721
 6994SOL    HW121881   1.068   3.847   5.793
 6994SOL    HW221882   1.025   3.867   5.637
 6995SOL     OW21883   5.995   5.530   4.685
 6995SOL    HW121884   5.942   5.540   4.600
 6995SOL    HW221885   5.941   5.479   4.752
 6996SOL     OW21886   2.965   0.656   4.791
 6996SOL    HW121887   3.007   0.628   4.705
 6996SOL    HW221888   2.912   0.739   4.777
 6997SOL     OW21889   4.738   6.366   5.081
 6997SOL    HW121890   4.771   6.450   5.038
 6997SOL    HW221891   4.728   6.294   5.012
 6998SOL     OW21892   1.722   2.954   1.467
 6998SOL    HW121893   1.792   3.006   1.516
 6998SOL    HW221894   1.754   2.935   1.374
 6999SOL     OW21895   2.230   1.369   6.201
 6999SOL    HW121896   2.147   1.405   6.157
 6999SOL    HW221897   2.305   1.434   6.188
 7000SOL     OW21898   0.448   6.074   2.819
 7000SOL    HW121899   0.434   6.167   2.785
 7000SOL    HW221900   0.520   6.075   2.889
 7001SOL     OW21901   2.681   2.429   5.636
 7001SOL    HW121902   2.716   2.336   5.644
 7001SOL    HW221903   2.594   2.428   5.587
 7002SOL     OW21904   2.717   4.704   3.549
 7002SOL    HW121905   2.685   4.610   3.534
 7002SOL    HW221906   2.753   4.713   3.641
 7003SOL     OW21907   2.774   0.309   6.734
 7003SOL    HW121908   2.829   0.301   6.651
 7003SOL    HW221909   2.701   0.376   6.720
 7004SOL     OW21910   2.036   4.286   1.871
 7004SOL    HW121911   2.059   4.338   1.789
 7004SOL    HW221912   2.026   4.189   1.847
 7005SOL     OW21913   6.437   6.047   5.582
 7005SOL    HW121914   6.519   6.050   5.525
 7005SOL    HW221915   6.458   6.082   5.673
 7006SOL     OW21916   4.708   4.293   4.801
 7006SOL    HW121917   4.703   4.245   4.714
 7006SOL    HW221918   4.784   4.256   4.855
 7007SOL     OW21919   4.702   6.577   3.104
 7007SOL    HW121920   4.621   6.631   3.129
 7007SOL    HW221921   4.756   6.561   3.186
 7008SOL     OW21922   2.073   4.972   4.783
 7008SOL    HW121923   2.081   4.967   4.683
 7008SOL    HW221924   1.990   4.925   4.812
 7009SOL     OW21925   6.482   5.164   2.655
 7009SOL    HW121926   6.508   5.249   2.701
 7009SOL    HW221927   6.564   5.109   2.641
 7010SOL     OW21928   3.658   4.821   6.186
 7010SOL    HW121929   3.578   4.761   6.175
 7010SOL    HW221930   3.740   4.765   6.194
 7011SOL     OW21931   1.523   6.819   5.138
 7011SOL    HW121932   1.503   6.722   5.156
 7011SOL    HW221933   1.437   6.870   5.134
 7012SOL     OW21934   1.272   0.344   2.019
 7012SOL    HW121935   1.308   0.271   2.078
 7012SOL    HW221936   1.342   0.414   2.006
 7013SOL     OW21937   0.872   6.676   1.075
 7013SOL    HW121938   0.935   6.619   1.024
 7013SOL    HW221939   0.865   6.642   1.169
 7014SOL     OW21940   4.165   3.840   0.932
 7014SOL    HW121941   4.158   3.758   0.875
 7014SOL    HW221942   4.204   3.915   0.878
 7015SOL     OW21943   5.456   3.484   2.235
 7015SOL    HW121944   5.535   3.424   2.246
 7015SOL    HW221945   5.391   3.442   2.171
 7016SOL     OW21946   4.570   5.208   2.208
 7016SOL    HW121947   4.505   5.181   2.137
 7016SOL    HW221948   4.565   5.307   2.222
 7017SOL     OW21949   2.644   1.072   3.214
 7017SOL    HW121950   2.654   0.973   3.227
 7017SOL    HW221951   2.621   1.115   3.302
 7018SOL     OW21952   6.921   3.983   5.006
 7018SOL    HW121953   6.904   4.081   4.991
 7018SOL    HW221954   6.997   3.953   4.949
 7019SOL     OW21955   2.547   4.591   6.725
 7019SOL    HW121956   2.597   4.652   6.788
 7019SOL    HW221957   2.452   4.620   6.720
 7020SOL     OW21958   5.522   0.375   0.376
 7020SOL    HW121959   5.506   0.455   0.319
 7020SOL    HW221960   5.564   0.403   0.462
 7021SOL     OW21961   2.834   0.885   4.715
 7021SOL    HW121962   2.896   0.926   4.649
 7021SOL    HW221963   2.802   0.955   4.779
 7022SOL     OW21964   5.126   3.542   0.829
 7022SOL    HW121965   5.061   3.564   0.756
 7022SOL    HW221966   5.219   3.560   0.798
 7023SOL     OW21967   6.453   2.435   2.831
 7023SOL    HW121968   6.506   2.495   2.890
 7023SOL    HW221969   6.385   2.488   2.781
 7024SOL     OW21970   1.920   5.741   6.229
 7024SOL    HW121971   1.825   5.760   6.205
 7024SOL    HW221972   1.925   5.652   6.276
 7025SOL     OW21973   2.953   1.994   6.453
 7025SOL    HW121974   2.977   1.923   6.386
 7025SOL    HW221975   2.878   1.961   6.510
 7026SOL     OW21976   2.892   1.170   2.241
 7026SOL    HW121977   2.907   1.178   2.143
 7026SOL    HW221978   2.979   1.179   2.289
 7027SOL     OW21979   3.989   5.624   3.233
 7027SOL    HW121980   4.085   5.622   3.204
 7027SOL    HW221981   3.968   5.714   3.272
 7028SOL     OW21982   4.799   6.583   3.970
 7028SOL    HW121983   4.778   6.580   3.873
 7028SOL    HW221984   4.839   6.672   3.993
 7029SOL     OW21985   2.964   6.483   6.417
 7029SOL    HW121986   3.032   6.500   6.488
 7029SOL    HW221987   2.983   6.396   6.372
 7030SOL     OW21988   0.391   4.060   5.823
 7030SOL    HW121989   0.415   3.972   5.782
 7030SOL    HW221990   0.308   4.049   5.879
 7031SOL     OW21991   2.273   5.876   3.975
 7031SOL    HW121992   2.284   5.886   4.074
 7031SOL    HW221993   2.175   5.871   3.953
 7032SOL     OW21994   4.463   6.983   3.150
 7032SOL    HW121995   4.448   0.013   3.068
 7032SOL    HW221996   4.562   6.976   3.167
 7033SOL     OW21997   6.745   1.331   3.931
 7033SOL    HW121998   6.818   1.368   3.875
 7033SOL    HW221999   6.743   1.379   4.019
 7034SOL     OW22000   5.094   0.441   2.435
 7034SOL    HW122001   5.147   0.362   2.464
 7034SOL    HW222002   5.154   0.506   2.387
 7035SOL     OW22003   1.117   6.809   2.670
 7035SOL    HW122004   1.150   6.716   2.657
 7035SOL    HW222005   1.046   6.829   2.602
 7036SOL     OW22006   6.546   5.703   1.740
 7036SOL    HW122007   6.529   5.775   1.672
 7036SOL    HW222008   6.553   5.744   1.831
 7037SOL     OW22009   0.223   6.488   5.965
 7037SOL    HW122010   0.126   6.468   5.951
 7037SOL    HW222011   0.262   6.421   6.027
 7038SOL     OW22012   1.521   4.298   3.976
 7038SOL    HW122013   1.530   4.397   3.989
 7038SOL    HW222014   1.549   4.251   4.059
 7039SOL     OW22015   3.073   6.908   6.996
 7039SOL    HW122016   3.102   6.862   6.913
 7039SOL    HW222017   3.044   6.840   0.039
 7040SOL     OW22018   4.880   2.818   5.846
 7040SOL    HW122019   4.897   2.763   5.764
 7040SOL    HW222020   4.784   2.811   5.871
 7041SOL     OW22021   1.343   1.382   3.377
 7041SOL    HW122022   1.289   1.414   3.299
 7041SOL    HW222023   1.363   1.284   3.366
 7042SOL     OW22024   4.926   5.289   6.466
 7042SOL    HW122025   4.936   5.387   6.444
 7042SOL    HW222026   4.871   5.245   6.395
 7043SOL     OW22027   1.860   3.204   3.115
 7043SOL    HW122028   1.898   3.296   3.126
 7043SOL    HW222029   1.933   3.137   3.121
 7044SOL     OW22030   4.747   4.667   2.902
 7044SOL    HW122031   4.680   4.686   2.974
 7044SOL    HW222032   4.703   4.669   2.813
 7045SOL     OW22033   5.005   6.789   0.964
 7045SOL    HW122034   4.958   6.778   1.052
 7045SOL    HW222035   4.967   6.869   0.916
 7046SOL     OW22036   3.717   1.760   4.449
 7046SOL    HW122037   3.675   1.669   4.455
 7046SOL    HW222038   3.802   1.754   4.397
 7047SOL     OW22039   0.836   2.068   2.894
 7047SOL    HW122040   0.743   2.098   2.915
 7047SOL    HW222041   0.859   2.093   2.800
 7048SOL     OW22042   1.200   5.688   1.008
 7048SOL    HW122043   1.296   5.663   0.996
 7048SOL    HW222044   1.180   5.697   1.105
 7049SOL     OW22045   2.198   0.800   0.732
 7049SOL    HW122046   2.239   0.712   0.707
 7049SOL    HW222047   2.135   0.786   0.808
 7050SOL     OW22048   3.632   4.139   3.999
 7050SOL    HW122049   3.620   4.234   4.027
 7050SOL    HW222050   3.696   4.135   3.922
 7051SOL     OW22051   6.990   0.455   1.486
 7051SOL    HW122052   0.010   0.372   1.520
 7051SOL    HW222053   6.892   0.439   1.478
 7052SOL     OW22054   6.765   1.902   4.819
 7052SOL    HW122055   6.818   1.980   4.852
 7052SOL    HW222056   6.675   1.933   4.789
 7053SOL     OW22057   7.001   3.688   6.677
 7053SOL    HW122058   7.001   3.691   6.777
 7053SOL    HW222059   6.988   3.780   6.641
 7054SOL     OW22060   0.553   5.992   1.289
 7054SOL    HW122061   0.472   5.988   1.347
 7054SOL    HW222062   0.632   6.022   1.343
 7055SOL     OW22063   4.190   6.727   5.723
 7055SOL    HW122064   4.212   6.808   5.777
 7055SOL    HW222065   4.145   6.659   5.781
 7056SOL     OW22066   5.678   4.978   3.549
 7056SOL    HW122067   5.723   4.930   3.625
 7056SOL    HW222068   5.743   4.991   3.475
 7057SOL     OW22069   0.953   4.038   4.710
 7057SOL    HW122070   0.941   4.079   4.801
 7057SOL    HW222071   0.884   4.074   4.648
 7058SOL     OW22072   0.275   5.575   5.294
 7058SOL    HW122073   0.205   5.504   5.294
 7058SOL    HW222074   0.330   5.566   5.211
 7059SOL     OW22075   0.410   0.156   1.888
 7059SOL    HW122076   0.508   0.136   1.885
 7059SOL    HW222077   0.394   0.242   1.935
 7060SOL     OW22078   3.328   0.109   1.856
 7060SOL    HW122079   3.266   0.036   1.887
 7060SOL    HW222080   3.406   0.068   1.808
 7061SOL     OW22081   0.442   2.332   3.603
 7061SOL    HW122082   0.537   2.307   3.589
 7061SOL    HW222083   0.419   2.327   3.700
 7062SOL     OW22084   5.922   2.008   5.780
 7062SOL    HW122085   5.835   2.022   5.828
 7062SOL    HW222086   5.905   1.994   5.683
 7063SOL     OW22087   1.536   6.041   0.526
 7063SOL    HW122088   1.540   6.069   0.430
 7063SOL    HW222089   1.626   6.011   0.556
 7064SOL     OW22090   4.620   2.351   1.556
 7064SOL    HW122091   4.699   2.405   1.583
 7064SOL    HW222092   4.647   2.255   1.547
 7065SOL     OW22093   4.925   4.210   1.225
 7065SOL    HW122094   4.990   4.193   1.151
 7065SOL    HW222095   4.922   4.308   1.245
 7066SOL     OW22096   3.600   0.877   0.436
 7066SOL    HW122097   3.623   0.900   0.531
 7066SOL    HW222098   3.519   0.928   0.408
 7067SOL     OW22099   0.715   3.645   5.638
 7067SOL    HW122100   0.723   3.590   5.554
 7067SOL    HW222101   0.725   3.585   5.718
 7068SOL     OW22102   1.310   3.118   3.117
 7068SOL    HW122103   1.275   3.172   3.040
 7068SOL    HW222104   1.400   3.152   3.144
 7069SOL     OW22105   6.170   3.864   4.843
 7069SOL    HW122106   6.092   3.901   4.894
 7069SOL    HW222107   6.140   3.840   4.750
 7070SOL     OW22108   6.616   5.329   5.384
 7070SOL    HW122109   6.555   5.407   5.392
 7070SOL    HW222110   6.574   5.259   5.325
 7071SOL     OW22111   0.778   6.219   5.463
 7071SOL    HW122112   0.745   6.126   5.478
 7071SOL    HW222113   0.727   6.260   5.387
 7072SOL     OW22114   0.056   6.905   6.167
 7072SOL    HW122115   7.015   6.848   6.117
 7072SOL    HW222116   0.139   6.917   6.111
 7073SOL     OW22117   6.810   0.768   4.855
 7073SOL    HW122118   6.871   0.732   4.926
 7073SOL    HW222119   6.862   0.789   4.773
 7074SOL     OW22120   3.667   3.170   2.183
 7074SOL    HW122121   3.751   3.224   2.177
 7074SOL    HW222122   3.593   3.227   2.221
 7075SOL     OW22123   1.410   6.219   4.406
 7075SOL    HW122124   1.382   6.271   4.325
 7075SOL    HW222125   1.489   6.162   4.383
 7076SOL     OW22126   3.457   1.765   6.975
 7076SOL    HW122127   3.434   1.710   6.895
 7076SOL    HW222128   3.399   1.846   6.978
 7077SOL     OW22129   2.329   5.877   5.431
 7077SOL    HW122130   2.307   5.832   5.345
 7077SOL    HW222131   2.244   5.890   5.484
 7078SOL     OW22132   6.004   0.560   2.941
 7078SOL    HW122133   6.073   0.504   2.895
 7078SOL    HW222134   5.913   0.529   2.914
 7079SOL     OW22135   6.628   6.481   5.798
 7079SOL    HW122136   6.632   6.561   5.738
 7079SOL    HW222137   6.673   6.404   5.754
 7080SOL     OW22138   3.946   2.035   3.855
 7080SOL    HW122139   4.025   1.985   3.820
 7080SOL    HW222140   3.929   2.010   3.950
 7081SOL     OW22141   3.812   1.374   5.479
 7081SOL    HW122142   3.789   1.463   5.439
 7081SOL    HW222143   3.789   1.302   5.414
 7082SOL     OW22144   5.349   6.656   0.560
 7082SOL    HW122145   5.311   6.684   0.648
 7082SOL    HW222146   5.413   6.725   0.527
 7083SOL     OW22147   3.204   1.145   6.128
 7083SOL    HW122148   3.166   1.217   6.069
 7083SOL    HW222149   3.173   1.160   6.222
 7084SOL     OW22150   0.143   6.697   5.260
 7084SOL    HW122151   0.064   6.742   5.303
 7084SOL    HW222152   0.127   6.690   5.162
 7085SOL     OW22153   2.010   1.644   2.985
 7085SOL    HW122154   1.984   1.662   3.080
 7085SOL    HW222155   1.947   1.691   2.923
 7086SOL     OW22156   5.252   1.282   6.003
 7086SOL    HW122157   5.318   1.207   5.993
 7086SOL    HW222158   5.259   1.320   6.095
 7087SOL     OW22159   0.821   3.017   4.644
 7087SOL    HW122160   0.802   2.970   4.730
 7087SOL    HW222161   0.870   2.955   4.582
 7088SOL     OW22162   4.934   2.709   4.148
 7088SOL    HW122163   4.926   2.764   4.066
 7088SOL    HW222164   4.858   2.644   4.152
 7089SOL     OW22165   3.009   2.794   6.367
 7089SOL    HW122166   2.933   2.746   6.411
 7089SOL    HW222167   3.031   2.750   6.280
 7090SOL     OW22168   2.272   1.457   5.888
 7090SOL    HW122169   2.272   1.555   5.908
 7090SOL    HW222170   2.279   1.443   5.789
 7091SOL     OW22171   0.073   1.466   6.491
 7091SOL    HW122172   0.113   1.375   6.503
 7091SOL    HW222173   0.051   1.505   6.580
 7092SOL     OW22174   4.306   3.225   0.457
 7092SOL    HW122175   4.223   3.175   0.435
 7092SOL    HW222176   4.357   3.245   0.374
 7093SOL     OW22177   3.439   3.749   4.098
 7093SOL    HW122178   3.409   3.813   4.027
 7093SOL    HW222179   3.538   3.737   4.094
 7094SOL     OW22180   0.757   6.323   5.710
 7094SOL    HW122181   0.768   6.291   5.615
 7094SOL    HW222182   0.801   6.412   5.720
 7095SOL     OW22183   2.713   2.665   0.110
 7095SOL    HW122184   2.642   2.670   0.040
 7095SOL    HW222185   2.728   2.570   0.135
 7096SOL     OW22186   5.655   1.716   3.587
 7096SOL    HW122187   5.729   1.729   3.653
 7096SOL    HW222188   5.693   1.685   3.499
 7097SOL     OW22189   6.729   0.612   1.771
 7097SOL    HW122190   6.665   0.598   1.695
 7097SOL    HW222191   6.822   0.616   1.735
 7098SOL     OW22192   1.291   5.655   4.849
 7098SOL    HW122193   1.344   5.636   4.766
 7098SOL    HW222194   1.263   5.751   4.848
 7099SOL     OW22195   1.698   1.217   4.846
 7099SOL    HW122196   1.694   1.296   4.907
 7099SOL    HW222197   1.711   1.134   4.900
 7100SOL     OW22198   5.300   3.402   1.140
 7100SOL    HW122199   5.286   3.403   1.239
 7100SOL    HW222200   5.371   3.468   1.116
 7101SOL     OW22201   2.986   0.594   4.439
 7101SOL    HW122202   2.894   0.554   4.437
 7101SOL    HW222203   2.982   0.689   4.408
 7102SOL     OW22204   4.682   1.003   0.783
 7102SOL    HW122205   4.694   1.100   0.805
 7102SOL    HW222206   4.587   0.977   0.800
 7103SOL     OW22207   4.150   5.431   0.163
 7103SOL    HW122208   4.184   5.485   0.086
 7103SOL    HW222209   4.217   5.360   0.186
 7104SOL     OW22210   1.352   3.497   4.364
 7104SOL    HW122211   1.386   3.467   4.454
 7104SOL    HW222212   1.405   3.577   4.334
 7105SOL     OW22213   3.504   3.028   5.467
 7105SOL    HW122214   3.433   3.082   5.513
 7105SOL    HW222215   3.586   3.083   5.455
 7106SOL     OW22216   3.361   3.162   3.349
 7106SOL    HW122217   3.328   3.198   3.261
 7106SOL    HW222218   3.458   3.139   3.341
 7107SOL     OW22219   2.610   0.971   0.601
 7107SOL    HW122220   2.592   0.874   0.583
 7107SOL    HW222221   2.600   1.023   0.516
 7108SOL     OW22222   4.601   6.548   0.818
 7108SOL    HW122223   4.523   6.611   0.814
 7108SOL    HW222224   4.578   6.462   0.774
 7109SOL     OW22225   3.539   6.942   6.187
 7109SOL    HW122226   3.452   6.943   6.236
 7109SOL    HW222227   3.545   6.860   6.130
 7110SOL     OW22228   5.313   5.163   3.878
 7110SOL    HW122229   5.272   5.211   3.800
 7110SOL    HW222230   5.252   5.089   3.907
 7111SOL     OW22231   1.039   2.839   4.755
 7111SOL    HW122232   1.130   2.880   4.768
 7111SOL    HW222233   1.016   2.840   4.658
 7112SOL     OW22234   1.632   5.407   4.473
 7112SOL    HW122235   1.532   5.412   4.463
 7112SOL    HW222236   1.658   5.317   4.507
 7113SOL     OW22237   3.784   4.076   4.240
 7113SOL    HW122238   3.716   4.018   4.285
 7113SOL    HW222239   3.753   4.097   4.147
 7114SOL     OW22240   4.178   0.181   1.867
 7114SOL    HW122241   4.173   0.192   1.966
 7114SOL    HW222242   4.235   0.254   1.828
 7115SOL     OW22243   5.380   2.022   1.639
 7115SOL    HW122244   5.445   1.988   1.571
 7115SOL    HW222245   5.312   2.079   1.594
 7116SOL     OW22246   5.551   3.764   3.407
 7116SOL    HW122247   5.584   3.811   3.489
 7116SOL    HW222248   5.499   3.828   3.350
 7117SOL     OW22249   0.104   6.928   4.209
 7117SOL    HW122250   0.098   6.838   4.166
 7117SOL    HW222251   0.103   6.918   4.308
 7118SOL     OW22252   4.923   3.012   0.812
 7118SOL    HW122253   4.859   2.950   0.768
 7118SOL    HW222254   4.986   2.959   0.870
 7119SOL     OW22255   4.985   1.365   3.289
 7119SOL    HW122256   4.985   1.448   3.344
 7119SOL    HW222257   5.078   1.344   3.260
 7120SOL     OW22258   3.839   1.798   2.497
 7120SOL    HW122259   3.928   1.843   2.491
 7120SOL    HW222260   3.823   1.744   2.415
 7121SOL     OW22261   2.086   0.403   3.268
 7121SOL    HW122262   2.031   0.327   3.302
 7121SOL    HW222263   2.053   0.431   3.178
 7122SOL     OW22264   6.708   0.648   0.069
 7122SOL    HW122265   6.657   0.593   0.002
 7122SOL    HW222266   6.783   0.594   0.106
 7123SOL     OW22267   3.337   5.371   1.211
 7123SOL    HW122268   3.417   5.347   1.267
 7123SOL    HW222269   3.298   5.288   1.172
 7124SOL     OW22270   0.883   4.280   0.441
 7124SOL    HW122271   0.954   4.345   0.413
 7124SOL    HW222272   0.921   4.217   0.509
 7125SOL     OW22273   6.773   6.165   1.089
 7125SOL    HW122274   6.773   6.138   0.992
 7125SOL    HW222275   6.861   6.208   1.111
 7126SOL     OW22276   2.355   4.051   0.951
 7126SOL    HW122277   2.408   3.990   1.011
 7126SOL    HW222278   2.311   4.122   1.006
 7127SOL     OW22279   2.600   5.253   4.279
 7127SOL    HW122280   2.624   5.177   4.340
 7127SOL    HW222281   2.674   5.268   4.214
 7128SOL     OW22282   3.038   4.490   0.334
 7128SOL    HW122283   3.041   4.424   0.409
 7128SOL    HW222284   2.961   4.470   0.274
 7129SOL     OW22285   3.242   1.000   1.141
 7129SOL    HW122286   3.287   1.014   1.053
 7129SOL    HW222287   3.275   1.066   1.208
 7130SOL     OW22288   3.093   4.920   4.534
 7130SOL    HW122289   3.066   4.947   4.626
 7130SOL    HW222290   3.186   4.882   4.536
 7131SOL     OW22291   2.366   1.566   0.601
 7131SOL    HW122292   2.442   1.562   0.536
 7131SOL    HW222293   2.321   1.655   0.595
 7132SOL     OW22294   4.167   3.601   2.219
 7132SOL    HW122295   4.264   3.617   2.197
 7132SOL    HW222296   4.112   3.676   2.184
 7133SOL     OW22297   5.288   4.739   3.265
 7133SOL    HW122298   5.365   4.794   3.297
 7133SOL    HW222299   5.203   4.789   3.282
 7134SOL     OW22300   6.169   5.953   3.653
 7134SOL    HW122301   6.163   5.861   3.692
 7134SOL    HW222302   6.254   5.961   3.601
 7135SOL     OW22303   1.096   1.262   3.848
 7135SOL    HW122304   1.110   1.193   3.919
 7135SOL    HW222305   1.144   1.235   3.765
 7136SOL     OW22306   1.793   1.894   0.773
 7136SOL    HW122307   1.713   1.949   0.751
 7136SOL    HW222308   1.763   1.802   0.799
 7137SOL     OW22309   4.275   1.372   4.792
 7137SOL    HW122310   4.351   1.400   4.733
 7137SOL    HW222311   4.244   1.280   4.765
 7138SOL     OW22312   3.032   2.730   1.277
 7138SOL    HW122313   3.129   2.754   1.276
 7138SOL    HW222314   2.980   2.799   1.227
 7139SOL     OW22315   4.919   3.258   2.073
 7139SOL    HW122316   4.858   3.179   2.068
 7139SOL    HW222317   4.994   3.247   2.007
 7140SOL     OW22318   5.882   3.297   4.949
 7140SOL    HW122319   5.793   3.339   4.927
 7140SOL    HW222320   5.917   3.336   5.034
 7141SOL     OW22321   3.339   0.201   1.052
 7141SOL    HW122322   3.247   0.165   1.042
 7141SOL    HW222323   3.361   0.261   0.975
 7142SOL     OW22324   4.055   6.663   3.203
 7142SOL    HW122325   4.100   6.743   3.164
 7142SOL    HW222326   4.082   6.581   3.152
 7143SOL     OW22327   1.517   3.305   6.298
 7143SOL    HW122328   1.428   3.281   6.337
 7143SOL    HW222329   1.505   3.343   6.206
 7144SOL     OW22330   0.978   0.957   3.175
 7144SOL    HW122331   0.878   0.956   3.171
 7144SOL    HW222332   1.012   0.865   3.154
 7145SOL     OW22333   3.603   6.278   6.647
 7145SOL    HW122334   3.605   6.378   6.653
 7145SOL    HW222335   3.522   6.250   6.597
 7146SOL     OW22336   2.201   0.148   0.413
 7146SOL    HW122337   2.175   0.130   0.318
 7146SOL    HW222338   2.181   0.244   0.435
 7147SOL     OW22339   6.282   0.329   3.889
 7147SOL    HW122340   6.198   0.278   3.870
 7147SOL    HW222341   6.361   0.278   3.856
 7148SOL     OW22342   0.929   5.947   1.838
 7148SOL    HW122343   0.895   5.871   1.783
 7148SOL    HW222344   0.852   6.001   1.872
 7149SOL     OW22345   0.119   0.414   3.432
 7149SOL    HW122346   0.207   0.384   3.394
 7149SOL    HW222347   0.086   0.493   3.380
 7150SOL     OW22348   4.998   3.216   1.589
 7150SOL    HW122349   4.935   3.140   1.570
 7150SOL    HW222350   5.089   3.193   1.553
 7151SOL     OW22351   1.135   5.438   1.241
 7151SOL    HW122352   1.035   5.432   1.246
 7151SOL    HW222353   1.168   5.382   1.165
 7152SOL     OW22354   0.281   2.908   5.814
 7152SOL    HW122355   0.350   2.841   5.840
 7152SOL    HW222356   0.190   2.876   5.841
 7153SOL     OW22357   3.352   6.164   5.073
 7153SOL    HW122358   3.411   6.182   5.151
 7153SOL    HW222359   3.361   6.068   5.045
 7154SOL     OW22360   3.941   5.708   4.769
 7154SOL    HW122361   3.885   5.737   4.692
 7154SOL    HW222362   3.966   5.612   4.758
 7155SOL     OW22363   1.662   6.231   1.639
 7155SOL    HW122364   1.637   6.327   1.629
 7155SOL    HW222365   1.635   6.181   1.556
 7156SOL     OW22366   0.688   5.119   4.450
 7156SOL    HW122367   0.691   5.053   4.376
 7156SOL    HW222368   0.778   5.125   4.493
 7157SOL     OW22369   6.179   5.273   0.976
 7157SOL    HW122370   6.262   5.307   1.019
 7157SOL    HW222371   6.152   5.335   0.902
 7158SOL     OW22372   0.474   7.016   3.542
 7158SOL    HW122373   0.381   6.987   3.565
 7158SOL    HW222374   0.475   0.029   3.450
 7159SOL     OW22375   0.316   4.337   2.092
 7159SOL    HW122376   0.408   4.301   2.078
 7159SOL    HW222377   0.321   4.429   2.131
 7160SOL     OW22378   6.754   0.743   2.850
 7160SOL    HW122379   6.705   0.682   2.913
 7160SOL    HW222380   6.847   0.708   2.836
 7161SOL     OW22381   3.143   4.074   4.144
 7161SOL    HW122382   3.050   4.097   4.172
 7161SOL    HW222383   3.204   4.080   4.223
 7162SOL     OW22384   2.809   5.851   5.741
 7162SOL    HW122385   2.802   5.765   5.691
 7162SOL    HW222386   2.780   5.926   5.682
 7163SOL     OW22387   3.700   6.830   4.239
 7163SOL    HW122388   3.789   6.860   4.202
 7163SOL    HW222389   3.650   6.910   4.273
 7164SOL     OW22390   1.311   2.043   2.980
 7164SOL    HW122391   1.363   2.104   3.039
 7164SOL    HW222392   1.213   2.051   3.001
 7165SOL     OW22393   6.029   0.337   0.869
 7165SOL    HW122394   6.045   0.317   0.773
 7165SOL    HW222395   5.937   0.307   0.894
 7166SOL     OW22396   5.304   4.371   1.297
 7166SOL    HW122397   5.376   4.301   1.295
 7166SOL    HW222398   5.251   4.366   1.212
 7167SOL     OW22399   4.942   3.880   4.929
 7167SOL    HW122400   5.026   3.898   4.877
 7167SOL    HW222401   4.876   3.833   4.871
 7168SOL     OW22402   1.419   1.863   4.066
 7168SOL    HW122403   1.508   1.883   4.107
 7168SOL    HW222404   1.390   1.771   4.091
 7169SOL     OW22405   1.526   3.246   5.146
 7169SOL    HW122406   1.554   3.312   5.215
 7169SOL    HW222407   1.429   3.259   5.125
 7170SOL     OW22408   4.366   5.188   3.072
 7170SOL    HW122409   4.418   5.116   3.026
 7170SOL    HW222410   4.269   5.177   3.052
 7171SOL     OW22411   5.932   3.653   6.238
 7171SOL    HW122412   5.897   3.564   6.268
 7171SOL    HW222413   5.938   3.653   6.138
 7172SOL     OW22414   1.535   6.935   6.639
 7172SOL    HW122415   1.623   6.982   6.639
 7172SOL    HW222416   1.548   6.840   6.610
 7173SOL     OW22417   0.252   4.774   5.343
 7173SOL    HW122418   0.160   4.769   5.382
 7173SOL    HW222419   0.258   4.712   5.265
 7174SOL     OW22420   1.205   5.480   6.810
 7174SOL    HW122421   1.286   5.538   6.811
 7174SOL    HW222422   1.135   5.522   6.752
 7175SOL     OW22423   5.639   2.878   1.054
 7175SOL    HW122424   5.623   2.976   1.062
 7175SOL    HW222425   5.655   2.854   0.958
 7176SOL     OW22426   0.451   5.384   2.754
 7176SOL    HW122427   0.546   5.354   2.742
 7176SOL    HW222428   0.392   5.332   2.691
 7177SOL     OW22429   1.864   6.219   4.152
 7177SOL    HW122430   1.834   6.310   4.179
 7177SOL    HW222431   1.903   6.223   4.059
 7178SOL     OW22432   2.298   2.670   5.762
 7178SOL    HW122433   2.362   2.622   5.823
 7178SOL    HW222434   2.222   2.705   5.815
 7179SOL     OW22435   1.924   3.129   5.738
 7179SOL    HW122436   1.962   3.213   5.777
 7179SOL    HW222437   1.828   3.143   5.716
 7180SOL     OW22438   1.088   5.177   6.301
 7180SOL    HW122439   1.156   5.242   6.334
 7180SOL    HW222440   1.008   5.226   6.267
 7181SOL     OW22441   3.766   0.136   0.487
 7181SOL    HW122442   3.787   0.109   0.581
 7181SOL    HW222443   3.684   0.087   0.456
 7182SOL     OW22444   1.661   3.235   5.695
 7182SOL    HW122445   1.621   3.145   5.676
 7182SOL    HW222446   1.588   3.301   5.713
 7183SOL     OW22447   1.621   4.939   2.589
 7183SOL    HW122448   1.715   4.926   2.622
 7183SOL    HW222449   1.562   4.867   2.627
 7184SOL     OW22450   0.463   0.081   3.284
 7184SOL    HW122451   0.483   0.178   3.270
 7184SOL    HW222452   0.477   0.030   3.200
 7185SOL     OW22453   5.084   2.626   6.275
 7185SOL    HW122454   5.030   2.678   6.342
 7185SOL    HW222455   5.056   2.652   6.183
 7186SOL     OW22456   0.012   6.933   5.363
 7186SOL    HW122457   6.994   6.884   5.439
 7186SOL    HW222458   0.072   7.004   5.399
 7187SOL     OW22459   1.678   4.625   1.688
 7187SOL    HW122460   1.674   4.643   1.786
 7187SOL    HW222461   1.585   4.611   1.653
 7188SOL     OW22462   5.495   0.012   0.877
 7188SOL    HW122463   5.421   0.005   0.811
 7188SOL    HW222464   5.537   0.103   0.872
 7189SOL     OW22465   6.490   1.338   6.607
 7189SOL    HW122466   6.516   1.380   6.694
 7189SOL    HW222467   6.541   1.253   6.594
 7190SOL     OW22468   5.248   3.646   3.496
 7190SOL    HW122469   5.248   3.746   3.490
 7190SOL    HW222470   5.328   3.610   3.448
 7191SOL     OW22471   0.484   3.807   2.676
 7191SOL    HW122472   0.509   3.820   2.580
 7191SOL    HW222473   0.400   3.753   2.681
 7192SOL     OW22474   2.166   6.536   5.336
 7192SOL    HW122475   2.087   6.597   5.331
 7192SOL    HW222476   2.175   6.486   5.249
 7193SOL     OW22477   2.994   2.224   3.754
 7193SOL    HW122478   3.031   2.298   3.810
 7193SOL    HW222479   2.977   2.144   3.811
 7194SOL     OW22480   2.320   1.924   1.160
 7194SOL    HW122481   2.294   1.892   1.252
 7194SOL    HW222482   2.416   1.903   1.144
 7195SOL     OW22483   0.256   4.900   0.172
 7195SOL    HW122484   0.172   4.944   0.204
 7195SOL    HW222485   0.234   4.835   0.100
 7196SOL     OW22486   3.001   3.155   2.572
 7196SOL    HW122487   3.041   3.082   2.516
 7196SOL    HW222488   3.007   3.242   2.523
 7197SOL     OW22489   6.478   2.557   5.997
 7197SOL    HW122490   6.490   2.609   6.081
 7197SOL    HW222491   6.447   2.618   5.924
 7198SOL     OW22492   1.195   0.160   5.771
 7198SOL    HW122493   1.155   0.154   5.680
 7198SOL    HW222494   1.148   0.229   5.824
 7199SOL     OW22495   1.349   0.674   2.206
 7199SOL    HW122496   1.254   0.689   2.179
 7199SOL    HW222497   1.372   0.734   2.283
 7200SOL     OW22498   2.448   0.436   0.133
 7200SOL    HW122499   2.360   0.416   0.089
 7200SOL    HW222500   2.495   0.351   0.155
 7201SOL     OW22501   1.434   5.352   3.080
 7201SOL    HW122502   1.393   5.272   3.037
 7201SOL    HW222503   1.471   5.326   3.169
 7202SOL     OW22504   3.929   0.135   6.372
 7202SOL    HW122505   3.836   0.109   6.349
 7202SOL    HW222506   3.941   0.233   6.357
 7203SOL     OW22507   6.057   0.865   0.520
 7203SOL    HW122508   6.080   0.822   0.607
 7203SOL    HW222509   5.981   0.929   0.533
 7204SOL     OW22510   6.173   6.892   4.430
 7204SOL    HW122511   6.081   6.910   4.396
 7204SOL    HW222512   6.167   6.838   4.514
 7205SOL     OW22513   1.354   5.908   3.115
 7205SOL    HW122514   1.381   5.828   3.062
 7205SOL    HW222515   1.262   5.938   3.087
 7206SOL     OW22516   0.656   1.098   1.235
 7206SOL    HW122517   0.752   1.069   1.236
 7206SOL    HW222518   0.630   1.131   1.325
 7207SOL     OW22519   3.796   0.224   1.532
 7207SOL    HW122520   3.859   0.209   1.608
 7207SOL    HW222521   3.754   0.315   1.541
 7208SOL     OW22522   3.800   6.587   4.266
 7208SOL    HW122523   3.724   6.529   4.297
 7208SOL    HW222524   3.768   6.682   4.261
 7209SOL     OW22525   2.907   3.464   3.712
 7209SOL    HW122526   2.944   3.371   3.707
 7209SOL    HW222527   2.869   3.489   3.622
 7210SOL     OW22528   5.137   1.135   3.762
 7210SOL    HW122529   5.085   1.145   3.678
 7210SOL    HW222530   5.121   1.213   3.822
 7211SOL     OW22531   1.129   5.963   3.338
 7211SOL    HW122532   1.121   6.060   3.315
 7211SOL    HW222533   1.183   5.954   3.422
 7212SOL     OW22534   0.705   5.778   4.115
 7212SOL    HW122535   0.619   5.742   4.079
 7212SOL    HW222536   0.705   5.878   4.106
 7213SOL     OW22537   5.356   6.725   4.935
 7213SOL    HW122538   5.298   6.687   5.008
 7213SOL    HW222539   5.378   6.653   4.869
 7214SOL     OW22540   2.310   5.211   4.642
 7214SOL    HW122541   2.388   5.160   4.607
 7214SOL    HW222542   2.303   5.197   4.741
 7215SOL     OW22543   0.800   3.604   4.627
 7215SOL    HW122544   0.870   3.570   4.690
 7215SOL    HW222545   0.785   3.537   4.555
 7216SOL     OW22546   3.244   5.174   0.236
 7216SOL    HW122547   3.210   5.131   0.152
 7216SOL    HW222548   3.317   5.239   0.213
 7217SOL     OW22549   1.621   4.718   1.952
 7217SOL    HW122550   1.528   4.733   1.986
 7217SOL    HW222551   1.676   4.676   2.024
 7218SOL     OW22552   4.697   2.797   5.559
 7218SOL    HW122553   4.613   2.839   5.593
 7218SOL    HW222554   4.745   2.863   5.501
 7219SOL     OW22555   4.408   6.337   3.226
 7219SOL    HW122556   4.395   6.347   3.128
 7219SOL    HW222557   4.505   6.324   3.246
 7220SOL     OW22558   6.581   6.787   3.455
 7220SOL    HW122559   6.566   6.807   3.552
 7220SOL    HW222560   6.678   6.769   3.440
 7221SOL     OW22561   5.593   4.810   5.401
 7221SOL    HW122562   5.536   4.834   5.323
 7221SOL    HW222563   5.666   4.748   5.371
 7222SOL     OW22564   6.510   6.330   0.696
 7222SOL    HW122565   6.544   6.348   0.788
 7222SOL    HW222566   6.564   6.381   0.629
 7223SOL     OW22567   2.991   1.785   1.363
 7223SOL    HW122568   3.058   1.745   1.301
 7223SOL    HW222569   2.910   1.727   1.368
 7224SOL     OW22570   5.928   2.149   4.942
 7224SOL    HW122571   5.911   2.177   4.847
 7224SOL    HW222572   5.914   2.050   4.950
 7225SOL     OW22573   1.710   5.488   6.672
 7225SOL    HW122574   1.730   5.438   6.756
 7225SOL    HW222575   1.792   5.538   6.643
 7226SOL     OW22576   0.300   0.327   0.593
 7226SOL    HW122577   0.390   0.360   0.565
 7226SOL    HW222578   0.277   0.364   0.683
 7227SOL     OW22579   0.692   2.456   6.999
 7227SOL    HW122580   0.777   2.436   0.024
 7227SOL    HW222581   0.643   2.529   0.022
 7228SOL     OW22582   0.157   0.175   1.811
 7228SOL    HW122583   0.244   0.154   1.854
 7228SOL    HW222584   0.094   0.214   1.878
 7229SOL     OW22585   0.926   0.345   4.058
 7229SOL    HW122586   0.949   0.433   4.100
 7229SOL    HW222587   0.970   0.339   3.968
 7230SOL     OW22588   4.225   5.231   4.872
 7230SOL    HW122589   4.205   5.318   4.827
 7230SOL    HW222590   4.141   5.177   4.881
 7231SOL     OW22591   4.572   0.999   6.838
 7231SOL    HW122592   4.662   0.992   6.797
 7231SOL    HW222593   4.575   1.062   6.916
 7232SOL     OW22594   4.029   5.179   3.061
 7232SOL    HW122595   4.061   5.120   2.986
 7232SOL    HW222596   4.003   5.268   3.023
 7233SOL     OW22597   0.533   2.953   4.935
 7233SOL    HW122598   0.465   2.883   4.958
 7233SOL    HW222599   0.625   2.917   4.954
 7234SOL     OW22600   6.022   2.644   1.859
 7234SOL    HW122601   5.975   2.609   1.940
 7234SOL    HW222602   6.008   2.580   1.783
 7235SOL     OW22603   6.522   3.817   4.191
 7235SOL    HW122604   6.542   3.818   4.093
 7235SOL    HW222605   6.442   3.759   4.208
 7236SOL     OW22606   3.653   1.887   3.213
 7236SOL    HW122607   3.558   1.888   3.182
 7236SOL    HW222608   3.694   1.977   3.196
 7237SOL     OW22609   6.726   6.442   5.299
 7237SOL    HW122610   6.793   6.376   5.333
 7237SOL    HW222611   6.775   6.520   5.259
 7238SOL     OW22612   2.477   1.205   1.848
 7238SOL    HW122613   2.539   1.132   1.822
 7238SOL    HW222614   2.383   1.180   1.825
 7239SOL     OW22615   1.710   1.547   3.583
 7239SOL    HW122616   1.760   1.633   3.573
 7239SOL    HW222617   1.667   1.522   3.496
 7240SOL     OW22618   3.158   4.364   0.764
 7240SOL    HW122619   3.216   4.294   0.724
 7240SOL    HW222620   3.063   4.349   0.736
 7241SOL     OW22621   3.555   0.342   5.838
 7241SOL    HW122622   3.604   0.427   5.854
 7241SOL    HW222623   3.571   0.279   5.914
 7242SOL     OW22624   5.836   4.333   6.972
 7242SOL    HW122625   5.922   4.384   6.971
 7242SOL    HW222626   5.841   4.257   6.907
 7243SOL     OW22627   1.388   4.966   6.477
 7243SOL    HW122628   1.474   4.917   6.463
 7243SOL    HW222629   1.318   4.930   6.414
 7244SOL     OW22630   4.814   1.274   0.435
 7244SOL    HW122631   4.750   1.257   0.510
 7244SOL    HW222632   4.879   1.198   0.429
 7245SOL     OW22633   0.068   2.760   5.089
 7245SOL    HW122634   0.084   2.857   5.074
 7245SOL    HW222635   0.008   2.748   5.169
 7246SOL     OW22636   6.848   6.931   4.897
 7246SOL    HW122637   6.917   6.966   4.960
 7246SOL    HW222638   6.808   7.007   4.845
 7247SOL     OW22639   2.553   6.281   2.307
 7247SOL    HW122640   2.503   6.315   2.387
 7247SOL    HW222641   2.573   6.356   2.244
 7248SOL     OW22642   3.492   1.083   3.921
 7248SOL    HW122643   3.489   1.167   3.867
 7248SOL    HW222644   3.575   1.082   3.977
 7249SOL     OW22645   5.592   4.396   0.950
 7249SOL    HW122646   5.636   4.430   0.867
 7249SOL    HW222647   5.654   4.406   1.027
 7250SOL     OW22648   2.480   4.798   6.440
 7250SOL    HW122649   2.505   4.878   6.496
 7250SOL    HW222650   2.562   4.764   6.393
 7251SOL     OW22651   6.366   6.599   5.413
 7251SOL    HW122652   6.346   6.574   5.318
 7251SOL    HW222653   6.390   6.696   5.418
 7252SOL     OW22654   3.222   3.421   4.703
 7252SOL    HW122655   3.135   3.400   4.747
 7252SOL    HW222656   3.215   3.508   4.655
 7253SOL     OW22657   1.875   5.745   0.703
 7253SOL    HW122658   1.817   5.733   0.783
 7253SOL    HW222659   1.870   5.664   0.645
 7254SOL     OW22660   3.389   5.190   4.067
 7254SOL    HW122661   3.340   5.226   4.146
 7254SOL    HW222662   3.373   5.091   4.059
 7255SOL     OW22663   2.842   2.966   1.710
 7255SOL    HW122664   2.855   2.940   1.806
 7255SOL    HW222665   2.859   2.887   1.651
 7256SOL     OW22666   4.301   4.869   4.686
 7256SOL    HW122667   4.385   4.896   4.639
 7256SOL    HW222668   4.315   4.876   4.785
 7257SOL     OW22669   6.083   2.469   3.300
 7257SOL    HW122670   6.139   2.477   3.217
 7257SOL    HW222671   6.139   2.489   3.380
 7258SOL     OW22672   4.199   0.591   4.304
 7258SOL    HW122673   4.122   0.646   4.336
 7258SOL    HW222674   4.224   0.620   4.211
 7259SOL     OW22675   2.655   3.879   0.005
 7259SOL    HW122676   2.590   3.814   6.989
 7259SOL    HW222677   2.678   3.849   0.098
 7260SOL     OW22678   3.508   2.105   2.737
 7260SOL    HW122679   3.450   2.184   2.758
 7260SOL    HW222680   3.458   2.021   2.759
 7261SOL     OW22681   2.327   3.300   1.575
 7261SOL    HW122682   2.381   3.216   1.582
 7261SOL    HW222683   2.335   3.351   1.661
 7262SOL     OW22684   5.678   2.276   4.783
 7262SOL    HW122685   5.642   2.220   4.709
 7262SOL    HW222686   5.723   2.356   4.745
 7263SOL     OW22687   1.313   5.743   1.749
 7263SOL    HW122688   1.313   5.689   1.665
 7263SOL    HW222689   1.228   5.727   1.800
 7264SOL     OW22690   6.781   1.115   6.855
 7264SOL    HW122691   6.753   1.193   6.911
 7264SOL    HW222692   6.817   1.043   6.914
 7265SOL     OW22693   5.329   5.248   6.107
 7265SOL    HW122694   5.429   5.253   6.107
 7265SOL    HW222695   5.299   5.193   6.185
 7266SOL     OW22696   5.208   0.600   1.624
 7266SOL    HW122697   5.152   0.521   1.646
 7266SOL    HW222698   5.194   0.672   1.691
 7267SOL     OW22699   0.097   4.041   4.723
 7267SOL    HW122700   0.118   4.068   4.629
 7267SOL    HW222701   0.018   3.980   4.723
 7268SOL     OW22702   4.285   5.892   1.923
 7268SOL    HW122703   4.303   5.832   1.846
 7268SOL    HW222704   4.367   5.944   1.945
 7269SOL     OW22705   0.598   5.552   1.913
 7269SOL    HW122706   0.566   5.605   1.992
 7269SOL    HW222707   0.695   5.571   1.898
 7270SOL     OW22708   2.062   1.640   3.429
 7270SOL    HW122709   2.041   1.703   3.504
 7270SOL    HW222710   2.160   1.640   3.411
 7271SOL     OW22711   0.151   4.077   2.679
 7271SOL    HW122712   0.107   4.162   2.710
 7271SOL    HW222713   0.144   4.070   2.580
 7272SOL     OW22714   4.729   2.841   2.788
 7272SOL    HW122715   4.696   2.779   2.718
 7272SOL    HW222716   4.711   2.802   2.879
 7273SOL     OW22717   5.668   4.369   1.733
 7273SOL    HW122718   5.672   4.400   1.639
 7273SOL    HW222719   5.599   4.297   1.742
 7274SOL     OW22720   0.312   5.040   5.891
 7274SOL    HW122721   0.275   4.948   5.908
 7274SOL    HW222722   0.412   5.035   5.893
 7275SOL     OW22723   6.832   0.892   7.024
 7275SOL    HW122724   6.786   0.808   0.026
 7275SOL    HW222725   6.805   0.966   0.062
 7276SOL     OW22726   2.198   1.981   4.126
 7276SOL    HW122727   2.216   2.079   4.122
 7276SOL    HW222728   2.144   1.954   4.047
 7277SOL     OW22729   4.667   1.181   5.688
 7277SOL    HW122730   4.626   1.111   5.746
 7277SOL    HW222731   4.612   1.264   5.692
 7278SOL     OW22732   3.858   1.498   3.620
 7278SOL    HW122733   3.880   1.404   3.645
 7278SOL    HW222734   3.759   1.511   3.619
 7279SOL     OW22735   4.227   4.336   0.631
 7279SOL    HW122736   4.221   4.394   0.712
 7279SOL    HW222737   4.143   4.343   0.578
 7280SOL     OW22738   5.143   2.050   5.290
 7280SOL    HW122739   5.120   2.138   5.332
 7280SOL    HW222740   5.240   2.033   5.300
 7281SOL     OW22741   3.853   6.470   1.151
 7281SOL    HW122742   3.813   6.426   1.231
 7281SOL    HW222743   3.806   6.556   1.133
 7282SOL     OW22744   6.558   5.253   2.063
 7282SOL    HW122745   6.604   5.190   2.125
 7282SOL    HW222746   6.615   5.334   2.049
 7283SOL     OW22747   3.392   5.792   2.518
 7283SOL    HW122748   3.408   5.695   2.536
 7283SOL    HW222749   3.341   5.832   2.595
 7284SOL     OW22750   6.504   2.453   4.017
 7284SOL    HW122751   6.535   2.431   3.924
 7284SOL    HW222752   6.534   2.545   4.041
 7285SOL     OW22753   4.946   2.999   1.861
 7285SOL    HW122754   4.882   3.014   1.936
 7285SOL    HW222755   4.970   3.086   1.819
 7286SOL     OW22756   0.730   1.740   0.812
 7286SOL    HW122757   0.792   1.674   0.768
 7286SOL    HW222758   0.644   1.695   0.834
 7287SOL     OW22759   1.345   2.655   3.690
 7287SOL    HW122760   1.396   2.586   3.741
 7287SOL    HW222761   1.408   2.711   3.637
 7288SOL     OW22762   3.167   2.058   3.047
 7288SOL    HW122763   3.144   2.120   3.122
 7288SOL    HW222764   3.163   2.109   2.961
 7289SOL     OW22765   6.096   2.053   2.074
 7289SOL    HW122766   5.999   2.047   2.054
 7289SOL    HW222767   6.143   2.099   1.999
 7290SOL     OW22768   4.155   1.513   5.001
 7290SOL    HW122769   4.233   1.492   4.943
 7290SOL    HW222770   4.096   1.432   5.008
 7291SOL     OW22771   3.556   0.128   6.902
 7291SOL    HW122772   3.553   0.039   6.947
 7291SOL    HW222773   3.475   0.140   6.845
 7292SOL     OW22774   1.635   0.345   3.306
 7292SOL    HW122775   1.622   0.271   3.239
 7292SOL    HW222776   1.594   0.429   3.272
 7293SOL     OW22777   1.424   0.484   5.469
 7293SOL    HW122778   1.417   0.532   5.556
 7293SOL    HW222779   1.513   0.438   5.463
 7294SOL     OW22780   3.147   4.658   1.596
 7294SOL    HW122781   3.168   4.561   1.578
 7294SOL    HW222782   3.205   4.691   1.670
 7295SOL     OW22783   6.292   5.230   1.997
 7295SOL    HW122784   6.384   5.267   2.007
 7295SOL    HW222785   6.261   5.241   1.903
 7296SOL     OW22786   3.934   4.865   2.797
 7296SOL    HW122787   3.934   4.857   2.698
 7296SOL    HW222788   3.844   4.897   2.828
 7297SOL     OW22789   3.038   6.624   1.826
 7297SOL    HW122790   3.103   6.549   1.810
 7297SOL    HW222791   2.976   6.598   1.901
 7298SOL     OW22792   5.220   5.929   6.329
 7298SOL    HW122793   5.125   5.951   6.310
 7298SOL    HW222794   5.238   5.938   6.427
 7299SOL     OW22795   1.322   3.072   6.965
 7299SOL    HW122796   1.369   3.053   6.879
 7299SOL    HW222797   1.304   2.986   7.013
 7300SOL     OW22798   0.740   5.024   1.614
 7300SOL    HW122799   0.709   5.027   1.709
 7300SOL    HW222800   0.737   4.930   1.580
 7301SOL     OW22801   5.461   6.871   5.350
 7301SOL    HW122802   5.508   6.885   5.437
 7301SOL    HW222803   5.451   6.959   5.303
 7302SOL     OW22804   5.076   2.820   6.052
 7302SOL    HW122805   4.992   2.798   6.001
 7302SOL    HW222806   5.152   2.766   6.016
 7303SOL     OW22807   2.186   1.088   0.734
 7303SOL    HW122808   2.248   1.010   0.732
 7303SOL    HW222809   2.128   1.083   0.815
 7304SOL     OW22810   2.955   4.962   1.733
 7304SOL    HW122811   2.885   4.953   1.803
 7304SOL    HW222812   2.930   4.907   1.653
 7305SOL     OW22813   5.970   2.195   7.004
 7305SOL    HW122814   5.878   2.235   6.998
 7305SOL    HW222815   5.965   2.108   0.030
 7306SOL     OW22816   2.757   1.133   1.453
 7306SOL    HW122817   2.813   1.057   1.485
 7306SOL    HW222818   2.790   1.219   1.492
 7307SOL     OW22819   2.604   6.347   1.561
 7307SOL    HW122820   2.691   6.350   1.512
 7307SOL    HW222821   2.581   6.438   1.595
 7308SOL     OW22822   4.983   0.547   1.922
 7308SOL    HW122823   4.906   0.583   1.975
 7308SOL    HW222824   4.948   0.497   1.843
 7309SOL     OW22825   2.192   5.609   2.553
 7309SOL    HW122826   2.244   5.682   2.597
 7309SOL    HW222827   2.192   5.528   2.610
 7310SOL     OW22828   1.749   2.878   6.911
 7310SOL    HW122829   1.777   2.915   6.999
 7310SOL    HW222830   1.750   2.950   6.842
 7311SOL     OW22831   0.396   0.027   0.336
 7311SOL    HW122832   0.456   7.010   0.268
 7311SOL    HW222833   0.313   0.060   0.292
 7312SOL     OW22834   6.846   2.306   5.887
 7312SOL    HW122835   6.809   2.289   5.795
 7312SOL    HW222836   6.842   2.222   5.941
 7313SOL     OW22837   2.422   0.741   1.520
 7313SOL    HW122838   2.461   0.703   1.603
 7313SOL    HW222839   2.375   0.827   1.541
 7314SOL     OW22840   0.154   4.313   6.794
 7314SOL    HW122841   0.238   4.348   6.752
 7314SOL    HW222842   0.172   4.291   6.890
 7315SOL     OW22843   0.429   5.268   2.048
 7315SOL    HW122844   0.393   5.361   2.048
 7315SOL    HW222845   0.507   5.263   1.985
 7316SOL     OW22846   3.184   2.142   6.530
 7316SOL    HW122847   3.110   2.088   6.490
 7316SOL    HW222848   3.258   2.152   6.464
 7317SOL     OW22849   3.617   1.714   1.670
 7317SOL    HW122850   3.628   1.645   1.742
 7317SOL    HW222851   3.536   1.693   1.615
 7318SOL     OW22852   3.602   6.915   2.073
 7318SOL    HW122853   3.512   6.882   2.100
 7318SOL    HW222854   3.643   6.851   2.008
 7319SOL     OW22855   6.493   4.759   0.484
 7319SOL    HW122856   6.487   4.719   0.392
 7319SOL    HW222857   6.468   4.690   0.551
 7320SOL     OW22858   6.809   3.512   0.963
 7320SOL    HW122859   6.892   3.479   1.008
 7320SOL    HW222860   6.822   3.608   0.935
 7321SOL     OW22861   2.531   5.983   6.433
 7321SOL    HW122862   2.582   6.042   6.372
 7321SOL    HW222863   2.509   5.897   6.385
 7322SOL     OW22864   0.720   1.861   2.283
 7322SOL    HW122865   0.671   1.829   2.202
 7322SOL    HW222866   0.793   1.797   2.305
 7323SOL     OW22867   1.582   1.780   1.091
 7323SOL    HW122868   1.629   1.867   1.105
 7323SOL    HW222869   1.640   1.706   1.125
 7324SOL     OW22870   5.892   4.725   3.562
 7324SOL    HW122871   5.878   4.648   3.625
 7324SOL    HW222872   5.969   4.705   3.501
 7325SOL     OW22873   3.935   0.521   5.984
 7325SOL    HW122874   3.882   0.440   6.008
 7325SOL    HW222875   3.901   0.560   5.899
 7326SOL     OW22876   2.822   1.045   6.534
 7326SOL    HW122877   2.827   1.099   6.618
 7326SOL    HW222878   2.891   0.973   6.536
 7327SOL     OW22879   5.950   3.890   3.538
 7327SOL    HW122880   5.896   3.947   3.476
 7327SOL    HW222881   5.965   3.800   3.496
 7328SOL     OW22882   3.962   5.322   5.129
 7328SOL    HW122883   3.925   5.410   5.100
 7328SOL    HW222884   4.011   5.333   5.215
 7329SOL     OW22885   2.391   2.786   0.646
 7329SOL    HW122886   2.399   2.878   0.607
 7329SOL    HW222887   2.298   2.771   0.677
 7330SOL     OW22888   3.486   2.772   1.664
 7330SOL    HW122889   3.542   2.721   1.729
 7330SOL    HW222890   3.465   2.715   1.585
 7331SOL     OW22891   4.595   0.283   1.782
 7331SOL    HW122892   4.579   0.334   1.698
 7331SOL    HW222893   4.562   0.189   1.770
 7332SOL     OW22894   3.518   4.066   0.130
 7332SOL    HW122895   3.420   4.086   0.134
 7332SOL    HW222896   3.564   4.112   0.207
 7333SOL     OW22897   6.293   2.639   1.677
 7333SOL    HW122898   6.221   2.575   1.650
 7333SOL    HW222899   6.252   2.726   1.704
 7334SOL     OW22900   2.739   0.144   5.310
 7334SOL    HW122901   2.727   0.222   5.249
 7334SOL    HW222902   2.832   0.108   5.300
 7335SOL     OW22903   6.955   3.085   2.926
 7335SOL    HW122904   6.940   3.156   2.857
 7335SOL    HW222905   6.871   3.070   2.978
 7336SOL     OW22906   1.561   5.881   0.839
 7336SOL    HW122907   1.539   5.955   0.776
 7336SOL    HW222908   1.524   5.795   0.804
 7337SOL     OW22909   2.550   2.322   2.074
 7337SOL    HW122910   2.476   2.322   2.007
 7337SOL    HW222911   2.573   2.416   2.098
 7338SOL     OW22912   5.589   3.151   1.535
 7338SOL    HW122913   5.508   3.124   1.587
 7338SOL    HW222914   5.670   3.107   1.574
 7339SOL     OW22915   6.937   5.992   5.254
 7339SOL    HW122916   6.868   5.998   5.182
 7339SOL    HW222917   6.961   5.896   5.269
 7340SOL     OW22918   2.631   0.973   6.856
 7340SOL    HW122919   2.541   0.981   6.813
 7340SOL    HW222920   2.700   1.008   6.793
 7341SOL     OW22921   0.060   5.193   3.833
 7341SOL    HW122922   0.087   5.241   3.750
 7341SOL    HW222923   0.083   5.248   3.913
 7342SOL     OW22924   6.666   0.349   0.153
 7342SOL    HW122925   6.612   0.362   0.070
 7342SOL    HW222926   6.613   0.296   0.219
 7343SOL     OW22927   5.964   4.262   2.489
 7343SOL    HW122928   5.892   4.197   2.466
 7343SOL    HW222929   5.999   4.242   2.581
 7344SOL     OW22930   2.091   6.614   6.677
 7344SOL    HW122931   2.164   6.557   6.638
 7344SOL    HW222932   2.007   6.602   6.624
 7345SOL     OW22933   4.050   4.970   5.673
 7345SOL    HW122934   4.008   4.906   5.608
 7345SOL    HW222935   3.981   5.001   5.739
 7346SOL     OW22936   3.640   4.522   0.912
 7346SOL    HW122937   3.665   4.441   0.859
 7346SOL    HW222938   3.552   4.557   0.879
 7347SOL     OW22939   6.212   2.117   2.416
 7347SOL    HW122940   6.298   2.166   2.428
 7347SOL    HW222941   6.189   2.114   2.319
 7348SOL     OW22942   1.168   2.859   3.741
 7348SOL    HW122943   1.219   2.778   3.710
 7348SOL    HW222944   1.162   2.857   3.841
 7349SOL     OW22945   3.625   2.037   1.306
 7349SOL    HW122946   3.567   2.107   1.348
 7349SOL    HW222947   3.572   1.955   1.289
 7350SOL     OW22948   0.587   2.748   3.633
 7350SOL    HW122949   0.661   2.689   3.600
 7350SOL    HW222950   0.579   2.827   3.573
 7351SOL     OW22951   4.291   4.819   6.124
 7351SOL    HW122952   4.381   4.860   6.142
 7351SOL    HW222953   4.281   4.735   6.176
 7352SOL     OW22954   1.634   1.885   2.462
 7352SOL    HW122955   1.716   1.829   2.479
 7352SOL    HW222956   1.601   1.923   2.548
 7353SOL     OW22957   6.183   1.707   4.854
 7353SOL    HW122958   6.122   1.705   4.933
 7353SOL    HW222959   6.202   1.802   4.829
 7354SOL     OW22960   6.673   0.295   6.357
 7354SOL    HW122961   6.665   0.220   6.292
 7354SOL    HW222962   6.766   0.330   6.356
 7355SOL     OW22963   0.765   5.777   1.633
 7355SOL    HW122964   0.769   5.782   1.533
 7355SOL    HW222965   0.802   5.690   1.663
 7356SOL     OW22966   5.986   1.886   6.545
 7356SOL    HW122967   5.887   1.884   6.561
 7356SOL    HW222968   6.028   1.806   6.588
 7357SOL     OW22969   4.979   1.225   6.749
 7357SOL    HW122970   5.073   1.250   6.772
 7357SOL    HW222971   4.974   1.194   6.654
 7358SOL     OW22972   3.524   2.132   3.892
 7358SOL    HW122973   3.583   2.078   3.832
 7358SOL    HW222974   3.567   2.141   3.982
 7359SOL     OW22975   4.071   3.182   2.895
 7359SOL    HW122976   4.103   3.181   2.801
 7359SOL    HW222977   4.104   3.264   2.941
 7360SOL     OW22978   1.362   2.242   5.459
 7360SOL    HW122979   1.302   2.322   5.459
 7360SOL    HW222980   1.416   2.241   5.543
 7361SOL     OW22981   5.235   6.787   1.222
 7361SOL    HW122982   5.207   6.721   1.292
 7361SOL    HW222983   5.216   6.749   1.132
 7362SOL     OW22984   1.251   6.463   5.079
 7362SOL    HW122985   1.158   6.449   5.113
 7362SOL    HW222986   1.313   6.476   5.157
 7363SOL     OW22987   5.787   2.438   6.987
 7363SOL    HW122988   5.803   2.454   6.889
 7363SOL    HW222989   5.829   2.511   0.016
 7364SOL     OW22990   4.530   6.805   1.060
 7364SOL    HW122991   4.614   6.858   1.047
 7364SOL    HW222992   4.553   6.708   1.067
 7365SOL     OW22993   2.984   0.481   2.512
 7365SOL    HW122994   2.957   0.462   2.418
 7365SOL    HW222995   2.907   0.462   2.573
 7366SOL     OW22996   1.010   5.545   6.625
 7366SOL    HW122997   0.930   5.529   6.567
 7366SOL    HW222998   0.998   5.631   6.675
 7367SOL     OW22999   5.311   3.702   1.244
 7367SOL    HW123000   5.390   3.687   1.185
 7367SOL    HW223001   5.326   3.658   1.333
 7368SOL     OW23002   3.191   3.364   4.343
 7368SOL    HW123003   3.092   3.376   4.333
 7368SOL    HW223004   3.238   3.416   4.272
 7369SOL     OW23005   4.943   3.844   1.338
 7369SOL    HW123006   4.984   3.934   1.353
 7369SOL    HW223007   4.996   3.795   1.269
 7370SOL     OW23008   2.169   6.787   0.294
 7370SOL    HW123009   2.171   6.843   0.212
 7370SOL    HW223010   2.223   6.831   0.366
 7371SOL     OW23011   2.846   5.249   4.148
 7371SOL    HW123012   2.898   5.303   4.082
 7371SOL    HW223013   2.892   5.161   4.162
 7372SOL     OW23014   4.223   0.337   5.300
 7372SOL    HW123015   4.251   0.315   5.207
 7372SOL    HW223016   4.184   0.255   5.343
 7373SOL     OW23017   4.159   0.953   3.684
 7373SOL    HW123018   4.214   0.991   3.758
 7373SOL    HW223019   4.103   0.878   3.719
 7374SOL     OW23020   1.568   2.940   5.702
 7374SOL    HW123021   1.640   2.899   5.758
 7374SOL    HW223022   1.478   2.918   5.740
 7375SOL     OW23023   1.055   1.545   5.180
 7375SOL    HW123024   1.105   1.526   5.095
 7375SOL    HW223025   1.038   1.643   5.187
 7376SOL     OW23026   2.861   2.926   7.020
 7376SOL    HW123027   2.862   3.019   0.033
 7376SOL    HW223028   2.806   2.867   0.055
 7377SOL     OW23029   4.759   4.391   1.818
 7377SOL    HW123030   4.675   4.352   1.854
 7377SOL    HW223031   4.814   4.319   1.776
 7378SOL     OW23032   0.367   2.100   5.123
 7378SOL    HW123033   0.371   2.189   5.078
 7378SOL    HW223034   0.407   2.106   5.214
 7379SOL     OW23035   3.998   1.091   2.208
 7379SOL    HW123036   4.049   1.070   2.124
 7379SOL    HW223037   3.908   1.126   2.183
 7380SOL     OW23038   6.619   2.941   5.750
 7380SOL    HW123039   6.699   2.946   5.810
 7380SOL    HW223040   6.623   3.016   5.684
 7381SOL     OW23041   4.831   3.020   2.297
 7381SOL    HW123042   4.782   3.015   2.210
 7381SOL    HW223043   4.855   3.116   2.317
 7382SOL     OW23044   0.727   4.167   4.658
 7382SOL    HW123045   0.762   4.259   4.644
 7382SOL    HW223046   0.664   4.167   4.736
 7383SOL     OW23047   0.401   6.343   2.035
 7383SOL    HW123048   0.469   6.296   2.092
 7383SOL    HW223049   0.324   6.283   2.018
 7384SOL     OW23050   5.057   0.038   2.636
 7384SOL    HW123051   5.109   0.121   2.616
 7384SOL    HW223052   5.029   7.020   2.549
 7385SOL     OW23053   4.611   5.962   2.234
 7385SOL    HW123054   4.567   5.989   2.320
 7385SOL    HW223055   4.662   5.877   2.248
 7386SOL     OW23056   0.818   2.525   5.709
 7386SOL    HW123057   0.896   2.504   5.650
 7386SOL    HW223058   0.850   2.568   5.793
 7387SOL     OW23059   4.089   5.526   4.405
 7387SOL    HW123060   4.099   5.434   4.367
 7387SOL    HW223061   4.074   5.592   4.331
 7388SOL     OW23062   6.809   5.411   4.036
 7388SOL    HW123063   6.710   5.417   4.052
 7388SOL    HW223064   6.826   5.356   3.954
 7389SOL     OW23065   1.428   3.965   0.114
 7389SOL    HW123066   1.444   4.032   0.042
 7389SOL    HW223067   1.436   4.010   0.203
 7390SOL     OW23068   0.084   1.618   6.748
 7390SOL    HW123069   0.035   1.583   6.827
 7390SOL    HW223070   0.073   1.718   6.743
 7391SOL     OW23071   5.742   3.808   6.336
 7391SOL    HW123072   5.813   3.739   6.319
 7391SOL    HW223073   5.749   3.880   6.268
 7392SOL     OW23074   1.673   5.667   5.555
 7392SOL    HW123075   1.621   5.724   5.619
 7392SOL    HW223076   1.611   5.635   5.482
 7393SOL     OW23077   6.188   5.463   2.159
 7393SOL    HW123078   6.114   5.503   2.105
 7393SOL    HW223079   6.265   5.527   2.162
 7394SOL     OW23080   3.727   3.585   6.471
 7394SOL    HW123081   3.686   3.528   6.400
 7394SOL    HW223082   3.825   3.566   6.476
 7395SOL     OW23083   0.346   0.295   6.399
 7395SOL    HW123084   0.442   0.301   6.428
 7395SOL    HW223085   0.288   0.279   6.478
 7396SOL     OW23086   1.746   0.737   5.731
 7396SOL    HW123087   1.669   0.688   5.773
 7396SOL    HW223088   1.793   0.677   5.667
 7397SOL     OW23089   6.497   4.439   4.759
 7397SOL    HW123090   6.532   4.426   4.666
 7397SOL    HW223091   6.573   4.456   4.821
 7398SOL     OW23092   4.368   5.446   3.655
 7398SOL    HW123093   4.294   5.392   3.615
 7398SOL    HW223094   4.345   5.543   3.650
 7399SOL     OW23095   6.470   4.173   5.603
 7399SOL    HW123096   6.508   4.180   5.696
 7399SOL    HW223097   6.371   4.161   5.609
 7400SOL     OW23098   3.029   4.057   6.917
 7400SOL    HW123099   3.108   4.048   6.855
 7400SOL    HW223100   2.945   4.045   6.865
 7401SOL     OW23101   0.187   1.281   3.940
 7401SOL    HW123102   0.166   1.308   4.034
 7401SOL    HW223103   0.160   1.186   3.926
 7402SOL     OW23104   2.197   6.806   3.854
 7402SOL    HW123105   2.296   6.819   3.859
 7402SOL    HW223106   2.156   6.826   3.943
 7403SOL     OW23107   1.600   3.179   3.609
 7403SOL    HW123108   1.672   3.127   3.657
 7403SOL    HW223109   1.603   3.274   3.640
 7404SOL     OW23110   1.932   0.574   0.707
 7404SOL    HW123111   1.920   0.484   0.750
 7404SOL    HW223112   1.939   0.644   0.778
 7405SOL     OW23113   2.159   5.044   5.138
 7405SOL    HW123114   2.143   5.106   5.062
 7405SOL    HW223115   2.075   5.034   5.192
 7406SOL     OW23116   1.662   3.554   2.400
 7406SOL    HW123117   1.725   3.544   2.323
 7406SOL    HW223118   1.678   3.642   2.445
 7407SOL     OW23119   0.573   6.001   4.923
 7407SOL    HW123120   0.504   6.073   4.928
 7407SOL    HW223121   0.528   5.912   4.929
 7408SOL     OW23122   1.993   3.937   5.968
 7408SOL    HW123123   2.026   3.848   6.000
 7408SOL    HW223124   2.070   3.991   5.934
 7409SOL     OW23125   1.282   1.082   4.874
 7409SOL    HW123126   1.382   1.087   4.868
 7409SOL    HW223127   1.242   1.120   4.791
 7410SOL     OW23128   0.224   4.657   1.031
 7410SOL    HW123129   0.222   4.756   1.018
 7410SOL    HW223130   0.310   4.630   1.075
 7411SOL     OW23131   2.755   6.913   4.393
 7411SOL    HW123132   2.704   6.834   4.359
 7411SOL    HW223133   2.809   6.887   4.474
 7412SOL     OW23134   2.498   0.799   0.842
 7412SOL    HW123135   2.404   0.833   0.837
 7412SOL    HW223136   2.561   0.876   0.839
 7413SOL     OW23137   0.256   3.430   4.132
 7413SOL    HW123138   0.164   3.417   4.169
 7413SOL    HW223139   0.303   3.500   4.185
 7414SOL     OW23140   6.201   7.018   2.417
 7414SOL    HW123141   6.245   7.011   2.327
 7414SOL    HW223142   6.104   0.015   2.404
 7415SOL     OW23143   1.502   3.121   2.785
 7415SOL    HW123144   1.565   3.074   2.724
 7415SOL    HW223145   1.409   3.088   2.770
 7416SOL     OW23146   3.515   1.554   4.462
 7416SOL    HW123147   3.554   1.467   4.490
 7416SOL    HW223148   3.423   1.563   4.501
 7417SOL     OW23149   1.438   6.800   6.309
 7417SOL    HW123150   1.469   6.724   6.366
 7417SOL    HW223151   1.364   6.769   6.249
 7418SOL     OW23152   2.767   4.185   1.541
 7418SOL    HW123153   2.852   4.224   1.578
 7418SOL    HW223154   2.777   4.170   1.443
 7419SOL     OW23155   5.976   2.045   4.626
 7419SOL    HW123156   5.889   2.028   4.672
 7419SOL    HW223157   5.991   2.143   4.618
 7420SOL     OW23158   6.732   6.628   1.931
 7420SOL    HW123159   6.744   6.725   1.911
 7420SOL    HW223160   6.643   6.615   1.976
 7421SOL     OW23161   3.437   4.025   1.655
 7421SOL    HW123162   3.426   3.927   1.640
 7421SOL    HW223163   3.533   4.049   1.647
 7422SOL     OW23164   0.124   3.591   1.184
 7422SOL    HW123165   0.133   3.650   1.103
 7422SOL    HW223166   0.075   3.508   1.159
 7423SOL     OW23167   2.032   4.574   6.262
 7423SOL    HW123168   1.962   4.627   6.309
 7423SOL    HW223169   2.121   4.617   6.276
 7424SOL     OW23170   5.818   1.784   4.498
 7424SOL    HW123171   5.885   1.839   4.449
 7424SOL    HW223172   5.864   1.708   4.544
 7425SOL     OW23173   3.910   4.691   6.265
 7425SOL    HW123174   3.934   4.595   6.248
 7425SOL    HW223175   3.953   4.721   6.350
 7426SOL     OW23176   7.019   2.142   7.000
 7426SOL    HW123177   7.003   2.044   7.002
 7426SOL    HW223178   6.968   2.186   0.049
 7427SOL     OW23179   3.016   5.845   4.653
 7427SOL    HW123180   3.035   5.863   4.750
 7427SOL    HW223181   3.048   5.754   4.629
 7428SOL     OW23182   3.603   2.209   5.437
 7428SOL    HW123183   3.632   2.292   5.484
 7428SOL    HW223184   3.511   2.221   5.401
 7429SOL     OW23185   0.108   0.261   2.609
 7429SOL    HW123186   0.129   0.354   2.640
 7429SOL    HW223187   0.027   0.228   2.656
 7430SOL     OW23188   6.666   4.305   5.233
 7430SOL    HW123189   6.718   4.288   5.149
 7430SOL    HW223190   6.695   4.392   5.273
 7431SOL     OW23191   0.833   3.331   1.698
 7431SOL    HW123192   0.768   3.366   1.631
 7431SOL    HW223193   0.866   3.241   1.669
 7432SOL     OW23194   0.846   6.427   3.582
 7432SOL    HW123195   0.748   6.427   3.604
 7432SOL    HW223196   0.872   6.517   3.546
 7433SOL     OW23197   6.409   5.347   1.102
 7433SOL    HW123198   6.411   5.447   1.109
 7433SOL    HW223199   6.445   5.307   1.186
 7434SOL     OW23200   2.623   1.859   0.029
 7434SOL    HW123201   2.709   1.896   7.017
 7434SOL    HW223202   2.610   1.890   0.123
 7435SOL     OW23203   3.525   6.703   6.103
 7435SOL    HW123204   3.483   6.697   6.012
 7435SOL    HW223205   3.460   6.671   6.172
 7436SOL     OW23206   5.836   3.124   0.133
 7436SOL    HW123207   5.902   3.054   0.105
 7436SOL    HW223208   5.864   3.163   0.220
 7437SOL     OW23209   6.748   5.061   6.063
 7437SOL    HW123210   6.704   5.130   6.120
 7437SOL    HW223211   6.842   5.089   6.044
 7438SOL     OW23212   0.988   4.372   2.045
 7438SOL    HW123213   0.943   4.462   2.040
 7438SOL    HW223214   0.998   4.345   2.140
 7439SOL     OW23215   2.487   0.037   3.790
 7439SOL    HW123216   2.514   0.130   3.766
 7439SOL    HW223217   2.438   0.038   3.878
 7440SOL     OW23218   1.286   3.015   4.772
 7440SOL    HW123219   1.362   3.049   4.829
 7440SOL    HW223220   1.244   3.093   4.725
 7441SOL     OW23221   5.172   0.883   3.735
 7441SOL    HW123222   5.154   0.977   3.762
 7441SOL    HW223223   5.102   0.823   3.773
 7442SOL     OW23224   1.008   1.592   6.556
 7442SOL    HW123225   0.939   1.597   6.484
 7442SOL    HW223226   0.975   1.641   6.637
 7443SOL     OW23227   6.794   1.937   0.855
 7443SOL    HW123228   6.780   1.913   0.759
 7443SOL    HW223229   6.769   1.860   0.913
 7444SOL     OW23230   6.938   3.215   6.530
 7444SOL    HW123231   6.885   3.132   6.518
 7444SOL    HW223232   7.003   3.202   6.605
 7445SOL     OW23233   5.072   1.755   1.549
 7445SOL    HW123234   4.976   1.729   1.566
 7445SOL    HW223235   5.078   1.804   1.462
 7446SOL     OW23236   6.314   4.123   6.983
 7446SOL    HW123237   6.278   4.054   0.022
 7446SOL    HW223238   6.350   4.079   6.902
 7447SOL     OW23239   2.100   4.746   0.219
 7447SOL    HW123240   2.183   4.701   0.252
 7447SOL    HW223241   2.037   4.759   0.296
 7448SOL     OW23242   5.551   6.988   5.850
 7448SOL    HW123243   5.458   6.964   5.876
 7448SOL    HW223244   5.560   6.988   5.751
 7449SOL     OW23245   4.839   2.434   1.867
 7449SOL    HW123246   4.748   2.413   1.904
 7449SOL    HW223247   4.885   2.500   1.926
 7450SOL     OW23248   4.995   2.903   3.002
 7450SOL    HW123249   4.940   2.935   2.924
 7450SOL    HW223250   4.976   2.960   3.081
 7451SOL     OW23251   1.819   0.764   4.364
 7451SOL    HW123252   1.856   0.842   4.314
 7451SOL    HW223253   1.791   0.794   4.456
 7452SOL     OW23254   1.825   0.550   5.130
 7452SOL    HW123255   1.871   0.638   5.143
 7452SOL    HW223256   1.861   0.484   5.195
 7453SOL     OW23257   5.908   6.319   4.759
 7453SOL    HW123258   5.898   6.290   4.854
 7453SOL    HW223259   6.004   6.311   4.732
 7454SOL     OW23260   0.907   3.430   1.342
 7454SOL    HW123261   0.836   3.501   1.330
 7454SOL    HW223262   0.872   3.343   1.309
 7455SOL     OW23263   5.328   2.102   0.652
 7455SOL    HW123264   5.230   2.120   0.664
 7455SOL    HW223265   5.368   2.174   0.596
 7456SOL     OW23266   1.470   2.805   4.726
 7456SOL    HW123267   1.478   2.743   4.648
 7456SOL    HW223268   1.428   2.891   4.697
 7457SOL     OW23269   5.683   1.075   5.432
 7457SOL    HW123270   5.588   1.061   5.461
 7457SOL    HW223271   5.732   0.988   5.437
 7458SOL     OW23272   2.555   6.841   0.277
 7458SOL    HW123273   2.533   6.897   0.357
 7458SOL    HW223274   2.599   6.897   0.207
 7459SOL     OW23275   4.476   0.169   5.748
 7459SOL    HW123276   4.512   0.263   5.742
 7459SOL    HW223277   4.464   0.132   5.657
 7460SOL     OW23278   2.482   5.119   0.823
 7460SOL    HW123279   2.486   5.216   0.797
 7460SOL    HW223280   2.406   5.105   0.885
 7461SOL     OW23281   5.040   1.301   5.831
 7461SOL    HW123282   5.064   1.274   5.738
 7461SOL    HW223283   5.122   1.300   5.889
 7462SOL     OW23284   2.324   2.114   1.661
 7462SOL    HW123285   2.232   2.079   1.680
 7462SOL    HW223286   2.330   2.209   1.690
 7463SOL     OW23287   3.535   3.111   1.298
 7463SOL    HW123288   3.568   3.065   1.380
 7463SOL    HW223289   3.590   3.081   1.219
 7464SOL     OW23290   3.502   5.864   0.512
 7464SOL    HW123291   3.495   5.898   0.418
 7464SOL    HW223292   3.432   5.906   0.569
 7465SOL     OW23293   1.749   0.132   0.862
 7465SOL    HW123294   1.745   0.193   0.941
 7465SOL    HW223295   1.792   0.179   0.785
 7466SOL     OW23296   0.686   0.677   6.514
 7466SOL    HW123297   0.764   0.619   6.489
 7466SOL    HW223298   0.716   0.749   6.577
 7467SOL     OW23299   6.896   2.174   1.226
 7467SOL    HW123300   6.903   2.076   1.206
 7467SOL    HW223301   6.809   2.209   1.192
 7468SOL     OW23302   4.881   2.383   2.287
 7468SOL    HW123303   4.875   2.480   2.307
 7468SOL    HW223304   4.977   2.357   2.274
 7469SOL     OW23305   0.921   6.995   6.138
 7469SOL    HW123306   0.888   6.940   6.214
 7469SOL    HW223307   1.004   6.953   6.100
 7470SOL     OW23308   0.559   2.358   2.794
 7470SOL    HW123309   0.614   2.429   2.837
 7470SOL    HW223310   0.563   2.274   2.849
 7471SOL     OW23311   6.660   6.503   4.870
 7471SOL    HW123312   6.594   6.441   4.914
 7471SOL    HW223313   6.751   6.485   4.907
 7472SOL     OW23314   4.239   6.923   4.438
 7472SOL    HW123315   4.303   6.849   4.420
 7472SOL    HW223316   4.214   6.923   4.535
 7473SOL     OW23317   0.436   3.677   3.846
 7473SOL    HW123318   0.503   3.712   3.912
 7473SOL    HW223319   0.465   3.700   3.753
 7474SOL     OW23320   2.606   0.891   3.803
 7474SOL    HW123321   2.649   0.874   3.715
 7474SOL    HW223322   2.652   0.966   3.849
 7475SOL     OW23323   4.843   0.488   2.250
 7475SOL    HW123324   4.926   0.452   2.292
 7475SOL    HW223325   4.798   0.416   2.197
 7476SOL     OW23326   4.587   6.033   4.939
 7476SOL    HW123327   4.525   6.048   4.862
 7476SOL    HW223328   4.681   6.037   4.906
 7477SOL     OW23329   3.909   0.719   4.251
 7477SOL    HW123330   3.907   0.809   4.208
 7477SOL    HW223331   3.842   0.659   4.207
 7478SOL     OW23332   3.440   3.921   6.134
 7478SOL    HW123333   3.385   3.843   6.106
 7478SOL    HW223334   3.496   3.896   6.213
 7479SOL     OW23335   3.938   1.452   0.776
 7479SOL    HW123336   3.982   1.472   0.864
 7479SOL    HW223337   3.992   1.384   0.726
 7480SOL     OW23338   6.273   5.802   1.489
 7480SOL    HW123339   6.271   5.834   1.394
 7480SOL    HW223340   6.264   5.703   1.491
 7481SOL     OW23341   5.447   5.244   1.010
 7481SOL    HW123342   5.464   5.332   1.056
 7481SOL    HW223343   5.461   5.255   0.912
 7482SOL     OW23344   3.603   0.760   1.733
 7482SOL    HW123345   3.528   0.820   1.705
 7482SOL    HW223346   3.569   0.692   1.798
 7483SOL     OW23347   3.595   1.763   4.144
 7483SOL    HW123348   3.496   1.767   4.154
 7483SOL    HW223349   3.638   1.772   4.234
 7484SOL     OW23350   0.678   6.677   1.663
 7484SOL    HW123351   0.629   6.704   1.747
 7484SOL    HW223352   0.771   6.713   1.666
 7485SOL     OW23353   2.683   6.589   5.246
 7485SOL    HW123354   2.669   6.616   5.341
 7485SOL    HW223355   2.738   6.506   5.243
 7486SOL     OW23356   2.996   0.043   5.353
 7486SOL    HW123357   3.067   0.014   5.288
 7486SOL    HW223358   2.965   6.988   5.405
 7487SOL     OW23359   2.143   6.721   2.731
 7487SOL    HW123360   2.063   6.759   2.779
 7487SOL    HW223361   2.127   6.625   2.710
 7488SOL     OW23362   2.653   6.913   5.211
 7488SOL    HW123363   2.638   6.993   5.269
 7488SOL    HW223364   2.699   6.842   5.264
 7489SOL     OW23365   4.847   2.494   4.907
 7489SOL    HW123366   4.938   2.534   4.897
 7489SOL    HW223367   4.848   2.400   4.873
 7490SOL     OW23368   0.342   0.637   0.708
 7490SOL    HW123369   0.335   0.723   0.757
 7490SOL    HW223370   0.315   0.650   0.613
 7491SOL     OW23371   0.639   5.390   6.240
 7491SOL    HW123372   0.606   5.462   6.179
 7491SOL    HW223373   0.576   5.312   6.238
 7492SOL     OW23374   2.455   1.957   5.820
 7492SOL    HW123375   2.355   1.958   5.820
 7492SOL    HW223376   2.487   1.881   5.877
 7493SOL     OW23377   6.297   4.738   5.945
 7493SOL    HW123378   6.243   4.802   5.891
 7493SOL    HW223379   6.360   4.788   6.004
 7494SOL     OW23380   5.365   0.983   2.420
 7494SOL    HW123381   5.319   0.945   2.500
 7494SOL    HW223382   5.372   1.083   2.430
 7495SOL     OW23383   1.626   1.475   1.031
 7495SOL    HW123384   1.666   1.562   1.004
 7495SOL    HW223385   1.586   1.430   0.951
 7496SOL     OW23386   1.782   4.632   5.915
 7496SOL    HW123387   1.795   4.726   5.884
 7496SOL    HW223388   1.700   4.627   5.973
 7497SOL     OW23389   2.736   5.344   1.922
 7497SOL    HW123390   2.681   5.291   1.857
 7497SOL    HW223391   2.817   5.379   1.876
 7498SOL     OW23392   2.995   0.874   4.412
 7498SOL    HW123393   3.045   0.912   4.490
 7498SOL    HW223394   2.936   0.944   4.372
 7499SOL     OW23395   6.038   0.177   3.861
 7499SOL    HW123396   5.970   0.224   3.916
 7499SOL    HW223397   5.994   0.132   3.784
 7500SOL     OW23398   3.793   5.762   2.425
 7500SOL    HW123399   3.764   5.809   2.508
 7500SOL    HW223400   3.754   5.669   2.424
 7501SOL     OW23401   0.785   3.701   3.653
 7501SOL    HW123402   0.827   3.775   3.706
 7501SOL    HW223403   0.816   3.707   3.558
 7502SOL     OW23404   1.804   1.208   5.459
 7502SOL    HW123405   1.718   1.219   5.509
 7502SOL    HW223406   1.873   1.270   5.496
 7503SOL     OW23407   2.542   0.796   6.367
 7503SOL    HW123408   2.599   0.714   6.374
 7503SOL    HW223409   2.503   0.801   6.275
 7504SOL     OW23410   4.170   6.405   3.626
 7504SOL    HW123411   4.224   6.485   3.652
 7504SOL    HW223412   4.218   6.354   3.554
 7505SOL     OW23413   2.997   1.262   5.414
 7505SOL    HW123414   2.909   1.222   5.438
 7505SOL    HW223415   3.036   1.214   5.336
 7506SOL     OW23416   3.582   0.705   2.421
 7506SOL    HW123417   3.627   0.774   2.364
 7506SOL    HW223418   3.648   0.635   2.447
 7507SOL     OW23419   0.179   6.608   6.559
 7507SOL    HW123420   0.135   6.602   6.469
 7507SOL    HW223421   0.273   6.641   6.548
 7508SOL     OW23422   5.538   6.612   2.196
 7508SOL    HW123423   5.510   6.702   2.163
 7508SOL    HW223424   5.603   6.623   2.271
 7509SOL     OW23425   4.826   4.069   0.716
 7509SOL    HW123426   4.845   3.971   0.707
 7509SOL    HW223427   4.739   4.082   0.763
 7510SOL     OW23428   3.345   4.097   4.328
 7510SOL    HW123429   3.289   4.041   4.389
 7510SOL    HW223430   3.442   4.075   4.343
 7511SOL     OW23431   1.521   0.288   2.423
 7511SOL    HW123432   1.568   0.203   2.445
 7511SOL    HW223433   1.506   0.341   2.507
 7512SOL     OW23434   3.043   4.210   1.264
 7512SOL    HW123435   3.130   4.250   1.237
 7512SOL    HW223436   3.058   4.120   1.304
 7513SOL     OW23437   1.625   2.625   6.947
 7513SOL    HW123438   1.592   2.628   6.852
 7513SOL    HW223439   1.680   2.707   6.965
 7514SOL     OW23440   2.983   6.215   2.105
 7514SOL    HW123441   2.909   6.263   2.058
 7514SOL    HW223442   2.955   6.121   2.124
 7515SOL     OW23443   0.872   0.287   3.113
 7515SOL    HW123444   0.801   0.269   3.044
 7515SOL    HW223445   0.961   0.257   3.078
 7516SOL     OW23446   6.714   6.459   4.297
 7516SOL    HW123447   6.731   6.554   4.272
 7516SOL    HW223448   6.673   6.454   4.388
 7517SOL     OW23449   6.877   3.826   1.128
 7517SOL    HW123450   6.813   3.900   1.149
 7517SOL    HW223451   6.960   3.838   1.183
 7518SOL     OW23452   3.775   5.528   3.765
 7518SOL    HW123453   3.680   5.542   3.793
 7518SOL    HW223454   3.824   5.616   3.766
 7519SOL     OW23455   0.951   6.308   4.184
 7519SOL    HW123456   0.878   6.258   4.231
 7519SOL    HW223457   0.969   6.393   4.234
 7520SOL     OW23458   1.986   0.384   2.170
 7520SOL    HW123459   1.985   0.455   2.100
 7520SOL    HW223460   2.080   0.369   2.201
 7521SOL     OW23461   4.427   4.457   5.483
 7521SOL    HW123462   4.524   4.437   5.496
 7521SOL    HW223463   4.377   4.436   5.567
 7522SOL     OW23464   2.644   1.189   6.377
 7522SOL    HW123465   2.622   1.170   6.281
 7522SOL    HW223466   2.718   1.128   6.407
 7523SOL     OW23467   6.489   0.055   5.321
 7523SOL    HW123468   6.453   0.128   5.379
 7523SOL    HW223469   6.464   0.072   5.226
 7524SOL     OW23470   0.003   1.953   6.436
 7524SOL    HW123471   0.001   1.903   6.349
 7524SOL    HW223472   7.007   1.891   6.511
 7525SOL     OW23473   1.980   6.755   6.920
 7525SOL    HW123474   2.022   6.755   6.829
 7525SOL    HW223475   1.950   6.847   6.943
 7526SOL     OW23476   2.986   3.151   4.041
 7526SOL    HW123477   2.921   3.098   4.095
 7526SOL    HW223478   3.074   3.154   4.087
 7527SOL     OW23479   4.988   4.549   2.084
 7527SOL    HW123480   4.924   4.624   2.069
 7527SOL    HW223481   5.005   4.538   2.182
 7528SOL     OW23482   4.531   2.484   0.199
 7528SOL    HW123483   4.457   2.534   0.154
 7528SOL    HW223484   4.581   2.545   0.260
 7529SOL     OW23485   4.913   1.460   3.694
 7529SOL    HW123486   4.937   1.497   3.605
 7529SOL    HW223487   4.995   1.450   3.750
 7530SOL     OW23488   0.006   3.165   2.405
 7530SOL    HW123489   6.989   3.106   2.336
 7530SOL    HW223490   6.967   3.239   2.428
 7531SOL     OW23491   4.509   1.841   3.809
 7531SOL    HW123492   4.497   1.866   3.713
 7531SOL    HW223493   4.467   1.752   3.826
 7532SOL     OW23494   5.353   5.407   2.032
 7532SOL    HW123495   5.254   5.421   2.028
 7532SOL    HW223496   5.400   5.494   2.015
 7533SOL     OW23497   1.803   1.264   3.294
 7533SOL    HW123498   1.720   1.321   3.301
 7533SOL    HW223499   1.883   1.323   3.292
 7534SOL     OW23500   3.891   6.095   4.963
 7534SOL    HW123501   3.925   6.112   4.871
 7534SOL    HW223502   3.815   6.157   4.983
 7535SOL     OW23503   2.551   1.360   5.951
 7535SOL    HW123504   2.522   1.407   6.034
 7535SOL    HW223505   2.478   1.366   5.883
 7536SOL     OW23506   5.074   4.843   5.096
 7536SOL    HW123507   5.023   4.776   5.151
 7536SOL    HW223508   5.164   4.805   5.072
 7537SOL     OW23509   1.760   4.374   4.968
 7537SOL    HW123510   1.818   4.451   4.943
 7537SOL    HW223511   1.745   4.375   5.067
 7538SOL     OW23512   3.413   3.352   2.194
 7538SOL    HW123513   3.383   3.307   2.278
 7538SOL    HW223514   3.362   3.314   2.117
 7539SOL     OW23515   2.514   2.571   5.155
 7539SOL    HW123516   2.538   2.654   5.205
 7539SOL    HW223517   2.482   2.501   5.220
 7540SOL     OW23518   3.297   0.559   6.375
 7540SOL    HW123519   3.392   0.584   6.391
 7540SOL    HW223520   3.254   0.533   6.461
 7541SOL     OW23521   6.647   3.682   5.859
 7541SOL    HW123522   6.680   3.771   5.828
 7541SOL    HW223523   6.718   3.613   5.844
 7542SOL     OW23524   1.142   6.902   5.970
 7542SOL    HW123525   1.204   6.882   5.894
 7542SOL    HW223526   1.170   6.987   6.014
 7543SOL     OW23527   4.016   1.614   0.552
 7543SOL    HW123528   4.022   1.575   0.645
 7543SOL    HW223529   4.088   1.576   0.496
 7544SOL     OW23530   6.916   2.183   3.365
 7544SOL    HW123531   6.824   2.146   3.378
 7544SOL    HW223532   6.951   2.154   3.276
 7545SOL     OW23533   4.377   6.360   2.932
 7545SOL    HW123534   4.469   6.346   2.895
 7545SOL    HW223535   4.349   6.454   2.917
 7546SOL     OW23536   4.548   0.756   6.976
 7546SOL    HW123537   4.571   0.828   6.911
 7546SOL    HW223538   4.458   0.774   7.015
 7547SOL     OW23539   4.079   6.843   0.637
 7547SOL    HW123540   4.157   6.890   0.678
 7547SOL    HW223541   4.103   6.814   0.544
 7548SOL     OW23542   2.046   1.686   0.542
 7548SOL    HW123543   1.952   1.719   0.550
 7548SOL    HW223544   2.046   1.589   0.516
 7549SOL     OW23545   5.915   1.639   2.261
 7549SOL    HW123546   5.865   1.596   2.185
 7549SOL    HW223547   5.859   1.712   2.301
 7550SOL     OW23548   2.227   5.918   2.463
 7550SOL    HW123549   2.287   5.998   2.467
 7550SOL    HW223550   2.269   5.848   2.405
 7551SOL     OW23551   5.002   3.821   0.126
 7551SOL    HW123552   4.934   3.876   0.078
 7551SOL    HW223553   4.966   3.729   0.141
 7552SOL     OW23554   2.499   5.673   3.970
 7552SOL    HW123555   2.444   5.720   4.039
 7552SOL    HW223556   2.519   5.735   3.894
 7553SOL     OW23557   3.879   4.854   5.918
 7553SOL    HW123558   3.869   4.950   5.890
 7553SOL    HW223559   3.799   4.803   5.888
 7554SOL     OW23560   4.633   2.316   0.434
 7554SOL    HW123561   4.600   2.232   0.477
 7554SOL    HW223562   4.585   2.330   0.347
 7555SOL     OW23563   0.498   5.699   5.390
 7555SOL    HW123564   0.566   5.747   5.334
 7555SOL    HW223565   0.432   5.654   5.330
 7556SOL     OW23566   0.479   3.323   5.813
 7556SOL    HW123567   0.460   3.231   5.846
 7556SOL    HW223568   0.483   3.387   5.890
 7557SOL     OW23569   5.074   3.862   6.261
 7557SOL    HW123570   5.162   3.847   6.217
 7557SOL    HW223571   5.088   3.894   6.354
 7558SOL     OW23572   2.437   2.693   3.967
 7558SOL    HW123573   2.508   2.635   3.928
 7558SOL    HW223574   2.441   2.689   4.067
 7559SOL     OW23575   6.294   5.527   1.465
 7559SOL    HW123576   6.208   5.478   1.455
 7559SOL    HW223577   6.355   5.476   1.526
 7560SOL     OW23578   4.890   6.926   6.928
 7560SOL    HW123579   4.888   6.865   7.007
 7560SOL    HW223580   4.895   6.871   6.844
 7561SOL     OW23581   0.667   3.692   0.514
 7561SOL    HW123582   0.569   3.710   0.520
 7561SOL    HW223583   0.701   3.723   0.425
 7562SOL     OW23584   5.331   6.051   4.462
 7562SOL    HW123585   5.356   6.128   4.404
 7562SOL    HW223586   5.243   6.013   4.431
 7563SOL     OW23587   2.976   6.988   1.191
 7563SOL    HW123588   3.003   6.996   1.287
 7563SOL    HW223589   3.019   6.908   1.151
 7564SOL     OW23590   4.716   0.966   3.171
 7564SOL    HW123591   4.661   0.899   3.221
 7564SOL    HW223592   4.802   0.923   3.142
 7565SOL     OW23593   4.589   4.757   6.430
 7565SOL    HW123594   4.666   4.755   6.494
 7565SOL    HW223595   4.510   4.801   6.474
 7566SOL     OW23596   0.992   4.826   3.828
 7566SOL    HW123597   1.043   4.871   3.755
 7566SOL    HW223598   0.894   4.845   3.818
 7567SOL     OW23599   2.058   3.692   6.024
 7567SOL    HW123600   2.100   3.674   6.113
 7567SOL    HW223601   2.122   3.668   5.951
 7568SOL     OW23602   5.486   5.615   3.800
 7568SOL    HW123603   5.458   5.685   3.734
 7568SOL    HW223604   5.441   5.632   3.887
 7569SOL     OW23605   4.650   6.047   6.587
 7569SOL    HW123606   4.631   5.949   6.591
 7569SOL    HW223607   4.643   6.078   6.492
 7570SOL     OW23608   5.774   4.223   5.304
 7570SOL    HW123609   5.689   4.246   5.256
 7570SOL    HW223610   5.847   4.283   5.273
 7571SOL     OW23611   5.396   4.132   1.960
 7571SOL    HW123612   5.435   4.040   1.972
 7571SOL    HW223613   5.335   4.151   2.037
 7572SOL     OW23614   4.843   0.331   4.078
 7572SOL    HW123615   4.920   0.325   4.014
 7572SOL    HW223616   4.791   0.246   4.075
 7573SOL     OW23617   5.903   6.095   4.002
 7573SOL    HW123618   5.858   6.178   4.036
 7573SOL    HW223619   5.987   6.120   3.955
 7574SOL     OW23620   5.952   1.505   4.099
 7574SOL    HW123621   5.935   1.484   4.195
 7574SOL    HW223622   5.874   1.556   4.062
 7575SOL     OW23623   4.369   0.928   5.581
 7575SOL    HW123624   4.276   0.953   5.552
 7575SOL    HW223625   4.366   0.896   5.676
 7576SOL     OW23626   5.560   5.397   0.132
 7576SOL    HW123627   5.619   5.413   0.054
 7576SOL    HW223628   5.605   5.334   0.196
 7577SOL     OW23629   6.682   0.206   4.812
 7577SOL    HW123630   6.714   0.192   4.719
 7577SOL    HW223631   6.734   0.279   4.855
 7578SOL     OW23632   1.762   6.385   4.365
 7578SOL    HW123633   1.735   6.315   4.431
 7578SOL    HW223634   1.684   6.408   4.307
 7579SOL     OW23635   4.588   2.405   1.985
 7579SOL    HW123636   4.512   2.341   1.980
 7579SOL    HW223637   4.588   2.449   2.075
 7580SOL     OW23638   1.212   3.696   3.463
 7580SOL    HW123639   1.228   3.734   3.372
 7580SOL    HW223640   1.284   3.631   3.486
 7581SOL     OW23641   4.439   1.495   0.438
 7581SOL    HW123642   4.518   1.539   0.480
 7581SOL    HW223643   4.462   1.467   0.344
 7582SOL     OW23644   3.714   1.517   0.932
 7582SOL    HW123645   3.781   1.460   0.884
 7582SOL    HW223646   3.730   1.613   0.910
 7583SOL     OW23647   6.260   3.756   1.899
 7583SOL    HW123648   6.194   3.815   1.945
 7583SOL    HW223649   6.311   3.809   1.831
 7584SOL     OW23650   2.225   6.823   0.948
 7584SOL    HW123651   2.255   6.898   1.006
 7584SOL    HW223652   2.196   6.858   0.859
 7585SOL     OW23653   1.388   4.090   6.088
 7585SOL    HW123654   1.471   4.094   6.032
 7585SOL    HW223655   1.308   4.094   6.028
 7586SOL     OW23656   2.683   0.673   2.498
 7586SOL    HW123657   2.685   0.583   2.542
 7586SOL    HW223658   2.768   0.689   2.450
 7587SOL     OW23659   2.036   1.451   6.723
 7587SOL    HW123660   2.100   1.525   6.742
 7587SOL    HW223661   2.053   1.415   6.632
 7588SOL     OW23662   0.738   4.471   1.914
 7588SOL    HW123663   0.679   4.415   1.972
 7588SOL    HW223664   0.784   4.540   1.969
 7589SOL     OW23665   5.958   5.706   0.871
 7589SOL    HW123666   5.863   5.701   0.901
 7589SOL    HW223667   5.989   5.801   0.876
 7590SOL     OW23668   2.786   1.591   5.714
 7590SOL    HW123669   2.691   1.617   5.729
 7590SOL    HW223670   2.803   1.581   5.616
 7591SOL     OW23671   0.230   5.494   0.315
 7591SOL    HW123672   0.271   5.426   0.375
 7591SOL    HW223673   0.137   5.513   0.344
 7592SOL     OW23674   7.023   4.884   6.694
 7592SOL    HW123675   0.007   4.798   6.744
 7592SOL    HW223676   6.927   4.912   6.693
 7593SOL     OW23677   6.199   2.540   6.836
 7593SOL    HW123678   6.219   2.542   6.934
 7593SOL    HW223679   6.179   2.446   6.808
 7594SOL     OW23680   0.593   4.957   2.308
 7594SOL    HW123681   0.557   5.049   2.292
 7594SOL    HW223682   0.637   4.923   2.225
 7595SOL     OW23683   0.351   2.588   6.485
 7595SOL    HW123684   0.257   2.586   6.452
 7595SOL    HW223685   0.354   2.553   6.579
 7596SOL     OW23686   5.283   5.146   2.650
 7596SOL    HW123687   5.329   5.235   2.650
 7596SOL    HW223688   5.255   5.125   2.556
 7597SOL     OW23689   3.125   5.856   2.079
 7597SOL    HW123690   3.073   5.776   2.048
 7597SOL    HW223691   3.067   5.913   2.137
 7598SOL     OW23692   6.285   0.653   3.017
 7598SOL    HW123693   6.221   0.646   2.940
 7598SOL    HW223694   6.326   0.563   3.034
 7599SOL     OW23695   5.464   1.220   3.615
 7599SOL    HW123696   5.440   1.269   3.699
 7599SOL    HW223697   5.460   1.284   3.538
 7600SOL     OW23698   1.435   0.576   1.982
 7600SOL    HW123699   1.409   0.646   1.915
 7600SOL    HW223700   1.393   0.597   2.070
 7601SOL     OW23701   1.514   5.511   3.658
 7601SOL    HW123702   1.568   5.583   3.700
 7601SOL    HW223703   1.569   5.462   3.591
 7602SOL     OW23704   2.048   4.159   4.686
 7602SOL    HW123705   1.960   4.178   4.729
 7602SOL    HW223706   2.083   4.071   4.717
 7603SOL     OW23707   1.453   6.262   6.500
 7603SOL    HW123708   1.413   6.171   6.490
 7603SOL    HW223709   1.547   6.254   6.531
 7604SOL     OW23710   2.707   6.070   3.959
 7604SOL    HW123711   2.745   5.994   3.906
 7604SOL    HW223712   2.607   6.071   3.949
 7605SOL     OW23713   1.667   6.027   0.078
 7605SOL    HW123714   1.625   6.081   0.151
 7605SOL    HW223715   1.740   6.080   0.035
 7606SOL     OW23716   0.189   2.787   1.894
 7606SOL    HW123717   0.125   2.863   1.905
 7606SOL    HW223718   0.245   2.779   1.977
 7607SOL     OW23719   4.040   0.099   6.791
 7607SOL    HW123720   4.042   0.044   6.874
 7607SOL    HW223721   4.085   0.050   6.717
 7608SOL     OW23722   3.506   3.991   3.726
 7608SOL    HW123723   3.568   3.913   3.735
 7608SOL    HW223724   3.440   3.989   3.801
 7609SOL     OW23725   6.727   3.372   3.285
 7609SOL    HW123726   6.696   3.341   3.375
 7609SOL    HW223727   6.782   3.455   3.295
 7610SOL     OW23728   6.195   0.803   0.292
 7610SOL    HW123729   6.144   0.856   0.360
 7610SOL    HW223730   6.214   0.712   0.329
 7611SOL     OW23731   0.630   2.159   0.422
 7611SOL    HW123732   0.696   2.088   0.443
 7611SOL    HW223733   0.662   2.247   0.459
 7612SOL     OW23734   4.122   1.901   4.225
 7612SOL    HW123735   4.026   1.876   4.211
 7612SOL    HW223736   4.144   1.981   4.169
 7613SOL     OW23737   4.933   2.178   1.555
 7613SOL    HW123738   4.893   2.132   1.476
 7613SOL    HW223739   4.901   2.272   1.559
 7614SOL     OW23740   4.062   2.503   1.592
 7614SOL    HW123741   4.101   2.584   1.637
 7614SOL    HW223742   4.018   2.445   1.660
 7615SOL     OW23743   5.293   4.638   6.462
 7615SOL    HW123744   5.304   4.687   6.548
 7615SOL    HW223745   5.364   4.666   6.398
 7616SOL     OW23746   1.004   4.299   4.077
 7616SOL    HW123747   1.090   4.283   4.028
 7616SOL    HW223748   0.979   4.218   4.129
 7617SOL     OW23749   2.917   5.593   3.201
 7617SOL    HW123750   2.931   5.571   3.298
 7617SOL    HW223751   3.003   5.624   3.161
 7618SOL     OW23752   1.048   2.005   6.736
 7618SOL    HW123753   1.111   2.072   6.774
 7618SOL    HW223754   0.963   2.050   6.707
 7619SOL     OW23755   5.614   3.291   5.248
 7619SOL    HW123756   5.540   3.252   5.192
 7619SOL    HW223757   5.642   3.378   5.209
 7620SOL     OW23758   3.726   6.726   0.815
 7620SOL    HW123759   3.692   6.726   0.909
 7620SOL    HW223760   3.826   6.731   0.816
 7621SOL     OW23761   0.864   1.094   0.516
 7621SOL    HW123762   0.944   1.042   0.486
 7621SOL    HW223763   0.786   1.032   0.530
 7622SOL     OW23764   5.404   3.690   1.726
 7622SOL    HW123765   5.345   3.762   1.689
 7622SOL    HW223766   5.370   3.601   1.695
 7623SOL     OW23767   4.800   5.188   6.238
 7623SOL    HW123768   4.863   5.200   6.162
 7623SOL    HW223769   4.778   5.091   6.248
 7624SOL     OW23770   0.586   2.270   4.171
 7624SOL    HW123771   0.579   2.210   4.092
 7624SOL    HW223772   0.677   2.313   4.172
 7625SOL     OW23773   5.044   0.898   0.670
 7625SOL    HW123774   5.056   0.987   0.713
 7625SOL    HW223775   4.946   0.881   0.655
 7626SOL     OW23776   0.427   6.495   5.126
 7626SOL    HW123777   0.430   6.548   5.211
 7626SOL    HW223778   0.405   6.556   5.050
 7627SOL     OW23779   6.238   2.961   0.659
 7627SOL    HW123780   6.241   3.054   0.695
 7627SOL    HW223781   6.330   2.934   0.629
 7628SOL     OW23782   3.598   0.697   1.113
 7628SOL    HW123783   3.585   0.786   1.157
 7628SOL    HW223784   3.691   0.665   1.129
 7629SOL     OW23785   6.150   6.788   2.606
 7629SOL    HW123786   6.200   6.837   2.535
 7629SOL    HW223787   6.087   6.852   2.652
 7630SOL     OW23788   6.325   6.199   2.122
 7630SOL    HW123789   6.292   6.152   2.203
 7630SOL    HW223790   6.380   6.136   2.067
 7631SOL     OW23791   1.034   1.738   5.900
 7631SOL    HW123792   1.127   1.709   5.880
 7631SOL    HW223793   1.025   1.837   5.890
 7632SOL     OW23794   3.802   2.110   1.487
 7632SOL    HW123795   3.742   2.075   1.415
 7632SOL    HW223796   3.839   2.033   1.540
 7633SOL     OW23797   5.500   2.477   0.157
 7633SOL    HW123798   5.430   2.544   0.179
 7633SOL    HW223799   5.575   2.484   0.223
 7634SOL     OW23800   0.996   1.529   2.104
 7634SOL    HW123801   1.043   1.508   2.190
 7634SOL    HW223802   0.925   1.597   2.121
 7635SOL     OW23803   2.590   5.294   5.374
 7635SOL    HW123804   2.620   5.223   5.310
 7635SOL    HW223805   2.593   5.259   5.467
 7636SOL     OW23806   1.187   1.749   3.794
 7636SOL    HW123807   1.227   1.720   3.707
 7636SOL    HW223808   1.227   1.836   3.822
 7637SOL     OW23809   2.100   6.394   2.554
 7637SOL    HW123810   2.192   6.382   2.591
 7637SOL    HW223811   2.101   6.374   2.456
 7638SOL     OW23812   5.373   5.511   1.641
 7638SOL    HW123813   5.275   5.515   1.658
 7638SOL    HW223814   5.416   5.451   1.709
 7639SOL     OW23815   1.367   2.136   6.756
 7639SOL    HW123816   1.346   2.094   6.668
 7639SOL    HW223817   1.446   2.089   6.797
 7640SOL     OW23818   2.492   2.149   0.012
 7640SOL    HW123819   2.553   2.214   6.991
 7640SOL    HW223820   2.525   2.132   0.105
 7641SOL     OW23821   1.199   4.390   1.818
 7641SOL    HW123822   1.160   4.375   1.908
 7641SOL    HW223823   1.138   4.449   1.764
 7642SOL     OW23824   2.296   1.891   3.382
 7642SOL    HW123825   2.303   1.844   3.294
 7642SOL    HW223826   2.386   1.922   3.411
 7643SOL     OW23827   4.940   2.390   3.430
 7643SOL    HW123828   4.964   2.423   3.521
 7643SOL    HW223829   4.859   2.332   3.436
 7644SOL     OW23830   6.441   2.280   2.486
 7644SOL    HW123831   6.417   2.262   2.582
 7644SOL    HW223832   6.408   2.371   2.460
 7645SOL     OW23833   4.514   4.962   5.915
 7645SOL    HW123834   4.537   5.001   5.826
 7645SOL    HW223835   4.417   4.937   5.916
 7646SOL     OW23836   1.928   2.422   2.357
 7646SOL    HW123837   2.009   2.403   2.302
 7646SOL    HW223838   1.879   2.337   2.376
 7647SOL     OW23839   1.039   3.495   1.083
 7647SOL    HW123840   0.975   3.478   1.157
 7647SOL    HW223841   1.128   3.456   1.107
 7648SOL     OW23842   4.126   2.266   3.848
 7648SOL    HW123843   4.041   2.214   3.847
 7648SOL    HW223844   4.177   2.248   3.764
 7649SOL     OW23845   1.280   0.907   2.455
 7649SOL    HW123846   1.362   0.857   2.482
 7649SOL    HW223847   1.266   0.985   2.516
 7650SOL     OW23848   6.242   3.139   1.732
 7650SOL    HW123849   6.245   3.134   1.632
 7650SOL    HW223850   6.239   3.046   1.770
 7651SOL     OW23851   2.159   0.134   6.098
 7651SOL    HW123852   2.084   0.196   6.118
 7651SOL    HW223853   2.200   0.102   6.183
 7652SOL     OW23854   6.950   3.932   4.310
 7652SOL    HW123855   6.924   3.907   4.217
 7652SOL    HW223856   6.989   3.853   4.356
 7653SOL     OW23857   2.019   1.488   0.851
 7653SOL    HW123858   2.000   1.410   0.909
 7653SOL    HW223859   1.966   1.482   0.767
 7654SOL     OW23860   5.164   2.705   3.228
 7654SOL    HW123861   5.157   2.796   3.270
 7654SOL    HW223862   5.232   2.707   3.155
 7655SOL     OW23863   3.542   0.286   3.692
 7655SOL    HW123864   3.538   0.254   3.787
 7655SOL    HW223865   3.519   0.383   3.688
 7656SOL     OW23866   1.188   5.679   5.955
 7656SOL    HW123867   1.188   5.587   5.994
 7656SOL    HW223868   1.146   5.677   5.865
 7657SOL     OW23869   3.025   2.263   3.163
 7657SOL    HW123870   3.013   2.278   3.064
 7657SOL    HW223871   2.948   2.305   3.212
 7658SOL     OW23872   4.437   6.642   5.692
 7658SOL    HW123873   4.345   6.678   5.707
 7658SOL    HW223874   4.503   6.717   5.698
 7659SOL     OW23875   5.610   6.526   6.461
 7659SOL    HW123876   5.703   6.539   6.426
 7659SOL    HW223877   5.544   6.546   6.388
 7660SOL     OW23878   6.168   6.004   4.198
 7660SOL    HW123879   6.164   6.075   4.268
 7660SOL    HW223880   6.163   6.046   4.107
 7661SOL     OW23881   6.147   1.865   4.168
 7661SOL    HW123882   6.198   1.801   4.226
 7661SOL    HW223883   6.121   1.819   4.083
 7662SOL     OW23884   1.325   2.541   2.358
 7662SOL    HW123885   1.318   2.499   2.267
 7662SOL    HW223886   1.319   2.641   2.349
 7663SOL     OW23887   6.242   6.230   6.383
 7663SOL    HW123888   6.203   6.310   6.339
 7663SOL    HW223889   6.332   6.253   6.422
 7664SOL     OW23890   3.343   0.162   2.735
 7664SOL    HW123891   3.377   0.151   2.828
 7664SOL    HW223892   3.414   0.132   2.671
 7665SOL     OW23893   3.651   0.563   3.443
 7665SOL    HW123894   3.685   0.650   3.480
 7665SOL    HW223895   3.552   0.558   3.456
 7666SOL     OW23896   6.703   6.846   1.572
 7666SOL    HW123897   6.795   6.804   1.571
 7666SOL    HW223898   6.702   6.921   1.637
 7667SOL     OW23899   5.331   5.737   0.572
 7667SOL    HW123900   5.268   5.706   0.644
 7667SOL    HW223901   5.375   5.821   0.602
 7668SOL     OW23902   2.787   3.969   1.102
 7668SOL    HW123903   2.808   3.956   1.198
 7668SOL    HW223904   2.738   4.055   1.090
 7669SOL     OW23905   5.044   1.743   4.992
 7669SOL    HW123906   5.014   1.784   4.906
 7669SOL    HW223907   5.141   1.722   4.986
 7670SOL     OW23908   1.635   5.767   6.512
 7670SOL    HW123909   1.687   5.687   6.544
 7670SOL    HW223910   1.542   5.739   6.489
 7671SOL     OW23911   4.177   1.287   4.401
 7671SOL    HW123912   4.184   1.188   4.409
 7671SOL    HW223913   4.123   1.310   4.320
 7672SOL     OW23914   5.659   6.706   3.665
 7672SOL    HW123915   5.722   6.741   3.595
 7672SOL    HW223916   5.686   6.612   3.689
 7673SOL     OW23917   2.191   4.726   0.702
 7673SOL    HW123918   2.241   4.755   0.783
 7673SOL    HW223919   2.252   4.674   0.642
 7674SOL     OW23920   6.687   2.388   4.430
 7674SOL    HW123921   6.751   2.424   4.362
 7674SOL    HW223922   6.649   2.301   4.397
 7675SOL     OW23923   5.123   0.712   2.967
 7675SOL    HW123924   5.123   0.680   2.872
 7675SOL    HW223925   5.041   0.679   3.013
 7676SOL     OW23926   0.695   2.036   0.885
 7676SOL    HW123927   0.690   1.963   0.818
 7676SOL    HW223928   0.780   2.087   0.873
 7677SOL     OW23929   1.742   3.333   1.678
 7677SOL    HW123930   1.825   3.351   1.625
 7677SOL    HW223931   1.751   3.246   1.726
 7678SOL     OW23932   1.466   1.201   6.239
 7678SOL    HW123933   1.410   1.129   6.281
 7678SOL    HW223934   1.563   1.183   6.258
 7679SOL     OW23935   1.235   6.319   4.852
 7679SOL    HW123936   1.248   6.402   4.906
 7679SOL    HW223937   1.203   6.343   4.760
 7680SOL     OW23938   2.156   3.079   7.022
 7680SOL    HW123939   2.112   3.083   6.932
 7680SOL    HW223940   2.202   2.990   0.008
 7681SOL     OW23941   3.196   0.286   0.108
 7681SOL    HW123942   3.151   0.366   0.149
 7681SOL    HW223943   3.268   0.253   0.169
 7682SOL     OW23944   2.613   0.194   1.869
 7682SOL    HW123945   2.640   0.282   1.830
 7682SOL    HW223946   2.530   0.161   1.823
 7683SOL     OW23947   6.966   2.100   3.685
 7683SOL    HW123948   6.924   2.109   3.595
 7683SOL    HW223949   7.012   2.185   3.710
 7684SOL     OW23950   5.687   2.190   6.858
 7684SOL    HW123951   5.741   2.274   6.855
 7684SOL    HW223952   5.608   2.202   6.918
 7685SOL     OW23953   3.781   2.910   6.995
 7685SOL    HW123954   3.832   2.887   0.053
 7685SOL    HW223955   3.723   2.989   7.012
 7686SOL     OW23956   4.224   0.235   3.280
 7686SOL    HW123957   4.270   0.223   3.192
 7686SOL    HW223958   4.125   0.223   3.268
 7687SOL     OW23959   5.866   5.689   5.316
 7687SOL    HW123960   5.900   5.748   5.243
 7687SOL    HW223961   5.911   5.714   5.403
 7688SOL     OW23962   0.116   0.542   6.531
 7688SOL    HW123963   0.153   0.450   6.541
 7688SOL    HW223964   0.185   0.609   6.559
 7689SOL     OW23965   5.269   5.527   3.532
 7689SOL    HW123966   5.308   5.619   3.525
 7689SOL    HW223967   5.237   5.512   3.626
 7690SOL     OW23968   5.870   5.378   2.214
 7690SOL    HW123969   5.891   5.429   2.131
 7690SOL    HW223970   5.842   5.285   2.190
 7691SOL     OW23971   4.743   2.914   4.228
 7691SOL    HW123972   4.746   3.014   4.227
 7691SOL    HW223973   4.818   2.879   4.285
 7692SOL     OW23974   0.652   0.033   1.302
 7692SOL    HW123975   0.743   7.023   1.279
 7692SOL    HW223976   0.600   6.985   1.348
 7693SOL     OW23977   4.257   0.898   0.504
 7693SOL    HW123978   4.311   0.814   0.509
 7693SOL    HW223979   4.160   0.876   0.504
 7694SOL     OW23980   0.776   4.468   4.039
 7694SOL    HW123981   0.865   4.426   4.057
 7694SOL    HW223982   0.774   4.560   4.079
 7695SOL     OW23983   3.949   0.139   1.312
 7695SOL    HW123984   3.898   0.189   1.242
 7695SOL    HW223985   3.913   0.163   1.403
 7696SOL     OW23986   6.897   2.054   4.449
 7696SOL    HW123987   6.922   2.137   4.398
 7696SOL    HW223988   6.977   2.022   4.501
 7697SOL     OW23989   2.661   1.148   2.950
 7697SOL    HW123990   2.664   1.069   2.889
 7697SOL    HW223991   2.637   1.118   3.042
 7698SOL     OW23992   0.389   2.844   4.585
 7698SOL    HW123993   0.309   2.866   4.529
 7698SOL    HW223994   0.401   2.915   4.654
 7699SOL     OW23995   3.277   5.669   6.742
 7699SOL    HW123996   3.354   5.607   6.757
 7699SOL    HW223997   3.256   5.717   6.827
 7700SOL     OW23998   5.190   6.604   5.522
 7700SOL    HW123999   5.236   6.611   5.434
 7700SOL    HW224000   5.162   6.695   5.553
 7701SOL     OW24001   5.744   1.519   6.501
 7701SOL    HW124002   5.652   1.503   6.536
 7701SOL    HW224003   5.742   1.596   6.437
 7702SOL     OW24004   3.547   5.919   6.061
 7702SOL    HW124005   3.524   5.863   5.981
 7702SOL    HW224006   3.612   5.869   6.119
 7703SOL     OW24007   6.510   1.394   4.811
 7703SOL    HW124008   6.471   1.363   4.724
 7703SOL    HW224009   6.597   1.349   4.827
 7704SOL     OW24010   4.211   4.780   5.392
 7704SOL    HW124011   4.177   4.709   5.454
 7704SOL    HW224012   4.180   4.870   5.424
 7705SOL     OW24013   3.491   4.626   5.616
 7705SOL    HW124014   3.513   4.648   5.521
 7705SOL    HW224015   3.490   4.527   5.628
 7706SOL     OW24016   4.702   1.133   5.418
 7706SOL    HW124017   4.784   1.189   5.408
 7706SOL    HW224018   4.690   1.108   5.515
 7707SOL     OW24019   0.282   5.852   6.570
 7707SOL    HW124020   0.234   5.896   6.646
 7707SOL    HW224021   0.363   5.906   6.546
 7708SOL     OW24022   4.852   6.207   4.839
 7708SOL    HW124023   4.927   6.272   4.824
 7708SOL    HW224024   4.866   6.127   4.781
 7709SOL     OW24025   5.569   3.451   1.918
 7709SOL    HW124026   5.559   3.378   1.986
 7709SOL    HW224027   5.504   3.525   1.938
 7710SOL     OW24028   2.130   0.422   1.024
 7710SOL    HW124029   2.209   0.464   0.978
 7710SOL    HW224030   2.086   0.489   1.084
 7711SOL     OW24031   6.504   6.011   4.732
 7711SOL    HW124032   6.540   6.078   4.797
 7711SOL    HW224033   6.575   5.987   4.666
 7712SOL     OW24034   6.660   4.807   1.272
 7712SOL    HW124035   6.577   4.856   1.245
 7712SOL    HW224036   6.718   4.868   1.325
 7713SOL     OW24037   1.993   4.115   0.878
 7713SOL    HW124038   2.015   4.022   0.846
 7713SOL    HW224039   2.033   4.130   0.968
 7714SOL     OW24040   0.068   5.269   5.056
 7714SOL    HW124041   0.160   5.309   5.063
 7714SOL    HW224042   0.023   5.303   4.974
 7715SOL     OW24043   5.239   1.356   1.268
 7715SOL    HW124044   5.245   1.454   1.284
 7715SOL    HW224045   5.177   1.338   1.192
 7716SOL     OW24046   5.406   3.107   3.278
 7716SOL    HW124047   5.498   3.145   3.288
 7716SOL    HW224048   5.347   3.175   3.233
 7717SOL     OW24049   2.958   1.378   4.506
 7717SOL    HW124050   3.048   1.335   4.495
 7717SOL    HW224051   2.945   1.447   4.434
 7718SOL     OW24052   1.604   2.367   3.578
 7718SOL    HW124053   1.590   2.416   3.492
 7718SOL    HW224054   1.684   2.307   3.570
 7719SOL     OW24055   6.733   3.461   3.977
 7719SOL    HW124056   6.795   3.540   3.976
 7719SOL    HW224057   6.785   3.377   3.983
 7720SOL     OW24058   0.093   6.672   0.567
 7720SOL    HW124059   0.015   6.733   0.550
 7720SOL    HW224060   0.174   6.708   0.520
 7721SOL     OW24061   1.871   4.013   3.118
 7721SOL    HW124062   1.852   4.095   3.171
 7721SOL    HW224063   1.791   3.990   3.062
 7722SOL     OW24064   0.329   5.262   2.557
 7722SOL    HW124065   0.379   5.201   2.495
 7722SOL    HW224066   0.234   5.230   2.567
 7723SOL     OW24067   6.785   4.198   0.791
 7723SOL    HW124068   6.829   4.108   0.790
 7723SOL    HW224069   6.803   4.245   0.705
 7724SOL     OW24070   2.284   4.668   2.222
 7724SOL    HW124071   2.340   4.731   2.276
 7724SOL    HW224072   2.194   4.708   2.205
 7725SOL     OW24073   4.955   2.510   3.176
 7725SOL    HW124074   4.931   2.464   3.262
 7725SOL    HW224075   5.013   2.588   3.196
 7726SOL     OW24076   0.058   4.783   4.030
 7726SOL    HW124077   0.127   4.744   4.091
 7726SOL    HW224078   0.084   4.877   4.006
 7727SOL     OW24079   5.907   1.943   3.124
 7727SOL    HW124080   5.903   1.844   3.113
 7727SOL    HW224081   5.859   1.969   3.207
 7728SOL     OW24082   1.250   3.767   3.211
 7728SOL    HW124083   1.256   3.682   3.158
 7728SOL    HW224084   1.253   3.845   3.149
 7729SOL     OW24085   6.079   2.484   1.638
 7729SOL    HW124086   6.141   2.416   1.598
 7729SOL    HW224087   6.036   2.537   1.565
 7730SOL     OW24088   5.777   5.695   2.617
 7730SOL    HW124089   5.798   5.618   2.557
 7730SOL    HW224090   5.769   5.663   2.711
 7731SOL     OW24091   5.728   0.983   1.044
 7731SOL    HW124092   5.793   1.022   1.110
 7731SOL    HW224093   5.705   1.052   0.975
 7732SOL     OW24094   4.588   6.106   0.462
 7732SOL    HW124095   4.649   6.115   0.383
 7732SOL    HW224096   4.642   6.084   0.544
 7733SOL     OW24097   4.393   6.517   1.765
 7733SOL    HW124098   4.461   6.474   1.706
 7733SOL    HW224099   4.394   6.474   1.855
 7734SOL     OW24100   1.504   3.949   3.262
 7734SOL    HW124101   1.425   3.942   3.201
 7734SOL    HW224102   1.505   4.039   3.305
 7735SOL     OW24103   4.002   4.919   6.714
 7735SOL    HW124104   3.919   4.962   6.747
 7735SOL    HW224105   4.040   4.861   6.786
 7736SOL     OW24106   5.352   4.382   0.369
 7736SOL    HW124107   5.396   4.390   0.459
 7736SOL    HW224108   5.387   4.301   0.322
 7737SOL     OW24109   4.543   1.455   0.778
 7737SOL    HW124110   4.468   1.402   0.738
 7737SOL    HW224111   4.534   1.551   0.752
 7738SOL     OW24112   2.468   5.846   0.033
 7738SOL    HW124113   2.489   5.781   0.106
 7738SOL    HW224114   2.531   5.924   0.039
 7739SOL     OW24115   0.132   1.672   1.239
 7739SOL    HW124116   0.149   1.727   1.321
 7739SOL    HW224117   0.219   1.639   1.202
 7740SOL     OW24118   0.565   0.437   2.987
 7740SOL    HW124119   0.608   0.526   3.001
 7740SOL    HW224120   0.487   0.447   2.926
 7741SOL     OW24121   1.481   5.633   4.670
 7741SOL    HW124122   1.546   5.563   4.698
 7741SOL    HW224123   1.520   5.723   4.685
 7742SOL     OW24124   6.131   2.074   3.595
 7742SOL    HW124125   6.136   2.117   3.685
 7742SOL    HW224126   6.047   2.019   3.590
 7743SOL     OW24127   4.774   2.990   6.085
 7743SOL    HW124128   4.826   3.067   6.049
 7743SOL    HW224129   4.749   3.008   6.181
 7744SOL     OW24130   0.137   6.329   3.926
 7744SOL    HW124131   0.214   6.296   3.873
 7744SOL    HW224132   0.115   6.423   3.897
 7745SOL     OW24133   3.593   2.397   5.966
 7745SOL    HW124134   3.594   2.400   6.066
 7745SOL    HW224135   3.663   2.458   5.930
 7746SOL     OW24136   2.499   0.021   6.863
 7746SOL    HW124137   2.456   0.074   6.790
 7746SOL    HW224138   2.445   6.962   6.880
 7747SOL     OW24139   5.128   6.480   0.997
 7747SOL    HW124140   5.043   6.475   0.945
 7747SOL    HW224141   5.119   6.427   1.082
 7748SOL     OW24142   3.221   3.820   5.409
 7748SOL    HW124143   3.222   3.831   5.309
 7748SOL    HW224144   3.314   3.820   5.443
 7749SOL     OW24145   4.346   3.620   5.952
 7749SOL    HW124146   4.281   3.660   5.888
 7749SOL    HW224147   4.363   3.525   5.927
 7750SOL     OW24148   0.683   6.040   1.050
 7750SOL    HW124149   0.708   6.125   1.095
 7750SOL    HW224150   0.619   5.990   1.107
 7751SOL     OW24151   1.752   1.271   2.251
 7751SOL    HW124152   1.849   1.285   2.269
 7751SOL    HW224153   1.735   1.284   2.153
 7752SOL     OW24154   5.066   0.516   4.662
 7752SOL    HW124155   5.065   0.480   4.568
 7752SOL    HW224156   5.098   0.610   4.662
 7753SOL     OW24157   1.778   1.604   4.514
 7753SOL    HW124158   1.752   1.508   4.526
 7753SOL    HW224159   1.861   1.610   4.459
 7754SOL     OW24160   3.974   6.188   1.348
 7754SOL    HW124161   3.893   6.210   1.293
 7754SOL    HW224162   4.055   6.189   1.289
 7755SOL     OW24163   1.347   3.779   6.099
 7755SOL    HW124164   1.401   3.844   6.046
 7755SOL    HW224165   1.397   3.755   6.182
 7756SOL     OW24166   2.245   6.676   1.503
 7756SOL    HW124167   2.205   6.763   1.530
 7756SOL    HW224168   2.173   6.615   1.471
 7757SOL     OW24169   6.930   4.620   1.606
 7757SOL    HW124170   6.954   4.717   1.599
 7757SOL    HW224171   6.928   4.594   1.702
 7758SOL     OW24172   1.613   0.616   6.298
 7758SOL    HW124173   1.712   0.613   6.313
 7758SOL    HW224174   1.587   0.708   6.267
 7759SOL     OW24175   2.398   2.372   5.606
 7759SOL    HW124176   2.347   2.288   5.626
 7759SOL    HW224177   2.380   2.439   5.678
 7760SOL     OW24178   4.883   1.793   2.564
 7760SOL    HW124179   4.974   1.815   2.598
 7760SOL    HW224180   4.870   1.835   2.474
 7761SOL     OW24181   5.683   5.044   4.206
 7761SOL    HW124182   5.654   5.072   4.114
 7761SOL    HW224183   5.603   5.017   4.259
 7762SOL     OW24184   0.588   0.577   4.345
 7762SOL    HW124185   0.607   0.617   4.256
 7762SOL    HW224186   0.671   0.535   4.382
 7763SOL     OW24187   2.348   0.424   5.250
 7763SOL    HW124188   2.253   0.455   5.249
 7763SOL    HW224189   2.354   0.332   5.212
 7764SOL     OW24190   3.314   4.033   5.073
 7764SOL    HW124191   3.401   4.056   5.029
 7764SOL    HW224192   3.306   3.933   5.081
 7765SOL     OW24193   6.924   3.616   4.385
 7765SOL    HW124194   6.833   3.625   4.344
 7765SOL    HW224195   6.933   3.525   4.427
 7766SOL     OW24196   0.515   4.529   0.546
 7766SOL    HW124197   0.458   4.559   0.470
 7766SOL    HW224198   0.549   4.610   0.596
 7767SOL     OW24199   4.352   6.999   2.135
 7767SOL    HW124200   4.350   6.914   2.187
 7767SOL    HW224201   4.290   6.993   2.057
 7768SOL     OW24202   4.428   4.516   2.788
 7768SOL    HW124203   4.431   4.521   2.888
 7768SOL    HW224204   4.346   4.561   2.754
 7769SOL     OW24205   4.007   2.276   5.284
 7769SOL    HW124206   3.996   2.242   5.191
 7769SOL    HW224207   4.028   2.374   5.282
 7770SOL     OW24208   1.020   3.014   5.074
 7770SOL    HW124209   1.083   3.034   4.999
 7770SOL    HW224210   1.070   3.012   5.160
 7771SOL     OW24211   3.085   2.589   6.125
 7771SOL    HW124212   3.112   2.543   6.041
 7771SOL    HW224213   2.997   2.553   6.156
 7772SOL     OW24214   5.284   1.028   0.984
 7772SOL    HW124215   5.228   1.101   0.944
 7772SOL    HW224216   5.350   0.996   0.916
 7773SOL     OW24217   3.050   6.358   0.365
 7773SOL    HW124218   3.090   6.281   0.416
 7773SOL    HW224219   3.116   6.390   0.297
 7774SOL     OW24220   5.154   2.241   3.360
 7774SOL    HW124221   5.158   2.151   3.402
 7774SOL    HW224222   5.080   2.294   3.401
 7775SOL     OW24223   3.597   0.510   6.736
 7775SOL    HW124224   3.624   0.601   6.705
 7775SOL    HW224225   3.649   0.441   6.685
 7776SOL     OW24226   0.464   6.651   5.343
 7776SOL    HW124227   0.466   6.604   5.431
 7776SOL    HW224228   0.383   6.709   5.338
 7777SOL     OW24229   5.749   5.268   3.918
 7777SOL    HW124230   5.663   5.217   3.912
 7777SOL    HW224231   5.737   5.357   3.873
 7778SOL     OW24232   6.412   3.710   3.007
 7778SOL    HW124233   6.342   3.756   3.062
 7778SOL    HW224234   6.368   3.646   2.944
 7779SOL     OW24235   3.475   6.519   2.609
 7779SOL    HW124236   3.488   6.422   2.626
 7779SOL    HW224237   3.563   6.566   2.614
 7780SOL     OW24238   6.764   5.450   5.926
 7780SOL    HW124239   6.845   5.468   5.870
 7780SOL    HW224240   6.711   5.534   5.936
 7781SOL     OW24241   1.759   2.961   0.180
 7781SOL    HW124242   1.804   2.878   0.215
 7781SOL    HW224243   1.816   3.040   0.198
 7782SOL     OW24244   6.483   4.680   3.242
 7782SOL    HW124245   6.422   4.671   3.164
 7782SOL    HW224246   6.494   4.776   3.266
 7783SOL     OW24247   0.857   6.874   5.639
 7783SOL    HW124248   0.935   6.906   5.586
 7783SOL    HW224249   0.772   6.891   5.588
 7784SOL     OW24250   2.468   2.105   2.215
 7784SOL    HW124251   2.492   2.030   2.152
 7784SOL    HW224252   2.518   2.187   2.190
 7785SOL     OW24253   1.645   6.268   2.439
 7785SOL    HW124254   1.580   6.211   2.488
 7785SOL    HW224255   1.615   6.363   2.442
 7786SOL     OW24256   4.301   0.647   6.622
 7786SOL    HW124257   4.294   0.736   6.666
 7786SOL    HW224258   4.360   0.588   6.676
 7787SOL     OW24259   2.594   3.370   0.527
 7787SOL    HW124260   2.574   3.439   0.596
 7787SOL    HW224261   2.679   3.323   0.550
 7788SOL     OW24262   1.640   5.384   1.959
 7788SOL    HW124263   1.547   5.367   1.992
 7788SOL    HW224264   1.641   5.379   1.859
 7789SOL     OW24265   3.445   0.307   6.283
 7789SOL    HW124266   3.506   0.371   6.236
 7789SOL    HW224267   3.351   0.321   6.251
 7790SOL     OW24268   6.200   5.267   2.677
 7790SOL    HW124269   6.243   5.185   2.716
 7790SOL    HW224270   6.105   5.272   2.706
 7791SOL     OW24271   2.060   5.953   1.536
 7791SOL    HW124272   2.129   5.922   1.471
 7791SOL    HW224273   2.072   5.903   1.623
 7792SOL     OW24274   0.664   1.577   2.881
 7792SOL    HW124275   0.641   1.490   2.926
 7792SOL    HW224276   0.584   1.612   2.834
 7793SOL     OW24277   4.027   1.791   6.942
 7793SOL    HW124278   4.097   1.724   6.967
 7793SOL    HW224279   3.948   1.744   6.903
 7794SOL     OW24280   0.833   5.552   2.978
 7794SOL    HW124281   0.829   5.457   3.007
 7794SOL    HW224282   0.743   5.580   2.944
 7795SOL     OW24283   3.353   5.544   5.667
 7795SOL    HW124284   3.327   5.452   5.636
 7795SOL    HW224285   3.290   5.574   5.738
 7796SOL     OW24286   3.461   3.350   5.870
 7796SOL    HW124287   3.465   3.297   5.955
 7796SOL    HW224288   3.496   3.295   5.794
 7797SOL     OW24289   0.694   5.086   2.882
 7797SOL    HW124290   0.711   4.990   2.858
 7797SOL    HW224291   0.699   5.143   2.800
 7798SOL     OW24292   0.435   1.397   1.647
 7798SOL    HW124293   0.413   1.378   1.551
 7798SOL    HW224294   0.446   1.496   1.659
 7799SOL     OW24295   2.978   6.378   2.892
 7799SOL    HW124296   3.014   6.367   2.985
 7799SOL    HW224297   3.039   6.333   2.827
 7800SOL     OW24298   1.044   6.034   0.983
 7800SOL    HW124299   0.997   5.958   0.937
 7800SOL    HW224300   1.053   6.012   1.081
 7801SOL     OW24301   1.532   2.406   2.525
 7801SOL    HW124302   1.594   2.478   2.556
 7801SOL    HW224303   1.464   2.445   2.463
 7802SOL     OW24304   6.961   4.371   5.928
 7802SOL    HW124305   6.924   4.281   5.904
 7802SOL    HW224306   7.019   4.362   6.009
 7803SOL     OW24307   5.746   2.545   6.173
 7803SOL    HW124308   5.673   2.609   6.148
 7803SOL    HW224309   5.801   2.583   6.246
 7804SOL     OW24310   2.319   2.189   4.436
 7804SOL    HW124311   2.317   2.165   4.533
 7804SOL    HW224312   2.295   2.285   4.425
 7805SOL     OW24313   5.484   2.649   1.847
 7805SOL    HW124314   5.449   2.652   1.753
 7805SOL    HW224315   5.520   2.557   1.866
 7806SOL     OW24316   6.595   2.722   5.567
 7806SOL    HW124317   6.574   2.634   5.608
 7806SOL    HW224318   6.614   2.789   5.640
 7807SOL     OW24319   2.246   4.831   5.951
 7807SOL    HW124320   2.344   4.844   5.965
 7807SOL    HW224321   2.230   4.754   5.890
 7808SOL     OW24322   5.143   4.376   3.007
 7808SOL    HW124323   5.161   4.362   2.910
 7808SOL    HW224324   5.060   4.432   3.017
 7809SOL     OW24325   5.205   4.766   3.830
 7809SOL    HW124326   5.297   4.774   3.794
 7809SOL    HW224327   5.168   4.857   3.848
 7810SOL     OW24328   4.344   6.289   4.985
 7810SOL    HW124329   4.344   6.194   5.017
 7810SOL    HW224330   4.378   6.292   4.891
 7811SOL     OW24331   1.206   5.699   2.412
 7811SOL    HW124332   1.136   5.673   2.346
 7811SOL    HW224333   1.266   5.768   2.372
 7812SOL     OW24334   2.434   2.507   5.923
 7812SOL    HW124335   2.402   2.458   6.004
 7812SOL    HW224336   2.518   2.463   5.890
 7813SOL     OW24337   5.134   2.614   1.339
 7813SOL    HW124338   5.035   2.615   1.328
 7813SOL    HW224339   5.172   2.703   1.314
 7814SOL     OW24340   6.424   3.384   2.046
 7814SOL    HW124341   6.449   3.374   1.950
 7814SOL    HW224342   6.496   3.433   2.094
 7815SOL     OW24343   6.393   2.802   5.384
 7815SOL    HW124344   6.435   2.787   5.473
 7815SOL    HW224345   6.319   2.736   5.370
 7816SOL     OW24346   0.159   1.687   5.457
 7816SOL    HW124347   0.073   1.674   5.407
 7816SOL    HW224348   0.162   1.624   5.535
 7817SOL     OW24349   3.303   3.680   6.058
 7817SOL    HW124350   3.378   3.646   6.003
 7817SOL    HW224351   3.218   3.675   6.006
 7818SOL     OW24352   4.836   1.714   1.746
 7818SOL    HW124353   4.898   1.637   1.761
 7818SOL    HW224354   4.757   1.706   1.807
 7819SOL     OW24355   0.565   3.407   3.889
 7819SOL    HW124356   0.543   3.329   3.830
 7819SOL    HW224357   0.519   3.489   3.854
 7820SOL     OW24358   1.883   0.557   5.574
 7820SOL    HW124359   1.919   0.472   5.613
 7820SOL    HW224360   1.900   0.558   5.476
 7821SOL     OW24361   6.211   5.673   0.151
 7821SOL    HW124362   6.220   5.749   0.215
 7821SOL    HW224363   6.172   5.706   0.065
 7822SOL     OW24364   1.522   0.958   5.282
 7822SOL    HW124365   1.546   0.932   5.188
 7822SOL    HW224366   1.480   1.049   5.282
 7823SOL     OW24367   1.616   4.381   6.850
 7823SOL    HW124368   1.555   4.405   6.926
 7823SOL    HW224369   1.654   4.290   6.864
 7824SOL     OW24370   5.757   1.921   2.869
 7824SOL    HW124371   5.798   1.927   2.777
 7824SOL    HW224372   5.827   1.943   2.937
 7825SOL     OW24373   2.216   3.124   1.256
 7825SOL    HW124374   2.299   3.132   1.201
 7825SOL    HW224375   2.240   3.118   1.353
 7826SOL     OW24376   5.574   0.846   0.124
 7826SOL    HW124377   5.534   0.767   0.170
 7826SOL    HW224378   5.662   0.868   0.167
 7827SOL     OW24379   4.612   4.857   1.730
 7827SOL    HW124380   4.611   4.885   1.634
 7827SOL    HW224381   4.701   4.879   1.770
 7828SOL     OW24382   1.269   6.012   0.528
 7828SOL    HW124383   1.235   6.030   0.436
 7828SOL    HW224384   1.369   6.003   0.526
 7829SOL     OW24385   2.577   3.039   1.680
 7829SOL    HW124386   2.545   2.944   1.689
 7829SOL    HW224387   2.677   3.041   1.686
 7830SOL     OW24388   6.031   3.573   6.656
 7830SOL    HW124389   6.032   3.672   6.645
 7830SOL    HW224390   6.048   3.550   6.752
 7831SOL     OW24391   1.212   3.932   0.399
 7831SOL    HW124392   1.152   3.983   0.337
 7831SOL    HW224393   1.305   3.967   0.391
 7832SOL     OW24394   2.797   1.758   5.359
 7832SOL    HW124395   2.852   1.675   5.356
 7832SOL    HW224396   2.701   1.734   5.369
 7833SOL     OW24397   0.277   0.033   0.649
 7833SOL    HW124398   0.223   7.015   0.576
 7833SOL    HW224399   0.283   0.132   0.633
 7834SOL     OW24400   0.731   0.648   2.385
 7834SOL    HW124401   0.766   0.696   2.305
 7834SOL    HW224402   0.703   0.715   2.454
 7835SOL     OW24403   2.247   2.876   4.767
 7835SOL    HW124404   2.287   2.787   4.746
 7835SOL    HW224405   2.279   2.907   4.857
 7836SOL     OW24406   3.305   6.949   6.327
 7836SOL    HW124407   3.307   7.010   6.407
 7836SOL    HW224408   3.242   6.873   6.345
 7837SOL     OW24409   5.982   7.018   2.679
 7837SOL    HW124410   5.914   7.012   2.606
 7837SOL    HW224411   5.936   7.010   2.768
 7838SOL     OW24412   4.361   6.665   4.447
 7838SOL    HW124413   4.316   6.578   4.464
 7838SOL    HW224414   4.442   6.673   4.505
 7839SOL     OW24415   5.795   4.019   4.448
 7839SOL    HW124416   5.705   3.984   4.422
 7839SOL    HW224417   5.784   4.099   4.506
 7840SOL     OW24418   5.137   2.724   4.317
 7840SOL    HW124419   5.062   2.760   4.261
 7840SOL    HW224420   5.114   2.632   4.348
 7841SOL     OW24421   6.096   2.291   6.795
 7841SOL    HW124422   6.040   2.248   6.865
 7841SOL    HW224423   6.088   2.239   6.709
 7842SOL     OW24424   1.613   1.640   3.047
 7842SOL    HW124425   1.541   1.704   3.075
 7842SOL    HW224426   1.702   1.678   3.071
 7843SOL     OW24427   5.468   4.101   0.744
 7843SOL    HW124428   5.377   4.085   0.706
 7843SOL    HW224429   5.461   4.123   0.841
 7844SOL     OW24430   4.296   1.004   3.444
 7844SOL    HW124431   4.243   0.989   3.528
 7844SOL    HW224432   4.393   1.012   3.467
 7845SOL     OW24433   0.324   0.931   4.220
 7845SOL    HW124434   0.417   0.958   4.194
 7845SOL    HW224435   0.298   0.977   4.305
 7846SOL     OW24436   2.325   1.020   1.563
 7846SOL    HW124437   2.393   1.084   1.527
 7846SOL    HW224438   2.258   1.069   1.618
 7847SOL     OW24439   0.461   0.998   0.839
 7847SOL    HW124440   0.498   0.917   0.885
 7847SOL    HW224441   0.365   0.982   0.816
 7848SOL     OW24442   4.181   4.133   1.547
 7848SOL    HW124443   4.154   4.058   1.486
 7848SOL    HW224444   4.101   4.186   1.573
 7849SOL     OW24445   5.044   3.405   4.390
 7849SOL    HW124446   5.018   3.501   4.384
 7849SOL    HW224447   5.141   3.395   4.370
 7850SOL     OW24448   6.928   1.275   4.342
 7850SOL    HW124449   6.910   1.215   4.264
 7850SOL    HW224450   6.889   1.235   4.425
 7851SOL     OW24451   6.195   6.569   0.508
 7851SOL    HW124452   6.218   6.656   0.466
 7851SOL    HW224453   6.220   6.494   0.447
 7852SOL     OW24454   2.757   6.395   0.105
 7852SOL    HW124455   2.771   6.319   0.167
 7852SOL    HW224456   2.839   6.411   0.050
 7853SOL     OW24457   2.914   1.631   0.591
 7853SOL    HW124458   2.856   1.555   0.618
 7853SOL    HW224459   2.879   1.672   0.507
 7854SOL     OW24460   3.578   3.516   2.353
 7854SOL    HW124461   3.516   3.488   2.279
 7854SOL    HW224462   3.595   3.614   2.347
 7855SOL     OW24463   4.279   5.340   6.041
 7855SOL    HW124464   4.333   5.418   6.072
 7855SOL    HW224465   4.247   5.288   6.120
 7856SOL     OW24466   6.188   4.182   4.503
 7856SOL    HW124467   6.217   4.194   4.598
 7856SOL    HW224468   6.153   4.088   4.491
 7857SOL     OW24469   6.024   2.301   6.033
 7857SOL    HW124470   5.934   2.316   5.994
 7857SOL    HW224471   6.061   2.214   6.000
 7858SOL     OW24472   6.276   4.377   3.876
 7858SOL    HW124473   6.337   4.394   3.798
 7858SOL    HW224474   6.195   4.435   3.868
 7859SOL     OW24475   1.072   4.686   6.553
 7859SOL    HW124476   1.055   4.617   6.623
 7859SOL    HW224477   0.985   4.716   6.514
 7860SOL     OW24478   4.131   6.277   1.918
 7860SOL    HW124479   4.229   6.298   1.914
 7860SOL    HW224480   4.115   6.186   1.879
 7861SOL     OW24481   4.741   5.259   1.498
 7861SOL    HW124482   4.658   5.260   1.554
 7861SOL    HW224483   4.741   5.176   1.441
 7862SOL     OW24484   2.976   4.296   1.688
 7862SOL    HW124485   3.049   4.338   1.634
 7862SOL    HW224486   2.925   4.367   1.736
 7863SOL     OW24487   6.246   6.251   2.843
 7863SOL    HW124488   6.269   6.255   2.940
 7863SOL    HW224489   6.181   6.177   2.827
 7864SOL     OW24490   0.428   5.985   5.500
 7864SOL    HW124491   0.518   5.954   5.469
 7864SOL    HW224492   0.357   5.934   5.452
 7865SOL     OW24493   3.716   6.110   3.626
 7865SOL    HW124494   3.787   6.122   3.695
 7865SOL    HW224495   3.646   6.181   3.637
 7866SOL     OW24496   2.785   1.638   3.402
 7866SOL    HW124497   2.770   1.539   3.394
 7866SOL    HW224498   2.700   1.683   3.427
 7867SOL     OW24499   5.987   5.894   2.531
 7867SOL    HW124500   5.909   5.837   2.556
 7867SOL    HW224501   6.072   5.841   2.538
 7868SOL     OW24502   5.368   6.279   1.571
 7868SOL    HW124503   5.377   6.378   1.581
 7868SOL    HW224504   5.421   6.249   1.492
 7869SOL     OW24505   6.568   3.359   1.250
 7869SOL    HW124506   6.491   3.398   1.200
 7869SOL    HW224507   6.634   3.432   1.271
 7870SOL     OW24508   6.694   5.078   3.973
 7870SOL    HW124509   6.751   5.049   4.050
 7870SOL    HW224510   6.750   5.131   3.908
 7871SOL     OW24511   5.652   3.359   3.489
 7871SOL    HW124512   5.750   3.366   3.502
 7871SOL    HW224513   5.621   3.269   3.521
 7872SOL     OW24514   0.517   3.707   3.610
 7872SOL    HW124515   0.615   3.695   3.631
 7872SOL    HW224516   0.496   3.663   3.523
 7873SOL     OW24517   6.957   0.286   6.381
 7873SOL    HW124518   7.021   0.352   6.342
 7873SOL    HW224519   7.001   0.196   6.385
 7874SOL     OW24520   6.572   1.324   0.355
 7874SOL    HW124521   6.615   1.400   0.404
 7874SOL    HW224522   6.474   1.323   0.376
 7875SOL     OW24523   5.044   4.490   0.015
 7875SOL    HW124524   5.035   4.409   0.073
 7875SOL    HW224525   5.056   4.571   0.073
 7876SOL     OW24526   6.573   0.468   4.674
 7876SOL    HW124527   6.529   0.379   4.656
 7876SOL    HW224528   6.671   0.454   4.687
 7877SOL     OW24529   0.009   2.405   3.426
 7877SOL    HW124530   6.989   2.322   3.393
 7877SOL    HW224531   0.106   2.401   3.404
 7878SOL     OW24532   4.169   4.691   2.806
 7878SOL    HW124533   4.070   4.706   2.804
 7878SOL    HW224534   4.211   4.740   2.730
 7879SOL     OW24535   5.122   5.865   3.447
 7879SOL    HW124536   5.127   5.835   3.352
 7879SOL    HW224537   5.214   5.879   3.484
 7880SOL     OW24538   0.354   6.281   6.911
 7880SOL    HW124539   0.438   6.236   6.882
 7880SOL    HW224540   0.375   6.367   6.956
 7881SOL     OW24541   6.534   3.860   4.716
 7881SOL    HW124542   6.536   3.806   4.800
 7881SOL    HW224543   6.599   3.936   4.724
 7882SOL     OW24544   0.756   2.737   2.559
 7882SOL    HW124545   0.689   2.676   2.518
 7882SOL    HW224546   0.818   2.685   2.619
 7883SOL     OW24547   2.863   1.012   2.779
 7883SOL    HW124548   2.906   1.103   2.783
 7883SOL    HW224549   2.865   0.979   2.685
 7884SOL     OW24550   1.545   4.586   4.003
 7884SOL    HW124551   1.450   4.617   3.997
 7884SOL    HW224552   1.599   4.632   3.932
 7885SOL     OW24553   6.156   5.473   2.882
 7885SOL    HW124554   6.169   5.569   2.855
 7885SOL    HW224555   6.228   5.417   2.841
 7886SOL     OW24556   5.027   3.519   1.544
 7886SOL    HW124557   4.956   3.588   1.556
 7886SOL    HW224558   4.986   3.428   1.541
 7887SOL     OW24559   3.509   3.315   6.405
 7887SOL    HW124560   3.589   3.292   6.351
 7887SOL    HW224561   3.444   3.239   6.404
 7888SOL     OW24562   6.459   1.705   4.209
 7888SOL    HW124563   6.455   1.665   4.117
 7888SOL    HW224564   6.376   1.682   4.259
 7889SOL     OW24565   6.254   5.230   0.630
 7889SOL    HW124566   6.293   5.171   0.559
 7889SOL    HW224567   6.311   5.311   0.641
 7890SOL     OW24568   1.380   2.678   4.378
 7890SOL    HW124569   1.452   2.741   4.352
 7890SOL    HW224570   1.296   2.729   4.396
 7891SOL     OW24571   0.696   2.671   4.112
 7891SOL    HW124572   0.643   2.702   4.034
 7891SOL    HW224573   0.661   2.714   4.196
 7892SOL     OW24574   1.927   2.516   4.768
 7892SOL    HW124575   1.860   2.472   4.827
 7892SOL    HW224576   1.989   2.572   4.824
 7893SOL     OW24577   6.298   0.192   1.933
 7893SOL    HW124578   6.235   0.211   1.858
 7893SOL    HW224579   6.355   0.114   1.910
 7894SOL     OW24580   2.419   1.472   6.606
 7894SOL    HW124581   2.518   1.468   6.587
 7894SOL    HW224582   2.369   1.453   6.521
 7895SOL     OW24583   3.716   5.654   4.051
 7895SOL    HW124584   3.805   5.632   4.010
 7895SOL    HW224585   3.675   5.570   4.087
 7896SOL     OW24586   4.231   2.694   1.696
 7896SOL    HW124587   4.200   2.789   1.692
 7896SOL    HW224588   4.319   2.689   1.743
 7897SOL     OW24589   3.649   4.529   6.379
 7897SOL    HW124590   3.739   4.559   6.346
 7897SOL    HW224591   3.632   4.568   6.470
 7898SOL     OW24592   4.753   0.288   4.378
 7898SOL    HW124593   4.769   0.314   4.283
 7898SOL    HW224594   4.808   0.207   4.400
 7899SOL     OW24595   5.351   5.366   1.414
 7899SOL    HW124596   5.446   5.348   1.388
 7899SOL    HW224597   5.349   5.409   1.504
 7900SOL     OW24598   0.320   4.317   0.642
 7900SOL    HW124599   0.378   4.398   0.641
 7900SOL    HW224600   0.344   4.258   0.565
 7901SOL     OW24601   5.091   0.890   6.181
 7901SOL    HW124602   5.045   0.935   6.104
 7901SOL    HW224603   5.167   0.947   6.212
 7902SOL     OW24604   0.066   6.613   3.040
 7902SOL    HW124605   0.054   6.545   2.967
 7902SOL    HW224606   7.001   6.640   3.075
 7903SOL     OW24607   3.090   1.684   4.111
 7903SOL    HW124608   3.058   1.768   4.069
 7903SOL    HW224609   3.177   1.701   4.157
 7904SOL     OW24610   6.062   0.718   2.471
 7904SOL    HW124611   6.121   0.797   2.457
 7904SOL    HW224612   6.027   0.718   2.564
 7905SOL     OW24613   5.755   1.013   0.672
 7905SOL    HW124614   5.689   1.056   0.734
 7905SOL    HW224615   5.810   0.947   0.724
 7906SOL     OW24616   1.683   5.114   1.686
 7906SOL    HW124617   1.755   5.182   1.693
 7906SOL    HW224618   1.653   5.106   1.591
 7907SOL     OW24619   5.947   0.752   2.713
 7907SOL    HW124620   5.850   0.756   2.738
 7907SOL    HW224621   5.992   0.680   2.766
 7908SOL     OW24622   0.321   1.453   6.777
 7908SOL    HW124623   0.240   1.512   6.779
 7908SOL    HW224624   0.293   1.361   6.750
 7909SOL     OW24625   5.224   4.774   2.901
 7909SOL    HW124626   5.268   4.840   2.840
 7909SOL    HW224627   5.293   4.713   2.941
 7910SOL     OW24628   1.878   3.380   0.641
 7910SOL    HW124629   1.968   3.421   0.631
 7910SOL    HW224630   1.886   3.292   0.688
 7911SOL     OW24631   0.899   3.808   1.354
 7911SOL    HW124632   0.974   3.838   1.295
 7911SOL    HW224633   0.935   3.744   1.423
 7912SOL     OW24634   5.228   5.444   0.166
 7912SOL    HW124635   5.266   5.353   0.183
 7912SOL    HW224636   5.206   5.487   0.254
 7913SOL     OW24637   0.977   3.985   0.944
 7913SOL    HW124638   1.071   3.983   0.910
 7913SOL    HW224639   0.929   3.903   0.912
 7914SOL     OW24640   6.861   4.988   5.758
 7914SOL    HW124641   6.930   5.051   5.720
 7914SOL    HW224642   6.895   4.950   5.844
 7915SOL     OW24643   3.791   0.815   3.038
 7915SOL    HW124644   3.814   0.771   2.952
 7915SOL    HW224645   3.695   0.798   3.060
 7916SOL     OW24646   0.603   0.054   4.630
 7916SOL    HW124647   0.659   0.046   4.713
 7916SOL    HW224648   0.660   0.086   4.555
 7917SOL     OW24649   4.107   2.606   6.695
 7917SOL    HW124650   4.078   2.676   6.760
 7917SOL    HW224651   4.045   2.528   6.700
 7918SOL     OW24652   1.920   1.294   5.173
 7918SOL    HW124653   1.964   1.228   5.234
 7918SOL    HW224654   1.950   1.278   5.079
 7919SOL     OW24655   1.203   4.891   3.667
 7919SOL    HW124656   1.261   4.818   3.703
 7919SOL    HW224657   1.233   4.917   3.575
 7920SOL     OW24658   4.965   0.927   1.675
 7920SOL    HW124659   5.022   1.009   1.687
 7920SOL    HW224660   4.987   0.884   1.587
 7921SOL     OW24661   5.061   1.950   1.353
 7921SOL    HW124662   5.118   2.024   1.389
 7921SOL    HW224663   4.970   1.987   1.331
 7922SOL     OW24664   1.103   6.793   6.764
 7922SOL    HW124665   1.179   6.800   6.829
 7922SOL    HW224666   1.084   6.697   6.746
 7923SOL     OW24667   3.689   2.379   6.213
 7923SOL    HW124668   3.777   2.383   6.165
 7923SOL    HW224669   3.683   2.293   6.265
 7924SOL     OW24670   5.967   6.713   1.294
 7924SOL    HW124671   5.995   6.657   1.373
 7924SOL    HW224672   5.962   6.655   1.213
 7925SOL     OW24673   2.540   6.454   0.471
 7925SOL    HW124674   2.518   6.512   0.393
 7925SOL    HW224675   2.636   6.425   0.464
 7926SOL     OW24676   5.608   0.907   6.178
 7926SOL    HW124677   5.583   0.811   6.165
 7926SOL    HW224678   5.694   0.913   6.230
 7927SOL     OW24679   5.477   6.796   1.992
 7927SOL    HW124680   5.403   6.730   1.975
 7927SOL    HW224681   5.447   6.887   1.964
 7928SOL     OW24682   0.393   0.821   3.269
 7928SOL    HW124683   0.462   0.822   3.342
 7928SOL    HW224684   0.409   0.743   3.209
 7929SOL     OW24685   4.697   3.626   6.867
 7929SOL    HW124686   4.666   3.700   6.808
 7929SOL    HW224687   4.796   3.613   6.855
 7930SOL     OW24688   3.417   5.659   6.283
 7930SOL    HW124689   3.344   5.682   6.218
 7930SOL    HW224690   3.497   5.628   6.233
 7931SOL     OW24691   3.041   2.399   0.403
 7931SOL    HW124692   2.951   2.432   0.432
 7931SOL    HW224693   3.059   2.430   0.310
 7932SOL     OW24694   6.909   5.510   0.863
 7932SOL    HW124695   6.900   5.438   0.932
 7932SOL    HW224696   6.997   5.500   0.816
 7933SOL     OW24697   6.363   0.401   5.513
 7933SOL    HW124698   6.371   0.459   5.432
 7933SOL    HW224699   6.268   0.400   5.544
 7934SOL     OW24700   1.704   4.602   1.001
 7934SOL    HW124701   1.721   4.541   0.923
 7934SOL    HW224702   1.779   4.667   1.009
 7935SOL     OW24703   5.503   3.974   2.228
 7935SOL    HW124704   5.552   3.955   2.313
 7935SOL    HW224705   5.449   3.893   2.202
 7936SOL     OW24706   2.911   6.083   3.766
 7936SOL    HW124707   2.999   6.035   3.761
 7936SOL    HW224708   2.894   6.113   3.860
 7937SOL     OW24709   1.885   6.184   4.960
 7937SOL    HW124710   1.904   6.282   4.949
 7937SOL    HW224711   1.815   6.156   4.894
 7938SOL     OW24712   5.432   0.615   4.721
 7938SOL    HW124713   5.342   0.590   4.756
 7938SOL    HW224714   5.426   0.631   4.623
 7939SOL     OW24715   0.631   1.718   5.394
 7939SOL    HW124716   0.610   1.679   5.304
 7939SOL    HW224717   0.552   1.771   5.426
 7940SOL     OW24718   4.423   2.078   2.407
 7940SOL    HW124719   4.387   2.008   2.346
 7940SOL    HW224720   4.347   2.128   2.449
 7941SOL     OW24721   4.105   6.444   3.043
 7941SOL    HW124722   4.120   6.346   3.041
 7941SOL    HW224723   4.167   6.489   2.978
 7942SOL     OW24724   1.175   2.771   1.865
 7942SOL    HW124725   1.255   2.719   1.897
 7942SOL    HW224726   1.125   2.718   1.798
 7943SOL     OW24727   2.221   4.787   5.601
 7943SOL    HW124728   2.239   4.713   5.666
 7943SOL    HW224729   2.268   4.767   5.515
 7944SOL     OW24730   1.185   2.289   1.516
 7944SOL    HW124731   1.157   2.284   1.611
 7944SOL    HW224732   1.111   2.255   1.457
 7945SOL     OW24733   6.579   5.409   3.079
 7945SOL    HW124734   6.503   5.467   3.106
 7945SOL    HW224735   6.662   5.437   3.128
 7946SOL     OW24736   3.880   0.322   5.279
 7946SOL    HW124737   3.940   0.314   5.359
 7946SOL    HW224738   3.907   0.254   5.210
 7947SOL     OW24739   2.203   2.532   5.173
 7947SOL    HW124740   2.163   2.576   5.253
 7947SOL    HW224741   2.277   2.472   5.201
 7948SOL     OW24742   1.402   4.725   2.383
 7948SOL    HW124743   1.401   4.635   2.425
 7948SOL    HW224744   1.496   4.751   2.360
 7949SOL     OW24745   4.880   4.638   5.787
 7949SOL    HW124746   4.826   4.702   5.733
 7949SOL    HW224747   4.860   4.650   5.884
 7950SOL     OW24748   5.627   5.831   5.372
 7950SOL    HW124749   5.663   5.818   5.464
 7950SOL    HW224750   5.684   5.783   5.306
 7951SOL     OW24751   2.856   5.405   2.506
 7951SOL    HW124752   2.797   5.397   2.425
 7951SOL    HW224753   2.803   5.388   2.588
 7952SOL     OW24754   6.066   3.758   6.954
 7952SOL    HW124755   6.086   3.660   6.957
 7952SOL    HW224756   6.101   3.797   6.868
 7953SOL     OW24757   4.114   1.469   1.022
 7953SOL    HW124758   4.168   1.518   0.953
 7953SOL    HW224759   4.088   1.533   1.094
 7954SOL     OW24760   3.902   4.082   6.601
 7954SOL    HW124761   3.843   4.035   6.535
 7954SOL    HW224762   3.892   4.181   6.589
 7955SOL     OW24763   2.270   1.716   5.979
 7955SOL    HW124764   2.257   1.807   5.938
 7955SOL    HW224765   2.239   1.718   6.074
 7956SOL     OW24766   5.912   1.350   1.776
 7956SOL    HW124767   5.903   1.314   1.868
 7956SOL    HW224768   5.822   1.353   1.733
 7957SOL     OW24769   4.273   0.602   5.606
 7957SOL    HW124770   4.206   0.529   5.601
 7957SOL    HW224771   4.226   0.691   5.606
 7958SOL     OW24772   5.843   3.799   6.583
 7958SOL    HW124773   5.797   3.719   6.621
 7958SOL    HW224774   5.803   3.820   6.494
 7959SOL     OW24775   4.957   0.669   6.257
 7959SOL    HW124776   5.014   0.750   6.241
 7959SOL    HW224777   4.993   0.618   6.334
 7960SOL     OW24778   0.302   0.876   6.308
 7960SOL    HW124779   0.315   0.877   6.407
 7960SOL    HW224780   0.216   0.921   6.285
 7961SOL     OW24781   6.700   6.692   0.416
 7961SOL    HW124782   6.689   6.596   0.390
 7961SOL    HW224783   6.614   6.740   0.399
 7962SOL     OW24784   0.029   0.625   6.244
 7962SOL    HW124785   0.087   0.615   6.324
 7962SOL    HW224786   0.071   0.579   6.166
 7963SOL     OW24787   6.362   4.312   4.345
 7963SOL    HW124788   6.398   4.262   4.266
 7963SOL    HW224789   6.297   4.253   4.395
 7964SOL     OW24790   6.722   3.037   1.482
 7964SOL    HW124791   6.821   3.021   1.488
 7964SOL    HW224792   6.692   3.085   1.565
 7965SOL     OW24793   4.755   2.633   7.023
 7965SOL    HW124794   4.767   2.540   0.033
 7965SOL    HW224795   4.698   2.685   0.062
 7966SOL     OW24796   3.927   3.991   5.712
 7966SOL    HW124797   4.019   4.008   5.678
 7966SOL    HW224798   3.890   4.075   5.751
 7967SOL     OW24799   1.351   5.174   2.308
 7967SOL    HW124800   1.315   5.259   2.346
 7967SOL    HW224801   1.448   5.165   2.333
 7968SOL     OW24802   6.693   1.705   4.634
 7968SOL    HW124803   6.759   1.768   4.676
 7968SOL    HW224804   6.621   1.684   4.699
 7969SOL     OW24805   4.845   5.953   0.387
 7969SOL    HW124806   4.939   5.971   0.358
 7969SOL    HW224807   4.846   5.899   0.471
 7970SOL     OW24808   6.001   2.855   2.485
 7970SOL    HW124809   5.983   2.844   2.387
 7970SOL    HW224810   6.077   2.918   2.498
 7971SOL     OW24811   3.424   1.729   1.462
 7971SOL    HW124812   3.348   1.781   1.424
 7971SOL    HW224813   3.410   1.631   1.444
 7972SOL     OW24814   4.111   3.461   1.891
 7972SOL    HW124815   4.014   3.480   1.904
 7972SOL    HW224816   4.137   3.383   1.947
 7973SOL     OW24817   5.847   3.944   3.795
 7973SOL    HW124818   5.902   3.913   3.717
 7973SOL    HW224819   5.861   4.043   3.808
 7974SOL     OW24820   6.496   1.665   4.842
 7974SOL    HW124821   6.404   1.695   4.869
 7974SOL    HW224822   6.492   1.571   4.809
 7975SOL     OW24823   4.071   1.255   0.301
 7975SOL    HW124824   4.010   1.176   0.312
 7975SOL    HW224825   4.150   1.229   0.247
 7976SOL     OW24826   0.842   0.223   6.058
 7976SOL    HW124827   0.811   0.248   6.150
 7976SOL    HW224828   0.836   0.124   6.047
 7977SOL     OW24829   5.706   6.205   2.601
 7977SOL    HW124830   5.751   6.153   2.528
 7977SOL    HW224831   5.618   6.239   2.568
 7978SOL     OW24832   0.455   3.862   0.823
 7978SOL    HW124833   0.497   3.928   0.761
 7978SOL    HW224834   0.499   3.867   0.912
 7979SOL     OW24835   1.791   3.700   5.110
 7979SOL    HW124836   1.766   3.626   5.047
 7979SOL    HW224837   1.844   3.663   5.186
 7980SOL     OW24838   3.646   4.711   5.828
 7980SOL    HW124839   3.586   4.685   5.753
 7980SOL    HW224840   3.593   4.760   5.897
 7981SOL     OW24841   1.644   5.244   3.260
 7981SOL    HW124842   1.620   5.177   3.330
 7981SOL    HW224843   1.709   5.309   3.297
 7982SOL     OW24844   0.895   1.371   6.171
 7982SOL    HW124845   0.840   1.335   6.096
 7982SOL    HW224846   0.991   1.376   6.143
 7983SOL     OW24847   5.770   1.489   1.175
 7983SOL    HW124848   5.804   1.555   1.242
 7983SOL    HW224849   5.811   1.400   1.192
 7984SOL     OW24850   0.800   1.585   1.617
 7984SOL    HW124851   0.715   1.623   1.582
 7984SOL    HW224852   0.878   1.626   1.569
 7985SOL     OW24853   2.354   2.119   5.273
 7985SOL    HW124854   2.416   2.064   5.218
 7985SOL    HW224855   2.302   2.181   5.213
 7986SOL     OW24856   3.765   1.839   5.019
 7986SOL    HW124857   3.684   1.849   5.078
 7986SOL    HW224858   3.736   1.834   4.924
 7987SOL     OW24859   1.479   4.112   0.901
 7987SOL    HW124860   1.385   4.079   0.888
 7987SOL    HW224861   1.542   4.035   0.896
 7988SOL     OW24862   0.143   0.846   1.677
 7988SOL    HW124863   0.097   0.882   1.596
 7988SOL    HW224864   0.240   0.868   1.672
 7989SOL     OW24865   1.576   3.736   0.071
 7989SOL    HW124866   1.518   3.813   0.098
 7989SOL    HW224867   1.539   3.693   7.013
 7990SOL     OW24868   2.587   6.263   4.713
 7990SOL    HW124869   2.598   6.178   4.661
 7990SOL    HW224870   2.536   6.329   4.657
 7991SOL     OW24871   5.506   1.640   4.680
 7991SOL    HW124872   5.428   1.700   4.693
 7991SOL    HW224873   5.576   1.659   4.749
 7992SOL     OW24874   2.563   0.513   0.555
 7992SOL    HW124875   2.614   0.462   0.485
 7992SOL    HW224876   2.574   0.468   0.643
 7993SOL     OW24877   0.071   0.362   2.194
 7993SOL    HW124878   0.030   0.310   2.119
 7993SOL    HW224879   0.167   0.337   2.203
 7994SOL     OW24880   5.041   0.719   3.273
 7994SOL    HW124881   5.055   0.794   3.337
 7994SOL    HW224882   4.984   0.750   3.197
 7995SOL     OW24883   6.185   4.637   2.780
 7995SOL    HW124884   6.127   4.715   2.758
 7995SOL    HW224885   6.135   4.552   2.764
 7996SOL     OW24886   4.047   0.489   3.956
 7996SOL    HW124887   3.954   0.515   3.982
 7996SOL    HW224888   4.049   0.392   3.933
 7997SOL     OW24889   0.293   2.007   0.113
 7997SOL    HW124890   0.224   2.044   0.052
 7997SOL    HW224891   0.250   1.949   0.182
 7998SOL     OW24892   3.036   0.376   6.808
 7998SOL    HW124893   3.085   0.289   6.820
 7998SOL    HW224894   2.939   0.358   6.793
 7999SOL     OW24895   1.043   1.886   6.190
 7999SOL    HW124896   1.082   1.879   6.281
 7999SOL    HW224897   0.966   1.822   6.181
 8000SOL     OW24898   6.269   6.819   6.595
 8000SOL    HW124899   6.226   6.806   6.506
 8000SOL    HW224900   6.337   6.892   6.589
 8001SOL     OW24901   4.732   6.976   1.004
 8001SOL    HW124902   4.765   0.029   1.059
 8001SOL    HW224903   4.736   6.999   0.907
 8002SOL     OW24904   0.682   0.981   5.445
 8002SOL    HW124905   0.602   1.036   5.470
 8002SOL    HW224906   0.659   0.884   5.450
 8003SOL     OW24907   2.107   6.824   2.156
 8003SOL    HW124908   2.109   6.897   2.224
 8003SOL    HW224909   2.013   6.792   2.145
 8004SOL     OW24910   2.132   3.074   3.465
 8004SOL    HW124911   2.101   3.031   3.381
 8004SOL    HW224912   2.170   3.005   3.526
 8005SOL     OW24913   2.748   0.069   4.054
 8005SOL    HW124914   2.848   0.076   4.050
 8005SOL    HW224915   2.713   0.132   4.124
 8006SOL     OW24916   3.453   5.400   5.060
 8006SOL    HW124917   3.410   5.487   5.085
 8006SOL    HW224918   3.382   5.331   5.047
 8007SOL     OW24919   5.618   1.712   6.324
 8007SOL    HW124920   5.599   1.782   6.392
 8007SOL    HW224921   5.631   1.755   6.234
 8008SOL     OW24922   3.517   6.499   0.168
 8008SOL    HW124923   3.542   6.525   0.262
 8008SOL    HW224924   3.576   6.547   0.104
 8009SOL     OW24925   5.012   1.394   0.851
 8009SOL    HW124926   5.014   1.384   0.951
 8009SOL    HW224927   5.063   1.475   0.825
 8010SOL     OW24928   3.040   2.714   5.526
 8010SOL    HW124929   3.021   2.722   5.624
 8010SOL    HW224930   3.080   2.800   5.493
 8011SOL     OW24931   3.755   2.025   1.801
 8011SOL    HW124932   3.708   2.084   1.866
 8011SOL    HW224933   3.712   2.032   1.711
 8012SOL     OW24934   0.483   2.714   5.811
 8012SOL    HW124935   0.502   2.659   5.729
 8012SOL    HW224936   0.540   2.796   5.810
 8013SOL     OW24937   1.063   2.426   3.406
 8013SOL    HW124938   1.123   2.351   3.433
 8013SOL    HW224939   0.995   2.393   3.341
 8014SOL     OW24940   1.759   7.020   3.769
 8014SOL    HW124941   1.747   6.942   3.707
 8014SOL    HW224942   1.679   0.055   3.764
 8015SOL     OW24943   1.649   0.260   5.777
 8015SOL    HW124944   1.704   0.213   5.846
 8015SOL    HW224945   1.586   0.323   5.823
 8016SOL     OW24946   3.622   1.793   4.701
 8016SOL    HW124947   3.662   1.713   4.745
 8016SOL    HW224948   3.667   1.809   4.613
 8017SOL     OW24949   6.834   6.803   0.140
 8017SOL    HW124950   6.830   6.729   0.207
 8017SOL    HW224951   6.741   6.828   0.114
 8018SOL     OW24952   3.773   2.331   6.846
 8018SOL    HW124953   3.845   2.353   6.911
 8018SOL    HW224954   3.699   2.282   6.893
 8019SOL     OW24955   2.357   3.833   0.742
 8019SOL    HW124956   2.361   3.747   0.794
 8019SOL    HW224957   2.332   3.908   0.803
 8020SOL     OW24958   6.166   6.683   5.859
 8020SOL    HW124959   6.134   6.592   5.886
 8020SOL    HW224960   6.088   6.746   5.858
 8021SOL     OW24961   2.318   2.384   1.913
 8021SOL    HW124962   2.347   2.357   1.821
 8021SOL    HW224963   2.302   2.482   1.916
 8022SOL     OW24964   6.014   0.409   1.300
 8022SOL    HW124965   6.001   0.312   1.319
 8022SOL    HW224966   6.111   0.432   1.303
 8023SOL     OW24967   5.880   5.542   2.862
 8023SOL    HW124968   5.965   5.490   2.855
 8023SOL    HW224969   5.812   5.487   2.911
 8024SOL     OW24970   1.649   5.969   6.328
 8024SOL    HW124971   1.690   5.932   6.245
 8024SOL    HW224972   1.641   5.897   6.397
 8025SOL     OW24973   1.885   4.802   1.592
 8025SOL    HW124974   1.801   4.747   1.595
 8025SOL    HW224975   1.886   4.858   1.510
 8026SOL     OW24976   7.003   4.536   0.968
 8026SOL    HW124977   7.014   4.512   0.871
 8026SOL    HW224978   0.036   4.614   0.990
 8027SOL     OW24979   3.814   6.741   5.255
 8027SOL    HW124980   3.715   6.728   5.249
 8027SOL    HW224981   3.853   6.673   5.317
 8028SOL     OW24982   2.409   6.119   4.379
 8028SOL    HW124983   2.477   6.163   4.438
 8028SOL    HW224984   2.454   6.050   4.322
 8029SOL     OW24985   4.819   1.997   1.783
 8029SOL    HW124986   4.842   1.907   1.747
 8029SOL    HW224987   4.849   2.067   1.718
 8030SOL     OW24988   6.262   4.979   0.943
 8030SOL    HW124989   6.251   4.923   0.861
 8030SOL    HW224990   6.226   5.071   0.926
 8031SOL     OW24991   5.512   0.063   3.636
 8031SOL    HW124992   5.586   0.093   3.696
 8031SOL    HW224993   5.478   6.998   3.666
 8032SOL     OW24994   4.832   3.732   1.556
 8032SOL    HW124995   4.884   3.791   1.494
 8032SOL    HW224996   4.878   3.727   1.644
 8033SOL     OW24997   4.191   3.678   0.335
 8033SOL    HW124998   4.230   3.671   0.427
 8033SOL    HW224999   4.107   3.624   0.331
 8034SOL     OW25000   5.647   0.837   5.218
 8034SOL    HW125001   5.578   0.871   5.282
 8034SOL    HW225002   5.601   0.800   5.137
 8035SOL     OW25003   4.300   0.855   2.622
 8035SOL    HW125004   4.281   0.910   2.703
 8035SOL    HW225005   4.265   0.902   2.541
 8036SOL     OW25006   6.710   2.975   3.790
 8036SOL    HW125007   6.628   2.948   3.740
 8036SOL    HW225008   6.791   2.952   3.736
 8037SOL     OW25009   1.346   2.812   7.024
 8037SOL    HW125010   1.275   2.750   0.034
 8037SOL    HW225011   1.411   2.832   0.073
 8038SOL     OW25012   5.912   6.227   2.260
 8038SOL    HW125013   5.889   6.255   2.167
 8038SOL    HW225014   5.989   6.282   2.293
 8039SOL     OW25015   0.356   2.749   5.036
 8039SOL    HW125016   0.268   2.702   5.039
 8039SOL    HW225017   0.426   2.690   5.076
 8040SOL     OW25018   1.998   6.207   6.056
 8040SOL    HW125019   2.090   6.197   6.018
 8040SOL    HW225020   1.973   6.123   6.104
 8041SOL     OW25021   3.301   1.428   2.967
 8041SOL    HW125022   3.293   1.365   2.890
 8041SOL    HW225023   3.249   1.393   3.045
 8042SOL     OW25024   4.307   4.433   5.720
 8042SOL    HW125025   4.297   4.410   5.816
 8042SOL    HW225026   4.229   4.397   5.669
 8043SOL     OW25027   4.378   5.303   1.245
 8043SOL    HW125028   4.367   5.311   1.146
 8043SOL    HW225029   4.393   5.393   1.285
 8044SOL     OW25030   4.118   3.770   1.195
 8044SOL    HW125031   4.135   3.843   1.129
 8044SOL    HW225032   4.048   3.708   1.160
 8045SOL     OW25033   0.128   1.370   2.939
 8045SOL    HW125034   0.162   1.318   2.861
 8045SOL    HW225035   0.109   1.309   3.015
 8046SOL     OW25036   0.400   4.872   1.720
 8046SOL    HW125037   0.346   4.956   1.728
 8046SOL    HW225038   0.421   4.836   1.811
 8047SOL     OW25039   3.778   6.801   6.310
 8047SOL    HW125040   3.698   6.861   6.308
 8047SOL    HW225041   3.786   6.754   6.222
 8048SOL     OW25042   3.900   2.670   0.508
 8048SOL    HW125043   3.870   2.645   0.600
 8048SOL    HW225044   3.984   2.621   0.486
 8049SOL     OW25045   1.092   6.415   0.183
 8049SOL    HW125046   1.120   6.382   0.273
 8049SOL    HW225047   1.073   6.513   0.189
 8050SOL     OW25048   1.865   4.108   4.436
 8050SOL    HW125049   1.918   4.025   4.453
 8050SOL    HW225050   1.922   4.176   4.390
 8051SOL     OW25051   5.031   5.711   4.533
 8051SOL    HW125052   5.036   5.619   4.495
 8051SOL    HW225053   5.024   5.706   4.633
 8052SOL     OW25054   2.611   1.439   1.925
 8052SOL    HW125055   2.662   1.475   1.847
 8052SOL    HW225056   2.570   1.351   1.901
 8053SOL     OW25057   2.874   3.153   5.507
 8053SOL    HW125058   2.819   3.171   5.588
 8053SOL    HW225059   2.820   3.100   5.441
 8054SOL     OW25060   5.946   4.451   5.433
 8054SOL    HW125061   5.959   4.485   5.339
 8054SOL    HW225062   5.974   4.521   5.498
 8055SOL     OW25063   0.269   0.437   5.450
 8055SOL    HW125064   0.178   0.435   5.492
 8055SOL    HW225065   0.296   0.344   5.425
 8056SOL     OW25066   2.583   6.568   3.485
 8056SOL    HW125067   2.617   6.478   3.509
 8056SOL    HW225068   2.550   6.568   3.390
 8057SOL     OW25069   2.569   1.860   2.062
 8057SOL    HW125070   2.646   1.797   2.054
 8057SOL    HW225071   2.539   1.889   1.971
 8058SOL     OW25072   2.873   6.677   3.105
 8058SOL    HW125073   2.855   6.652   3.010
 8058SOL    HW225074   2.924   6.763   3.108
 8059SOL     OW25075   3.334   1.412   5.449
 8059SOL    HW125076   3.270   1.414   5.526
 8059SOL    HW225077   3.285   1.432   5.364
 8060SOL     OW25078   6.780   0.658   5.970
 8060SOL    HW125079   6.760   0.560   5.972
 8060SOL    HW225080   6.852   0.676   5.904
 8061SOL     OW25081   0.353   0.739   2.541
 8061SOL    HW125082   0.371   0.698   2.631
 8061SOL    HW225083   0.255   0.741   2.525
 8062SOL     OW25084   3.897   5.204   4.708
 8062SOL    HW125085   3.958   5.126   4.694
 8062SOL    HW225086   3.824   5.202   4.640
 8063SOL     OW25087   3.448   0.554   2.788
 8063SOL    HW125088   3.477   0.541   2.883
 8063SOL    HW225089   3.365   0.501   2.771
 8064SOL     OW25090   6.517   2.949   0.633
 8064SOL    HW125091   6.553   3.035   0.669
 8064SOL    HW225092   6.549   2.873   0.690
 8065SOL     OW25093   3.621   0.144   4.387
 8065SOL    HW125094   3.551   0.193   4.439
 8065SOL    HW225095   3.648   0.062   4.437
 8066SOL     OW25096   6.617   1.059   4.556
 8066SOL    HW125097   6.582   1.001   4.482
 8066SOL    HW225098   6.707   1.095   4.531
 8067SOL     OW25099   5.196   2.945   3.612
 8067SOL    HW125100   5.151   2.885   3.679
 8067SOL    HW225101   5.224   3.030   3.658
 8068SOL     OW25102   0.674   5.027   0.959
 8068SOL    HW125103   0.611   4.949   0.961
 8068SOL    HW225104   0.712   5.036   0.867
 8069SOL     OW25105   2.945   5.183   2.070
 8069SOL    HW125106   2.891   5.213   1.992
 8069SOL    HW225107   2.886   5.136   2.136
 8070SOL     OW25108   3.933   4.067   0.749
 8070SOL    HW125109   3.882   4.031   0.671
 8070SOL    HW225110   4.015   4.012   0.765
 8071SOL     OW25111   4.012   6.845   5.109
 8071SOL    HW125112   3.941   6.801   5.164
 8071SOL    HW225113   4.053   6.920   5.161
 8072SOL     OW25114   3.314   2.772   0.344
 8072SOL    HW125115   3.224   2.763   0.302
 8072SOL    HW225116   3.378   2.813   0.279
 8073SOL     OW25117   3.328   6.781   5.584
 8073SOL    HW125118   3.375   6.840   5.517
 8073SOL    HW225119   3.311   6.692   5.544
 8074SOL     OW25120   1.809   1.045   1.051
 8074SOL    HW125121   1.808   0.960   1.105
 8074SOL    HW225122   1.761   1.117   1.101
 8075SOL     OW25123   0.319   6.751   0.431
 8075SOL    HW125124   0.329   6.819   0.357
 8075SOL    HW225125   0.364   6.666   0.404
 8076SOL     OW25126   0.172   0.285   6.605
 8076SOL    HW125127   0.077   0.283   6.636
 8076SOL    HW225128   0.225   0.217   6.655
 8077SOL     OW25129   4.071   6.034   1.824
 8077SOL    HW125130   4.017   6.009   1.743
 8077SOL    HW225131   4.138   5.962   1.843
 8078SOL     OW25132   0.861   1.783   1.111
 8078SOL    HW125133   0.857   1.814   1.016
 8078SOL    HW225134   0.849   1.861   1.172
 8079SOL     OW25135   0.054   1.622   4.458
 8079SOL    HW125136   6.979   1.613   4.459
 8079SOL    HW225137   0.083   1.676   4.537
 8080SOL     OW25138   1.402   2.637   1.974
 8080SOL    HW125139   1.372   2.564   2.035
 8080SOL    HW225140   1.501   2.650   1.983
 8081SOL     OW25141   6.140   4.531   5.709
 8081SOL    HW125142   6.173   4.586   5.785
 8081SOL    HW225143   6.200   4.543   5.630
 8082SOL     OW25144   3.308   0.375   1.961
 8082SOL    HW125145   3.348   0.287   1.936
 8082SOL    HW225146   3.290   0.377   2.059
 8083SOL     OW25147   5.308   2.948   3.964
 8083SOL    HW125148   5.336   3.022   3.903
 8083SOL    HW225149   5.379   2.878   3.968
 8084SOL     OW25150   2.830   0.609   5.331
 8084SOL    HW125151   2.761   0.588   5.400
 8084SOL    HW225152   2.901   0.538   5.333
 8085SOL     OW25153   6.751   6.581   2.837
 8085SOL    HW125154   6.655   6.557   2.824
 8085SOL    HW225155   6.809   6.507   2.803
 8086SOL     OW25156   0.008   0.857   1.421
 8086SOL    HW125157   6.995   0.775   1.377
 8086SOL    HW225158   6.993   0.938   1.379
 8087SOL     OW25159   1.547   0.891   6.255
 8087SOL    HW125160   1.604   0.972   6.240
 8087SOL    HW225161   1.457   0.919   6.288
 8088SOL     OW25162   5.954   6.963   6.702
 8088SOL    HW125163   5.907   6.878   6.676
 8088SOL    HW225164   6.014   6.945   6.780
 8089SOL     OW25165   5.763   2.780   6.351
 8089SOL    HW125166   5.781   2.854   6.286
 8089SOL    HW225167   5.817   2.796   6.435
 8090SOL     OW25168   3.670   1.242   6.377
 8090SOL    HW125169   3.574   1.259   6.399
 8090SOL    HW225170   3.695   1.150   6.406
 8091SOL     OW25171   1.220   3.943   4.037
 8091SOL    HW125172   1.290   3.872   4.024
 8091SOL    HW225173   1.151   3.910   4.102
 8092SOL     OW25174   4.756   2.057   5.374
 8092SOL    HW125175   4.711   1.968   5.388
 8092SOL    HW225176   4.801   2.058   5.285
 8093SOL     OW25177   3.369   5.735   2.982
 8093SOL    HW125178   3.402   5.805   2.918
 8093SOL    HW225179   3.444   5.708   3.043
 8094SOL     OW25180   0.467   3.818   5.714
 8094SOL    HW125181   0.548   3.760   5.709
 8094SOL    HW225182   0.388   3.762   5.741
 8095SOL     OW25183   0.991   5.150   4.806
 8095SOL    HW125184   0.973   5.146   4.707
 8095SOL    HW225185   1.018   5.243   4.831
 8096SOL     OW25186   1.315   0.619   2.528
 8096SOL    HW125187   1.371   0.695   2.495
 8096SOL    HW225188   1.374   0.550   2.571
 8097SOL     OW25189   4.193   0.237   4.671
 8097SOL    HW125190   4.182   0.265   4.576
 8097SOL    HW225191   4.236   0.311   4.723
 8098SOL     OW25192   1.765   6.852   3.545
 8098SOL    HW125193   1.814   6.768   3.524
 8098SOL    HW225194   1.710   6.879   3.466
 8099SOL     OW25195   4.228   6.142   4.266
 8099SOL    HW125196   4.239   6.097   4.178
 8099SOL    HW225197   4.232   6.241   4.253
 8100SOL     OW25198   6.537   1.365   6.901
 8100SOL    HW125199   6.447   1.327   6.880
 8100SOL    HW225200   6.567   1.333   6.991
 8101SOL     OW25201   1.794   5.095   0.962
 8101SOL    HW125202   1.863   5.152   0.918
 8101SOL    HW225203   1.730   5.061   0.893
 8102SOL     OW25204   0.799   3.524   4.053
 8102SOL    HW125205   0.871   3.570   4.002
 8102SOL    HW225206   0.729   3.490   3.989
 8103SOL     OW25207   3.838   0.397   2.119
 8103SOL    HW125208   3.810   0.324   2.057
 8103SOL    HW225209   3.767   0.411   2.188
 8104SOL     OW25210   1.965   0.046   5.330
 8104SOL    HW125211   2.049   0.099   5.332
 8104SOL    HW225212   1.886   0.108   5.326
 8105SOL     OW25213   0.133   2.374   2.779
 8105SOL    HW125214   0.041   2.414   2.778
 8105SOL    HW225215   0.166   2.368   2.873
 8106SOL     OW25216   2.304   6.439   3.293
 8106SOL    HW125217   2.356   6.367   3.247
 8106SOL    HW225218   2.358   6.523   3.293
 8107SOL     OW25219   1.021   5.947   4.384
 8107SOL    HW125220   1.099   5.937   4.445
 8107SOL    HW225221   1.054   5.958   4.290
 8108SOL     OW25222   6.609   1.623   7.006
 8108SOL    HW125223   6.606   1.703   6.946
 8108SOL    HW225224   6.591   1.541   6.952
 8109SOL     OW25225   0.190   4.265   6.477
 8109SOL    HW125226   0.156   4.171   6.487
 8109SOL    HW225227   0.260   4.282   6.547
 8110SOL     OW25228   4.135   4.549   1.739
 8110SOL    HW125229   4.230   4.561   1.768
 8110SOL    HW225230   4.133   4.518   1.644
 8111SOL     OW25231   4.923   1.155   4.256
 8111SOL    HW125232   4.912   1.100   4.173
 8111SOL    HW225233   4.999   1.218   4.245
 8112SOL     OW25234   1.393   3.186   4.272
 8112SOL    HW125235   1.380   3.235   4.359
 8112SOL    HW225236   1.488   3.196   4.243
 8113SOL     OW25237   6.316   3.575   0.624
 8113SOL    HW125238   6.287   3.626   0.706
 8113SOL    HW225239   6.242   3.576   0.557
 8114SOL     OW25240   1.314   3.492   1.807
 8114SOL    HW125241   1.245   3.512   1.876
 8114SOL    HW225242   1.284   3.415   1.751
 8115SOL     OW25243   3.008   6.329   5.777
 8115SOL    HW125244   2.979   6.330   5.682
 8115SOL    HW225245   3.105   6.305   5.782
 8116SOL     OW25246   4.496   4.934   0.280
 8116SOL    HW125247   4.593   4.954   0.290
 8116SOL    HW225248   4.454   4.923   0.370
 8117SOL     OW25249   2.482   6.945   3.318
 8117SOL    HW125250   2.475   6.960   3.417
 8117SOL    HW225251   2.405   6.990   3.272
 8118SOL     OW25252   6.117   4.149   6.560
 8118SOL    HW125253   6.102   4.115   6.467
 8118SOL    HW225254   6.093   4.246   6.564
 8119SOL     OW25255   4.693   6.255   6.018
 8119SOL    HW125256   4.602   6.267   5.978
 8119SOL    HW225257   4.761   6.302   5.961
 8120SOL     OW25258   2.913   4.451   0.686
 8120SOL    HW125259   2.823   4.447   0.644
 8120SOL    HW225260   2.946   4.546   0.686
 8121SOL     OW25261   0.727   4.958   2.056
 8121SOL    HW125262   0.788   5.038   2.056
 8121SOL    HW225263   0.772   4.882   2.008
 8122SOL     OW25264   0.708   4.328   3.107
 8122SOL    HW125265   0.643   4.296   3.038
 8122SOL    HW225266   0.705   4.267   3.186
 8123SOL     OW25267   6.898   1.229   0.078
 8123SOL    HW125268   6.872   1.324   0.059
 8123SOL    HW225269   6.828   1.187   0.136
 8124SOL     OW25270   5.396   6.266   3.619
 8124SOL    HW125271   5.374   6.192   3.556
 8124SOL    HW225272   5.467   6.235   3.683
 8125SOL     OW25273   1.245   1.109   2.673
 8125SOL    HW125274   1.241   1.203   2.704
 8125SOL    HW225275   1.170   1.057   2.713
 8126SOL     OW25276   4.984   4.874   3.519
 8126SOL    HW125277   4.966   4.820   3.437
 8126SOL    HW225278   5.083   4.887   3.529
 8127SOL     OW25279   2.914   3.049   6.438
 8127SOL    HW125280   2.820   3.066   6.409
 8127SOL    HW225281   2.935   2.952   6.428
 8128SOL     OW25282   3.125   2.140   2.223
 8128SOL    HW125283   3.056   2.197   2.179
 8128SOL    HW225284   3.192   2.109   2.155
 8129SOL     OW25285   2.863   1.968   6.816
 8129SOL    HW125286   2.782   1.922   6.780
 8129SOL    HW225287   2.865   2.063   6.784
 8130SOL     OW25288   1.357   6.365   6.765
 8130SOL    HW125289   1.353   6.279   6.816
 8130SOL    HW225290   1.402   6.351   6.678
 8131SOL     OW25291   2.630   1.933   1.461
 8131SOL    HW125292   2.674   1.919   1.373
 8131SOL    HW225293   2.630   2.030   1.484
 8132SOL     OW25294   5.681   6.393   4.611
 8132SOL    HW125295   5.663   6.314   4.553
 8132SOL    HW225296   5.749   6.369   4.680
 8133SOL     OW25297   3.474   5.629   2.081
 8133SOL    HW125298   3.429   5.714   2.105
 8133SOL    HW225299   3.482   5.571   2.162
 8134SOL     OW25300   6.895   1.292   6.294
 8134SOL    HW125301   6.988   1.328   6.290
 8134SOL    HW225302   6.842   1.344   6.361
 8135SOL     OW25303   1.770   0.828   1.367
 8135SOL    HW125304   1.717   0.912   1.355
 8135SOL    HW225305   1.853   0.848   1.418
 8136SOL     OW25306   5.638   5.340   2.364
 8136SOL    HW125307   5.592   5.420   2.403
 8136SOL    HW225308   5.707   5.370   2.298
 8137SOL     OW25309   2.948   1.031   5.710
 8137SOL    HW125310   2.898   1.054   5.794
 8137SOL    HW225311   2.890   0.977   5.650
 8138SOL     OW25312   5.527   1.036   1.448
 8138SOL    HW125313   5.538   0.982   1.365
 8138SOL    HW225314   5.429   1.048   1.467
 8139SOL     OW25315   0.421   1.096   2.188
 8139SOL    HW125316   0.395   1.182   2.233
 8139SOL    HW225317   0.508   1.064   2.226
 8140SOL     OW25318   4.815   1.113   4.818
 8140SOL    HW125319   4.739   1.172   4.843
 8140SOL    HW225320   4.861   1.150   4.737
 8141SOL     OW25321   4.722   5.655   5.824
 8141SOL    HW125322   4.776   5.736   5.847
 8141SOL    HW225323   4.703   5.655   5.726
 8142SOL     OW25324   6.417   5.146   6.960
 8142SOL    HW125325   6.428   5.108   0.027
 8142SOL    HW225326   6.437   5.244   6.962
 8143SOL     OW25327   6.284   4.799   7.010
 8143SOL    HW125328   6.378   4.811   6.977
 8143SOL    HW225329   6.224   4.866   6.965
 8144SOL     OW25330   5.629   6.969   6.929
 8144SOL    HW125331   5.723   6.999   6.944
 8144SOL    HW225332   5.629   6.871   6.906
 8145SOL     OW25333   5.920   5.481   2.469
 8145SOL    HW125334   6.017   5.505   2.470
 8145SOL    HW225335   5.899   5.434   2.384
 8146SOL     OW25336   3.506   1.645   5.087
 8146SOL    HW125337   3.579   1.580   5.107
 8146SOL    HW225338   3.521   1.729   5.140
 8147SOL     OW25339   5.800   2.242   3.004
 8147SOL    HW125340   5.862   2.231   3.081
 8147SOL    HW225341   5.707   2.215   3.031
 8148SOL     OW25342   5.792   4.090   2.400
 8148SOL    HW125343   5.721   4.134   2.454
 8148SOL    HW225344   5.770   3.994   2.386
 8149SOL     OW25345   3.109   5.753   2.634
 8149SOL    HW125346   3.072   5.692   2.704
 8149SOL    HW225347   3.094   5.713   2.543
 8150SOL     OW25348   6.803   4.913   0.401
 8150SOL    HW125349   6.837   4.847   0.469
 8150SOL    HW225350   6.797   5.004   0.443
 8151SOL     OW25351   0.254   2.330   3.044
 8151SOL    HW125352   0.294   2.257   3.100
 8151SOL    HW225353   0.312   2.412   3.050
 8152SOL     OW25354   1.022   1.455   2.965
 8152SOL    HW125355   0.970   1.411   2.891
 8152SOL    HW225356   0.960   1.477   3.040
 8153SOL     OW25357   3.273   0.091   3.026
 8153SOL    HW125358   3.344   0.023   3.045
 8153SOL    HW225359   3.245   0.134   3.112
 8154SOL     OW25360   2.181   6.006   4.438
 8154SOL    HW125361   2.199   5.910   4.455
 8154SOL    HW225362   2.266   6.054   4.418
 8155SOL     OW25363   2.847   3.391   1.917
 8155SOL    HW125364   2.773   3.359   1.859
 8155SOL    HW225365   2.882   3.477   1.882
 8156SOL     OW25366   6.233   0.299   5.927
 8156SOL    HW125367   6.179   0.218   5.949
 8156SOL    HW225368   6.219   0.324   5.831
 8157SOL     OW25369   5.643   6.097   5.807
 8157SOL    HW125370   5.676   6.091   5.901
 8157SOL    HW225371   5.598   6.012   5.781
 8158SOL     OW25372   1.241   5.717   0.485
 8158SOL    HW125373   1.300   5.681   0.557
 8158SOL    HW225374   1.257   5.816   0.476
 8159SOL     OW25375   2.308   5.578   1.927
 8159SOL    HW125376   2.299   5.676   1.948
 8159SOL    HW225377   2.396   5.545   1.963
 8160SOL     OW25378   4.631   1.435   1.177
 8160SOL    HW125379   4.714   1.382   1.191
 8160SOL    HW225380   4.557   1.375   1.149
 8161SOL     OW25381   5.125   0.950   1.215
 8161SOL    HW125382   5.032   0.935   1.180
 8161SOL    HW225383   5.188   0.959   1.138
 8162SOL     OW25384   6.030   6.590   6.759
 8162SOL    HW125385   6.116   6.632   6.789
 8162SOL    HW225386   5.955   6.627   6.813
 8163SOL     OW25387   2.663   4.580   5.780
 8163SOL    HW125388   2.566   4.601   5.770
 8163SOL    HW225389   2.707   4.650   5.837
 8164SOL     OW25390   5.956   3.514   1.061
 8164SOL    HW125391   5.967   3.494   1.158
 8164SOL    HW225392   5.913   3.604   1.051
 8165SOL     OW25393   2.128   4.435   0.968
 8165SOL    HW125394   2.125   4.430   1.068
 8165SOL    HW225395   2.213   4.480   0.940
 8166SOL     OW25396   2.140   1.158   1.750
 8166SOL    HW125397   2.117   1.189   1.842
 8166SOL    HW225398   2.107   1.225   1.683
 8167SOL     OW25399   5.459   2.189   3.912
 8167SOL    HW125400   5.502   2.263   3.860
 8167SOL    HW225401   5.513   2.168   3.993
 8168SOL     OW25402   3.608   1.936   2.425
 8168SOL    HW125403   3.689   1.882   2.449
 8168SOL    HW225404   3.525   1.886   2.451
 8169SOL     OW25405   4.356   3.212   0.836
 8169SOL    HW125406   4.387   3.161   0.756
 8169SOL    HW225407   4.378   3.160   0.919
 8170SOL     OW25408   1.357   5.975   3.543
 8170SOL    HW125409   1.391   6.050   3.486
 8170SOL    HW225410   1.368   5.889   3.493
 8171SOL     OW25411   0.411   2.175   6.761
 8171SOL    HW125412   0.486   2.236   6.736
 8171SOL    HW225413   0.387   2.189   6.857
 8172SOL     OW25414   6.802   0.765   0.860
 8172SOL    HW125415   6.894   0.730   0.842
 8172SOL    HW225416   6.798   0.862   0.834
 8173SOL     OW25417   3.555   2.723   0.006
 8173SOL    HW125418   3.487   2.718   6.958
 8173SOL    HW225419   3.539   2.805   0.061
 8174SOL     OW25420   5.383   1.933   0.951
 8174SOL    HW125421   5.304   1.886   0.989
 8174SOL    HW225422   5.374   2.032   0.967
 8175SOL     OW25423   6.574   2.761   6.858
 8175SOL    HW125424   6.509   2.809   6.917
 8175SOL    HW225425   6.618   2.689   6.911
 8176SOL     OW25426   3.388   5.861   2.257
 8176SOL    HW125427   3.302   5.896   2.220
 8176SOL    HW225428   3.377   5.842   2.355
 8177SOL     OW25429   1.827   6.213   3.637
 8177SOL    HW125430   1.753   6.147   3.640
 8177SOL    HW225431   1.860   6.222   3.543
 8178SOL     OW25432   1.799   7.020   6.200
 8178SOL    HW125433   1.870   0.060   6.227
 8178SOL    HW225434   1.713   0.021   6.245
 8179SOL     OW25435   3.170   3.252   6.941
 8179SOL    HW125436   3.088   3.213   6.898
 8179SOL    HW225437   3.241   3.183   6.946
 8180SOL     OW25438   6.780   0.105   4.007
 8180SOL    HW125439   6.737   0.191   3.978
 8180SOL    HW225440   6.709   0.038   4.027
 8181SOL     OW25441   2.631   2.111   3.091
 8181SOL    HW125442   2.579   2.062   3.021
 8181SOL    HW225443   2.611   2.209   3.085
 8182SOL     OW25444   3.290   1.995   5.578
 8182SOL    HW125445   3.281   1.952   5.488
 8182SOL    HW225446   3.377   1.966   5.619
 8183SOL     OW25447   0.811   3.077   5.354
 8183SOL    HW125448   0.830   3.023   5.272
 8183SOL    HW225449   0.749   3.027   5.414
 8184SOL     OW25450   6.403   0.736   5.572
 8184SOL    HW125451   6.423   0.675   5.650
 8184SOL    HW225452   6.385   0.680   5.491
 8185SOL     OW25453   3.020   0.534   0.556
 8185SOL    HW125454   2.970   0.612   0.592
 8185SOL    HW225455   2.962   0.484   0.491
 8186SOL     OW25456   3.311   5.979   5.444
 8186SOL    HW125457   3.328   5.929   5.529
 8186SOL    HW225458   3.263   5.920   5.380
 8187SOL     OW25459   1.482   1.591   5.400
 8187SOL    HW125460   1.404   1.570   5.459
 8187SOL    HW225461   1.486   1.689   5.382
 8188SOL     OW25462   5.194   1.814   2.526
 8188SOL    HW125463   5.220   1.877   2.453
 8188SOL    HW225464   5.251   1.732   2.522
 8189SOL     OW25465   5.222   4.399   2.481
 8189SOL    HW125466   5.305   4.343   2.478
 8189SOL    HW225467   5.149   4.354   2.430
 8190SOL     OW25468   5.452   4.041   4.020
 8190SOL    HW125469   5.420   3.947   4.008
 8190SOL    HW225470   5.409   4.081   4.101
 8191SOL     OW25471   0.950   5.587   3.850
 8191SOL    HW125472   0.922   5.674   3.809
 8191SOL    HW225473   0.957   5.518   3.778
 8192SOL     OW25474   2.729   5.599   1.262
 8192SOL    HW125475   2.764   5.578   1.353
 8192SOL    HW225476   2.800   5.585   1.194
 8193SOL     OW25477   6.095   6.091   4.895
 8193SOL    HW125478   6.021   6.118   4.958
 8193SOL    HW225479   6.067   6.011   4.843
 8194SOL     OW25480   6.225   2.034   0.136
 8194SOL    HW125481   6.137   1.989   0.119
 8194SOL    HW225482   6.259   2.075   0.051
 8195SOL     OW25483   0.051   0.709   0.807
 8195SOL    HW125484   0.061   0.630   0.747
 8195SOL    HW225485   0.139   0.729   0.850
 8196SOL     OW25486   3.622   6.325   5.918
 8196SOL    HW125487   3.697   6.259   5.922
 8196SOL    HW225488   3.535   6.276   5.912
 8197SOL     OW25489   6.520   0.901   6.424
 8197SOL    HW125490   6.550   0.920   6.517
 8197SOL    HW225491   6.590   0.930   6.359
 8198SOL     OW25492   2.574   6.763   2.637
 8198SOL    HW125493   2.575   6.678   2.689
 8198SOL    HW225494   2.480   6.790   2.618
 8199SOL     OW25495   0.384   3.727   0.493
 8199SOL    HW125496   0.358   3.769   0.580
 8199SOL    HW225497   0.336   3.773   0.419
 8200SOL     OW25498   4.536   4.439   1.569
 8200SOL    HW125499   4.483   4.464   1.649
 8200SOL    HW225500   4.611   4.379   1.596
 8201SOL     OW25501   5.164   1.086   4.833
 8201SOL    HW125502   5.183   1.061   4.738
 8201SOL    HW225503   5.100   1.163   4.836
 8202SOL     OW25504   1.670   5.076   3.756
 8202SOL    HW125505   1.594   5.111   3.812
 8202SOL    HW225506   1.756   5.112   3.791
 8203SOL     OW25507   4.757   3.391   1.188
 8203SOL    HW125508   4.740   3.458   1.259
 8203SOL    HW225509   4.853   3.364   1.190
 8204SOL     OW25510   3.848   6.632   2.006
 8204SOL    HW125511   3.881   6.565   2.072
 8204SOL    HW225512   3.814   6.585   1.924
 8205SOL     OW25513   5.511   5.331   1.831
 8205SOL    HW125514   5.461   5.358   1.914
 8205SOL    HW225515   5.482   5.239   1.804
 8206SOL     OW25516   3.935   2.402   6.101
 8206SOL    HW125517   3.943   2.498   6.073
 8206SOL    HW225518   4.009   2.379   6.165
 8207SOL     OW25519   3.033   4.699   5.742
 8207SOL    HW125520   3.030   4.658   5.833
 8207SOL    HW225521   2.970   4.650   5.681
 8208SOL     OW25522   2.161   5.797   1.729
 8208SOL    HW125523   2.235   5.752   1.679
 8208SOL    HW225524   2.096   5.728   1.762
 8209SOL     OW25525   1.951   0.966   5.444
 8209SOL    HW125526   1.887   0.915   5.387
 8209SOL    HW225527   1.917   1.060   5.456
 8210SOL     OW25528   1.828   0.957   0.639
 8210SOL    HW125529   1.875   1.039   0.608
 8210SOL    HW225530   1.806   0.899   0.560
 8211SOL     OW25531   3.289   3.495   4.142
 8211SOL    HW125532   3.253   3.496   4.048
 8211SOL    HW225533   3.340   3.580   4.159
 8212SOL     OW25534   2.152   6.891   0.682
 8212SOL    HW125535   2.088   6.969   0.677
 8212SOL    HW225536   2.219   6.898   0.608
 8213SOL     OW25537   4.183   4.711   2.219
 8213SOL    HW125538   4.267   4.708   2.165
 8213SOL    HW225539   4.202   4.678   2.311
 8214SOL     OW25540   2.780   5.650   3.983
 8214SOL    HW125541   2.822   5.697   3.905
 8214SOL    HW225542   2.680   5.652   3.973
 8215SOL     OW25543   3.911   6.360   7.013
 8215SOL    HW125544   3.821   6.367   6.970
 8215SOL    HW225545   3.902   6.371   0.087
 8216SOL     OW25546   4.623   6.338   2.794
 8216SOL    HW125547   4.644   6.294   2.707
 8216SOL    HW225548   4.669   6.427   2.798
 8217SOL     OW25549   2.288   4.371   3.073
 8217SOL    HW125550   2.273   4.422   2.988
 8217SOL    HW225551   2.275   4.273   3.055
 8218SOL     OW25552   1.791   0.250   4.474
 8218SOL    HW125553   1.828   0.333   4.431
 8218SOL    HW225554   1.691   0.249   4.462
 8219SOL     OW25555   3.588   3.811   1.942
 8219SOL    HW125556   3.536   3.831   2.025
 8219SOL    HW225557   3.541   3.851   1.863
 8220SOL     OW25558   3.309   3.953   4.774
 8220SOL    HW125559   3.316   4.042   4.819
 8220SOL    HW225560   3.227   3.906   4.806
 8221SOL     OW25561   6.004   3.656   3.372
 8221SOL    HW125562   6.065   3.609   3.308
 8221SOL    HW225563   5.922   3.687   3.325
 8222SOL     OW25564   6.271   2.969   1.454
 8222SOL    HW125565   6.366   3.001   1.454
 8222SOL    HW225566   6.267   2.879   1.410
 8223SOL     OW25567   6.855   5.685   5.495
 8223SOL    HW125568   6.867   5.588   5.512
 8223SOL    HW225569   6.784   5.698   5.425
 8224SOL     OW25570   4.299   2.008   0.629
 8224SOL    HW125571   4.259   2.096   0.603
 8224SOL    HW225572   4.291   1.995   0.727
 8225SOL     OW25573   4.311   0.873   6.772
 8225SOL    HW125574   4.406   0.903   6.778
 8225SOL    HW225575   4.257   0.916   6.845
 8226SOL     OW25576   3.444   0.861   6.545
 8226SOL    HW125577   3.469   0.827   6.454
 8226SOL    HW225578   3.507   0.825   6.613
 8227SOL     OW25579   5.798   1.571   2.727
 8227SOL    HW125580   5.874   1.526   2.680
 8227SOL    HW225581   5.797   1.668   2.704
 8228SOL     OW25582   0.914   1.138   5.651
 8228SOL    HW125583   0.834   1.080   5.635
 8228SOL    HW225584   0.919   1.208   5.580
 8229SOL     OW25585   3.891   4.688   1.388
 8229SOL    HW125586   3.801   4.683   1.345
 8229SOL    HW225587   3.946   4.609   1.360
 8230SOL     OW25588   4.174   0.397   5.930
 8230SOL    HW125589   4.172   0.375   5.833
 8230SOL    HW225590   4.093   0.449   5.955
 8231SOL     OW25591   3.311   0.815   1.747
 8231SOL    HW125592   3.320   0.872   1.828
 8231SOL    HW225593   3.214   0.791   1.734
 8232SOL     OW25594   4.282   0.807   2.199
 8232SOL    HW125595   4.224   0.854   2.265
 8232SOL    HW225596   4.357   0.761   2.246
 8233SOL     OW25597   0.723   0.843   5.195
 8233SOL    HW125598   0.718   0.894   5.280
 8233SOL    HW225599   0.818   0.837   5.165
 8234SOL     OW25600   2.585   3.516   0.124
 8234SOL    HW125601   2.486   3.514   0.112
 8234SOL    HW225602   2.612   3.606   0.160
 8235SOL     OW25603   6.907   5.134   0.069
 8235SOL    HW125604   6.976   5.202   0.045
 8235SOL    HW225605   6.837   5.132   7.022
 8236SOL     OW25606   0.678   6.392   6.024
 8236SOL    HW125607   0.647   6.486   6.041
 8236SOL    HW225608   0.772   6.394   5.990
 8237SOL     OW25609   4.766   5.500   6.053
 8237SOL    HW125610   4.811   5.411   6.048
 8237SOL    HW225611   4.775   5.546   5.964
 8238SOL     OW25612   2.823   4.755   0.667
 8238SOL    HW125613   2.858   4.744   0.760
 8238SOL    HW225614   2.855   4.843   0.630
 8239SOL     OW25615   0.654   1.504   5.581
 8239SOL    HW125616   0.711   1.523   5.661
 8239SOL    HW225617   0.653   1.584   5.521
 8240SOL     OW25618   3.902   3.277   4.424
 8240SOL    HW125619   3.925   3.181   4.408
 8240SOL    HW225620   3.902   3.327   4.337
 8241SOL     OW25621   0.972   3.878   6.614
 8241SOL    HW125622   1.065   3.882   6.650
 8241SOL    HW225623   0.920   3.807   6.662
 8242SOL     OW25624   1.275   3.505   4.710
 8242SOL    HW125625   1.199   3.562   4.679
 8242SOL    HW225626   1.249   3.408   4.705
 8243SOL     OW25627   0.766   4.391   5.317
 8243SOL    HW125628   0.714   4.347   5.389
 8243SOL    HW225629   0.724   4.478   5.293
 8244SOL     OW25630   1.018   0.280   3.824
 8244SOL    HW125631   1.004   0.200   3.766
 8244SOL    HW225632   1.116   0.295   3.836
 8245SOL     OW25633   5.238   1.424   4.132
 8245SOL    HW125634   5.265   1.387   4.221
 8245SOL    HW225635   5.313   1.477   4.093
 8246SOL     OW25636   1.025   4.230   6.570
 8246SOL    HW125637   0.959   4.189   6.508
 8246SOL    HW225638   1.082   4.296   6.521
 8247SOL     OW25639   3.190   5.212   3.587
 8247SOL    HW125640   3.137   5.127   3.586
 8247SOL    HW225641   3.181   5.256   3.676
 8248SOL     OW25642   0.416   5.775   2.921
 8248SOL    HW125643   0.489   5.736   2.865
 8248SOL    HW225644   0.351   5.822   2.861
 8249SOL     OW25645   1.881   1.852   6.070
 8249SOL    HW125646   1.898   1.867   5.973
 8249SOL    HW225647   1.832   1.930   6.109
 8250SOL     OW25648   1.851   1.653   6.642
 8250SOL    HW125649   1.921   1.584   6.664
 8250SOL    HW225650   1.796   1.671   6.724
 8251SOL     OW25651   0.062   3.013   5.020
 8251SOL    HW125652   0.060   3.112   5.037
 8251SOL    HW225653   0.071   2.997   4.922
 8252SOL     OW25654   2.178   2.420   6.421
 8252SOL    HW125655   2.187   2.358   6.343
 8252SOL    HW225656   2.095   2.399   6.472
 8253SOL     OW25657   3.519   5.925   0.052
 8253SOL    HW125658   3.568   5.959   6.996
 8253SOL    HW225659   3.508   5.826   0.045
 8254SOL     OW25660   5.529   5.289   0.749
 8254SOL    HW125661   5.491   5.338   0.670
 8254SOL    HW225662   5.629   5.292   0.744
 8255SOL     OW25663   0.430   6.953   5.821
 8255SOL    HW125664   0.407   6.998   5.735
 8255SOL    HW225665   0.385   6.864   5.825
 8256SOL     OW25666   1.524   6.076   2.810
 8256SOL    HW125667   1.608   6.030   2.779
 8256SOL    HW225668   1.455   6.007   2.833
 8257SOL     OW25669   5.044   4.222   4.203
 8257SOL    HW125670   5.081   4.205   4.111
 8257SOL    HW225671   4.981   4.300   4.200
 8258SOL     OW25672   6.138   3.324   1.944
 8258SOL    HW125673   6.228   3.294   1.973
 8258SOL    HW225674   6.145   3.414   1.900
 8259SOL     OW25675   4.434   2.437   4.479
 8259SOL    HW125676   4.494   2.496   4.426
 8259SOL    HW225677   4.459   2.442   4.576
 8260SOL     OW25678   2.845   0.113   0.499
 8260SOL    HW125679   2.873   0.170   0.577
 8260SOL    HW225680   2.866   0.017   0.518
 8261SOL     OW25681   4.989   0.044   3.534
 8261SOL    HW125682   5.078   0.005   3.511
 8261SOL    HW225683   4.957   0.004   3.620
 8262SOL     OW25684   0.280   3.855   1.426
 8262SOL    HW125685   0.357   3.902   1.382
 8262SOL    HW225686   0.287   3.866   1.525
 8263SOL     OW25687   6.463   2.312   0.130
 8263SOL    HW125688   6.498   2.232   0.179
 8263SOL    HW225689   6.462   2.294   0.032
 8264SOL     OW25690   1.775   6.741   2.622
 8264SOL    HW125691   1.693   6.791   2.649
 8264SOL    HW225692   1.762   6.703   2.531
 8265SOL     OW25693   5.227   0.949   0.394
 8265SOL    HW125694   5.135   0.986   0.408
 8265SOL    HW225695   5.221   0.854   0.363
 8266SOL     OW25696   2.425   6.691   3.678
 8266SOL    HW125697   2.497   6.706   3.610
 8266SOL    HW225698   2.466   6.674   3.767
 8267SOL     OW25699   0.680   3.855   3.030
 8267SOL    HW125700   0.617   3.893   3.097
 8267SOL    HW225701   0.710   3.926   2.967
 8268SOL     OW25702   3.206   3.876   6.676
 8268SOL    HW125703   3.253   3.957   6.711
 8268SOL    HW225704   3.272   3.814   6.635
 8269SOL     OW25705   4.328   2.319   2.904
 8269SOL    HW125706   4.415   2.365   2.921
 8269SOL    HW225707   4.307   2.324   2.806
 8270SOL     OW25708   4.016   0.003   5.680
 8270SOL    HW125709   4.073   0.052   5.746
 8270SOL    HW225710   3.927   7.008   5.722
 8271SOL     OW25711   4.747   6.442   4.506
 8271SOL    HW125712   4.787   6.458   4.416
 8271SOL    HW225713   4.819   6.420   4.571
 8272SOL     OW25714   0.721   6.933   2.056
 8272SOL    HW125715   0.715   6.962   1.961
 8272SOL    HW225716   0.745   7.012   2.113
 8273SOL     OW25717   2.758   6.617   0.287
 8273SOL    HW125718   2.737   6.544   0.221
 8273SOL    HW225719   2.683   6.683   0.289
 8274SOL     OW25720   4.838   5.708   6.832
 8274SOL    HW125721   4.824   5.610   6.842
 8274SOL    HW225722   4.935   5.728   6.822
 8275SOL     OW25723   6.716   0.656   4.205
 8275SOL    HW125724   6.722   0.653   4.305
 8275SOL    HW225725   6.682   0.568   4.172
 8276SOL     OW25726   6.962   2.993   6.773
 8276SOL    HW125727   0.018   2.996   6.714
 8276SOL    HW225728   6.979   2.930   6.849
 8277SOL     OW25729   0.923   6.053   5.925
 8277SOL    HW125730   0.855   6.101   5.870
 8277SOL    HW225731   0.880   6.019   6.009
 8278SOL     OW25732   3.571   2.033   6.597
 8278SOL    HW125733   3.650   2.027   6.658
 8278SOL    HW225734   3.504   1.964   6.622
 8279SOL     OW25735   4.589   5.821   6.215
 8279SOL    HW125736   4.552   5.910   6.244
 8279SOL    HW225737   4.584   5.814   6.115
 8280SOL     OW25738   5.220   2.688   0.705
 8280SOL    HW125739   5.232   2.784   0.680
 8280SOL    HW225740   5.194   2.635   0.624
 8281SOL     OW25741   1.942   5.233   0.077
 8281SOL    HW125742   1.975   5.141   0.055
 8281SOL    HW225743   1.880   5.228   0.155
 8282SOL     OW25744   2.933   2.917   1.112
 8282SOL    HW125745   3.016   2.933   1.059
 8282SOL    HW225746   2.853   2.939   1.057
 8283SOL     OW25747   0.358   5.097   3.739
 8283SOL    HW125748   0.400   5.052   3.661
 8283SOL    HW225749   0.338   5.192   3.716
 8284SOL     OW25750   2.048   1.842   2.409
 8284SOL    HW125751   2.083   1.751   2.387
 8284SOL    HW225752   2.051   1.900   2.327
 8285SOL     OW25753   3.530   4.469   5.921
 8285SOL    HW125754   3.538   4.567   5.909
 8285SOL    HW225755   3.505   4.449   6.016
 8286SOL     OW25756   5.245   1.019   4.568
 8286SOL    HW125757   5.204   1.075   4.496
 8286SOL    HW225758   5.339   1.049   4.584
 8287SOL     OW25759   1.209   0.291   3.450
 8287SOL    HW125760   1.114   0.323   3.446
 8287SOL    HW225761   1.243   0.278   3.357
 8288SOL     OW25762   1.555   1.290   2.494
 8288SOL    HW125763   1.599   1.283   2.584
 8288SOL    HW225764   1.625   1.286   2.423
 8289SOL     OW25765   6.532   2.100   5.862
 8289SOL    HW125766   6.478   2.026   5.901
 8289SOL    HW225767   6.609   2.061   5.811
 8290SOL     OW25768   3.663   2.598   1.754
 8290SOL    HW125769   3.645   2.508   1.793
 8290SOL    HW225770   3.738   2.592   1.688
 8291SOL     OW25771   5.613   6.372   6.149
 8291SOL    HW125772   5.592   6.373   6.051
 8291SOL    HW225773   5.579   6.456   6.192
 8292SOL     OW25774   1.463   4.219   4.717
 8292SOL    HW125775   1.371   4.198   4.685
 8292SOL    HW225776   1.507   4.136   4.750
 8293SOL     OW25777   2.611   5.234   2.578
 8293SOL    HW125778   2.575   5.326   2.568
 8293SOL    HW225779   2.559   5.186   2.649
 8294SOL     OW25780   6.736   3.659   6.361
 8294SOL    HW125781   6.687   3.702   6.436
 8294SOL    HW225782   6.804   3.595   6.398
 8295SOL     OW25783   4.992   4.169   2.625
 8295SOL    HW125784   4.930   4.091   2.626
 8295SOL    HW225785   4.944   4.250   2.592
 8296SOL     OW25786   3.477   6.154   0.751
 8296SOL    HW125787   3.405   6.098   0.791
 8296SOL    HW225788   3.463   6.250   0.774
 8297SOL     OW25789   6.632   4.549   2.825
 8297SOL    HW125790   6.593   4.460   2.851
 8297SOL    HW225791   6.557   4.614   2.812
 8298SOL     OW25792   6.954   0.557   6.731
 8298SOL    HW125793   6.964   0.656   6.723
 8298SOL    HW225794   7.021   0.511   6.673
 8299SOL     OW25795   0.660   3.881   1.528
 8299SOL    HW125796   0.584   3.913   1.471
 8299SOL    HW225797   0.738   3.859   1.470
 8300SOL     OW25798   6.245   4.898   3.323
 8300SOL    HW125799   6.253   4.930   3.229
 8300SOL    HW225800   6.331   4.916   3.372
 8301SOL     OW25801   4.299   6.521   0.759
 8301SOL    HW125802   4.229   6.505   0.829
 8301SOL    HW225803   4.313   6.619   0.748
 8302SOL     OW25804   3.429   6.265   4.626
 8302SOL    HW125805   3.479   6.334   4.575
 8302SOL    HW225806   3.384   6.307   4.704
 8303SOL     OW25807   6.501   0.146   2.387
 8303SOL    HW125808   6.420   0.205   2.388
 8303SOL    HW225809   6.520   0.112   2.479
 8304SOL     OW25810   6.194   3.800   3.983
 8304SOL    HW125811   6.198   3.787   4.082
 8304SOL    HW225812   6.222   3.894   3.961
 8305SOL     OW25813   4.755   5.432   4.281
 8305SOL    HW125814   4.720   5.439   4.374
 8305SOL    HW225815   4.802   5.344   4.269
 8306SOL     OW25816   5.890   1.183   2.270
 8306SOL    HW125817   5.930   1.125   2.200
 8306SOL    HW225818   5.800   1.148   2.297
 8307SOL     OW25819   1.702   4.766   2.341
 8307SOL    HW125820   1.711   4.864   2.322
 8307SOL    HW225821   1.750   4.713   2.272
 8308SOL     OW25822   0.746   5.022   0.023
 8308SOL    HW125823   0.672   4.994   0.085
 8308SOL    HW225824   0.813   4.948   0.015
 8309SOL     OW25825   6.840   4.340   4.680
 8309SOL    HW125826   6.901   4.358   4.603
 8309SOL    HW225827   6.746   4.361   4.653
 8310SOL     OW25828   0.677   6.765   0.374
 8310SOL    HW125829   0.664   6.841   0.438
 8310SOL    HW225830   0.669   6.678   0.423
 8311SOL     OW25831   5.692   6.666   4.190
 8311SOL    HW125832   5.620   6.642   4.125
 8311SOL    HW225833   5.680   6.613   4.274
 8312SOL     OW25834   5.001   0.638   6.700
 8312SOL    HW125835   5.077   0.631   6.765
 8312SOL    HW225836   5.015   0.719   6.642
 8313SOL     OW25837   4.539   1.043   4.308
 8313SOL    HW125838   4.578   1.133   4.325
 8313SOL    HW225839   4.604   0.973   4.338
 8314SOL     OW25840   4.797   6.096   5.704
 8314SOL    HW125841   4.797   6.196   5.705
 8314SOL    HW225842   4.810   6.062   5.797
 8315SOL     OW25843   3.546   2.888   4.460
 8315SOL    HW125844   3.490   2.871   4.542
 8315SOL    HW225845   3.638   2.917   4.488
 8316SOL     OW25846   1.018   2.808   0.007
 8316SOL    HW125847   1.036   2.741   0.080
 8316SOL    HW225848   0.979   2.760   6.952
 8317SOL     OW25849   1.665   2.110   4.257
 8317SOL    HW125850   1.713   2.190   4.293
 8317SOL    HW225851   1.717   2.027   4.279
 8318SOL     OW25852   3.529   6.953   6.621
 8318SOL    HW125853   3.472   6.985   6.545
 8318SOL    HW225854   3.608   7.013   6.630
 8319SOL     OW25855   1.970   0.343   6.146
 8319SOL    HW125856   1.957   0.439   6.121
 8319SOL    HW225857   1.998   0.338   6.242
 8320SOL     OW25858   3.483   3.467   4.559
 8320SOL    HW125859   3.410   3.530   4.537
 8320SOL    HW225860   3.570   3.516   4.562
 8321SOL     OW25861   6.959   6.926   0.380
 8321SOL    HW125862   6.915   6.883   0.301
 8321SOL    HW225863   6.896   6.926   0.457
 8322SOL     OW25864   6.809   0.986   0.249
 8322SOL    HW125865   6.849   1.049   0.315
 8322SOL    HW225866   6.759   0.914   0.297
 8323SOL     OW25867   4.971   4.353   0.861
 8323SOL    HW125868   5.006   4.404   0.782
 8323SOL    HW225869   4.873   4.335   0.848
 8324SOL     OW25870   6.326   6.486   6.676
 8324SOL    HW125871   6.276   6.562   6.635
 8324SOL    HW225872   6.413   6.473   6.628
 8325SOL     OW25873   1.458   5.614   5.388
 8325SOL    HW125874   1.427   5.709   5.397
 8325SOL    HW225875   1.395   5.554   5.437
 8326SOL     OW25876   1.789   3.697   1.592
 8326SOL    HW125877   1.735   3.613   1.594
 8326SOL    HW225878   1.884   3.676   1.613
 8327SOL     OW25879   1.016   0.318   5.198
 8327SOL    HW125880   1.090   0.313   5.265
 8327SOL    HW225881   1.036   0.256   5.122
 8328SOL     OW25882   0.989   6.825   6.374
 8328SOL    HW125883   0.991   6.899   6.440
 8328SOL    HW225884   1.021   6.740   6.417
 8329SOL     OW25885   1.119   2.796   5.385
 8329SOL    HW125886   1.193   2.850   5.347
 8329SOL    HW225887   1.114   2.708   5.338
 8330SOL     OW25888   3.674   0.748   6.669
 8330SOL    HW125889   3.741   0.804   6.716
 8330SOL    HW225890   3.713   0.713   6.584
 8331SOL     OW25891   1.719   2.196   7.001
 8331SOL    HW125892   1.748   2.163   0.067
 8331SOL    HW225893   1.643   2.260   7.012
 8332SOL     OW25894   5.535   4.789   2.173
 8332SOL    HW125895   5.511   4.731   2.095
 8332SOL    HW225896   5.527   4.885   2.147
 8333SOL     OW25897   2.862   4.929   1.357
 8333SOL    HW125898   2.931   4.858   1.350
 8333SOL    HW225899   2.793   4.903   1.425
 8334SOL     OW25900   3.310   2.163   6.302
 8334SOL    HW125901   3.317   2.235   6.233
 8334SOL    HW225902   3.333   2.075   6.261
 8335SOL     OW25903   5.336   3.052   6.124
 8335SOL    HW125904   5.237   3.066   6.120
 8335SOL    HW225905   5.377   3.080   6.037
 8336SOL     OW25906   1.034   3.512   3.033
 8336SOL    HW125907   0.987   3.432   2.996
 8336SOL    HW225908   0.969   3.569   3.082
 8337SOL     OW25909   0.885   0.998   4.751
 8337SOL    HW125910   0.934   1.062   4.691
 8337SOL    HW225911   0.798   1.038   4.778
 8338SOL     OW25912   3.688   4.880   2.339
 8338SOL    HW125913   3.667   4.831   2.254
 8338SOL    HW225914   3.650   4.972   2.334
 8339SOL     OW25915   6.606   0.469   0.387
 8339SOL    HW125916   6.661   0.445   0.307
 8339SOL    HW225917   6.661   0.457   0.470
 8340SOL     OW25918   5.186   2.378   0.550
 8340SOL    HW125919   5.099   2.357   0.505
 8340SOL    HW225920   5.170   2.395   0.647
 8341SOL     OW25921   3.783   0.469   0.266
 8341SOL    HW125922   3.792   0.474   0.365
 8341SOL    HW225923   3.715   0.399   0.242
 8342SOL     OW25924   4.211   6.424   6.966
 8342SOL    HW125925   4.250   6.466   6.884
 8342SOL    HW225926   4.111   6.433   6.963
 8343SOL     OW25927   6.820   4.071   3.762
 8343SOL    HW125928   6.809   3.989   3.705
 8343SOL    HW225929   6.911   4.070   3.804
 8344SOL     OW25930   1.055   5.413   4.839
 8344SOL    HW125931   1.146   5.429   4.802
 8344SOL    HW225932   0.992   5.484   4.807
 8345SOL     OW25933   4.546   0.746   2.574
 8345SOL    HW125934   4.470   0.803   2.607
 8345SOL    HW225935   4.631   0.797   2.583
 8346SOL     OW25936   4.468   2.953   5.616
 8346SOL    HW125937   4.379   2.927   5.579
 8346SOL    HW225938   4.464   2.955   5.716
 8347SOL     OW25939   2.299   0.362   5.964
 8347SOL    HW125940   2.385   0.318   5.935
 8347SOL    HW225941   2.235   0.292   5.997
 8348SOL     OW25942   3.911   6.251   1.731
 8348SOL    HW125943   3.885   6.339   1.692
 8348SOL    HW225944   3.986   6.263   1.796
 8349SOL     OW25945   1.211   6.515   2.037
 8349SOL    HW125946   1.152   6.507   1.957
 8349SOL    HW225947   1.172   6.462   2.113
 8350SOL     OW25948   2.601   0.520   6.397
 8350SOL    HW125949   2.527   0.493   6.336
 8350SOL    HW225950   2.678   0.458   6.385
 8351SOL     OW25951   0.503   4.643   3.951
 8351SOL    HW125952   0.410   4.609   3.961
 8351SOL    HW225953   0.552   4.586   3.885
 8352SOL     OW25954   2.642   5.628   1.617
 8352SOL    HW125955   2.563   5.689   1.615
 8352SOL    HW225956   2.611   5.533   1.609
 8353SOL     OW25957   0.943   3.868   2.108
 8353SOL    HW125958   0.949   3.961   2.071
 8353SOL    HW225959   1.014   3.856   2.178
 8354SOL     OW25960   3.243   6.836   4.245
 8354SOL    HW125961   3.280   6.876   4.161
 8354SOL    HW225962   3.267   6.894   4.323
 8355SOL     OW25963   1.795   6.412   5.364
 8355SOL    HW125964   1.785   6.367   5.453
 8355SOL    HW225965   1.834   6.503   5.376
 8356SOL     OW25966   1.626   5.763   1.437
 8356SOL    HW125967   1.724   5.763   1.418
 8356SOL    HW225968   1.611   5.735   1.532
 8357SOL     OW25969   3.844   5.645   5.647
 8357SOL    HW125970   3.790   5.566   5.676
 8357SOL    HW225971   3.878   5.629   5.554
 8358SOL     OW25972   1.063   2.401   5.306
 8358SOL    HW125973   1.120   2.441   5.378
 8358SOL    HW225974   1.064   2.461   5.226
 8359SOL     OW25975   3.328   1.750   4.897
 8359SOL    HW125976   3.394   1.814   4.856
 8359SOL    HW225977   3.376   1.667   4.925
 8360SOL     OW25978   5.229   6.216   0.226
 8360SOL    HW125979   5.315   6.203   0.177
 8360SOL    HW225980   5.248   6.261   0.314
 8361SOL     OW25981   2.756   7.005   0.149
 8361SOL    HW125982   2.754   0.037   0.066
 8361SOL    HW225983   2.847   7.009   0.189
 8362SOL     OW25984   6.816   3.168   0.659
 8362SOL    HW125985   6.772   3.218   0.734
 8362SOL    HW225986   6.767   3.185   0.574
 8363SOL     OW25987   3.196   1.885   0.193
 8363SOL    HW125988   3.238   1.926   0.274
 8363SOL    HW225989   3.222   1.937   0.111
 8364SOL     OW25990   0.743   2.993   3.747
 8364SOL    HW125991   0.694   2.939   3.816
 8364SOL    HW225992   0.809   3.053   3.793
 8365SOL     OW25993   2.375   2.547   2.209
 8365SOL    HW125994   2.356   2.583   2.119
 8365SOL    HW225995   2.323   2.463   2.224
 8366SOL     OW25996   4.780   5.761   1.076
 8366SOL    HW125997   4.823   5.697   1.140
 8366SOL    HW225998   4.682   5.742   1.071
 8367SOL     OW25999   4.510   5.108   5.123
 8367SOL    HW126000   4.591   5.167   5.125
 8367SOL    HW226001   4.437   5.153   5.072
 8368SOL     OW26002   1.159   6.093   6.976
 8368SOL    HW126003   1.237   6.031   6.987
 8368SOL    HW226004   1.184   6.166   6.913
 8369SOL     OW26005   1.475   1.683   0.498
 8369SOL    HW126006   1.501   1.775   0.528
 8369SOL    HW226007   1.434   1.633   0.575
 8370SOL     OW26008   2.811   2.057   0.377
 8370SOL    HW126009   2.866   2.099   0.450
 8370SOL    HW226010   2.863   2.058   0.292
 8371SOL     OW26011   1.505   3.867   5.852
 8371SOL    HW126012   1.578   3.880   5.920
 8371SOL    HW226013   1.543   3.821   5.772
 8372SOL     OW26014   2.068   6.275   2.298
 8372SOL    HW126015   2.051   6.179   2.319
 8372SOL    HW226016   1.994   6.310   2.241
 8373SOL     OW26017   0.455   0.996   4.566
 8373SOL    HW126018   0.394   1.061   4.520
 8373SOL    HW226019   0.549   1.012   4.535
 8374SOL     OW26020   1.482   1.101   4.646
 8374SOL    HW126021   1.552   1.167   4.674
 8374SOL    HW226022   1.527   1.017   4.616
 8375SOL     OW26023   3.969   1.265   5.745
 8375SOL    HW126024   3.947   1.286   5.650
 8375SOL    HW226025   4.066   1.242   5.753
 8376SOL     OW26026   2.099   0.927   3.199
 8376SOL    HW126027   2.146   1.002   3.154
 8376SOL    HW226028   2.097   0.943   3.298
 8377SOL     OW26029   5.482   5.533   6.826
 8377SOL    HW126030   5.445   5.442   6.809
 8377SOL    HW226031   5.499   5.579   6.739
 8378SOL     OW26032   5.596   5.919   3.450
 8378SOL    HW126033   5.669   5.896   3.514
 8378SOL    HW226034   5.622   6.000   3.397
 8379SOL     OW26035   5.525   1.564   1.916
 8379SOL    HW126036   5.478   1.490   1.868
 8379SOL    HW226037   5.473   1.648   1.907
 8380SOL     OW26038   6.372   5.458   0.158
 8380SOL    HW126039   6.412   5.493   0.243
 8380SOL    HW226040   6.295   5.516   0.132
 8381SOL     OW26041   0.246   1.827   2.790
 8381SOL    HW126042   0.248   1.820   2.889
 8381SOL    HW226043   0.278   1.917   2.761
 8382SOL     OW26044   2.731   0.139   6.964
 8382SOL    HW126045   2.645   0.109   6.924
 8382SOL    HW226046   2.775   0.205   6.902
 8383SOL     OW26047   2.970   6.809   4.566
 8383SOL    HW126048   3.016   6.763   4.490
 8383SOL    HW226049   2.914   6.743   4.616
 8384SOL     OW26050   0.023   1.885   0.925
 8384SOL    HW126051   0.010   1.816   0.854
 8384SOL    HW226052   6.958   1.911   0.962
 8385SOL     OW26053   4.757   3.335   0.746
 8385SOL    HW126054   4.796   3.244   0.764
 8385SOL    HW226055   4.712   3.368   0.829
 8386SOL     OW26056   2.141   6.248   1.514
 8386SOL    HW126057   2.232   6.254   1.472
 8386SOL    HW226058   2.097   6.162   1.487
 8387SOL     OW26059   2.322   1.493   0.859
 8387SOL    HW126060   2.231   1.485   0.899
 8387SOL    HW226061   2.316   1.538   0.770
 8388SOL     OW26062   2.984   6.664   0.413
 8388SOL    HW126063   3.008   6.600   0.486
 8388SOL    HW226064   2.900   6.633   0.368
 8389SOL     OW26065   0.958   2.831   4.497
 8389SOL    HW126066   0.915   2.799   4.412
 8389SOL    HW226067   1.027   2.900   4.474
 8390SOL     OW26068   2.259   0.769   6.006
 8390SOL    HW126069   2.205   0.852   6.014
 8390SOL    HW226070   2.224   0.713   5.931
 8391SOL     OW26071   5.229   5.679   2.137
 8391SOL    HW126072   5.232   5.701   2.234
 8391SOL    HW226073   5.317   5.700   2.095
 8392SOL     OW26074   6.006   5.653   4.971
 8392SOL    HW126075   5.957   5.575   4.933
 8392SOL    HW226076   6.095   5.623   5.005
 8393SOL     OW26077   6.769   6.361   3.111
 8393SOL    HW126078   6.819   6.412   3.042
 8393SOL    HW226079   6.674   6.392   3.113
 8394SOL     OW26080   0.795   1.613   2.648
 8394SOL    HW126081   0.841   1.702   2.656
 8394SOL    HW226082   0.755   1.589   2.737
 8395SOL     OW26083   0.266   6.203   4.642
 8395SOL    HW126084   0.245   6.277   4.578
 8395SOL    HW226085   0.354   6.221   4.686
 8396SOL     OW26086   4.705   4.229   2.898
 8396SOL    HW126087   4.679   4.235   2.994
 8396SOL    HW226088   4.742   4.317   2.867
 8397SOL     OW26089   1.862   6.356   2.657
 8397SOL    HW126090   1.826   6.283   2.600
 8397SOL    HW226091   1.948   6.390   2.618
 8398SOL     OW26092   3.761   1.597   6.868
 8398SOL    HW126093   3.720   1.538   6.799
 8398SOL    HW226094   3.696   1.668   6.894
 8399SOL     OW26095   5.789   5.898   0.548
 8399SOL    HW126096   5.855   5.925   0.477
 8399SOL    HW226097   5.722   5.835   0.509
 8400SOL     OW26098   0.219   0.754   2.963
 8400SOL    HW126099   0.152   0.781   2.894
 8400SOL    HW226100   0.312   0.773   2.928
 8401SOL     OW26101   3.809   3.726   6.189
 8401SOL    HW126102   3.820   3.757   6.095
 8401SOL    HW226103   3.896   3.736   6.238
 8402SOL     OW26104   3.953   2.125   6.531
 8402SOL    HW126105   3.936   2.109   6.433
 8402SOL    HW226106   3.896   2.063   6.585
 8403SOL     OW26107   1.146   1.527   3.955
 8403SOL    HW126108   1.149   1.444   3.900
 8403SOL    HW226109   1.134   1.607   3.896
 8404SOL     OW26110   4.734   6.396   5.488
 8404SOL    HW126111   4.741   6.496   5.491
 8404SOL    HW226112   4.811   6.357   5.540
 8405SOL     OW26113   0.684   2.536   6.544
 8405SOL    HW126114   0.762   2.598   6.540
 8405SOL    HW226115   0.665   2.499   6.453
 8406SOL     OW26116   4.444   1.766   0.837
 8406SOL    HW126117   4.387   1.844   0.861
 8406SOL    HW226118   4.496   1.736   0.917
 8407SOL     OW26119   5.681   4.157   3.931
 8407SOL    HW126120   5.624   4.228   3.889
 8407SOL    HW226121   5.623   4.087   3.971
 8408SOL     OW26122   5.216   0.578   3.773
 8408SOL    HW126123   5.126   0.609   3.802
 8408SOL    HW226124   5.279   0.655   3.772
 8409SOL     OW26125   1.193   2.029   4.154
 8409SOL    HW126126   1.141   1.997   4.075
 8409SOL    HW226127   1.284   1.987   4.153
 8410SOL     OW26128   5.366   7.021   1.866
 8410SOL    HW126129   5.402   6.962   1.793
 8410SOL    HW226130   5.307   0.066   1.827
 8411SOL     OW26131   1.536   5.180   3.978
 8411SOL    HW126132   1.517   5.277   3.995
 8411SOL    HW226133   1.581   5.140   4.057
 8412SOL     OW26134   4.426   2.289   1.371
 8412SOL    HW126135   4.484   2.299   1.452
 8412SOL    HW226136   4.331   2.276   1.400
 8413SOL     OW26137   3.796   4.921   0.798
 8413SOL    HW126138   3.803   4.991   0.869
 8413SOL    HW226139   3.832   4.957   0.712
 8414SOL     OW26140   3.802   6.743   2.279
 8414SOL    HW126141   3.863   6.747   2.200
 8414SOL    HW226142   3.752   6.829   2.288
 8415SOL     OW26143   0.457   4.682   3.652
 8415SOL    HW126144   0.366   4.687   3.693
 8415SOL    HW226145   0.507   4.604   3.691
 8416SOL     OW26146   5.571   4.272   2.184
 8416SOL    HW126147   5.536   4.179   2.170
 8416SOL    HW226148   5.496   4.337   2.181
 8417SOL     OW26149   2.643   6.591   5.771
 8417SOL    HW126150   2.548   6.566   5.752
 8417SOL    HW226151   2.697   6.586   5.687
 8418SOL     OW26152   6.079   6.096   3.041
 8418SOL    HW126153   6.090   6.019   3.104
 8418SOL    HW226154   6.071   6.061   2.948
 8419SOL     OW26155   4.862   6.923   1.799
 8419SOL    HW126156   4.819   7.009   1.826
 8419SOL    HW226157   4.809   6.846   1.834
 8420SOL     OW26158   4.376   0.361   0.135
 8420SOL    HW126159   4.320   0.287   0.096
 8420SOL    HW226160   4.468   0.358   0.094
 8421SOL     OW26161   2.005   0.271   1.683
 8421SOL    HW126162   2.079   0.312   1.738
 8421SOL    HW226163   1.943   0.221   1.743
 8422SOL     OW26164   5.542   6.333   7.000
 8422SOL    HW126165   5.630   6.376   0.001
 8422SOL    HW226166   5.555   6.277   6.919
 8423SOL     OW26167   3.816   5.001   6.950
 8423SOL    HW126168   3.743   4.987   6.883
 8423SOL    HW226169   3.777   5.038   0.010
 8424SOL     OW26170   3.811   2.130   2.446
 8424SOL    HW126171   3.735   2.065   2.446
 8424SOL    HW226172   3.777   2.223   2.459
 8425SOL     OW26173   6.799   5.235   1.408
 8425SOL    HW126174   6.873   5.266   1.349
 8425SOL    HW226175   6.820   5.259   1.503
 8426SOL     OW26176   3.459   3.324   3.542
 8426SOL    HW126177   3.400   3.284   3.472
 8426SOL    HW226178   3.526   3.256   3.572
 8427SOL     OW26179   1.733   4.343   6.493
 8427SOL    HW126180   1.779   4.405   6.557
 8427SOL    HW226181   1.722   4.389   6.405
 8428SOL     OW26182   6.748   4.215   1.986
 8428SOL    HW126183   6.836   4.170   1.974
 8428SOL    HW226184   6.698   4.215   1.899
 8429SOL     OW26185   2.914   4.766   4.229
 8429SOL    HW126186   2.879   4.716   4.149
 8429SOL    HW226187   2.857   4.744   4.309
 8430SOL     OW26188   4.691   4.903   2.657
 8430SOL    HW126189   4.677   4.999   2.681
 8430SOL    HW226190   4.789   4.884   2.652
 8431SOL     OW26191   3.319   4.945   1.354
 8431SOL    HW126192   3.269   4.982   1.432
 8431SOL    HW226193   3.294   4.849   1.340
 8432SOL     OW26194   4.448   5.541   6.171
 8432SOL    HW126195   4.504   5.622   6.188
 8432SOL    HW226196   4.502   5.459   6.187
 8433SOL     OW26197   1.162   2.707   6.498
 8433SOL    HW126198   1.070   2.681   6.527
 8433SOL    HW226199   1.209   2.752   6.573
 8434SOL     OW26200   3.920   6.482   5.483
 8434SOL    HW126201   3.945   6.578   5.495
 8434SOL    HW226202   3.824   6.468   5.509
 8435SOL     OW26203   4.470   2.088   1.173
 8435SOL    HW126204   4.475   1.998   1.218
 8435SOL    HW226205   4.438   2.156   1.239
 8436SOL     OW26206   3.666   4.922   2.836
 8436SOL    HW126207   3.632   4.930   2.743
 8436SOL    HW226208   3.609   4.857   2.887
 8437SOL     OW26209   0.683   0.787   1.540
 8437SOL    HW126210   0.586   0.764   1.550
 8437SOL    HW226211   0.719   0.744   1.457
 8438SOL     OW26212   2.918   4.782   2.505
 8438SOL    HW126213   2.863   4.860   2.536
 8438SOL    HW226214   2.882   4.749   2.418
 8439SOL     OW26215   6.404   5.638   2.165
 8439SOL    HW126216   6.463   5.691   2.103
 8439SOL    HW226217   6.458   5.608   2.244
 8440SOL     OW26218   0.357   0.818   2.254
 8440SOL    HW126219   0.375   0.797   2.350
 8440SOL    HW226220   0.400   0.905   2.230
 8441SOL     OW26221   5.629   6.000   6.378
 8441SOL    HW126222   5.712   6.048   6.405
 8441SOL    HW226223   5.575   5.978   6.459
 8442SOL     OW26224   3.079   3.611   6.852
 8442SOL    HW126225   3.115   3.641   6.940
 8442SOL    HW226226   3.020   3.682   6.814
 8443SOL     OW26227   0.935   0.398   3.351
 8443SOL    HW126228   0.886   0.480   3.379
 8443SOL    HW226229   0.911   0.375   3.256
 8444SOL     OW26230   3.446   6.091   4.001
 8444SOL    HW126231   3.473   6.107   3.906
 8444SOL    HW226232   3.349   6.114   4.013
 8445SOL     OW26233   3.449   5.163   2.584
 8445SOL    HW126234   3.493   5.154   2.495
 8445SOL    HW226235   3.419   5.257   2.598
 8446SOL     OW26236   5.344   6.019   2.862
 8446SOL    HW126237   5.318   5.989   2.954
 8446SOL    HW226238   5.415   6.089   2.869
 8447SOL     OW26239   5.590   2.395   1.917
 8447SOL    HW126240   5.675   2.435   1.885
 8447SOL    HW226241   5.597   2.295   1.917
 8448SOL     OW26242   0.271   3.545   6.204
 8448SOL    HW126243   0.363   3.532   6.241
 8448SOL    HW226244   0.204   3.537   6.278
 8449SOL     OW26245   0.477   3.474   4.954
 8449SOL    HW126246   0.484   3.539   4.878
 8449SOL    HW226247   0.489   3.381   4.920
 8450SOL     OW26248   1.864   6.754   2.899
 8450SOL    HW126249   1.796   6.705   2.845
 8450SOL    HW226250   1.820   6.794   2.979
 8451SOL     OW26251   3.825   2.648   0.768
 8451SOL    HW126252   3.754   2.717   0.779
 8451SOL    HW226253   3.818   2.581   0.842
 8452SOL     OW26254   0.167   6.912   1.710
 8452SOL    HW126255   0.149   6.865   1.797
 8452SOL    HW226256   0.184   7.008   1.728
 8453SOL     OW26257   6.751   4.939   6.380
 8453SOL    HW126258   6.725   4.873   6.309
 8453SOL    HW226259   6.820   5.001   6.344
 8454SOL     OW26260   1.839   6.570   2.365
 8454SOL    HW126261   1.911   6.534   2.424
 8454SOL    HW226262   1.875   6.584   2.273
 8455SOL     OW26263   5.003   1.393   1.129
 8455SOL    HW126264   4.998   1.482   1.175
 8455SOL    HW226265   4.949   1.326   1.180
 8456SOL     OW26266   5.931   5.738   3.817
 8456SOL    HW126267   5.942   5.788   3.903
 8456SOL    HW226268   6.020   5.706   3.785
 8457SOL     OW26269   6.645   6.846   5.371
 8457SOL    HW126270   6.628   6.784   5.448
 8457SOL    HW226271   6.579   6.920   5.372
 8458SOL     OW26272   1.699   1.240   0.162
 8458SOL    HW126273   1.646   1.302   0.104
 8458SOL    HW226274   1.706   1.278   0.254
 8459SOL     OW26275   3.787   6.275   2.229
 8459SOL    HW126276   3.735   6.352   2.267
 8459SOL    HW226277   3.725   6.201   2.206
 8460SOL     OW26278   4.454   2.809   6.773
 8460SOL    HW126279   4.357   2.835   6.766
 8460SOL    HW226280   4.461   2.710   6.781
 8461SOL     OW26281   0.653   3.540   1.620
 8461SOL    HW126282   0.699   3.616   1.666
 8461SOL    HW226283   0.661   3.551   1.521
 8462SOL     OW26284   3.860   3.275   0.494
 8462SOL    HW126285   3.778   3.280   0.550
 8462SOL    HW226286   3.910   3.191   0.515
 8463SOL     OW26287   6.385   2.497   0.316
 8463SOL    HW126288   6.395   2.445   0.231
 8463SOL    HW226289   6.385   2.434   0.393
 8464SOL     OW26290   7.021   3.213   6.090
 8464SOL    HW126291   0.037   3.145   6.152
 8464SOL    HW226292   0.070   3.258   6.040
 8465SOL     OW26293   3.052   2.743   0.732
 8465SOL    HW126294   3.081   2.657   0.689
 8465SOL    HW226295   2.966   2.729   0.781
 8466SOL     OW26296   5.668   0.556   5.309
 8466SOL    HW126297   5.674   0.655   5.304
 8466SOL    HW226298   5.582   0.525   5.269
 8467SOL     OW26299   3.811   0.752   0.314
 8467SOL    HW126300   3.733   0.785   0.367
 8467SOL    HW226301   3.799   0.655   0.292
 8468SOL     OW26302   6.192   3.667   6.369
 8468SOL    HW126303   6.101   3.685   6.332
 8468SOL    HW226304   6.196   3.574   6.404
 8469SOL     OW26305   3.909   2.850   6.351
 8469SOL    HW126306   3.817   2.865   6.386
 8469SOL    HW226307   3.907   2.775   6.284
 8470SOL     OW26308   0.957   4.838   0.446
 8470SOL    HW126309   0.907   4.752   0.433
 8470SOL    HW226310   1.021   4.852   0.370
 8471SOL     OW26311   3.653   0.730   5.182
 8471SOL    HW126312   3.612   0.639   5.190
 8471SOL    HW226313   3.722   0.741   5.254
 8472SOL     OW26314   6.407   1.657   5.771
 8472SOL    HW126315   6.311   1.666   5.798
 8472SOL    HW226316   6.462   1.721   5.824
 8473SOL     OW26317   4.368   4.637   6.846
 8473SOL    HW126318   4.310   4.589   6.911
 8473SOL    HW226319   4.378   4.582   6.763
 8474SOL     OW26320   3.027   3.824   2.973
 8474SOL    HW126321   2.971   3.743   2.959
 8474SOL    HW226322   3.016   3.858   3.066
 8475SOL     OW26323   0.607   3.155   1.363
 8475SOL    HW126324   0.665   3.164   1.282
 8475SOL    HW226325   0.598   3.244   1.408
 8476SOL     OW26326   6.458   0.723   1.119
 8476SOL    HW126327   6.402   0.655   1.167
 8476SOL    HW226328   6.408   0.755   1.039
 8477SOL     OW26329   5.588   5.832   1.838
 8477SOL    HW126330   5.600   5.924   1.800
 8477SOL    HW226331   5.579   5.766   1.764
 8478SOL     OW26332   1.066   0.880   5.722
 8478SOL    HW126333   1.047   0.976   5.704
 8478SOL    HW226334   1.165   0.865   5.718
 8479SOL     OW26335   1.837   2.198   1.223
 8479SOL    HW126336   1.904   2.248   1.278
 8479SOL    HW226337   1.863   2.101   1.219
 8480SOL     OW26338   5.072   2.944   6.811
 8480SOL    HW126339   5.086   2.847   6.833
 8480SOL    HW226340   4.988   2.976   6.853
 8481SOL     OW26341   3.682   2.102   4.665
 8481SOL    HW126342   3.741   2.038   4.715
 8481SOL    HW226343   3.716   2.111   4.571
 8482SOL     OW26344   4.250   1.026   6.991
 8482SOL    HW126345   4.345   1.059   6.988
 8482SOL    HW226346   4.239   0.965   0.045
 8483SOL     OW26347   3.353   6.108   3.638
 8483SOL    HW126348   3.358   6.066   3.548
 8483SOL    HW226349   3.290   6.185   3.635
 8484SOL     OW26350   6.306   5.978   5.071
 8484SOL    HW126351   6.253   6.020   4.997
 8484SOL    HW226352   6.252   5.981   5.156
 8485SOL     OW26353   3.971   2.653   0.186
 8485SOL    HW126354   4.027   2.670   0.267
 8485SOL    HW226355   3.875   2.674   0.206
 8486SOL     OW26356   2.018   1.267   2.342
 8486SOL    HW126357   2.057   1.184   2.383
 8486SOL    HW226358   2.074   1.346   2.366
 8487SOL     OW26359   4.836   1.504   5.938
 8487SOL    HW126360   4.912   1.440   5.924
 8487SOL    HW226361   4.758   1.455   5.977
 8488SOL     OW26362   5.773   5.555   3.268
 8488SOL    HW126363   5.702   5.568   3.337
 8488SOL    HW226364   5.842   5.491   3.303
 8489SOL     OW26365   6.222   0.385   1.705
 8489SOL    HW126366   6.127   0.363   1.687
 8489SOL    HW226367   6.228   0.478   1.741
 8490SOL     OW26368   3.568   6.833   5.750
 8490SOL    HW126369   3.476   6.844   5.712
 8490SOL    HW226370   3.575   6.743   5.792
 8491SOL     OW26371   2.429   6.073   2.886
 8491SOL    HW126372   2.521   6.112   2.884
 8491SOL    HW226373   2.397   6.060   2.792
 8492SOL     OW26374   6.234   4.644   3.674
 8492SOL    HW126375   6.192   4.667   3.586
 8492SOL    HW226376   6.163   4.619   3.739
 8493SOL     OW26377   2.500   1.074   0.326
 8493SOL    HW126378   2.544   1.135   0.261
 8493SOL    HW226379   2.461   0.996   0.278
 8494SOL     OW26380   5.321   4.636   2.001
 8494SOL    HW126381   5.318   4.735   1.987
 8494SOL    HW226382   5.251   4.592   1.946
 8495SOL     OW26383   7.013   5.851   0.574
 8495SOL    HW126384   0.080   5.825   0.605
 8495SOL    HW226385   6.978   5.924   0.633
 8496SOL     OW26386   5.056   1.041   2.356
 8496SOL    HW126387   5.048   1.125   2.303
 8496SOL    HW226388   5.049   1.063   2.454
 8497SOL     OW26389   0.639   0.196   3.648
 8497SOL    HW126390   0.663   0.220   3.742
 8497SOL    HW226391   0.546   0.159   3.646
 8498SOL     OW26392   5.562   0.520   3.698
 8498SOL    HW126393   5.538   0.513   3.601
 8498SOL    HW226394   5.503   0.461   3.752
 8499SOL     OW26395   0.883   5.367   0.538
 8499SOL    HW126396   0.919   5.446   0.489
 8499SOL    HW226397   0.925   5.284   0.503
 8500SOL     OW26398   1.569   6.947   6.046
 8500SOL    HW126399   1.499   6.932   6.116
 8500SOL    HW226400   1.653   6.978   6.090
 8501SOL     OW26401   0.087   2.205   0.355
 8501SOL    HW126402   0.167   2.209   0.295
 8501SOL    HW226403   0.004   2.201   0.299
 8502SOL     OW26404   0.561   2.652   0.120
 8502SOL    HW126405   0.481   2.666   0.178
 8502SOL    HW226406   0.595   2.741   0.089
 8503SOL     OW26407   6.624   5.335   4.974
 8503SOL    HW126408   6.706   5.328   4.918
 8503SOL    HW226409   6.600   5.431   4.988
 8504SOL     OW26410   1.407   5.569   2.225
 8504SOL    HW126411   1.378   5.555   2.320
 8504SOL    HW226412   1.505   5.553   2.218
 8505SOL     OW26413   5.176   3.871   2.460
 8505SOL    HW126414   5.193   3.777   2.431
 8505SOL    HW226415   5.082   3.880   2.491
 8506SOL     OW26416   1.588   1.312   6.929
 8506SOL    HW126417   1.686   1.314   6.911
 8506SOL    HW226418   1.548   1.400   6.905
 8507SOL     OW26419   4.523   0.280   4.808
 8507SOL    HW126420   4.525   0.252   4.712
 8507SOL    HW226421   4.559   0.206   4.865
 8508SOL     OW26422   3.954   1.796   6.128
 8508SOL    HW126423   3.880   1.840   6.077
 8508SOL    HW226424   3.919   1.716   6.176
 8509SOL     OW26425   5.204   6.947   3.439
 8509SOL    HW126426   5.257   7.005   3.377
 8509SOL    HW226427   5.254   6.862   3.455
 8510SOL     OW26428   5.433   2.822   3.568
 8510SOL    HW126429   5.457   2.766   3.488
 8510SOL    HW226430   5.363   2.888   3.541
 8511SOL     OW26431   6.056   3.540   2.305
 8511SOL    HW126432   6.134   3.550   2.242
 8511SOL    HW226433   6.042   3.625   2.354
 8512SOL     OW26434   2.008   0.487   3.033
 8512SOL    HW126435   1.927   0.432   3.011
 8512SOL    HW226436   2.068   0.490   2.953
 8513SOL     OW26437   6.252   6.400   0.290
 8513SOL    HW126438   6.318   6.456   0.240
 8513SOL    HW226439   6.278   6.304   0.283
 8514SOL     OW26440   3.077   6.352   3.131
 8514SOL    HW126441   3.029   6.410   3.197
 8514SOL    HW226442   3.072   6.256   3.162
 8515SOL     OW26443   5.353   2.749   0.990
 8515SOL    HW126444   5.447   2.776   1.012
 8515SOL    HW226445   5.338   2.655   1.019
 8516SOL     OW26446   6.418   1.811   2.710
 8516SOL    HW126447   6.355   1.734   2.707
 8516SOL    HW226448   6.377   1.886   2.763
 8517SOL     OW26449   0.864   2.170   0.015
 8517SOL    HW126450   0.773   2.128   0.020
 8517SOL    HW226451   0.869   2.246   0.080
 8518SOL     OW26452   4.224   5.155   0.648
 8518SOL    HW126453   4.179   5.162   0.738
 8518SOL    HW226454   4.300   5.219   0.644
 8519SOL     OW26455   2.121   5.768   2.173
 8519SOL    HW126456   2.197   5.727   2.223
 8519SOL    HW226457   2.157   5.827   2.101
 8520SOL     OW26458   4.000   1.033   0.720
 8520SOL    HW126459   3.929   0.974   0.758
 8520SOL    HW226460   4.036   1.091   0.793
 8521SOL     OW26461   0.556   6.219   6.164
 8521SOL    HW126462   0.600   6.285   6.104
 8521SOL    HW226463   0.623   6.182   6.228
 8522SOL     OW26464   1.426   6.525   2.843
 8522SOL    HW126465   1.459   6.619   2.846
 8522SOL    HW226466   1.339   6.522   2.794
 8523SOL     OW26467   2.424   0.145   5.675
 8523SOL    HW126468   2.360   0.117   5.604
 8523SOL    HW226469   2.412   0.086   5.756
 8524SOL     OW26470   1.542   3.153   4.827
 8524SOL    HW126471   1.558   3.248   4.852
 8524SOL    HW226472   1.626   3.100   4.840
 8525SOL     OW26473   5.946   3.103   3.164
 8525SOL    HW126474   5.935   3.022   3.106
 8525SOL    HW226475   6.011   3.084   3.237
 8526SOL     OW26476   2.450   2.790   1.632
 8526SOL    HW126477   2.361   2.826   1.661
 8526SOL    HW226478   2.446   2.765   1.535
 8527SOL     OW26479   4.629   0.696   3.880
 8527SOL    HW126480   4.600   0.706   3.975
 8527SOL    HW226481   4.690   0.618   3.871
 8528SOL     OW26482   5.022   3.251   6.499
 8528SOL    HW126483   5.007   3.154   6.481
 8528SOL    HW226484   5.118   3.274   6.481
 8529SOL     OW26485   2.088   5.786   0.107
 8529SOL    HW126486   1.990   5.793   0.086
 8529SOL    HW226487   2.141   5.829   0.034
 8530SOL     OW26488   1.668   4.624   5.469
 8530SOL    HW126489   1.629   4.531   5.467
 8530SOL    HW226490   1.655   4.667   5.380
 8531SOL     OW26491   5.340   3.922   2.974
 8531SOL    HW126492   5.265   3.974   2.934
 8531SOL    HW226493   5.419   3.925   2.914
 8532SOL     OW26494   3.722   4.864   5.158
 8532SOL    HW126495   3.717   4.887   5.061
 8532SOL    HW226496   3.806   4.813   5.176
 8533SOL     OW26497   2.439   1.183   4.527
 8533SOL    HW126498   2.530   1.226   4.527
 8533SOL    HW226499   2.393   1.203   4.614
 8534SOL     OW26500   0.912   3.743   3.116
 8534SOL    HW126501   0.946   3.837   3.106
 8534SOL    HW226502   0.814   3.741   3.093
 8535SOL     OW26503   0.816   2.160   4.796
 8535SOL    HW126504   0.880   2.097   4.751
 8535SOL    HW226505   0.724   2.147   4.759
 8536SOL     OW26506   6.831   2.340   5.369
 8536SOL    HW126507   6.904   2.361   5.434
 8536SOL    HW226508   6.763   2.414   5.371
 8537SOL     OW26509   5.686   0.610   0.829
 8537SOL    HW126510   5.738   0.629   0.913
 8537SOL    HW226511   5.741   0.636   0.750
 8538SOL     OW26512   0.131   0.238   5.081
 8538SOL    HW126513   0.216   0.286   5.102
 8538SOL    HW226514   0.113   0.242   4.983
 8539SOL     OW26515   0.039   2.020   1.763
 8539SOL    HW126516   6.968   2.016   1.794
 8539SOL    HW226517   0.100   1.999   1.839
 8540SOL     OW26518   3.071   1.077   0.337
 8540SOL    HW126519   3.105   1.171   0.336
 8540SOL    HW226520   3.146   1.014   0.360
 8541SOL     OW26521   2.666   1.249   5.104
 8541SOL    HW126522   2.669   1.313   5.181
 8541SOL    HW226523   2.712   1.289   5.025
 8542SOL     OW26524   2.864   4.332   6.861
 8542SOL    HW126525   2.881   4.282   6.776
 8542SOL    HW226526   2.806   4.277   6.921
 8543SOL     OW26527   2.590   2.089   5.437
 8543SOL    HW126528   2.494   2.094   5.408
 8543SOL    HW226529   2.638   2.171   5.405
 8544SOL     OW26530   4.763   3.921   5.278
 8544SOL    HW126531   4.795   3.947   5.369
 8544SOL    HW226532   4.741   4.003   5.225
 8545SOL     OW26533   3.555   6.962   4.608
 8545SOL    HW126534   3.592   6.871   4.591
 8545SOL    HW226535   3.579   6.992   4.700
 8546SOL     OW26536   5.909   0.381   1.714
 8546SOL    HW126537   5.812   0.366   1.698
 8546SOL    HW226538   5.946   0.306   1.768
 8547SOL     OW26539   6.891   6.734   6.010
 8547SOL    HW126540   6.923   6.707   5.920
 8547SOL    HW226541   6.799   6.773   6.003
 8548SOL     OW26542   0.475   2.913   6.188
 8548SOL    HW126543   0.510   2.883   6.277
 8548SOL    HW226544   0.532   2.987   6.153
 8549SOL     OW26545   1.695   0.978   3.659
 8549SOL    HW126546   1.772   0.932   3.702
 8549SOL    HW226547   1.703   1.077   3.673
 8550SOL     OW26548   0.735   4.349   0.063
 8550SOL    HW126549   0.692   4.295   0.136
 8550SOL    HW226550   0.720   4.446   0.080
 8551SOL     OW26551   1.805   2.122   6.386
 8551SOL    HW126552   1.771   2.174   6.464
 8551SOL    HW226553   1.834   2.031   6.417
 8552SOL     OW26554   3.054   1.083   2.519
 8552SOL    HW126555   3.027   1.166   2.568
 8552SOL    HW226556   3.110   1.026   2.579
 8553SOL     OW26557   4.357   2.905   0.977
 8553SOL    HW126558   4.455   2.924   0.982
 8553SOL    HW226559   4.325   2.876   1.068
 8554SOL     OW26560   0.845   6.812   0.704
 8554SOL    HW126561   0.904   6.742   0.666
 8554SOL    HW226562   0.900   6.877   0.757
 8555SOL     OW26563   4.243   1.720   3.604
 8555SOL    HW126564   4.165   1.701   3.545
 8555SOL    HW226565   4.327   1.720   3.550
 8556SOL     OW26566   1.942   6.269   6.452
 8556SOL    HW126567   2.000   6.281   6.532
 8556SOL    HW226568   1.976   6.192   6.397
 8557SOL     OW26569   6.627   0.773   0.418
 8557SOL    HW126570   6.542   0.786   0.468
 8557SOL    HW226571   6.638   0.676   0.394
 8558SOL     OW26572   2.819   4.753   3.121
 8558SOL    HW126573   2.796   4.685   3.051
 8558SOL    HW226574   2.858   4.834   3.078
 8559SOL     OW26575   0.854   5.363   2.156
 8559SOL    HW126576   0.940   5.313   2.166
 8559SOL    HW226577   0.807   5.332   2.073
 8560SOL     OW26578   2.181   5.034   1.212
 8560SOL    HW126579   2.096   5.043   1.264
 8560SOL    HW226580   2.258   5.038   1.275
 8561SOL     OW26581   3.401   0.349   2.975
 8561SOL    HW126582   3.329   0.294   3.017
 8561SOL    HW226583   3.491   0.313   2.999
 8562SOL     OW26584   3.784   1.248   0.069
 8562SOL    HW126585   3.779   1.348   0.064
 8562SOL    HW226586   3.713   1.209   0.012
 8563SOL     OW26587   1.669   5.713   2.835
 8563SOL    HW126588   1.584   5.701   2.785
 8563SOL    HW226589   1.710   5.801   2.812
 8564SOL     OW26590   3.964   6.641   6.979
 8564SOL    HW126591   3.974   6.597   6.890
 8564SOL    HW226592   3.942   6.738   6.966
 8565SOL     OW26593   3.427   5.636   1.199
 8565SOL    HW126594   3.437   5.678   1.289
 8565SOL    HW226595   3.420   5.537   1.209
 8566SOL     OW26596   2.949   0.927   3.216
 8566SOL    HW126597   3.041   0.887   3.216
 8566SOL    HW226598   2.956   1.026   3.231
 8567SOL     OW26599   1.713   1.589   1.299
 8567SOL    HW126600   1.686   1.567   1.393
 8567SOL    HW226601   1.811   1.577   1.289
 8568SOL     OW26602   0.207   1.439   0.588
 8568SOL    HW126603   0.231   1.351   0.630
 8568SOL    HW226604   0.113   1.435   0.553
 8569SOL     OW26605   5.291   2.607   5.984
 8569SOL    HW126606   5.330   2.608   6.077
 8569SOL    HW226607   5.359   2.642   5.920
 8570SOL     OW26608   1.257   2.234   5.149
 8570SOL    HW126609   1.183   2.275   5.203
 8570SOL    HW226610   1.337   2.294   5.152
 8571SOL     OW26611   1.577   1.009   4.360
 8571SOL    HW126612   1.508   1.069   4.320
 8571SOL    HW226613   1.648   1.065   4.403
 8572SOL     OW26614   3.110   4.044   5.865
 8572SOL    HW126615   3.064   3.970   5.914
 8572SOL    HW226616   3.096   4.032   5.767
 8573SOL     OW26617   3.273   6.035   0.852
 8573SOL    HW126618   3.196   6.099   0.849
 8573SOL    HW226619   3.239   5.942   0.841
 8574SOL     OW26620   6.912   6.309   6.119
 8574SOL    HW126621   6.831   6.259   6.150
 8574SOL    HW226622   6.973   6.247   6.069
 8575SOL     OW26623   3.584   6.787   2.872
 8575SOL    HW126624   3.531   6.844   2.935
 8575SOL    HW226625   3.547   6.797   2.779
 8576SOL     OW26626   1.001   3.802   4.201
 8576SOL    HW126627   1.017   3.717   4.151
 8576SOL    HW226628   0.952   3.782   4.286
 8577SOL     OW26629   1.716   1.092   6.150
 8577SOL    HW126630   1.784   1.156   6.185
 8577SOL    HW226631   1.724   1.085   6.051
 8578SOL     OW26632   6.384   6.228   5.249
 8578SOL    HW126633   6.402   6.247   5.345
 8578SOL    HW226634   6.433   6.146   5.221
 8579SOL     OW26635   2.837   5.894   2.355
 8579SOL    HW126636   2.923   5.844   2.368
 8579SOL    HW226637   2.810   5.935   2.442
 8580SOL     OW26638   1.353   6.243   1.371
 8580SOL    HW126639   1.360   6.274   1.276
 8580SOL    HW226640   1.430   6.183   1.392
 8581SOL     OW26641   3.591   5.233   1.393
 8581SOL    HW126642   3.677   5.220   1.443
 8581SOL    HW226643   3.515   5.232   1.458
 8582SOL     OW26644   4.161   4.633   5.588
 8582SOL    HW126645   4.068   4.599   5.608
 8582SOL    HW226646   4.214   4.634   5.673
 8583SOL     OW26647   4.158   0.698   3.191
 8583SOL    HW126648   4.217   0.777   3.177
 8583SOL    HW226649   4.110   0.707   3.278
 8584SOL     OW26650   6.152   1.541   4.626
 8584SOL    HW126651   6.053   1.542   4.637
 8584SOL    HW226652   6.194   1.594   4.700
 8585SOL     OW26653   5.789   2.196   1.322
 8585SOL    HW126654   5.714   2.220   1.383
 8585SOL    HW226655   5.839   2.117   1.358
 8586SOL     OW26656   5.754   5.869   1.060
 8586SOL    HW126657   5.777   5.952   1.010
 8586SOL    HW226658   5.742   5.891   1.157
 8587SOL     OW26659   1.319   1.551   5.612
 8587SOL    HW126660   1.328   1.549   5.712
 8587SOL    HW226661   1.237   1.499   5.586
 8588SOL     OW26662   3.624   1.472   6.571
 8588SOL    HW126663   3.657   1.425   6.489
 8588SOL    HW226664   3.590   1.404   6.636
 8589SOL     OW26665   6.909   3.567   5.841
 8589SOL    HW126666   6.966   3.563   5.759
 8589SOL    HW226667   6.902   3.475   5.882
 8590SOL     OW26668   6.883   1.428   2.684
 8590SOL    HW126669   6.919   1.516   2.714
 8590SOL    HW226670   6.881   1.365   2.762
 8591SOL     OW26671   6.599   4.903   0.224
 8591SOL    HW126672   6.521   4.959   0.253
 8591SOL    HW226673   6.659   4.885   0.302
 8592SOL     OW26674   0.401   2.509   6.811
 8592SOL    HW126675   0.376   2.456   6.892
 8592SOL    HW226676   0.482   2.467   6.769
 8593SOL     OW26677   2.979   0.779   6.669
 8593SOL    HW126678   3.014   0.806   6.580
 8593SOL    HW226679   3.048   0.797   6.739
 8594SOL     OW26680   6.085   2.908   6.272
 8594SOL    HW126681   6.163   2.887   6.213
 8594SOL    HW226682   6.003   2.917   6.216
 8595SOL     OW26683   5.336   0.034   2.935
 8595SOL    HW126684   5.299   0.126   2.948
 8595SOL    HW226685   5.271   7.003   2.883
 8596SOL     OW26686   0.993   3.092   3.319
 8596SOL    HW126687   1.006   3.065   3.414
 8596SOL    HW226688   1.047   3.175   3.300
 8597SOL     OW26689   6.604   3.070   0.897
 8597SOL    HW126690   6.642   2.978   0.887
 8597SOL    HW226691   6.517   3.065   0.946
 8598SOL     OW26692   5.854   1.091   4.840
 8598SOL    HW126693   5.917   1.014   4.847
 8598SOL    HW226694   5.770   1.069   4.891
 8599SOL     OW26695   1.393   3.347   3.317
 8599SOL    HW126696   1.489   3.320   3.327
 8599SOL    HW226697   1.368   3.410   3.391
 8600SOL     OW26698   4.608   3.785   0.946
 8600SOL    HW126699   4.690   3.728   0.960
 8600SOL    HW226700   4.540   3.733   0.896
 8601SOL     OW26701   0.535   1.309   3.909
 8601SOL    HW126702   0.504   1.240   3.843
 8601SOL    HW226703   0.635   1.308   3.914
 8602SOL     OW26704   2.681   6.859   3.764
 8602SOL    HW126705   2.750   6.859   3.837
 8602SOL    HW226706   2.610   6.926   3.786
 8603SOL     OW26707   6.429   0.811   0.153
 8603SOL    HW126708   6.356   0.789   0.217
 8603SOL    HW226709   6.499   0.740   0.157
 8604SOL     OW26710   0.710   3.694   6.221
 8604SOL    HW126711   0.644   3.699   6.296
 8604SOL    HW226712   0.724   3.786   6.183
 8605SOL     OW26713   0.734   4.716   4.457
 8605SOL    HW126714   0.824   4.733   4.417
 8605SOL    HW226715   0.705   4.623   4.435
 8606SOL     OW26716   2.704   1.825   6.611
 8606SOL    HW126717   2.609   1.849   6.595
 8606SOL    HW226718   2.720   1.729   6.585
 8607SOL     OW26719   2.254   4.759   1.273
 8607SOL    HW126720   2.337   4.728   1.225
 8607SOL    HW226721   2.226   4.847   1.236
 8608SOL     OW26722   2.496   4.459   2.640
 8608SOL    HW126723   2.563   4.495   2.575
 8608SOL    HW226724   2.462   4.371   2.607
 8609SOL     OW26725   4.888   1.316   3.950
 8609SOL    HW126726   4.953   1.390   3.933
 8609SOL    HW226727   4.796   1.353   3.961
 8610SOL     OW26728   0.054   0.083   3.020
 8610SOL    HW126729   0.135   0.026   3.028
 8610SOL    HW226730   7.000   0.037   3.062
 8611SOL     OW26731   3.065   1.395   3.639
 8611SOL    HW126732   3.000   1.465   3.669
 8611SOL    HW226733   3.120   1.365   3.717
 8612SOL     OW26734   3.500   2.987   2.722
 8612SOL    HW126735   3.417   2.991   2.667
 8612SOL    HW226736   3.480   2.948   2.812
 8613SOL     OW26737   2.864   2.737   1.523
 8613SOL    HW126738   2.839   2.649   1.564
 8613SOL    HW226739   2.937   2.723   1.456
 8614SOL     OW26740   1.473   2.158   2.069
 8614SOL    HW126741   1.560   2.130   2.110
 8614SOL    HW226742   1.473   2.257   2.056
 8615SOL     OW26743   4.860   2.283   4.270
 8615SOL    HW126744   4.899   2.238   4.350
 8615SOL    HW226745   4.893   2.238   4.187
 8616SOL     OW26746   3.836   5.132   2.458
 8616SOL    HW126747   3.746   5.145   2.415
 8616SOL    HW226748   3.838   5.044   2.505
 8617SOL     OW26749   5.353   6.937   3.940
 8617SOL    HW126750   5.380   6.865   3.876
 8617SOL    HW226751   5.418   6.940   4.016
 8618SOL     OW26752   6.482   3.702   1.152
 8618SOL    HW126753   6.440   3.617   1.181
 8618SOL    HW226754   6.536   3.741   1.227
 8619SOL     OW26755   4.976   5.120   2.305
 8619SOL    HW126756   4.892   5.073   2.333
 8619SOL    HW226757   5.006   5.085   2.216
 8620SOL     OW26758   2.051   0.500   4.620
 8620SOL    HW126759   1.975   0.518   4.683
 8620SOL    HW226760   2.122   0.569   4.633
 8621SOL     OW26761   4.689   2.753   1.962
 8621SOL    HW126762   4.631   2.705   1.896
 8621SOL    HW226763   4.685   2.852   1.944
 8622SOL     OW26764   6.452   5.268   2.377
 8622SOL    HW126765   6.451   5.241   2.473
 8622SOL    HW226766   6.547   5.270   2.345
 8623SOL     OW26767   6.849   3.459   5.071
 8623SOL    HW126768   6.912   3.523   5.026
 8623SOL    HW226769   6.766   3.450   5.016
 8624SOL     OW26770   3.083   3.647   5.884
 8624SOL    HW126771   3.060   3.551   5.903
 8624SOL    HW226772   3.104   3.657   5.787
 8625SOL     OW26773   3.579   1.890   5.197
 8625SOL    HW126774   3.495   1.929   5.234
 8625SOL    HW226775   3.658   1.938   5.235
 8626SOL     OW26776   4.404   2.703   0.487
 8626SOL    HW126777   4.404   2.713   0.586
 8626SOL    HW226778   4.469   2.767   0.447
 8627SOL     OW26779   1.756   1.552   2.393
 8627SOL    HW126780   1.661   1.574   2.369
 8627SOL    HW226781   1.784   1.470   2.343
 8628SOL     OW26782   6.828   6.517   0.216
 8628SOL    HW126783   6.927   6.501   0.221
 8628SOL    HW226784   6.779   6.431   0.231
 8629SOL     OW26785   1.054   6.989   4.596
 8629SOL    HW126786   1.147   6.958   4.615
 8629SOL    HW226787   1.000   6.912   4.562
 8630SOL     OW26788   5.232   3.386   3.624
 8630SOL    HW126789   5.278   3.470   3.595
 8630SOL    HW226790   5.147   3.376   3.573
 8631SOL     OW26791   2.635   5.677   0.219
 8631SOL    HW126792   2.627   5.583   0.253
 8631SOL    HW226793   2.662   5.737   0.294
 8632SOL     OW26794   4.059   4.523   5.357
 8632SOL    HW126795   4.069   4.480   5.447
 8632SOL    HW226796   4.118   4.476   5.291
 8633SOL     OW26797   5.160   4.094   5.607
 8633SOL    HW126798   5.222   4.133   5.539
 8633SOL    HW226799   5.136   4.000   5.581
 8634SOL     OW26800   5.456   4.886   0.445
 8634SOL    HW126801   5.478   4.828   0.366
 8634SOL    HW226802   5.395   4.837   0.507
 8635SOL     OW26803   6.138   3.154   6.956
 8635SOL    HW126804   6.192   3.219   7.010
 8635SOL    HW226805   6.199   3.099   6.899
 8636SOL     OW26806   4.243   5.763   0.686
 8636SOL    HW126807   4.233   5.773   0.587
 8636SOL    HW226808   4.249   5.853   0.728
 8637SOL     OW26809   1.469   1.551   6.821
 8637SOL    HW126810   1.385   1.562   6.874
 8637SOL    HW226811   1.455   1.587   6.729
 8638SOL     OW26812   3.972   2.939   5.245
 8638SOL    HW126813   3.882   2.931   5.201
 8638SOL    HW226814   3.991   3.035   5.265
 8639SOL     OW26815   5.444   3.406   0.190
 8639SOL    HW126816   5.420   3.408   0.287
 8639SOL    HW226817   5.444   3.499   0.154
 8640SOL     OW26818   3.698   2.976   1.093
 8640SOL    HW126819   3.733   2.891   1.133
 8640SOL    HW226820   3.726   2.982   0.997
 8641SOL     OW26821   4.195   5.611   3.046
 8641SOL    HW126822   4.283   5.657   3.033
 8641SOL    HW226823   4.199   5.518   3.010
 8642SOL     OW26824   1.189   6.519   3.636
 8642SOL    HW126825   1.215   6.422   3.640
 8642SOL    HW226826   1.262   6.571   3.590
 8643SOL     OW26827   2.619   0.270   0.418
 8643SOL    HW126828   2.547   0.221   0.369
 8643SOL    HW226829   2.690   0.205   0.445
 8644SOL     OW26830   6.010   2.137   6.609
 8644SOL    HW126831   5.914   2.163   6.616
 8644SOL    HW226832   6.018   2.048   6.563
 8645SOL     OW26833   5.512   4.583   1.335
 8645SOL    HW126834   5.589   4.548   1.282
 8645SOL    HW226835   5.433   4.524   1.322
 8646SOL     OW26836   0.078   2.292   5.798
 8646SOL    HW126837   7.013   2.336   5.804
 8646SOL    HW226838   0.100   2.249   5.886
 8647SOL     OW26839   2.888   5.552   1.035
 8647SOL    HW126840   2.968   5.513   1.080
 8647SOL    HW226841   2.875   5.507   0.946
 8648SOL     OW26842   5.567   6.616   1.344
 8648SOL    HW126843   5.474   6.581   1.329
 8648SOL    HW226844   5.600   6.660   1.261
 8649SOL     OW26845   4.353   6.272   0.128
 8649SOL    HW126846   4.295   6.307   0.055
 8649SOL    HW226847   4.442   6.246   0.091
 8650SOL     OW26848   1.805   0.188   4.043
 8650SOL    HW126849   1.736   0.121   4.069
 8650SOL    HW226850   1.864   0.149   3.972
 8651SOL     OW26851   2.977   1.422   0.954
 8651SOL    HW126852   3.063   1.388   0.915
 8651SOL    HW226853   2.920   1.344   0.980
 8652SOL     OW26854   0.766   4.977   4.186
 8652SOL    HW126855   0.706   5.049   4.152
 8652SOL    HW226856   0.859   4.993   4.154
 8653SOL     OW26857   6.889   1.651   6.434
 8653SOL    HW126858   6.795   1.619   6.443
 8653SOL    HW226859   6.952   1.574   6.442
 8654SOL     OW26860   0.882   4.659   2.024
 8654SOL    HW126861   0.906   4.690   2.116
 8654SOL    HW226862   0.960   4.675   1.962
 8655SOL     OW26863   6.668   1.507   5.180
 8655SOL    HW126864   6.637   1.592   5.137
 8655SOL    HW226865   6.618   1.494   5.266
 8656SOL     OW26866   5.745   6.999   1.946
 8656SOL    HW126867   5.703   6.940   2.014
 8656SOL    HW226868   5.773   6.944   1.867
 8657SOL     OW26869   5.564   6.876   1.115
 8657SOL    HW126870   5.507   6.902   1.193
 8657SOL    HW226871   5.535   6.928   1.034
 8658SOL     OW26872   6.076   5.332   1.511
 8658SOL    HW126873   6.019   5.329   1.593
 8658SOL    HW226874   6.145   5.260   1.516
 8659SOL     OW26875   4.688   2.576   2.714
 8659SOL    HW126876   4.692   2.581   2.614
 8659SOL    HW226877   4.671   2.481   2.742
 8660SOL     OW26878   0.411   2.500   1.683
 8660SOL    HW126879   0.436   2.578   1.626
 8660SOL    HW226880   0.427   2.415   1.633
 8661SOL     OW26881   6.173   3.232   3.381
 8661SOL    HW126882   6.136   3.142   3.360
 8661SOL    HW226883   6.245   3.223   3.450
 8662SOL     OW26884   3.503   6.063   2.458
 8662SOL    HW126885   3.485   5.967   2.479
 8662SOL    HW226886   3.535   6.071   2.363
 8663SOL     OW26887   3.222   5.300   3.024
 8663SOL    HW126888   3.194   5.326   2.931
 8663SOL    HW226889   3.321   5.291   3.028
 8664SOL     OW26890   2.056   5.846   2.697
 8664SOL    HW126891   2.117   5.877   2.624
 8664SOL    HW226892   2.035   5.922   2.757
 8665SOL     OW26893   6.010   4.749   5.859
 8665SOL    HW126894   6.078   4.822   5.855
 8665SOL    HW226895   5.983   4.723   5.766
 8666SOL     OW26896   5.300   0.417   4.076
 8666SOL    HW126897   5.366   0.488   4.053
 8666SOL    HW226898   5.240   0.449   4.149
 8667SOL     OW26899   5.194   1.474   4.477
 8667SOL    HW126900   5.285   1.475   4.519
 8667SOL    HW226901   5.196   1.526   4.391
 8668SOL     OW26902   5.123   3.079   4.355
 8668SOL    HW126903   5.158   3.139   4.427
 8668SOL    HW226904   5.028   3.102   4.335
 8669SOL     OW26905   6.785   6.146   6.326
 8669SOL    HW126906   6.702   6.156   6.380
 8669SOL    HW226907   6.846   6.080   6.370
 8670SOL     OW26908   5.238   4.670   6.035
 8670SOL    HW126909   5.332   4.668   6.069
 8670SOL    HW226910   5.175   4.648   6.110
 8671SOL     OW26911   0.252   2.002   2.265
 8671SOL    HW126912   0.204   2.064   2.203
 8671SOL    HW226913   0.281   2.053   2.347
 8672SOL     OW26914   0.095   0.575   3.666
 8672SOL    HW126915   0.013   0.632   3.673
 8672SOL    HW226916   0.104   0.540   3.573
 8673SOL     OW26917   0.449   1.515   0.460
 8673SOL    HW126918   0.372   1.532   0.521
 8673SOL    HW226919   0.460   1.592   0.397
 8674SOL     OW26920   0.376   4.517   3.415
 8674SOL    HW126921   0.299   4.456   3.434
 8674SOL    HW226922   0.396   4.572   3.496
 8675SOL     OW26923   3.508   1.344   5.918
 8675SOL    HW126924   3.528   1.415   5.851
 8675SOL    HW226925   3.462   1.268   5.873
 8676SOL     OW26926   5.801   1.004   1.533
 8676SOL    HW126927   5.857   1.028   1.454
 8676SOL    HW226928   5.706   1.028   1.516
 8677SOL     OW26929   1.799   6.279   5.598
 8677SOL    HW126930   1.830   6.207   5.660
 8677SOL    HW226931   1.700   6.274   5.586
 8678SOL     OW26932   0.844   0.126   0.472
 8678SOL    HW126933   0.771   0.060   0.493
 8678SOL    HW226934   0.809   0.194   0.407
 8679SOL     OW26935   2.292   1.273   3.993
 8679SOL    HW126936   2.193   1.285   3.979
 8679SOL    HW226937   2.336   1.259   3.904
 8680SOL     OW26938   6.275   2.841   6.100
 8680SOL    HW126939   6.355   2.782   6.087
 8680SOL    HW226940   6.198   2.803   6.050
 8681SOL     OW26941   5.030   6.049   1.294
 8681SOL    HW126942   5.038   6.035   1.196
 8681SOL    HW226943   4.941   6.016   1.326
 8682SOL     OW26944   6.980   0.336   0.991
 8682SOL    HW126945   6.985   0.397   1.070
 8682SOL    HW226946   6.970   0.241   1.022
 8683SOL     OW26947   1.795   3.450   4.996
 8683SOL    HW126948   1.775   3.362   5.038
 8683SOL    HW226949   1.851   3.437   4.915
 8684SOL     OW26950   0.528   3.640   4.732
 8684SOL    HW126951   0.621   3.672   4.714
 8684SOL    HW226952   0.466   3.718   4.732
 8685SOL     OW26953   5.671   2.108   5.836
 8685SOL    HW126954   5.661   2.158   5.922
 8685SOL    HW226955   5.594   2.047   5.823
 8686SOL     OW26956   6.417   6.881   2.833
 8686SOL    HW126957   6.384   6.787   2.835
 8686SOL    HW226958   6.488   6.889   2.763
 8687SOL     OW26959   6.159   3.541   3.186
 8687SOL    HW126960   6.186   3.585   3.101
 8687SOL    HW226961   6.215   3.459   3.201
 8688SOL     OW26962   1.564   3.905   6.427
 8688SOL    HW126963   1.586   3.808   6.441
 8688SOL    HW226964   1.468   3.914   6.404
 8689SOL     OW26965   4.462   3.075   0.610
 8689SOL    HW126966   4.561   3.079   0.602
 8689SOL    HW226967   4.420   3.137   0.542
 8690SOL     OW26968   1.126   2.187   2.503
 8690SOL    HW126969   1.148   2.284   2.512
 8690SOL    HW226970   1.204   2.139   2.463
 8691SOL     OW26971   3.063   1.798   4.876
 8691SOL    HW126972   3.046   1.871   4.810
 8691SOL    HW226973   3.161   1.777   4.879
 8692SOL     OW26974   4.208   1.890   5.827
 8692SOL    HW126975   4.296   1.883   5.780
 8692SOL    HW226976   4.148   1.953   5.777
 8693SOL     OW26977   6.615   1.029   6.661
 8693SOL    HW126978   6.538   1.018   6.724
 8693SOL    HW226979   6.701   1.022   6.712
 8694SOL     OW26980   6.375   2.910   4.373
 8694SOL    HW126981   6.330   2.959   4.447
 8694SOL    HW226982   6.306   2.871   4.311
 8695SOL     OW26983   4.003   3.593   6.519
 8695SOL    HW126984   3.998   3.689   6.547
 8695SOL    HW226985   4.098   3.567   6.506
 8696SOL     OW26986   2.754   6.080   5.617
 8696SOL    HW126987   2.654   6.087   5.616
 8696SOL    HW226988   2.790   6.112   5.529
 8697SOL     OW26989   1.844   4.085   5.704
 8697SOL    HW126990   1.787   4.139   5.765
 8697SOL    HW226991   1.846   3.990   5.735
 8698SOL     OW26992   4.949   5.938   6.342
 8698SOL    HW126993   4.890   6.019   6.341
 8698SOL    HW226994   4.907   5.865   6.289
 8699SOL     OW26995   2.607   2.994   6.126
 8699SOL    HW126996   2.592   2.897   6.108
 8699SOL    HW226997   2.629   3.007   6.223
 8700SOL     OW26998   1.254   0.309   5.336
 8700SOL    HW126999   1.316   0.283   5.262
 8700SOL    HW227000   1.289   0.391   5.382
 8701SOL     OW27001   1.231   1.762   0.146
 8701SOL    HW127002   1.157   1.819   0.110
 8701SOL    HW227003   1.199   1.713   0.227
 8702SOL     OW27004   5.150   4.670   1.614
 8702SOL    HW127005   5.093   4.651   1.695
 8702SOL    HW227006   5.112   4.623   1.535
 8703SOL     OW27007   2.769   4.512   0.187
 8703SOL    HW127008   2.740   4.553   0.274
 8703SOL    HW227009   2.690   4.502   0.127
 8704SOL     OW27010   0.396   2.514   4.131
 8704SOL    HW127011   0.483   2.466   4.140
 8704SOL    HW227012   0.351   2.518   4.221
 8705SOL     OW27013   4.596   2.514   6.841
 8705SOL    HW127014   4.660   2.552   6.908
 8705SOL    HW227015   4.644   2.448   6.783
 8706SOL     OW27016   5.434   2.922   0.146
 8706SOL    HW127017   5.425   3.014   0.109
 8706SOL    HW227018   5.526   2.887   0.126
 8707SOL     OW27019   1.229   1.773   4.576
 8707SOL    HW127020   1.194   1.867   4.570
 8707SOL    HW227021   1.174   1.713   4.517
 8708SOL     OW27022   4.843   2.270   3.789
 8708SOL    HW127023   4.809   2.347   3.844
 8708SOL    HW227024   4.785   2.260   3.708
 8709SOL     OW27025   6.927   0.274   0.082
 8709SOL    HW127026   6.944   0.176   0.071
 8709SOL    HW227027   6.828   0.290   0.084
 8710SOL     OW27028   2.064   1.669   4.015
 8710SOL    HW127029   2.158   1.663   4.050
 8710SOL    HW227030   2.055   1.750   3.957
 8711SOL     OW27031   0.945   1.303   1.950
 8711SOL    HW127032   0.955   1.393   1.993
 8711SOL    HW227033   0.946   1.313   1.850
 8712SOL     OW27034   2.389   2.411   5.328
 8712SOL    HW127035   2.453   2.334   5.330
 8712SOL    HW227036   2.371   2.441   5.421
 8713SOL     OW27037   1.083   4.281   2.297
 8713SOL    HW127038   1.051   4.346   2.367
 8713SOL    HW227039   1.118   4.199   2.342
 8714SOL     OW27040   0.063   6.129   0.447
 8714SOL    HW127041   0.144   6.148   0.391
 8714SOL    HW227042   0.008   6.059   0.402
 8715SOL     OW27043   2.466   1.652   0.321
 8715SOL    HW127044   2.462   1.582   0.250
 8715SOL    HW227045   2.376   1.695   0.332
 8716SOL     OW27046   0.169   6.460   1.534
 8716SOL    HW127047   0.207   6.499   1.618
 8716SOL    HW227048   0.225   6.488   1.456
 8717SOL     OW27049   2.529   3.925   6.487
 8717SOL    HW127050   2.440   3.922   6.441
 8717SOL    HW227051   2.599   3.890   6.425
 8718SOL     OW27052   1.561   3.662   6.240
 8718SOL    HW127053   1.514   3.582   6.276
 8718SOL    HW227054   1.585   3.647   6.144
 8719SOL     OW27055   3.742   1.125   6.719
 8719SOL    HW127056   3.705   1.059   6.653
 8719SOL    HW227057   3.786   1.075   6.794
 8720SOL     OW27058   6.210   4.720   4.942
 8720SOL    HW127059   6.294   4.774   4.951
 8720SOL    HW227060   6.233   4.623   4.944
 8721SOL     OW27061   0.186   6.021   6.818
 8721SOL    HW127062   0.223   6.099   6.869
 8721SOL    HW227063   0.150   6.053   6.731
 8722SOL     OW27064   3.410   0.384   0.858
 8722SOL    HW127065   3.325   0.371   0.807
 8722SOL    HW227066   3.403   0.465   0.916
 8723SOL     OW27067   5.443   0.232   2.391
 8723SOL    HW127068   5.487   0.319   2.413
 8723SOL    HW227069   5.441   0.220   2.291
 8724SOL     OW27070   4.122   0.203   4.198
 8724SOL    HW127071   4.104   0.260   4.118
 8724SOL    HW227072   4.095   0.253   4.281
 8725SOL     OW27073   0.255   6.428   4.484
 8725SOL    HW127074   0.344   6.392   4.457
 8725SOL    HW227075   0.242   6.519   4.445
 8726SOL     OW27076   0.035   1.316   0.303
 8726SOL    HW127077   0.124   1.279   0.330
 8726SOL    HW227078   0.006   1.274   0.217
 8727SOL     OW27079   6.081   6.285   6.754
 8727SOL    HW127080   6.062   6.219   6.681
 8727SOL    HW227081   6.109   6.373   6.713
 8728SOL     OW27082   5.457   1.038   3.029
 8728SOL    HW127083   5.531   1.043   3.096
 8728SOL    HW227084   5.416   0.947   3.030
 8729SOL     OW27085   3.670   5.348   5.883
 8729SOL    HW127086   3.765   5.353   5.852
 8729SOL    HW227087   3.645   5.252   5.895
 8730SOL     OW27088   5.442   4.210   3.304
 8730SOL    HW127089   5.470   4.167   3.390
 8730SOL    HW227090   5.508   4.282   3.280
 8731SOL     OW27091   0.326   2.085   3.188
 8731SOL    HW127092   0.340   1.987   3.175
 8731SOL    HW227093   0.265   2.100   3.266
 8732SOL     OW27094   5.438   4.875   1.323
 8732SOL    HW127095   5.398   4.826   1.246
 8732SOL    HW227096   5.423   4.974   1.310
 8733SOL     OW27097   0.887   5.386   0.807
 8733SOL    HW127098   0.866   5.391   0.710
 8733SOL    HW227099   0.984   5.408   0.822
 8734SOL     OW27100   6.766   3.688   2.483
 8734SOL    HW127101   6.710   3.734   2.414
 8734SOL    HW227102   6.847   3.650   2.439
 8735SOL     OW27103   1.925   3.609   5.645
 8735SOL    HW127104   1.978   3.693   5.634
 8735SOL    HW227105   1.828   3.630   5.636
 8736SOL     OW27106   0.598   5.757   2.143
 8736SOL    HW127107   0.608   5.848   2.103
 8736SOL    HW227108   0.677   5.738   2.202
 8737SOL     OW27109   2.170   5.462   6.465
 8737SOL    HW127110   2.220   5.376   6.454
 8737SOL    HW227111   2.098   5.468   6.396
 8738SOL     OW27112   0.884   3.234   3.881
 8738SOL    HW127113   0.980   3.211   3.863
 8738SOL    HW227114   0.852   3.297   3.810
 8739SOL     OW27115   5.299   4.139   5.319
 8739SOL    HW127116   5.326   4.043   5.315
 8739SOL    HW227117   5.335   4.181   5.403
 8740SOL     OW27118   4.013   2.237   3.308
 8740SOL    HW127119   3.990   2.162   3.369
 8740SOL    HW227120   4.104   2.272   3.330
 8741SOL     OW27121   2.075   0.017   2.317
 8741SOL    HW127122   2.043   0.007   2.411
 8741SOL    HW227123   2.104   0.112   2.301
 8742SOL     OW27124   3.666   0.400   2.730
 8742SOL    HW127125   3.696   0.363   2.818
 8742SOL    HW227126   3.580   0.450   2.742
 8743SOL     OW27127   1.383   0.776   1.809
 8743SOL    HW127128   1.303   0.834   1.793
 8743SOL    HW227129   1.382   0.701   1.743
 8744SOL     OW27130   4.541   3.199   6.544
 8744SOL    HW127131   4.514   3.110   6.506
 8744SOL    HW227132   4.513   3.203   6.640
 8745SOL     OW27133   6.377   1.951   6.647
 8745SOL    HW127134   6.376   1.880   6.577
 8745SOL    HW227135   6.378   2.041   6.604
 8746SOL     OW27136   5.109   5.009   3.930
 8746SOL    HW127137   5.012   5.019   3.906
 8746SOL    HW227138   5.118   4.994   4.028
 8747SOL     OW27139   6.367   1.076   2.065
 8747SOL    HW127140   6.304   1.009   2.103
 8747SOL    HW227141   6.461   1.047   2.083
 8748SOL     OW27142   0.748   1.737   4.148
 8748SOL    HW127143   0.778   1.708   4.239
 8748SOL    HW227144   0.809   1.809   4.115
 8749SOL     OW27145   2.472   1.145   5.360
 8749SOL    HW127146   2.461   1.102   5.271
 8749SOL    HW227147   2.418   1.095   5.428
 8750SOL     OW27148   4.344   2.622   5.786
 8750SOL    HW127149   4.367   2.596   5.693
 8750SOL    HW227150   4.264   2.570   5.817
 8751SOL     OW27151   0.060   6.947   1.065
 8751SOL    HW127152   0.103   6.880   1.125
 8751SOL    HW227153   0.076   6.923   0.969
 8752SOL     OW27154   4.984   2.842   0.103
 8752SOL    HW127155   5.066   2.867   0.153
 8752SOL    HW227156   4.966   2.744   0.114
 8753SOL     OW27157   1.498   3.295   0.192
 8753SOL    HW127158   1.504   3.224   0.262
 8753SOL    HW227159   1.574   3.359   0.203
 8754SOL     OW27160   2.696   4.759   6.281
 8754SOL    HW127161   2.775   4.703   6.306
 8754SOL    HW227162   2.726   4.851   6.257
 8755SOL     OW27163   0.728   1.322   1.444
 8755SOL    HW127164   0.802   1.348   1.382
 8755SOL    HW227165   0.700   1.401   1.499
 8756SOL     OW27166   2.203   2.970   3.740
 8756SOL    HW127167   2.215   3.069   3.753
 8756SOL    HW227168   2.210   2.924   3.828
 8757SOL     OW27169   5.117   6.162   5.089
 8757SOL    HW127170   5.186   6.119   5.146
 8757SOL    HW227171   5.074   6.237   5.139
 8758SOL     OW27172   3.703   0.024   3.231
 8758SOL    HW127173   3.679   0.087   3.305
 8758SOL    HW227174   3.759   6.974   3.266
 8759SOL     OW27175   6.491   0.831   6.814
 8759SOL    HW127176   6.554   0.753   6.818
 8759SOL    HW227177   6.411   0.806   6.760
 8760SOL     OW27178   1.644   1.833   3.787
 8760SOL    HW127179   1.608   1.741   3.799
 8760SOL    HW227180   1.585   1.898   3.836
 8761SOL     OW27181   5.336   1.360   1.824
 8761SOL    HW127182   5.257   1.299   1.811
 8761SOL    HW227183   5.420   1.309   1.806
 8762SOL     OW27184   1.696   5.405   4.208
 8762SOL    HW127185   1.635   5.392   4.286
 8762SOL    HW227186   1.721   5.501   4.202
 8763SOL     OW27187   6.785   0.472   5.304
 8763SOL    HW127188   6.707   0.427   5.260
 8763SOL    HW227189   6.759   0.564   5.333
 8764SOL     OW27190   4.087   5.230   5.891
 8764SOL    HW127191   4.173   5.252   5.938
 8764SOL    HW227192   4.027   5.180   5.953
 8765SOL     OW27193   5.472   0.634   5.094
 8765SOL    HW127194   5.523   0.621   5.009
 8765SOL    HW227195   5.381   0.593   5.084
 8766SOL     OW27196   4.577   4.232   6.125
 8766SOL    HW127197   4.629   4.147   6.114
 8766SOL    HW227198   4.621   4.289   6.195
 8767SOL     OW27199   3.036   0.407   3.528
 8767SOL    HW127200   3.065   0.312   3.542
 8767SOL    HW227201   2.974   0.434   3.601
 8768SOL     OW27202   6.963   2.218   6.759
 8768SOL    HW127203   6.886   2.280   6.744
 8768SOL    HW227204   6.978   2.208   6.858
 8769SOL     OW27205   6.177   1.027   1.648
 8769SOL    HW127206   6.249   0.982   1.701
 8769SOL    HW227207   6.089   1.012   1.693
 8770SOL     OW27208   5.517   3.837   1.927
 8770SOL    HW127209   5.494   3.793   2.013
 8770SOL    HW227210   5.466   3.794   1.853
 8771SOL     OW27211   0.497   3.834   6.688
 8771SOL    HW127212   0.540   3.856   6.601
 8771SOL    HW227213   0.400   3.814   6.673
 8772SOL     OW27214   5.930   0.468   4.554
 8772SOL    HW127215   5.974   0.456   4.465
 8772SOL    HW227216   5.852   0.530   4.544
 8773SOL     OW27217   6.560   2.265   4.192
 8773SOL    HW127218   6.545   2.325   4.113
 8773SOL    HW227219   6.543   2.170   4.165
 8774SOL     OW27220   1.282   6.826   6.967
 8774SOL    HW127221   1.374   6.864   6.969
 8774SOL    HW227222   1.239   6.838   0.032
 8775SOL     OW27223   5.524   2.126   4.604
 8775SOL    HW127224   5.434   2.161   4.630
 8775SOL    HW227225   5.512   2.044   4.548
 8776SOL     OW27226   4.640   2.985   0.959
 8776SOL    HW127227   4.632   3.034   1.046
 8776SOL    HW227228   4.676   3.046   0.889
 8777SOL     OW27229   1.252   3.460   2.871
 8777SOL    HW127230   1.236   3.371   2.828
 8777SOL    HW227231   1.171   3.486   2.924
 8778SOL     OW27232   4.120   4.305   5.541
 8778SOL    HW127233   4.178   4.250   5.482
 8778SOL    HW227234   4.050   4.247   5.582
 8779SOL     OW27235   3.008   5.171   2.702
 8779SOL    HW127236   3.034   5.074   2.707
 8779SOL    HW227237   2.933   5.188   2.766
 8780SOL     OW27238   0.203   5.885   2.319
 8780SOL    HW127239   0.116   5.934   2.317
 8780SOL    HW227240   0.196   5.806   2.380
 8781SOL     OW27241   4.323   6.915   2.530
 8781SOL    HW127242   4.377   6.854   2.588
 8781SOL    HW227243   4.363   6.917   2.438
 8782SOL     OW27244   5.365   0.784   1.957
 8782SOL    HW127245   5.326   0.816   2.044
 8782SOL    HW227246   5.297   0.797   1.885
 8783SOL     OW27247   5.337   3.343   4.329
 8783SOL    HW127248   5.324   3.411   4.401
 8783SOL    HW227249   5.435   3.322   4.321
 8784SOL     OW27250   6.265   6.415   0.791
 8784SOL    HW127251   6.217   6.440   0.707
 8784SOL    HW227252   6.354   6.377   0.768
 8785SOL     OW27253   0.224   5.663   6.144
 8785SOL    HW127254   0.184   5.738   6.091
 8785SOL    HW227255   0.313   5.639   6.106
 8786SOL     OW27256   4.378   2.188   1.970
 8786SOL    HW127257   4.375   2.136   1.884
 8786SOL    HW227258   4.286   2.215   1.996
 8787SOL     OW27259   3.478   0.307   1.644
 8787SOL    HW127260   3.387   0.334   1.673
 8787SOL    HW227261   3.509   0.229   1.699
 8788SOL     OW27262   0.344   0.164   5.385
 8788SOL    HW127263   0.439   0.147   5.408
 8788SOL    HW227264   0.324   0.128   5.294
 8789SOL     OW27265   0.246   4.028   5.499
 8789SOL    HW127266   0.250   4.117   5.544
 8789SOL    HW227267   0.158   4.018   5.453
 8790SOL     OW27268   6.125   2.379   0.098
 8790SOL    HW127269   6.075   2.299   0.066
 8790SOL    HW227270   6.170   2.358   0.185
 8791SOL     OW27271   4.737   6.214   5.298
 8791SOL    HW127272   4.698   6.258   5.217
 8791SOL    HW227273   4.750   6.282   5.370
 8792SOL     OW27274   4.301   4.901   1.376
 8792SOL    HW127275   4.236   4.833   1.411
 8792SOL    HW227276   4.317   4.884   1.279
 8793SOL     OW27277   1.143   5.458   3.994
 8793SOL    HW127278   1.089   5.519   3.936
 8793SOL    HW227279   1.239   5.459   3.963
 8794SOL     OW27280   6.251   0.985   2.822
 8794SOL    HW127281   6.347   0.960   2.810
 8794SOL    HW227282   6.246   1.078   2.860
 8795SOL     OW27283   1.393   5.182   5.359
 8795SOL    HW127284   1.492   5.166   5.350
 8795SOL    HW227285   1.348   5.098   5.389
 8796SOL     OW27286   6.363   3.538   3.532
 8796SOL    HW127287   6.393   3.560   3.439
 8796SOL    HW227288   6.310   3.614   3.569
 8797SOL     OW27289   6.850   6.955   3.145
 8797SOL    HW127290   6.859   6.856   3.134
 8797SOL    HW227291   6.755   6.979   3.163
 8798SOL     OW27292   4.519   6.733   4.996
 8798SOL    HW127293   4.424   6.719   5.024
 8798SOL    HW227294   4.521   6.762   4.900
 8799SOL     OW27295   2.207   5.267   2.042
 8799SOL    HW127296   2.118   5.313   2.038
 8799SOL    HW227297   2.266   5.302   1.970
 8800SOL     OW27298   6.755   6.306   5.634
 8800SOL    HW127299   6.698   6.235   5.676
 8800SOL    HW227300   6.789   6.273   5.546
 8801SOL     OW27301   6.395   2.041   5.031
 8801SOL    HW127302   6.468   2.089   5.080
 8801SOL    HW227303   6.347   1.980   5.095
 8802SOL     OW27304   1.446   5.810   5.969
 8802SOL    HW127305   1.354   5.780   5.995
 8802SOL    HW227306   1.451   5.910   5.975
 8803SOL     OW27307   6.226   0.717   6.919
 8803SOL    HW127308   6.213   0.753   6.826
 8803SOL    HW227309   6.308   0.756   6.959
 8804SOL     OW27310   1.790   6.061   0.875
 8804SOL    HW127311   1.741   6.146   0.854
 8804SOL    HW227312   1.724   5.987   0.888
 8805SOL     OW27313   4.538   5.641   3.202
 8805SOL    HW127314   4.596   5.566   3.234
 8805SOL    HW227315   4.528   5.709   3.275
 8806SOL     OW27316   2.519   6.186   0.358
 8806SOL    HW127317   2.500   6.284   0.363
 8806SOL    HW227318   2.512   6.146   0.450
 8807SOL     OW27319   4.754   2.523   0.573
 8807SOL    HW127320   4.777   2.456   0.644
 8807SOL    HW227321   4.697   2.479   0.504
 8808SOL     OW27322   1.975   2.807   0.357
 8808SOL    HW127323   1.959   2.824   0.454
 8808SOL    HW227324   1.918   2.731   0.326
 8809SOL     OW27325   2.077   4.045   3.584
 8809SOL    HW127326   2.126   3.973   3.634
 8809SOL    HW227327   2.004   4.004   3.530
 8810SOL     OW27328   6.770   1.383   5.618
 8810SOL    HW127329   6.857   1.343   5.648
 8810SOL    HW227330   6.706   1.384   5.695
 8811SOL     OW27331   4.581   7.019   2.798
 8811SOL    HW127332   4.510   0.056   2.763
 8811SOL    HW227333   4.670   0.023   2.763
 8812SOL     OW27334   3.507   0.793   6.284
 8812SOL    HW127335   3.409   0.795   6.262
 8812SOL    HW227336   3.560   0.796   6.199
 8813SOL     OW27337   2.088   4.287   2.756
 8813SOL    HW127338   2.169   4.273   2.699
 8813SOL    HW227339   2.097   4.372   2.807
 8814SOL     OW27340   5.570   6.939   0.206
 8814SOL    HW127341   5.568   0.015   0.200
 8814SOL    HW227342   5.665   6.907   0.200
 8815SOL     OW27343   5.448   0.969   0.773
 8815SOL    HW127344   5.450   0.869   0.763
 8815SOL    HW227345   5.431   1.012   0.684
 8816SOL     OW27346   0.096   6.152   6.041
 8816SOL    HW127347   0.157   6.211   6.094
 8816SOL    HW227348   0.068   6.074   6.096
 8817SOL     OW27349   1.304   3.383   5.054
 8817SOL    HW127350   1.381   3.404   4.994
 8817SOL    HW227351   1.220   3.423   5.017
 8818SOL     OW27352   1.769   6.460   3.905
 8818SOL    HW127353   1.740   6.548   3.866
 8818SOL    HW227354   1.740   6.386   3.844
 8819SOL     OW27355   5.624   4.301   5.975
 8819SOL    HW127356   5.658   4.374   5.915
 8819SOL    HW227357   5.667   4.214   5.949
 8820SOL     OW27358   3.699   1.235   5.206
 8820SOL    HW127359   3.742   1.157   5.161
 8820SOL    HW227360   3.719   1.318   5.155
 8821SOL     OW27361   1.210   4.740   1.098
 8821SOL    HW127362   1.233   4.801   1.174
 8821SOL    HW227363   1.276   4.665   1.094
 8822SOL     OW27364   6.602   6.971   4.262
 8822SOL    HW127365   6.542   6.893   4.281
 8822SOL    HW227366   6.555   0.011   4.202
 8823SOL     OW27367   2.778   1.335   3.285
 8823SOL    HW127368   2.808   1.374   3.198
 8823SOL    HW227369   2.706   1.268   3.269
 8824SOL     OW27370   1.543   0.399   0.682
 8824SOL    HW127371   1.511   0.491   0.707
 8824SOL    HW227372   1.466   0.336   0.682
 8825SOL     OW27373   0.164   0.349   0.851
 8825SOL    HW127374   0.223   0.407   0.906
 8825SOL    HW227375   0.077   0.335   0.898
 8826SOL     OW27376   0.882   3.737   0.856
 8826SOL    HW127377   0.958   3.671   0.862
 8826SOL    HW227378   0.796   3.691   0.879
 8827SOL     OW27379   3.947   0.301   2.445
 8827SOL    HW127380   3.913   0.212   2.415
 8827SOL    HW227381   4.004   0.289   2.526
 8828SOL     OW27382   4.500   3.628   6.184
 8828SOL    HW127383   4.446   3.601   6.104
 8828SOL    HW227384   4.484   3.564   6.259
 8829SOL     OW27385   0.309   1.474   2.322
 8829SOL    HW127386   0.229   1.415   2.334
 8829SOL    HW227387   0.283   1.569   2.335
 8830SOL     OW27388   2.680   1.647   3.074
 8830SOL    HW127389   2.694   1.708   2.996
 8830SOL    HW227390   2.730   1.562   3.059
 8831SOL     OW27391   0.215   2.082   2.728
 8831SOL    HW127392   0.204   2.075   2.629
 8831SOL    HW227393   0.215   2.179   2.755
 8832SOL     OW27394   6.488   0.181   3.783
 8832SOL    HW127395   6.515   0.089   3.756
 8832SOL    HW227396   6.569   0.235   3.804
 8833SOL     OW27397   4.131   2.131   0.960
 8833SOL    HW127398   4.072   2.211   0.975
 8833SOL    HW227399   4.108   2.060   1.026
 8834SOL     OW27400   5.718   3.654   5.644
 8834SOL    HW127401   5.621   3.649   5.623
 8834SOL    HW227402   5.747   3.749   5.646
 8835SOL     OW27403   5.562   0.535   5.746
 8835SOL    HW127404   5.587   0.599   5.674
 8835SOL    HW227405   5.637   0.530   5.813
 8836SOL     OW27406   5.358   2.499   6.824
 8836SOL    HW127407   5.393   2.593   6.817
 8836SOL    HW227408   5.411   2.448   6.891
 8837SOL     OW27409   0.152   6.692   1.926
 8837SOL    HW127410   0.235   6.656   1.968
 8837SOL    HW227411   0.079   6.696   1.993
 8838SOL     OW27412   0.390   4.073   2.817
 8838SOL    HW127413   0.298   4.090   2.782
 8838SOL    HW227414   0.435   4.005   2.759
 8839SOL     OW27415   5.524   5.588   2.455
 8839SOL    HW127416   5.575   5.670   2.429
 8839SOL    HW227417   5.508   5.588   2.554
 8840SOL     OW27418   0.377   0.685   1.566
 8840SOL    HW127419   0.342   0.624   1.637
 8840SOL    HW227420   0.407   0.631   1.488
 8841SOL     OW27421   3.976   0.765   1.926
 8841SOL    HW127422   4.009   0.735   2.015
 8841SOL    HW227423   4.055   0.780   1.865
 8842SOL     OW27424   3.715   3.831   4.043
 8842SOL    HW127425   3.779   3.904   4.068
 8842SOL    HW227426   3.752   3.743   4.073
 8843SOL     OW27427   2.174   3.340   5.625
 8843SOL    HW127428   2.213   3.348   5.717
 8843SOL    HW227429   2.093   3.399   5.619
 8844SOL     OW27430   6.027   1.757   5.086
 8844SOL    HW127431   5.937   1.790   5.059
 8844SOL    HW227432   6.052   1.795   5.175
 8845SOL     OW27433   1.983   5.516   1.302
 8845SOL    HW127434   1.954   5.522   1.207
 8845SOL    HW227435   2.064   5.458   1.309
 8846SOL     OW27436   5.133   4.166   3.957
 8846SOL    HW127437   5.108   4.255   3.920
 8846SOL    HW227438   5.168   4.108   3.884
 8847SOL     OW27439   1.875   2.198   2.983
 8847SOL    HW127440   1.912   2.189   2.891
 8847SOL    HW227441   1.803   2.130   2.997
 8848SOL     OW27442   3.223   1.920   1.417
 8848SOL    HW127443   3.233   2.017   1.395
 8848SOL    HW227444   3.131   1.890   1.391
 8849SOL     OW27445   3.082   5.586   4.474
 8849SOL    HW127446   3.057   5.647   4.399
 8849SOL    HW227447   3.035   5.498   4.462
 8850SOL     OW27448   2.608   1.726   0.635
 8850SOL    HW127449   2.617   1.784   0.554
 8850SOL    HW227450   2.659   1.641   0.622
 8851SOL     OW27451   1.164   4.248   3.163
 8851SOL    HW127452   1.208   4.269   3.251
 8851SOL    HW227453   1.113   4.328   3.132
 8852SOL     OW27454   5.484   2.817   6.106
 8852SOL    HW127455   5.459   2.741   6.166
 8852SOL    HW227456   5.426   2.896   6.125
 8853SOL     OW27457   3.799   1.756   5.447
 8853SOL    HW127458   3.798   1.797   5.538
 8853SOL    HW227459   3.788   1.827   5.378
 8854SOL     OW27460   1.569   0.845   5.971
 8854SOL    HW127461   1.596   0.750   5.955
 8854SOL    HW227462   1.564   0.863   6.069
 8855SOL     OW27463   5.806   5.752   6.672
 8855SOL    HW127464   5.870   5.737   6.748
 8855SOL    HW227465   5.846   5.817   6.608
 8856SOL     OW27466   6.736   0.671   4.483
 8856SOL    HW127467   6.806   0.736   4.511
 8856SOL    HW227468   6.697   0.627   4.563
 8857SOL     OW27469   6.737   1.967   3.412
 8857SOL    HW127470   6.709   1.871   3.417
 8857SOL    HW227471   6.755   1.992   3.317
 8858SOL     OW27472   0.844   4.036   5.901
 8858SOL    HW127473   0.861   3.980   5.820
 8858SOL    HW227474   0.885   3.991   5.981
 8859SOL     OW27475   0.746   6.629   5.316
 8859SOL    HW127476   0.651   6.661   5.321
 8859SOL    HW227477   0.755   6.544   5.368
 8860SOL     OW27478   1.201   2.820   2.488
 8860SOL    HW127479   1.111   2.840   2.450
 8860SOL    HW227480   1.252   2.905   2.497
 8861SOL     OW27481   3.171   2.867   0.070
 8861SOL    HW127482   3.203   2.880   7.000
 8861SOL    HW227483   3.160   2.956   0.114
 8862SOL     OW27484   5.724   1.664   4.871
 8862SOL    HW127485   5.768   1.738   4.922
 8862SOL    HW227486   5.747   1.576   4.914
 8863SOL     OW27487   1.656   5.462   4.783
 8863SOL    HW127488   1.637   5.370   4.818
 8863SOL    HW227489   1.733   5.502   4.833
 8864SOL     OW27490   2.281   3.479   6.683
 8864SOL    HW127491   2.197   3.496   6.631
 8864SOL    HW227492   2.358   3.518   6.634
 8865SOL     OW27493   2.688   1.525   4.786
 8865SOL    HW127494   2.694   1.621   4.813
 8865SOL    HW227495   2.616   1.514   4.718
 8866SOL     OW27496   3.875   6.278   3.353
 8866SOL    HW127497   3.874   6.203   3.419
 8866SOL    HW227498   3.855   6.364   3.400
 8867SOL     OW27499   5.929   2.451   2.414
 8867SOL    HW127500   6.013   2.449   2.360
 8867SOL    HW227501   5.860   2.391   2.371
 8868SOL     OW27502   5.005   3.835   0.408
 8868SOL    HW127503   5.010   3.851   0.310
 8868SOL    HW227504   5.079   3.884   0.454
 8869SOL     OW27505   5.046   4.146   3.116
 8869SOL    HW127506   4.992   4.194   3.186
 8869SOL    HW227507   5.113   4.208   3.077
 8870SOL     OW27508   3.813   1.095   1.007
 8870SOL    HW127509   3.849   1.006   0.980
 8870SOL    HW227510   3.858   1.167   0.953
 8871SOL     OW27511   1.734   1.459   3.944
 8871SOL    HW127512   1.654   1.495   3.897
 8871SOL    HW227513   1.719   1.458   4.043
 8872SOL     OW27514   1.946   4.439   3.957
 8872SOL    HW127515   1.915   4.403   4.046
 8872SOL    HW227516   2.032   4.488   3.969
 8873SOL     OW27517   0.388   6.135   3.202
 8873SOL    HW127518   0.442   6.057   3.170
 8873SOL    HW227519   0.297   6.132   3.160
 8874SOL     OW27520   1.838   6.727   1.096
 8874SOL    HW127521   1.758   6.786   1.103
 8874SOL    HW227522   1.920   6.777   1.122
 8875SOL     OW27523   1.352   2.543   4.841
 8875SOL    HW127524   1.352   2.577   4.747
 8875SOL    HW227525   1.372   2.618   4.903
 8876SOL     OW27526   6.954   0.831   4.618
 8876SOL    HW127527   0.002   0.815   4.685
 8876SOL    HW227528   6.993   0.835   4.526
 8877SOL     OW27529   3.044   0.775   3.989
 8877SOL    HW127530   2.969   0.710   3.987
 8877SOL    HW227531   3.077   0.784   4.083
 8878SOL     OW27532   7.004   4.895   0.790
 8878SOL    HW127533   6.954   4.829   0.733
 8878SOL    HW227534   7.020   4.978   0.738
 8879SOL     OW27535   4.829   5.669   0.474
 8879SOL    HW127536   4.731   5.679   0.457
 8879SOL    HW227537   4.873   5.629   0.393
 8880SOL     OW27538   0.040   5.308   4.605
 8880SOL    HW127539   0.092   5.389   4.575
 8880SOL    HW227540   0.104   5.240   4.640
 8881SOL     OW27541   6.202   0.933   3.132
 8881SOL    HW127542   6.223   1.019   3.087
 8881SOL    HW227543   6.286   0.892   3.168
 8882SOL     OW27544   5.265   0.922   6.483
 8882SOL    HW127545   5.304   0.937   6.392
 8882SOL    HW227546   5.279   1.004   6.539
 8883SOL     OW27547   0.471   1.273   6.070
 8883SOL    HW127548   0.403   1.200   6.082
 8883SOL    HW227549   0.439   1.337   6.000
 8884SOL     OW27550   5.962   6.316   6.283
 8884SOL    HW127551   5.968   6.371   6.200
 8884SOL    HW227552   5.971   6.376   6.363
 8885SOL     OW27553   6.536   3.845   1.375
 8885SOL    HW127554   6.623   3.892   1.394
 8885SOL    HW227555   6.470   3.911   1.341
 8886SOL     OW27556   2.627   6.320   5.480
 8886SOL    HW127557   2.597   6.251   5.415
 8886SOL    HW227558   2.550   6.381   5.500
 8887SOL     OW27559   2.853   1.155   0.979
 8887SOL    HW127560   2.766   1.125   0.940
 8887SOL    HW227561   2.928   1.112   0.929
 8888SOL     OW27562   0.984   2.340   1.278
 8888SOL    HW127563   1.058   2.277   1.301
 8888SOL    HW227564   0.981   2.353   1.179
 8889SOL     OW27565   5.614   6.786   4.900
 8889SOL    HW127566   5.520   6.753   4.897
 8889SOL    HW227567   5.623   6.855   4.973
 8890SOL     OW27568   6.517   6.183   4.392
 8890SOL    HW127569   6.576   6.119   4.441
 8890SOL    HW227570   6.529   6.170   4.293
 8891SOL     OW27571   5.973   3.042   6.756
 8891SOL    HW127572   6.006   3.105   6.825
 8891SOL    HW227573   6.042   3.030   6.685
 8892SOL     OW27574   2.739   6.856   2.901
 8892SOL    HW127575   2.795   6.782   2.864
 8892SOL    HW227576   2.644   6.845   2.871
 8893SOL     OW27577   0.287   1.104   1.925
 8893SOL    HW127578   0.338   1.098   2.011
 8893SOL    HW227579   0.325   1.040   1.859
 8894SOL     OW27580   4.425   3.060   6.126
 8894SOL    HW127581   4.372   2.977   6.109
 8894SOL    HW227582   4.367   3.126   6.173
 8895SOL     OW27583   0.684   6.996   1.806
 8895SOL    HW127584   0.731   0.055   1.777
 8895SOL    HW227585   0.598   6.988   1.757
 8896SOL     OW27586   1.497   3.413   5.407
 8896SOL    HW127587   1.412   3.361   5.398
 8896SOL    HW227588   1.477   3.510   5.396
 8897SOL     OW27589   1.730   0.938   2.323
 8897SOL    HW127590   1.742   1.030   2.285
 8897SOL    HW227591   1.770   0.871   2.261
 8898SOL     OW27592   6.514   3.296   4.553
 8898SOL    HW127593   6.503   3.264   4.647
 8898SOL    HW227594   6.545   3.391   4.554
 8899SOL     OW27595   2.064   4.418   6.871
 8899SOL    HW127596   2.030   4.347   6.933
 8899SOL    HW227597   2.163   4.409   6.862
 8900SOL     OW27598   5.183   2.971   3.341
 8900SOL    HW127599   5.185   2.964   3.440
 8900SOL    HW227600   5.271   3.007   3.308
 8901SOL     OW27601   1.702   0.698   2.902
 8901SOL    HW127602   1.683   0.612   2.854
 8901SOL    HW227603   1.754   0.678   2.985
 8902SOL     OW27604   2.833   5.646   6.601
 8902SOL    HW127605   2.819   5.693   6.514
 8902SOL    HW227606   2.788   5.698   6.674
 8903SOL     OW27607   2.418   1.550   4.037
 8903SOL    HW127608   2.360   1.497   3.976
 8903SOL    HW227609   2.491   1.493   4.072
 8904SOL     OW27610   6.851   5.467   3.667
 8904SOL    HW127611   6.851   5.528   3.746
 8904SOL    HW227612   6.848   5.522   3.583
 8905SOL     OW27613   2.118   3.309   5.188
 8905SOL    HW127614   2.133   3.406   5.210
 8905SOL    HW227615   2.145   3.253   5.267
 8906SOL     OW27616   6.762   6.500   6.977
 8906SOL    HW127617   6.808   6.417   6.944
 8906SOL    HW227618   6.791   6.518   0.047
 8907SOL     OW27619   3.308   2.639   5.277
 8907SOL    HW127620   3.279   2.554   5.233
 8907SOL    HW227621   3.247   2.660   5.353
 8908SOL     OW27622   1.577   2.495   0.468
 8908SOL    HW127623   1.616   2.435   0.538
 8908SOL    HW227624   1.528   2.440   0.401
 8909SOL     OW27625   3.043   0.121   5.649
 8909SOL    HW127626   3.046   0.102   5.551
 8909SOL    HW227627   2.990   0.050   5.696
 8910SOL     OW27628   2.729   3.508   5.848
 8910SOL    HW127629   2.799   3.484   5.916
 8910SOL    HW227630   2.643   3.528   5.895
 8911SOL     OW27631   3.000   2.227   4.181
 8911SOL    HW127632   3.097   2.205   4.171
 8911SOL    HW227633   2.986   2.277   4.267
 8912SOL     OW27634   4.323   1.623   6.273
 8912SOL    HW127635   4.239   1.615   6.325
 8912SOL    HW227636   4.319   1.705   6.215
 8913SOL     OW27637   5.480   3.978   1.522
 8913SOL    HW127638   5.487   4.053   1.587
 8913SOL    HW227639   5.384   3.964   1.497
 8914SOL     OW27640   4.541   1.490   4.978
 8914SOL    HW127641   4.480   1.432   5.032
 8914SOL    HW227642   4.565   1.572   5.031
 8915SOL     OW27643   1.850   3.087   3.926
 8915SOL    HW127644   1.869   3.149   4.002
 8915SOL    HW227645   1.906   3.113   3.848
 8916SOL     OW27646   0.505   4.037   2.071
 8916SOL    HW127647   0.490   4.052   2.169
 8916SOL    HW227648   0.436   3.975   2.035
 8917SOL     OW27649   6.221   5.431   6.672
 8917SOL    HW127650   6.236   5.333   6.656
 8917SOL    HW227651   6.150   5.443   6.742
 8918SOL     OW27652   5.950   6.429   0.234
 8918SOL    HW127653   6.045   6.442   0.261
 8918SOL    HW227654   5.928   6.331   0.236
 8919SOL     OW27655   3.675   3.549   0.665
 8919SOL    HW127656   3.679   3.583   0.571
 8919SOL    HW227657   3.760   3.572   0.713
 8920SOL     OW27658   6.454   5.877   6.171
 8920SOL    HW127659   6.540   5.848   6.128
 8920SOL    HW227660   6.444   5.976   6.163
 8921SOL     OW27661   1.417   1.133   3.358
 8921SOL    HW127662   1.466   1.058   3.403
 8921SOL    HW227663   1.408   1.113   3.260
 8922SOL     OW27664   2.731   4.811   1.113
 8922SOL    HW127665   2.798   4.767   1.053
 8922SOL    HW227666   2.774   4.835   1.200
 8923SOL     OW27667   1.667   3.671   6.637
 8923SOL    HW127668   1.674   3.595   6.572
 8923SOL    HW227669   1.759   3.701   6.662
 8924SOL     OW27670   2.668   5.248   5.844
 8924SOL    HW127671   2.632   5.196   5.922
 8924SOL    HW227672   2.767   5.237   5.839
 8925SOL     OW27673   0.829   0.188   2.149
 8925SOL    HW127674   0.859   0.263   2.208
 8925SOL    HW227675   0.903   0.162   2.088
 8926SOL     OW27676   5.754   2.481   1.719
 8926SOL    HW127677   5.745   2.569   1.671
 8926SOL    HW227678   5.687   2.416   1.682
 8927SOL     OW27679   2.516   2.550   4.862
 8927SOL    HW127680   2.515   2.569   4.960
 8927SOL    HW227681   2.586   2.482   4.842
 8928SOL     OW27682   0.173   0.800   5.479
 8928SOL    HW127683   0.190   0.800   5.578
 8928SOL    HW227684   0.247   0.751   5.433
 8929SOL     OW27685   0.186   3.697   3.683
 8929SOL    HW127686   0.105   3.731   3.729
 8929SOL    HW227687   0.263   3.694   3.747
 8930SOL     OW27688   1.613   5.003   5.317
 8930SOL    HW127689   1.622   4.981   5.414
 8930SOL    HW227690   1.602   4.919   5.264
 8931SOL     OW27691   4.532   2.448   1.134
 8931SOL    HW127692   4.578   2.527   1.172
 8931SOL    HW227693   4.493   2.393   1.208
 8932SOL     OW27694   5.516   6.623   6.218
 8932SOL    HW127695   5.424   6.660   6.227
 8932SOL    HW227696   5.560   6.663   6.138
 8933SOL     OW27697   1.262   0.874   5.359
 8933SOL    HW127698   1.209   0.866   5.275
 8933SOL    HW227699   1.359   0.884   5.336
 8934SOL     OW27700   3.201   5.348   2.753
 8934SOL    HW127701   3.139   5.427   2.754
 8934SOL    HW227702   3.157   5.271   2.707
 8935SOL     OW27703   4.997   3.281   2.344
 8935SOL    HW127704   4.979   3.286   2.246
 8935SOL    HW227705   4.972   3.367   2.388
 8936SOL     OW27706   0.576   3.907   1.074
 8936SOL    HW127707   0.646   3.947   1.134
 8936SOL    HW227708   0.520   3.843   1.126
 8937SOL     OW27709   0.524   0.272   4.283
 8937SOL    HW127710   0.500   0.296   4.189
 8937SOL    HW227711   0.461   0.318   4.346
 8938SOL     OW27712   5.782   0.886   0.303
 8938SOL    HW127713   5.809   0.962   0.364
 8938SOL    HW227714   5.863   0.852   0.255
 8939SOL     OW27715   6.587   2.922   4.837
 8939SOL    HW127716   6.655   2.996   4.840
 8939SOL    HW227717   6.574   2.894   4.742
 8940SOL     OW27718   6.415   3.089   0.348
 8940SOL    HW127719   6.453   3.032   0.421
 8940SOL    HW227720   6.469   3.077   0.265
 8941SOL     OW27721   5.331   2.085   2.065
 8941SOL    HW127722   5.323   2.184   2.065
 8941SOL    HW227723   5.246   2.044   2.032
 8942SOL     OW27724   6.815   5.254   3.806
 8942SOL    HW127725   6.911   5.230   3.793
 8942SOL    HW227726   6.785   5.317   3.734
 8943SOL     OW27727   4.479   3.676   0.016
 8943SOL    HW127728   4.561   3.662   6.984
 8943SOL    HW227729   4.507   3.691   0.111
 8944SOL     OW27730   4.661   5.128   4.387
 8944SOL    HW127731   4.636   5.043   4.342
 8944SOL    HW227732   4.759   5.127   4.407
 8945SOL     OW27733   5.967   3.481   5.194
 8945SOL    HW127734   6.065   3.459   5.193
 8945SOL    HW227735   5.940   3.508   5.286
 8946SOL     OW27736   4.848   0.765   4.101
 8946SOL    HW127737   4.749   0.765   4.085
 8946SOL    HW227738   4.878   0.857   4.122
 8947SOL     OW27739   1.259   4.866   6.693
 8947SOL    HW127740   1.204   4.808   6.632
 8947SOL    HW227741   1.340   4.897   6.644
 8948SOL     OW27742   6.210   7.003   4.076
 8948SOL    HW127743   6.126   0.025   4.106
 8948SOL    HW227744   6.222   6.919   4.128
 8949SOL     OW27745   3.669   6.012   0.258
 8949SOL    HW127746   3.618   6.085   0.303
 8949SOL    HW227747   3.610   5.967   0.191
 8950SOL     OW27748   4.534   3.782   1.300
 8950SOL    HW127749   4.610   3.846   1.303
 8950SOL    HW227750   4.479   3.799   1.218
 8951SOL     OW27751   2.266   1.303   4.297
 8951SOL    HW127752   2.280   1.226   4.360
 8951SOL    HW227753   2.277   1.271   4.203
 8952SOL     OW27754   2.246   4.883   3.361
 8952SOL    HW127755   2.192   4.946   3.305
 8952SOL    HW227756   2.207   4.878   3.453
 8953SOL     OW27757   2.522   5.198   2.243
 8953SOL    HW127758   2.442   5.138   2.240
 8953SOL    HW227759   2.496   5.287   2.278
 8954SOL     OW27760   1.177   5.672   4.177
 8954SOL    HW127761   1.157   5.595   4.116
 8954SOL    HW227762   1.136   5.755   4.139
 8955SOL     OW27763   6.275   3.063   2.815
 8955SOL    HW127764   6.255   3.078   2.718
 8955SOL    HW227765   6.290   2.965   2.831
 8956SOL     OW27766   0.795   6.706   6.579
 8956SOL    HW127767   0.860   6.650   6.527
 8956SOL    HW227768   0.740   6.761   6.516
 8957SOL     OW27769   1.275   5.769   2.099
 8957SOL    HW127770   1.321   5.690   2.140
 8957SOL    HW227771   1.340   5.820   2.042
 8958SOL     OW27772   1.556   3.670   5.601
 8958SOL    HW127773   1.591   3.689   5.509
 8958SOL    HW227774   1.456   3.665   5.597
 8959SOL     OW27775   0.696   3.320   1.971
 8959SOL    HW127776   0.709   3.378   2.052
 8959SOL    HW227777   0.782   3.275   1.948
 8960SOL     OW27778   6.667   3.601   4.299
 8960SOL    HW127779   6.619   3.677   4.255
 8960SOL    HW227780   6.632   3.514   4.264
 8961SOL     OW27781   2.716   6.446   4.400
 8961SOL    HW127782   2.734   6.355   4.437
 8961SOL    HW227783   2.663   6.438   4.316
 8962SOL     OW27784   1.206   5.691   1.315
 8962SOL    HW127785   1.304   5.709   1.312
 8962SOL    HW227786   1.188   5.597   1.286
 8963SOL     OW27787   3.560   5.904   4.250
 8963SOL    HW127788   3.499   5.839   4.293
 8963SOL    HW227789   3.513   5.951   4.175
 8964SOL     OW27790   6.231   3.909   3.504
 8964SOL    HW127791   6.230   4.009   3.504
 8964SOL    HW227792   6.139   3.875   3.522
 8965SOL     OW27793   4.379   4.920   0.524
 8965SOL    HW127794   4.303   4.984   0.529
 8965SOL    HW227795   4.345   4.827   0.540
 8966SOL     OW27796   5.059   5.093   6.093
 8966SOL    HW127797   5.082   5.016   6.033
 8966SOL    HW227798   5.132   5.105   6.161
 8967SOL     OW27799   3.469   0.790   2.646
 8967SOL    HW127800   3.464   0.719   2.717
 8967SOL    HW227801   3.515   0.753   2.565
 8968SOL     OW27802   2.703   4.815   1.542
 8968SOL    HW127803   2.760   4.740   1.576
 8968SOL    HW227804   2.609   4.803   1.574
 8969SOL     OW27805   6.581   0.527   3.275
 8969SOL    HW127806   6.658   0.527   3.339
 8969SOL    HW227807   6.534   0.438   3.280
 8970SOL     OW27808   1.260   1.476   6.205
 8970SOL    HW127809   1.289   1.441   6.295
 8970SOL    HW227810   1.269   1.403   6.137
 8971SOL     OW27811   4.416   5.957   0.935
 8971SOL    HW127812   4.382   5.879   0.988
 8971SOL    HW227813   4.352   5.977   0.860
 8972SOL     OW27814   5.721   5.241   0.309
 8972SOL    HW127815   5.714   5.315   0.375
 8972SOL    HW227816   5.736   5.154   0.357
 8973SOL     OW27817   1.194   2.165   1.998
 8973SOL    HW127818   1.122   2.153   2.067
 8973SOL    HW227819   1.282   2.139   2.037
 8974SOL     OW27820   2.170   4.212   4.432
 8974SOL    HW127821   2.260   4.247   4.460
 8974SOL    HW227822   2.115   4.192   4.512
 8975SOL     OW27823   0.581   0.321   6.532
 8975SOL    HW127824   0.542   0.374   6.608
 8975SOL    HW227825   0.675   0.350   6.517
 8976SOL     OW27826   6.393   7.006   1.585
 8976SOL    HW127827   6.372   6.914   1.552
 8976SOL    HW227828   6.403   0.043   1.507
 8977SOL     OW27829   0.013   5.058   6.216
 8977SOL    HW127830   0.086   5.107   6.264
 8977SOL    HW227831   7.019   5.102   6.128
 8978SOL     OW27832   5.925   6.026   5.504
 8978SOL    HW127833   6.015   6.058   5.532
 8978SOL    HW227834   5.897   5.948   5.560
 8979SOL     OW27835   0.698   5.777   6.324
 8979SOL    HW127836   0.711   5.863   6.275
 8979SOL    HW227837   0.600   5.758   6.334
 8980SOL     OW27838   4.031   1.752   5.036
 8980SOL    HW127839   3.934   1.773   5.026
 8980SOL    HW227840   4.046   1.654   5.022
 8981SOL     OW27841   4.445   2.283   6.335
 8981SOL    HW127842   4.429   2.201   6.280
 8981SOL    HW227843   4.444   2.260   6.432
 8982SOL     OW27844   6.366   0.925   1.807
 8982SOL    HW127845   6.422   0.848   1.839
 8982SOL    HW227846   6.355   0.991   1.881
 8983SOL     OW27847   1.100   5.010   2.629
 8983SOL    HW127848   1.019   5.057   2.596
 8983SOL    HW227849   1.164   4.996   2.554
 8984SOL     OW27850   6.218   0.618   4.510
 8984SOL    HW127851   6.230   0.519   4.516
 8984SOL    HW227852   6.126   0.643   4.540
 8985SOL     OW27853   4.598   1.712   0.615
 8985SOL    HW127854   4.598   1.779   0.541
 8985SOL    HW227855   4.535   1.742   0.687
 8986SOL     OW27856   6.386   4.397   1.951
 8986SOL    HW127857   6.427   4.386   2.042
 8986SOL    HW227858   6.408   4.488   1.916
 8987SOL     OW27859   2.385   7.010   1.064
 8987SOL    HW127860   2.350   6.981   1.152
 8987SOL    HW227861   2.439   0.069   1.074
 8988SOL     OW27862   2.455   5.397   0.829
 8988SOL    HW127863   2.360   5.416   0.853
 8988SOL    HW227864   2.489   5.470   0.769
 8989SOL     OW27865   5.168   2.518   2.707
 8989SOL    HW127866   5.227   2.440   2.723
 8989SOL    HW227867   5.078   2.501   2.749
 8990SOL     OW27868   3.702   6.202   1.131
 8990SOL    HW127869   3.641   6.265   1.083
 8990SOL    HW227870   3.748   6.143   1.066
 8991SOL     OW27871   2.256   2.393   0.846
 8991SOL    HW127872   2.206   2.428   0.766
 8991SOL    HW227873   2.314   2.317   0.819
 8992SOL     OW27874   0.627   2.887   0.006
 8992SOL    HW127875   0.652   2.984   7.019
 8992SOL    HW227876   0.539   2.870   6.986
 8993SOL     OW27877   5.157   2.041   3.521
 8993SOL    HW127878   5.128   2.023   3.616
 8993SOL    HW227879   5.201   1.959   3.485
 8994SOL     OW27880   1.400   5.474   3.929
 8994SOL    HW127881   1.432   5.480   3.834
 8994SOL    HW227882   1.435   5.553   3.981
 8995SOL     OW27883   1.745   3.272   5.420
 8995SOL    HW127884   1.661   3.322   5.399
 8995SOL    HW227885   1.777   3.299   5.511
 8996SOL     OW27886   0.612   3.809   1.807
 8996SOL    HW127887   0.619   3.840   1.711
 8996SOL    HW227888   0.520   3.828   1.841
 8997SOL     OW27889   4.617   1.171   6.123
 8997SOL    HW127890   4.708   1.204   6.149
 8997SOL    HW227891   4.548   1.215   6.180
 8998SOL     OW27892   1.268   3.065   5.410
 8998SOL    HW127893   1.265   3.165   5.412
 8998SOL    HW227894   1.363   3.035   5.397
 8999SOL     OW27895   5.007   1.746   6.017
 8999SOL    HW127896   4.935   1.687   5.980
 8999SOL    HW227897   4.995   1.838   5.981
 9000SOL     OW27898   3.172   3.744   0.290
 9000SOL    HW127899   3.193   3.803   0.212
 9000SOL    HW227900   3.254   3.697   0.320
 9001SOL     OW27901   2.082   4.947   3.709
 9001SOL    HW127902   2.153   4.881   3.686
 9001SOL    HW227903   2.080   5.019   3.639
 9002SOL     OW27904   5.889   4.739   5.610
 9002SOL    HW127905   5.893   4.765   5.514
 9002SOL    HW227906   5.798   4.759   5.647
 9003SOL     OW27907   6.176   2.771   0.302
 9003SOL    HW127908   6.269   2.778   0.338
 9003SOL    HW227909   6.115   2.829   0.355
 9004SOL     OW27910   4.927   6.670   1.244
 9004SOL    HW127911   4.840   6.718   1.256
 9004SOL    HW227912   4.931   6.592   1.307
 9005SOL     OW27913   4.637   2.233   3.295
 9005SOL    HW127914   4.703   2.227   3.220
 9005SOL    HW227915   4.595   2.143   3.309
 9006SOL     OW27916   1.473   4.838   0.985
 9006SOL    HW127917   1.533   4.761   1.007
 9006SOL    HW227918   1.388   4.805   0.946
 9007SOL     OW27919   2.996   5.484   3.944
 9007SOL    HW127920   3.061   5.556   3.921
 9007SOL    HW227921   2.907   5.525   3.966
 9008SOL     OW27922   0.199   4.079   2.116
 9008SOL    HW127923   0.166   4.077   2.211
 9008SOL    HW227924   0.251   4.163   2.101
 9009SOL     OW27925   2.441   6.656   0.636
 9009SOL    HW127926   2.427   6.605   0.552
 9009SOL    HW227927   2.377   6.623   0.706
 9010SOL     OW27928   0.590   6.341   4.815
 9010SOL    HW127929   0.634   6.296   4.893
 9010SOL    HW227930   0.598   6.282   4.734
 9011SOL     OW27931   3.979   1.897   1.164
 9011SOL    HW127932   3.963   1.799   1.164
 9011SOL    HW227933   3.917   1.942   1.100
 9012SOL     OW27934   0.952   4.783   1.266
 9012SOL    HW127935   0.956   4.865   1.324
 9012SOL    HW227936   1.044   4.743   1.259
 9013SOL     OW27937   6.215   6.472   4.406
 9013SOL    HW127938   6.287   6.468   4.475
 9013SOL    HW227939   6.159   6.553   4.420
 9014SOL     OW27940   1.038   0.947   0.735
 9014SOL    HW127941   0.979   0.932   0.814
 9014SOL    HW227942   1.027   0.871   0.670
 9015SOL     OW27943   7.013   1.271   5.715
 9015SOL    HW127944   0.022   1.358   5.678
 9015SOL    HW227945   0.010   1.197   5.652
 9016SOL     OW27946   6.494   6.100   5.862
 9016SOL    HW127947   6.513   6.177   5.924
 9016SOL    HW227948   6.580   6.068   5.822
 9017SOL     OW27949   5.804   2.225   3.780
 9017SOL    HW127950   5.832   2.208   3.874
 9017SOL    HW227951   5.865   2.177   3.718
 9018SOL     OW27952   3.420   1.258   5.166
 9018SOL    HW127953   3.517   1.242   5.185
 9018SOL    HW227954   3.401   1.239   5.070
 9019SOL     OW27955   2.962   6.083   0.543
 9019SOL    HW127956   2.880   6.096   0.599
 9019SOL    HW227957   3.033   6.147   0.572
 9020SOL     OW27958   1.904   4.717   2.921
 9020SOL    HW127959   1.872   4.812   2.923
 9020SOL    HW227960   1.998   4.713   2.955
 9021SOL     OW27961   6.918   6.063   4.262
 9021SOL    HW127962   6.926   5.985   4.324
 9021SOL    HW227963   6.845   6.045   4.196
 9022SOL     OW27964   2.633   0.634   0.197
 9022SOL    HW127965   2.575   0.571   0.146
 9022SOL    HW227966   2.660   0.710   0.138
 9023SOL     OW27967   3.562   3.602   3.405
 9023SOL    HW127968   3.603   3.564   3.322
 9023SOL    HW227969   3.599   3.555   3.485
 9024SOL     OW27970   1.623   6.219   5.971
 9024SOL    HW127971   1.713   6.221   5.927
 9024SOL    HW227972   1.635   6.206   6.070
 9025SOL     OW27973   6.028   5.102   1.914
 9025SOL    HW127974   6.111   5.128   1.962
 9025SOL    HW227975   6.037   5.009   1.878
 9026SOL     OW27976   3.531   2.940   4.206
 9026SOL    HW127977   3.458   2.885   4.167
 9026SOL    HW227978   3.546   2.912   4.301
 9027SOL     OW27979   2.203   1.862   3.034
 9027SOL    HW127980   2.122   1.804   3.046
 9027SOL    HW227981   2.285   1.808   3.047
 9028SOL     OW27982   2.349   4.431   6.005
 9028SOL    HW127983   2.442   4.467   6.014
 9028SOL    HW227984   2.349   4.333   6.024
 9029SOL     OW27985   4.818   5.329   3.822
 9029SOL    HW127986   4.731   5.335   3.871
 9029SOL    HW227987   4.894   5.330   3.887
 9030SOL     OW27988   2.219   0.903   2.384
 9030SOL    HW127989   2.176   0.965   2.450
 9030SOL    HW227990   2.318   0.913   2.388
 9031SOL     OW27991   2.500   6.105   5.908
 9031SOL    HW127992   2.532   6.162   5.984
 9031SOL    HW227993   2.562   6.115   5.830
 9032SOL     OW27994   2.701   2.282   1.824
 9032SOL    HW127995   2.644   2.225   1.882
 9032SOL    HW227996   2.763   2.336   1.881
 9033SOL     OW27997   1.792   3.814   4.271
 9033SOL    HW127998   1.837   3.761   4.343
 9033SOL    HW227999   1.843   3.899   4.256
 9034SOL     OW28000   2.536   6.403   5.107
 9034SOL    HW128001   2.595   6.479   5.081
 9034SOL    HW228002   2.494   6.364   5.025
 9035SOL     OW28003   6.832   0.187   4.574
 9035SOL    HW128004   6.921   0.142   4.570
 9035SOL    HW228005   6.816   0.236   4.488
 9036SOL     OW28006   1.799   2.315   5.530
 9036SOL    HW128007   1.888   2.358   5.544
 9036SOL    HW228008   1.727   2.384   5.529
 9037SOL     OW28009   2.260   3.859   6.371
 9037SOL    HW128010   2.243   3.786   6.305
 9037SOL    HW228011   2.234   3.947   6.331
 9038SOL     OW28012   5.393   0.364   5.361
 9038SOL    HW128013   5.355   0.351   5.453
 9038SOL    HW228014   5.322   0.401   5.301
 9039SOL     OW28015   2.334   4.685   5.365
 9039SOL    HW128016   2.421   4.727   5.341
 9039SOL    HW228017   2.304   4.626   5.290
 9040SOL     OW28018   2.865   1.508   2.650
 9040SOL    HW128019   2.786   1.511   2.588
 9040SOL    HW228020   2.890   1.600   2.678
 9041SOL     OW28021   1.025   2.361   1.776
 9041SOL    HW128022   0.933   2.323   1.767
 9041SOL    HW228023   1.070   2.320   1.855
 9042SOL     OW28024   2.966   5.399   2.999
 9042SOL    HW128025   2.932   5.448   3.080
 9042SOL    HW228026   3.045   5.344   3.025
 9043SOL     OW28027   0.942   2.611   5.942
 9043SOL    HW128028   0.940   2.658   6.030
 9043SOL    HW228029   0.965   2.515   5.955
 9044SOL     OW28030   5.819   0.247   0.677
 9044SOL    HW128031   5.807   0.181   0.752
 9044SOL    HW228032   5.737   0.303   0.667
 9045SOL     OW28033   3.721   0.522   3.181
 9045SOL    HW128034   3.722   0.549   3.277
 9045SOL    HW228035   3.814   0.523   3.145
 9046SOL     OW28036   3.240   4.230   5.570
 9046SOL    HW128037   3.176   4.154   5.579
 9046SOL    HW228038   3.261   4.246   5.474
 9047SOL     OW28039   1.611   4.113   4.189
 9047SOL    HW128040   1.600   4.053   4.269
 9047SOL    HW228041   1.649   4.060   4.114
 9048SOL     OW28042   1.817   3.877   5.357
 9048SOL    HW128043   1.737   3.836   5.313
 9048SOL    HW228044   1.813   3.976   5.349
 9049SOL     OW28045   5.323   5.976   6.032
 9049SOL    HW128046   5.231   5.966   6.069
 9049SOL    HW228047   5.378   6.033   6.093
 9050SOL     OW28048   0.089   5.288   0.042
 9050SOL    HW128049   0.127   5.379   0.028
 9050SOL    HW228050   0.158   5.219   0.020
 9051SOL     OW28051   4.825   6.514   0.498
 9051SOL    HW128052   4.796   6.514   0.402
 9051SOL    HW228053   4.771   6.448   0.549
 9052SOL     OW28054   2.708   4.668   4.453
 9052SOL    HW128055   2.736   4.620   4.536
 9052SOL    HW228056   2.643   4.611   4.402
 9053SOL     OW28057   1.913   3.201   3.690
 9053SOL    HW128058   1.962   3.182   3.605
 9053SOL    HW228059   1.919   3.298   3.712
 9054SOL     OW28060   1.712   0.564   1.314
 9054SOL    HW128061   1.754   0.506   1.384
 9054SOL    HW228062   1.730   0.660   1.335
 9055SOL     OW28063   0.806   3.081   4.267
 9055SOL    HW128064   0.752   3.000   4.291
 9055SOL    HW228065   0.745   3.158   4.251
 9056SOL     OW28066   5.109   0.141   1.814
 9056SOL    HW128067   5.113   0.204   1.891
 9056SOL    HW228068   5.018   0.098   1.811
 9057SOL     OW28069   5.979   5.411   6.864
 9057SOL    HW128070   6.011   5.387   6.956
 9057SOL    HW228071   5.889   5.452   6.870
 9058SOL     OW28072   2.116   2.651   4.942
 9058SOL    HW128073   2.091   2.748   4.943
 9058SOL    HW228074   2.114   2.615   5.035
 9059SOL     OW28075   6.660   0.944   3.574
 9059SOL    HW128076   6.732   0.970   3.510
 9059SOL    HW228077   6.657   1.011   3.649
 9060SOL     OW28078   6.481   3.399   2.327
 9060SOL    HW128079   6.518   3.478   2.278
 9060SOL    HW228080   6.424   3.431   2.404
 9061SOL     OW28081   4.671   6.037   3.256
 9061SOL    HW128082   4.686   6.122   3.306
 9061SOL    HW228083   4.609   5.978   3.308
 9062SOL     OW28084   1.417   4.494   2.807
 9062SOL    HW128085   1.328   4.509   2.852
 9062SOL    HW228086   1.411   4.412   2.750
 9063SOL     OW28087   3.134   1.660   2.666
 9063SOL    HW128088   3.136   1.674   2.765
 9063SOL    HW228089   3.104   1.743   2.620
 9064SOL     OW28090   0.058   4.308   3.851
 9064SOL    HW128091   0.122   4.258   3.794
 9064SOL    HW228092   7.012   4.351   3.794
 9065SOL     OW28093   2.835   6.075   5.190
 9065SOL    HW128094   2.843   6.006   5.262
 9065SOL    HW228095   2.818   6.031   5.102
 9066SOL     OW28096   6.541   6.213   6.459
 9066SOL    HW128097   6.518   6.125   6.500
 9066SOL    HW228098   6.585   6.271   6.528
 9067SOL     OW28099   6.998   6.778   4.418
 9067SOL    HW128100   6.961   6.699   4.369
 9067SOL    HW228101   6.923   6.839   4.444
 9068SOL     OW28102   5.304   0.260   5.585
 9068SOL    HW128103   5.211   0.277   5.554
 9068SOL    HW228104   5.318   0.162   5.598
 9069SOL     OW28105   4.663   2.606   2.203
 9069SOL    HW128106   4.672   2.676   2.132
 9069SOL    HW228107   4.738   2.615   2.269
 9070SOL     OW28108   1.556   1.907   6.608
 9070SOL    HW128109   1.619   1.873   6.538
 9070SOL    HW228110   1.583   1.869   6.697
 9071SOL     OW28111   4.305   1.498   5.867
 9071SOL    HW128112   4.219   1.493   5.816
 9071SOL    HW228113   4.323   1.409   5.910
 9072SOL     OW28114   5.434   6.836   1.667
 9072SOL    HW128115   5.413   6.914   1.608
 9072SOL    HW228116   5.531   6.814   1.660
 9073SOL     OW28117   4.530   6.922   0.255
 9073SOL    HW128118   4.588   6.865   0.314
 9073SOL    HW228119   4.530   6.885   0.162
 9074SOL     OW28120   1.369   0.288   1.004
 9074SOL    HW128121   1.422   0.209   0.975
 9074SOL    HW228122   1.432   0.361   1.034
 9075SOL     OW28123   6.728   0.881   2.260
 9075SOL    HW128124   6.745   0.840   2.170
 9075SOL    HW228125   6.726   0.980   2.252
 9076SOL     OW28126   4.640   1.678   2.985
 9076SOL    HW128127   4.684   1.592   2.960
 9076SOL    HW228128   4.670   1.750   2.923
 9077SOL     OW28129   5.016   1.034   5.947
 9077SOL    HW128130   4.960   1.111   5.919
 9077SOL    HW228131   5.045   0.983   5.866
 9078SOL     OW28132   5.166   5.128   6.540
 9078SOL    HW128133   5.178   5.094   6.634
 9078SOL    HW228134   5.075   5.166   6.529
 9079SOL     OW28135   1.599   0.641   5.040
 9079SOL    HW128136   1.692   0.612   5.062
 9079SOL    HW228137   1.545   0.647   5.123
 9080SOL     OW28138   6.074   3.415   0.242
 9080SOL    HW128139   6.067   3.445   0.337
 9080SOL    HW228140   6.099   3.318   0.240
 9081SOL     OW28141   4.104   1.644   1.463
 9081SOL    HW128142   4.161   1.658   1.543
 9081SOL    HW228143   4.015   1.607   1.491
 9082SOL     OW28144   2.886   6.816   5.447
 9082SOL    HW128145   2.814   6.805   5.516
 9082SOL    HW228146   2.965   6.760   5.472
 9083SOL     OW28147   4.663   4.761   6.019
 9083SOL    HW128148   4.638   4.678   5.970
 9083SOL    HW228149   4.617   4.839   5.978
 9084SOL     OW28150   0.270   2.545   5.310
 9084SOL    HW128151   0.341   2.595   5.261
 9084SOL    HW228152   0.206   2.609   5.352
 9085SOL     OW28153   3.046   5.171   0.409
 9085SOL    HW128154   3.123   5.188   0.349
 9085SOL    HW228155   3.080   5.148   0.501
 9086SOL     OW28156   6.009   4.421   1.007
 9086SOL    HW128157   6.032   4.371   1.090
 9086SOL    HW228158   6.012   4.358   0.929
 9087SOL     OW28159   5.648   3.107   2.985
 9087SOL    HW128160   5.632   3.057   3.070
 9087SOL    HW228161   5.686   3.197   3.005
 9088SOL     OW28162   6.083   0.362   1.995
 9088SOL    HW128163   6.179   0.338   1.982
 9088SOL    HW228164   6.026   0.286   1.965
 9089SOL     OW28165   4.195   5.319   4.079
 9089SOL    HW128166   4.289   5.350   4.088
 9089SOL    HW228167   4.141   5.389   4.033
 9090SOL     OW28168   4.970   6.448   4.683
 9090SOL    HW128169   5.014   6.496   4.758
 9090SOL    HW228170   5.039   6.399   4.629
 9091SOL     OW28171   3.422   2.268   0.430
 9091SOL    HW128172   3.518   2.291   0.444
 9091SOL    HW228173   3.396   2.287   0.336
 9092SOL     OW28174   1.562   0.594   5.840
 9092SOL    HW128175   1.530   0.508   5.878
 9092SOL    HW228176   1.492   0.633   5.780
 9093SOL     OW28177   1.670   6.503   6.808
 9093SOL    HW128178   1.708   6.512   6.900
 9093SOL    HW228179   1.675   6.407   6.779
 9094SOL     OW28180   0.183   6.187   1.994
 9094SOL    HW128181   0.169   6.088   1.981
 9094SOL    HW228182   0.129   6.218   2.073
 9095SOL     OW28183   5.703   3.413   6.588
 9095SOL    HW128184   5.604   3.429   6.580
 9095SOL    HW228185   5.726   3.395   6.683
 9096SOL     OW28186   5.325   3.546   2.467
 9096SOL    HW128187   5.309   3.458   2.511
 9096SOL    HW228188   5.385   3.533   2.387
 9097SOL     OW28189   0.796   3.746   0.257
 9097SOL    HW128190   0.762   3.835   0.226
 9097SOL    HW228191   0.871   3.717   0.197
 9098SOL     OW28192   4.110   3.365   1.126
 9098SOL    HW128193   4.058   3.445   1.097
 9098SOL    HW228194   4.052   3.284   1.119
 9099SOL     OW28195   3.434   3.473   0.798
 9099SOL    HW128196   3.511   3.526   0.833
 9099SOL    HW228197   3.408   3.403   0.865
 9100SOL     OW28198   1.016   2.498   2.124
 9100SOL    HW128199   0.940   2.482   2.060
 9100SOL    HW228200   0.992   2.461   2.214
 9101SOL     OW28201   2.122   3.199   2.549
 9101SOL    HW128202   2.118   3.255   2.466
 9101SOL    HW228203   2.095   3.106   2.527
 9102SOL     OW28204   3.731   6.043   1.995
 9102SOL    HW128205   3.812   6.089   2.031
 9102SOL    HW228206   3.705   5.968   2.056
 9103SOL     OW28207   0.180   3.470   0.497
 9103SOL    HW128208   0.105   3.409   0.523
 9103SOL    HW228209   0.238   3.425   0.430
 9104SOL     OW28210   4.393   6.324   1.960
 9104SOL    HW128211   4.437   6.376   2.032
 9104SOL    HW228212   4.414   6.226   1.970
 9105SOL     OW28213   1.983   0.525   0.222
 9105SOL    HW128214   1.964   0.605   0.280
 9105SOL    HW228215   1.902   0.502   0.169
 9106SOL     OW28216   6.199   3.799   0.474
 9106SOL    HW128217   6.184   3.735   0.399
 9106SOL    HW228218   6.295   3.827   0.474
 9107SOL     OW28219   4.404   6.679   6.432
 9107SOL    HW128220   4.360   6.616   6.369
 9107SOL    HW228221   4.458   6.745   6.379
 9108SOL     OW28222   4.901   4.373   5.059
 9108SOL    HW128223   4.947   4.366   5.148
 9108SOL    HW228224   4.928   4.297   5.002
 9109SOL     OW28225   1.759   2.460   2.850
 9109SOL    HW128226   1.817   2.390   2.893
 9109SOL    HW228227   1.811   2.508   2.779
 9110SOL     OW28228   2.474   4.473   4.070
 9110SOL    HW128229   2.451   4.517   3.983
 9110SOL    HW228230   2.436   4.381   4.072
 9111SOL     OW28231   4.270   3.408   0.656
 9111SOL    HW128232   4.282   3.343   0.731
 9111SOL    HW228233   4.273   3.359   0.569
 9112SOL     OW28234   0.470   4.345   4.489
 9112SOL    HW128235   0.380   4.363   4.529
 9112SOL    HW228236   0.535   4.321   4.561
 9113SOL     OW28237   4.616   0.460   0.421
 9113SOL    HW128238   4.619   0.365   0.390
 9113SOL    HW228239   4.637   0.521   0.344
 9114SOL     OW28240   1.471   5.153   2.710
 9114SOL    HW128241   1.531   5.088   2.662
 9114SOL    HW228242   1.525   5.205   2.776
 9115SOL     OW28243   0.355   5.906   5.195
 9115SOL    HW128244   0.330   5.828   5.138
 9115SOL    HW228245   0.455   5.907   5.207
 9116SOL     OW28246   6.535   1.827   0.520
 9116SOL    HW128247   6.491   1.821   0.431
 9116SOL    HW228248   6.465   1.835   0.591
 9117SOL     OW28249   5.999   2.741   6.857
 9117SOL    HW128250   6.048   2.824   6.884
 9117SOL    HW228251   6.063   2.665   6.852
 9118SOL     OW28252   5.679   6.118   0.670
 9118SOL    HW128253   5.697   6.190   0.602
 9118SOL    HW228254   5.727   6.035   0.643
 9119SOL     OW28255   5.398   1.401   2.622
 9119SOL    HW128256   5.400   1.492   2.581
 9119SOL    HW228257   5.488   1.381   2.662
 9120SOL     OW28258   5.460   3.043   5.600
 9120SOL    HW128259   5.424   3.042   5.507
 9120SOL    HW228260   5.501   2.955   5.621
 9121SOL     OW28261   0.765   2.898   6.312
 9121SOL    HW128262   0.753   2.982   6.259
 9121SOL    HW228263   0.679   2.875   6.357
 9122SOL     OW28264   1.819   2.514   1.762
 9122SOL    HW128265   1.814   2.418   1.732
 9122SOL    HW228266   1.804   2.574   1.683
 9123SOL     OW28267   3.535   0.546   4.245
 9123SOL    HW128268   3.592   0.573   4.322
 9123SOL    HW228269   3.483   0.464   4.268
 9124SOL     OW28270   5.923   6.638   5.374
 9124SOL    HW128271   5.983   6.698   5.427
 9124SOL    HW228272   5.851   6.692   5.331
 9125SOL     OW28273   4.831   3.920   3.381
 9125SOL    HW128274   4.840   3.842   3.319
 9125SOL    HW228275   4.776   3.991   3.338
 9126SOL     OW28276   5.783   1.535   2.029
 9126SOL    HW128277   5.684   1.529   2.023
 9126SOL    HW228278   5.820   1.570   1.943
 9127SOL     OW28279   6.270   0.746   6.371
 9127SOL    HW128280   6.255   0.711   6.278
 9127SOL    HW228281   6.354   0.799   6.373
 9128SOL     OW28282   3.349   2.219   5.339
 9128SOL    HW128283   3.292   2.266   5.271
 9128SOL    HW228284   3.312   2.128   5.357
 9129SOL     OW28285   1.894   2.898   1.229
 9129SOL    HW128286   1.889   2.975   1.165
 9129SOL    HW228287   1.990   2.880   1.251
 9130SOL     OW28288   0.029   3.233   0.488
 9130SOL    HW128289   0.017   3.200   0.395
 9130SOL    HW228290   6.975   3.205   0.544
 9131SOL     OW28291   0.056   4.158   5.756
 9131SOL    HW128292   0.121   4.124   5.824
 9131SOL    HW228293   6.989   4.161   5.797
 9132SOL     OW28294   0.457   4.830   4.400
 9132SOL    HW128295   0.409   4.851   4.315
 9132SOL    HW228296   0.538   4.774   4.379
 9133SOL     OW28297   3.082   5.505   1.225
 9133SOL    HW128298   3.177   5.479   1.243
 9133SOL    HW228299   3.022   5.461   1.291
 9134SOL     OW28300   3.418   6.408   0.812
 9134SOL    HW128301   3.502   6.417   0.757
 9134SOL    HW228302   3.364   6.492   0.805
 9135SOL     OW28303   6.647   6.298   2.041
 9135SOL    HW128304   6.590   6.378   2.062
 9135SOL    HW228305   6.611   6.252   1.960
 9136SOL     OW28306   4.741   5.255   5.107
 9136SOL    HW128307   4.826   5.270   5.056
 9136SOL    HW228308   4.758   5.195   5.185
 9137SOL     OW28309   4.787   1.773   1.281
 9137SOL    HW128310   4.824   1.842   1.343
 9137SOL    HW228311   4.857   1.703   1.263
 9138SOL     OW28312   6.167   4.869   5.574
 9138SOL    HW128313   6.177   4.894   5.670
 9138SOL    HW228314   6.112   4.785   5.567
 9139SOL     OW28315   2.166   1.460   4.737
 9139SOL    HW128316   2.171   1.548   4.690
 9139SOL    HW228317   2.178   1.387   4.670
 9140SOL     OW28318   6.194   3.289   2.942
 9140SOL    HW128319   6.228   3.295   3.036
 9140SOL    HW228320   6.234   3.208   2.898
 9141SOL     OW28321   5.457   0.215   6.560
 9141SOL    HW128322   5.527   0.235   6.629
 9141SOL    HW228323   5.383   0.163   6.602
 9142SOL     OW28324   0.744   2.379   0.504
 9142SOL    HW128325   0.760   2.461   0.448
 9142SOL    HW228326   0.652   2.384   0.543
 9143SOL     OW28327   5.091   3.663   1.106
 9143SOL    HW128328   5.172   3.686   1.161
 9143SOL    HW228329   5.120   3.633   1.016
 9144SOL     OW28330   2.121   5.459   5.554
 9144SOL    HW128331   2.160   5.369   5.533
 9144SOL    HW228332   2.193   5.528   5.552
 9145SOL     OW28333   6.613   5.295   0.358
 9145SOL    HW128334   6.701   5.329   0.388
 9145SOL    HW228335   6.624   5.244   0.272
 9146SOL     OW28336   5.151   2.179   2.424
 9146SOL    HW128337   5.061   2.169   2.464
 9146SOL    HW228338   5.150   2.253   2.356
 9147SOL     OW28339   5.734   6.889   4.043
 9147SOL    HW128340   5.744   6.819   4.114
 9147SOL    HW228341   5.714   6.977   4.085
 9148SOL     OW28342   5.169   6.684   0.790
 9148SOL    HW128343   5.255   6.659   0.834
 9148SOL    HW228344   5.101   6.708   0.859
 9149SOL     OW28345   5.353   3.159   3.749
 9149SOL    HW128346   5.312   3.243   3.713
 9149SOL    HW228347   5.437   3.181   3.797
 9150SOL     OW28348   3.421   5.063   3.637
 9150SOL    HW128349   3.349   5.113   3.589
 9150SOL    HW228350   3.395   5.050   3.732
 9151SOL     OW28351   1.705   4.318   3.509
 9151SOL    HW128352   1.740   4.353   3.596
 9151SOL    HW228353   1.720   4.386   3.437
 9152SOL     OW28354   2.489   4.848   5.013
 9152SOL    HW128355   2.389   4.848   5.011
 9152SOL    HW228356   2.523   4.768   4.965
 9153SOL     OW28357   1.049   3.133   1.081
 9153SOL    HW128358   1.084   3.119   1.173
 9153SOL    HW228359   1.123   3.163   1.021
 9154SOL     OW28360   4.489   5.153   6.540
 9154SOL    HW128361   4.428   5.074   6.548
 9154SOL    HW228362   4.446   5.233   6.581
 9155SOL     OW28363   0.946   2.866   0.937
 9155SOL    HW128364   1.028   2.852   0.883
 9155SOL    HW228365   0.962   2.936   1.006
 9156SOL     OW28366   2.111   2.540   0.012
 9156SOL    HW128367   2.193   2.482   0.008
 9156SOL    HW228368   2.085   2.566   6.944
 9157SOL     OW28369   6.184   4.550   6.506
 9157SOL    HW128370   6.113   4.532   6.574
 9157SOL    HW228371   6.150   4.526   6.415
 9158SOL     OW28372   5.793   3.334   4.608
 9158SOL    HW128373   5.834   3.272   4.674
 9158SOL    HW228374   5.697   3.349   4.631
 9159SOL     OW28375   1.518   0.147   3.132
 9159SOL    HW128376   1.554   0.056   3.153
 9159SOL    HW228377   1.430   0.138   3.084
 9160SOL     OW28378   6.413   0.224   4.818
 9160SOL    HW128379   6.366   0.144   4.779
 9160SOL    HW228380   6.511   0.217   4.797
 9161SOL     OW28381   4.784   4.206   4.555
 9161SOL    HW128382   4.795   4.293   4.508
 9161SOL    HW228383   4.871   4.178   4.595
 9162SOL     OW28384   4.609   1.384   4.059
 9162SOL    HW128385   4.634   1.447   4.133
 9162SOL    HW228386   4.610   1.290   4.094
 9163SOL     OW28387   2.169   3.354   4.762
 9163SOL    HW128388   2.257   3.395   4.785
 9163SOL    HW228389   2.147   3.282   4.828
 9164SOL     OW28390   2.432   0.493   6.840
 9164SOL    HW128391   2.517   0.501   6.787
 9164SOL    HW228392   2.454   0.463   6.933
 9165SOL     OW28393   6.091   1.731   5.381
 9165SOL    HW128394   6.068   1.733   5.479
 9165SOL    HW228395   6.141   1.647   5.361
 9166SOL     OW28396   4.594   6.064   0.727
 9166SOL    HW128397   4.562   6.007   0.804
 9166SOL    HW228398   4.677   6.112   0.754
 9167SOL     OW28399   1.764   2.601   6.502
 9167SOL    HW128400   1.768   2.675   6.435
 9167SOL    HW228401   1.857   2.567   6.520
 9168SOL     OW28402   0.729   0.591   6.918
 9168SOL    HW128403   0.709   0.686   6.896
 9168SOL    HW228404   0.795   0.587   6.993
 9169SOL     OW28405   5.990   1.469   5.423
 9169SOL    HW128406   6.084   1.463   5.391
 9169SOL    HW228407   5.980   1.421   5.510
 9170SOL     OW28408   1.491   5.067   0.480
 9170SOL    HW128409   1.450   5.095   0.393
 9170SOL    HW228410   1.576   5.018   0.463
 9171SOL     OW28411   3.588   4.763   0.664
 9171SOL    HW128412   3.647   4.754   0.584
 9171SOL    HW228413   3.629   4.828   0.729
 9172SOL     OW28414   3.443   0.676   4.580
 9172SOL    HW128415   3.501   0.605   4.620
 9172SOL    HW228416   3.382   0.712   4.651
 9173SOL     OW28417   6.298   4.086   4.951
 9173SOL    HW128418   6.297   4.022   4.874
 9173SOL    HW228419   6.377   4.146   4.943
 9174SOL     OW28420   5.798   4.443   1.494
 9174SOL    HW128421   5.773   4.538   1.509
 9174SOL    HW228422   5.897   4.436   1.480
 9175SOL     OW28423   0.428   6.958   3.968
 9175SOL    HW128424   0.366   7.017   3.916
 9175SOL    HW228425   0.417   6.974   4.066
 9176SOL     OW28426   3.064   1.113   5.174
 9176SOL    HW128427   3.078   1.149   5.081
 9176SOL    HW228428   2.990   1.047   5.173
 9177SOL     OW28429   0.980   5.020   5.036
 9177SOL    HW128430   0.958   5.072   4.954
 9177SOL    HW228431   1.055   5.064   5.085
 9178SOL     OW28432   2.328   5.358   0.188
 9178SOL    HW128433   2.273   5.284   0.229
 9178SOL    HW228434   2.407   5.377   0.246
 9179SOL     OW28435   2.649   5.483   4.426
 9179SOL    HW128436   2.742   5.465   4.456
 9179SOL    HW228437   2.621   5.416   4.358
 9180SOL     OW28438   5.829   2.530   2.643
 9180SOL    HW128439   5.865   2.510   2.551
 9180SOL    HW228440   5.870   2.467   2.709
 9181SOL     OW28441   3.888   2.165   4.279
 9181SOL    HW128442   3.911   2.118   4.364
 9181SOL    HW228443   3.970   2.179   4.224
 9182SOL     OW28444   2.298   6.338   2.174
 9182SOL    HW128445   2.276   6.420   2.123
 9182SOL    HW228446   2.216   6.303   2.219
 9183SOL     OW28447   5.124   5.966   0.325
 9183SOL    HW128448   5.157   5.889   0.271
 9183SOL    HW228449   5.149   6.052   0.279
 9184SOL     OW28450   5.018   2.147   0.685
 9184SOL    HW128451   4.954   2.108   0.751
 9184SOL    HW228452   5.016   2.247   0.691
 9185SOL     OW28453   4.274   6.407   4.536
 9185SOL    HW128454   4.193   6.349   4.525
 9185SOL    HW228455   4.349   6.352   4.574
 9186SOL     OW28456   5.711   0.094   4.228
 9186SOL    HW128457   5.727   0.080   4.326
 9186SOL    HW228458   5.659   0.178   4.214
 9187SOL     OW28459   2.602   1.436   1.293
 9187SOL    HW128460   2.651   1.459   1.209
 9187SOL    HW228461   2.566   1.343   1.286
 9188SOL     OW28462   1.638   6.571   1.910
 9188SOL    HW128463   1.676   6.659   1.881
 9188SOL    HW228464   1.622   6.514   1.830
 9189SOL     OW28465   4.715   6.299   1.386
 9189SOL    HW128466   4.801   6.336   1.420
 9189SOL    HW228467   4.733   6.218   1.330
 9190SOL     OW28468   2.323   4.422   6.865
 9190SOL    HW128469   2.343   4.376   6.778
 9190SOL    HW228470   2.402   4.414   6.925
 9191SOL     OW28471   6.445   1.843   5.551
 9191SOL    HW128472   6.431   1.773   5.620
 9191SOL    HW228473   6.424   1.806   5.461
 9192SOL     OW28474   0.549   3.663   6.428
 9192SOL    HW128475   0.470   3.689   6.483
 9192SOL    HW228476   0.589   3.579   6.464
 9193SOL     OW28477   4.976   4.230   0.071
 9193SOL    HW128478   5.003   4.220   0.167
 9193SOL    HW228479   4.935   4.145   0.039
 9194SOL     OW28480   3.080   0.076   3.530
 9194SOL    HW128481   3.105   7.007   3.505
 9194SOL    HW228482   2.983   0.091   3.510
 9195SOL     OW28483   1.447   1.574   4.120
 9195SOL    HW128484   1.432   1.491   4.173
 9195SOL    HW228485   1.419   1.559   4.025
 9196SOL     OW28486   4.352   6.584   3.382
 9196SOL    HW128487   4.275   6.633   3.422
 9196SOL    HW228488   4.319   6.500   3.338
 9197SOL     OW28489   1.736   4.993   2.165
 9197SOL    HW128490   1.695   5.050   2.236
 9197SOL    HW228491   1.691   5.010   2.077
 9198SOL     OW28492   6.582   5.117   6.599
 9198SOL    HW128493   6.506   5.124   6.535
 9198SOL    HW228494   6.669   5.120   6.548
 9199SOL     OW28495   1.164   4.080   5.906
 9199SOL    HW128496   1.116   4.033   5.980
 9199SOL    HW228497   1.127   4.049   5.818
 9200SOL     OW28498   2.331   6.930   0.467
 9200SOL    HW128499   2.425   6.947   0.496
 9200SOL    HW228500   2.289   7.016   0.439
 9201SOL     OW28501   0.773   2.677   0.826
 9201SOL    HW128502   0.676   2.675   0.848
 9201SOL    HW228503   0.815   2.758   0.869
 9202SOL     OW28504   1.374   6.687   2.507
 9202SOL    HW128505   1.436   6.673   2.429
 9202SOL    HW228506   1.335   6.600   2.534
 9203SOL     OW28507   0.933   4.495   6.709
 9203SOL    HW128508   0.938   4.395   6.713
 9203SOL    HW228509   0.839   4.525   6.723
 9204SOL     OW28510   5.006   3.224   6.209
 9204SOL    HW128511   4.928   3.273   6.247
 9204SOL    HW228512   5.005   3.130   6.241
 9205SOL     OW28513   6.776   4.664   3.111
 9205SOL    HW128514   6.776   4.630   3.017
 9205SOL    HW228515   6.683   4.656   3.148
 9206SOL     OW28516   4.268   5.388   2.261
 9206SOL    HW128517   4.217   5.357   2.341
 9206SOL    HW228518   4.237   5.339   2.180
 9207SOL     OW28519   5.056   4.289   6.367
 9207SOL    HW128520   5.084   4.327   6.279
 9207SOL    HW228521   5.132   4.239   6.408
 9208SOL     OW28522   6.214   4.109   3.886
 9208SOL    HW128523   6.244   4.205   3.882
 9208SOL    HW228524   6.168   4.092   3.973
 9209SOL     OW28525   3.411   0.307   6.641
 9209SOL    HW128526   3.398   0.401   6.673
 9209SOL    HW228527   3.449   0.309   6.548
 9210SOL     OW28528   0.350   1.121   2.977
 9210SOL    HW128529   0.282   1.125   2.903
 9210SOL    HW228530   0.307   1.146   3.063
 9211SOL     OW28531   0.152   2.282   5.280
 9211SOL    HW128532   0.111   2.292   5.189
 9211SOL    HW228533   0.184   2.371   5.312
 9212SOL     OW28534   4.922   5.191   4.231
 9212SOL    HW128535   4.919   5.112   4.171
 9212SOL    HW228536   4.925   5.161   4.326
 9213SOL     OW28537   5.248   3.544   5.876
 9213SOL    HW128538   5.336   3.498   5.867
 9213SOL    HW228539   5.262   3.638   5.905
 9214SOL     OW28540   0.074   3.934   6.929
 9214SOL    HW128541   7.016   3.974   6.890
 9214SOL    HW228542   0.056   3.840   6.958
 9215SOL     OW28543   0.751   2.279   1.437
 9215SOL    HW128544   0.770   2.182   1.454
 9215SOL    HW228545   0.835   2.325   1.405
 9216SOL     OW28546   3.044   0.494   2.092
 9216SOL    HW128547   3.044   0.453   2.001
 9216SOL    HW228548   3.001   0.431   2.157
 9217SOL     OW28549   0.556   2.094   0.136
 9217SOL    HW128550   0.463   2.057   0.136
 9217SOL    HW228551   0.572   2.146   0.220
 9218SOL     OW28552   2.411   6.607   0.257
 9218SOL    HW128553   2.448   6.700   0.247
 9218SOL    HW228554   2.311   6.610   0.247
 9219SOL     OW28555   6.809   2.552   1.544
 9219SOL    HW128556   6.851   2.464   1.567
 9219SOL    HW228557   6.867   2.600   1.478
 9220SOL     OW28558   1.640   6.302   0.899
 9220SOL    HW128559   1.635   6.273   0.803
 9220SOL    HW228560   1.548   6.320   0.933
 9221SOL     OW28561   3.241   0.800   3.519
 9221SOL    HW128562   3.306   0.856   3.570
 9221SOL    HW228563   3.156   0.851   3.507
 9222SOL     OW28564   1.836   0.447   6.543
 9222SOL    HW128565   1.857   0.370   6.483
 9222SOL    HW228566   1.868   0.532   6.501
 9223SOL     OW28567   0.744   0.959   4.364
 9223SOL    HW128568   0.752   0.925   4.271
 9223SOL    HW228569   0.769   0.886   4.428
 9224SOL     OW28570   1.846   4.869   4.855
 9224SOL    HW128571   1.776   4.843   4.788
 9224SOL    HW228572   1.811   4.943   4.912
 9225SOL     OW28573   3.275   6.525   5.894
 9225SOL    HW128574   3.267   6.440   5.843
 9225SOL    HW228575   3.255   6.509   5.991
 9226SOL     OW28576   6.166   6.840   1.152
 9226SOL    HW128577   6.108   6.779   1.206
 9226SOL    HW228578   6.226   6.786   1.093
 9227SOL     OW28579   1.155   5.067   0.730
 9227SOL    HW128580   1.129   5.015   0.812
 9227SOL    HW228581   1.242   5.113   0.747
 9228SOL     OW28582   1.482   1.151   5.791
 9228SOL    HW128583   1.396   1.100   5.781
 9228SOL    HW228584   1.469   1.222   5.861
 9229SOL     OW28585   0.569   5.427   4.656
 9229SOL    HW128586   0.638   5.499   4.666
 9229SOL    HW228587   0.610   5.338   4.676
 9230SOL     OW28588   4.787   1.422   2.909
 9230SOL    HW128589   4.872   1.474   2.913
 9230SOL    HW228590   4.801   1.332   2.949
 9231SOL     OW28591   0.822   4.418   4.598
 9231SOL    HW128592   0.830   4.473   4.681
 9231SOL    HW228593   0.893   4.447   4.533
 9232SOL     OW28594   4.038   5.521   0.392
 9232SOL    HW128595   4.082   5.476   0.314
 9232SOL    HW228596   3.975   5.590   0.359
 9233SOL     OW28597   5.413   5.241   2.229
 9233SOL    HW128598   5.397   5.324   2.175
 9233SOL    HW228599   5.475   5.263   2.305
 9234SOL     OW28600   3.893   5.310   5.742
 9234SOL    HW128601   3.980   5.301   5.790
 9234SOL    HW228602   3.910   5.342   5.648
 9235SOL     OW28603   1.601   2.976   3.263
 9235SOL    HW128604   1.528   3.001   3.326
 9235SOL    HW228605   1.602   3.041   3.186
 9236SOL     OW28606   2.813   4.086   5.416
 9236SOL    HW128607   2.773   4.007   5.368
 9236SOL    HW228608   2.741   4.132   5.469
 9237SOL     OW28609   2.100   5.328   4.997
 9237SOL    HW128610   2.154   5.392   4.942
 9237SOL    HW228611   2.058   5.378   5.073
 9238SOL     OW28612   3.864   1.758   6.678
 9238SOL    HW128613   3.825   1.683   6.732
 9238SOL    HW228614   3.888   1.724   6.587
 9239SOL     OW28615   0.074   4.443   0.717
 9239SOL    HW128616   0.160   4.393   0.704
 9239SOL    HW228617   0.000   4.395   0.670
 9240SOL     OW28618   4.605   1.715   1.079
 9240SOL    HW128619   4.616   1.616   1.080
 9240SOL    HW228620   4.655   1.755   1.157
 9241SOL     OW28621   0.504   5.317   5.761
 9241SOL    HW128622   0.585   5.373   5.743
 9241SOL    HW228623   0.533   5.229   5.799
 9242SOL     OW28624   0.090   5.498   0.675
 9242SOL    HW128625   0.149   5.578   0.683
 9242SOL    HW228626   0.049   5.497   0.584
 9243SOL     OW28627   6.111   7.007   2.102
 9243SOL    HW128628   6.096   0.033   2.017
 9243SOL    HW228629   6.028   6.959   2.128
 9244SOL     OW28630   4.713   4.935   6.236
 9244SOL    HW128631   4.663   4.877   6.301
 9244SOL    HW228632   4.699   4.900   6.144
 9245SOL     OW28633   1.578   5.113   3.484
 9245SOL    HW128634   1.566   5.014   3.476
 9245SOL    HW228635   1.615   5.136   3.574
 9246SOL     OW28636   0.215   4.184   3.022
 9246SOL    HW128637   0.301   4.148   2.986
 9246SOL    HW228638   0.184   4.125   3.097
 9247SOL     OW28639   1.129   0.208   3.122
 9247SOL    HW128640   1.172   0.175   3.038
 9247SOL    HW228641   1.126   0.134   3.189
 9248SOL     OW28642   1.603   2.495   5.414
 9248SOL    HW128643   1.540   2.481   5.338
 9248SOL    HW228644   1.589   2.587   5.452
 9249SOL     OW28645   4.998   3.572   6.904
 9249SOL    HW128646   5.019   3.583   7.001
 9249SOL    HW228647   4.973   3.477   6.885
 9250SOL     OW28648   5.203   3.211   4.591
 9250SOL    HW128649   5.124   3.196   4.651
 9250SOL    HW228650   5.258   3.286   4.627
 9251SOL     OW28651   4.295   2.307   3.346
 9251SOL    HW128652   4.358   2.354   3.285
 9251SOL    HW228653   4.333   2.218   3.371
 9252SOL     OW28654   5.740   0.590   4.185
 9252SOL    HW128655   5.783   0.654   4.122
 9252SOL    HW228656   5.776   0.604   4.277
 9253SOL     OW28657   5.806   6.516   5.595
 9253SOL    HW128658   5.743   6.439   5.594
 9253SOL    HW228659   5.824   6.545   5.501
 9254SOL     OW28660   6.244   4.076   2.965
 9254SOL    HW128661   6.182   4.083   3.044
 9254SOL    HW228662   6.276   4.167   2.940
 9255SOL     OW28663   5.095   4.204   0.324
 9255SOL    HW128664   5.147   4.279   0.365
 9255SOL    HW228665   5.146   4.119   0.335
 9256SOL     OW28666   3.812   6.260   2.507
 9256SOL    HW128667   3.809   6.233   2.411
 9256SOL    HW228668   3.904   6.248   2.543
 9257SOL     OW28669   0.626   3.428   3.124
 9257SOL    HW128670   0.675   3.341   3.114
 9257SOL    HW228671   0.558   3.435   3.051
 9258SOL     OW28672   3.061   3.207   3.494
 9258SOL    HW128673   3.147   3.237   3.452
 9258SOL    HW228674   3.061   3.233   3.591
 9259SOL     OW28675   1.309   2.105   0.643
 9259SOL    HW128676   1.307   2.050   0.559
 9259SOL    HW228677   1.255   2.188   0.629
 9260SOL     OW28678   4.959   1.723   5.518
 9260SOL    HW128679   5.005   1.752   5.434
 9260SOL    HW228680   4.997   1.774   5.595
 9261SOL     OW28681   4.230   0.336   6.858
 9261SOL    HW128682   4.246   0.258   6.918
 9261SOL    HW228683   4.132   0.357   6.856
 9262SOL     OW28684   6.398   3.356   5.570
 9262SOL    HW128685   6.303   3.326   5.578
 9262SOL    HW228686   6.419   3.378   5.475
 9263SOL     OW28687   5.718   5.003   1.821
 9263SOL    HW128688   5.774   4.967   1.895
 9263SOL    HW228689   5.644   4.938   1.801
 9264SOL     OW28690   5.441   4.164   0.221
 9264SOL    HW128691   5.374   4.158   0.147
 9264SOL    HW228692   5.525   4.206   0.186
 9265SOL     OW28693   3.102   1.757   6.773
 9265SOL    HW128694   3.011   1.799   6.782
 9265SOL    HW228695   3.104   1.699   6.692
 9266SOL     OW28696   1.888   6.147   2.017
 9266SOL    HW128697   1.830   6.101   1.950
 9266SOL    HW228698   1.983   6.142   1.988
 9267SOL     OW28699   0.277   4.153   6.178
 9267SOL    HW128700   0.363   4.199   6.159
 9267SOL    HW228701   0.295   4.064   6.221
 9268SOL     OW28702   1.822   4.955   1.377
 9268SOL    HW128703   1.855   4.927   1.287
 9268SOL    HW228704   1.730   4.993   1.369
 9269SOL     OW28705   3.339   2.295   6.017
 9269SOL    HW128706   3.426   2.342   6.002
 9269SOL    HW228707   3.321   2.234   5.940
 9270SOL     OW28708   4.887   0.221   5.801
 9270SOL    HW128709   4.866   0.226   5.899
 9270SOL    HW228710   4.837   0.294   5.753
 9271SOL     OW28711   2.333   5.656   6.538
 9271SOL    HW128712   2.261   5.590   6.518
 9271SOL    HW228713   2.295   5.748   6.544
 9272SOL     OW28714   2.104   5.839   5.801
 9272SOL    HW128715   2.053   5.753   5.798
 9272SOL    HW228716   2.099   5.884   5.712
 9273SOL     OW28717   5.412   5.996   4.074
 9273SOL    HW128718   5.421   5.990   3.975
 9273SOL    HW228719   5.493   5.958   4.118
 9274SOL     OW28720   6.701   2.504   0.268
 9274SOL    HW128721   6.730   2.515   0.363
 9274SOL    HW228722   6.602   2.490   0.266
 9275SOL     OW28723   6.588   2.084   0.242
 9275SOL    HW128724   6.635   2.007   0.200
 9275SOL    HW228725   6.583   2.069   0.341
 9276SOL     OW28726   2.668   4.846   3.335
 9276SOL    HW128727   2.687   4.808   3.426
 9276SOL    HW228728   2.684   4.776   3.266
 9277SOL     OW28729   5.454   3.552   0.438
 9277SOL    HW128730   5.549   3.581   0.448
 9277SOL    HW228731   5.427   3.499   0.518
 9278SOL     OW28732   1.229   0.761   4.514
 9278SOL    HW128733   1.319   0.793   4.545
 9278SOL    HW228734   1.239   0.671   4.472
 9279SOL     OW28735   4.518   1.030   2.098
 9279SOL    HW128736   4.440   1.040   2.160
 9279SOL    HW228737   4.603   1.042   2.148
 9280SOL     OW28738   1.683   1.191   3.071
 9280SOL    HW128739   1.759   1.232   3.123
 9280SOL    HW228740   1.675   1.094   3.095
 9281SOL     OW28741   3.282   4.351   1.203
 9281SOL    HW128742   3.245   4.426   1.148
 9281SOL    HW228743   3.353   4.304   1.150
 9282SOL     OW28744   4.776   1.571   4.844
 9282SOL    HW128745   4.835   1.511   4.789
 9282SOL    HW228746   4.688   1.527   4.859
 9283SOL     OW28747   5.470   0.635   4.023
 9283SOL    HW128748   5.522   0.702   3.970
 9283SOL    HW228749   5.519   0.614   4.107
 9284SOL     OW28750   3.309   4.758   5.758
 9284SOL    HW128751   3.211   4.738   5.759
 9284SOL    HW228752   3.356   4.694   5.698
 9285SOL     OW28753   5.567   3.155   1.046
 9285SOL    HW128754   5.490   3.196   0.996
 9285SOL    HW228755   5.567   3.190   1.140
 9286SOL     OW28756   5.341   6.930   6.283
 9286SOL    HW128757   5.302   6.840   6.301
 9286SOL    HW228758   5.275   6.986   6.233
 9287SOL     OW28759   3.520   5.505   0.676
 9287SOL    HW128760   3.607   5.456   0.669
 9287SOL    HW228761   3.473   5.478   0.759
 9288SOL     OW28762   3.956   0.947   4.954
 9288SOL    HW128763   3.931   1.011   4.881
 9288SOL    HW228764   3.894   0.959   5.032
 9289SOL     OW28765   3.301   1.897   2.702
 9289SOL    HW128766   3.364   1.828   2.737
 9289SOL    HW228767   3.292   1.886   2.603
 9290SOL     OW28768   4.546   1.899   3.531
 9290SOL    HW128769   4.642   1.899   3.557
 9290SOL    HW228770   4.519   1.807   3.503
 9291SOL     OW28771   2.304   6.929   4.917
 9291SOL    HW128772   2.323   6.839   4.958
 9291SOL    HW228773   2.207   6.938   4.898
 9292SOL     OW28774   0.166   2.918   6.606
 9292SOL    HW128775   0.243   2.973   6.572
 9292SOL    HW228776   0.110   2.890   6.528
 9293SOL     OW28777   5.689   3.815   0.241
 9293SOL    HW128778   5.715   3.808   0.144
 9293SOL    HW228779   5.703   3.727   0.285
 9294SOL     OW28780   3.509   6.493   5.094
 9294SOL    HW128781   3.454   6.440   5.029
 9294SOL    HW228782   3.479   6.588   5.094
 9295SOL     OW28783   5.089   2.458   4.385
 9295SOL    HW128784   5.000   2.436   4.344
 9295SOL    HW228785   5.081   2.454   4.485
 9296SOL     OW28786   0.294   6.677   6.129
 9296SOL    HW128787   0.256   6.619   6.057
 9296SOL    HW228788   0.282   6.773   6.103
 9297SOL     OW28789   6.328   1.355   0.471
 9297SOL    HW128790   6.274   1.275   0.497
 9297SOL    HW228791   6.346   1.411   0.552
 9298SOL     OW28792   1.482   0.835   4.550
 9298SOL    HW128793   1.500   0.737   4.545
 9298SOL    HW228794   1.535   0.883   4.479
 9299SOL     OW28795   0.719   2.626   4.487
 9299SOL    HW128796   0.708   2.530   4.510
 9299SOL    HW228797   0.815   2.645   4.465
 9300SOL     OW28798   0.243   4.173   4.905
 9300SOL    HW128799   0.191   4.258   4.919
 9300SOL    HW228800   0.181   4.102   4.870
 9301SOL     OW28801   4.858   4.292   3.734
 9301SOL    HW128802   4.874   4.200   3.699
 9301SOL    HW228803   4.945   4.332   3.764
 9302SOL     OW28804   2.100   3.391   4.490
 9302SOL    HW128805   2.127   3.315   4.431
 9302SOL    HW228806   2.103   3.362   4.586
 9303SOL     OW28807   4.162   5.872   0.448
 9303SOL    HW128808   4.084   5.885   0.387
 9303SOL    HW228809   4.210   5.959   0.460
 9304SOL     OW28810   4.703   4.049   1.303
 9304SOL    HW128811   4.702   4.062   1.403
 9304SOL    HW228812   4.771   4.110   1.263
 9305SOL     OW28813   3.247   1.290   2.307
 9305SOL    HW128814   3.341   1.259   2.320
 9305SOL    HW228815   3.211   1.323   2.394
 9306SOL     OW28816   0.521   4.206   4.838
 9306SOL    HW128817   0.421   4.216   4.846
 9306SOL    HW228818   0.547   4.113   4.864
 9307SOL     OW28819   1.321   3.419   1.178
 9307SOL    HW128820   1.328   3.518   1.169
 9307SOL    HW228821   1.324   3.394   1.274
 9308SOL     OW28822   0.964   4.415   1.115
 9308SOL    HW128823   0.919   4.327   1.097
 9308SOL    HW228824   0.901   4.490   1.095
 9309SOL     OW28825   3.728   5.032   5.479
 9309SOL    HW128826   3.772   4.943   5.470
 9309SOL    HW228827   3.629   5.019   5.492
 9310SOL     OW28828   4.304   5.091   5.700
 9310SOL    HW128829   4.338   5.110   5.608
 9310SOL    HW228830   4.205   5.082   5.698
 9311SOL     OW28831   4.957   5.031   2.011
 9311SOL    HW128832   4.878   5.065   1.960
 9311SOL    HW228833   5.041   5.050   1.961
 9312SOL     OW28834   1.327   3.708   1.553
 9312SOL    HW128835   1.232   3.680   1.538
 9312SOL    HW228836   1.382   3.627   1.573
 9313SOL     OW28837   6.698   0.513   1.077
 9313SOL    HW128838   6.737   0.528   0.986
 9313SOL    HW228839   6.656   0.598   1.110
 9314SOL     OW28840   4.787   5.651   6.290
 9314SOL    HW128841   4.771   5.583   6.218
 9314SOL    HW228842   4.724   5.728   6.278
 9315SOL     OW28843   6.354   0.599   5.338
 9315SOL    HW128844   6.410   0.645   5.269
 9315SOL    HW228845   6.273   0.559   5.293
 9316SOL     OW28846   4.465   6.043   5.333
 9316SOL    HW128847   4.521   5.997   5.402
 9316SOL    HW228848   4.507   6.131   5.310
 9317SOL     OW28849   6.580   5.116   3.107
 9317SOL    HW128850   6.489   5.092   3.137
 9317SOL    HW228851   6.592   5.215   3.112
 9318SOL     OW28852   6.109   0.359   5.681
 9318SOL    HW128853   6.043   0.370   5.606
 9318SOL    HW228854   6.083   0.418   5.757
 9319SOL     OW28855   1.239   2.465   6.925
 9319SOL    HW128856   1.303   2.487   6.851
 9319SOL    HW228857   1.184   2.386   6.900
 9320SOL     OW28858   3.827   1.020   6.081
 9320SOL    HW128859   3.877   1.044   6.164
 9320SOL    HW228860   3.760   1.091   6.060
 9321SOL     OW28861   6.343   0.269   3.532
 9321SOL    HW128862   6.370   0.190   3.587
 9321SOL    HW228863   6.345   0.351   3.589
 9322SOL     OW28864   0.821   4.881   6.453
 9322SOL    HW128865   0.790   4.871   6.548
 9322SOL    HW228866   0.834   4.791   6.412
 9323SOL     OW28867   1.537   0.035   5.373
 9323SOL    HW128868   1.446   0.021   5.334
 9323SOL    HW228869   1.533   0.021   5.472
 9324SOL     OW28870   1.735   4.915   0.597
 9324SOL    HW128871   1.801   4.986   0.571
 9324SOL    HW228872   1.688   4.942   0.681
 9325SOL     OW28873   5.022   0.848   6.559
 9325SOL    HW128874   4.968   0.931   6.545
 9325SOL    HW228875   5.115   0.862   6.525
 9326SOL     OW28876   2.032   6.514   0.778
 9326SOL    HW128877   1.984   6.591   0.736
 9326SOL    HW228878   1.971   6.468   0.843
 9327SOL     OW28879   5.120   6.880   2.831
 9327SOL    HW128880   5.091   6.950   2.766
 9327SOL    HW228881   5.057   6.880   2.909
 9328SOL     OW28882   3.542   0.666   5.456
 9328SOL    HW128883   3.485   0.658   5.374
 9328SOL    HW228884   3.633   0.698   5.430
 9329SOL     OW28885   6.490   4.425   2.521
 9329SOL    HW128886   6.496   4.346   2.583
 9329SOL    HW228887   6.568   4.423   2.459
 9330SOL     OW28888   6.955   6.310   6.803
 9330SOL    HW128889   0.013   6.272   6.762
 9330SOL    HW228890   6.917   6.381   6.743
 9331SOL     OW28891   1.327   1.381   6.456
 9331SOL    HW128892   1.381   1.302   6.484
 9331SOL    HW228893   1.332   1.452   6.527
 9332SOL     OW28894   3.855   4.063   2.108
 9332SOL    HW128895   3.937   4.023   2.149
 9332SOL    HW228896   3.846   4.032   2.014
 9333SOL     OW28897   4.296   3.623   1.340
 9333SOL    HW128898   4.228   3.674   1.287
 9333SOL    HW228899   4.367   3.686   1.372
 9334SOL     OW28900   5.102   5.668   3.806
 9334SOL    HW128901   5.090   5.606   3.728
 9334SOL    HW228902   5.135   5.617   3.885
 9335SOL     OW28903   0.824   1.722   6.112
 9335SOL    HW128904   0.895   1.687   6.052
 9335SOL    HW228905   0.841   1.691   6.206
 9336SOL     OW28906   2.939   5.098   5.566
 9336SOL    HW128907   2.964   5.164   5.636
 9336SOL    HW228908   3.011   5.030   5.556
 9337SOL     OW28909   5.346   1.808   3.631
 9337SOL    HW128910   5.412   1.743   3.669
 9337SOL    HW228911   5.279   1.759   3.576
 9338SOL     OW28912   3.885   0.218   1.829
 9338SOL    HW128913   3.891   0.318   1.828
 9338SOL    HW228914   3.973   0.180   1.857
 9339SOL     OW28915   5.501   0.302   0.966
 9339SOL    HW128916   5.489   0.398   0.994
 9339SOL    HW228917   5.427   0.247   1.006
 9340SOL     OW28918   5.833   3.659   4.236
 9340SOL    HW128919   5.835   3.728   4.163
 9340SOL    HW228920   5.739   3.635   4.257
 9341SOL     OW28921   0.230   6.224   0.229
 9341SOL    HW128922   0.268   6.132   0.214
 9341SOL    HW228923   0.156   6.240   0.164
 9342SOL     OW28924   1.798   0.356   3.532
 9342SOL    HW128925   1.764   0.351   3.626
 9342SOL    HW228926   1.721   0.366   3.469
 9343SOL     OW28927   5.814   4.477   2.997
 9343SOL    HW128928   5.725   4.469   3.041
 9343SOL    HW228929   5.803   4.500   2.901
 9344SOL     OW28930   4.796   6.213   1.789
 9344SOL    HW128931   4.746   6.287   1.744
 9344SOL    HW228932   4.894   6.223   1.771
 9345SOL     OW28933   6.447   4.737   2.679
 9345SOL    HW128934   6.363   4.684   2.685
 9345SOL    HW228935   6.425   4.835   2.682
 9346SOL     OW28936   5.803   0.711   1.054
 9346SOL    HW128937   5.823   0.699   1.151
 9346SOL    HW228938   5.776   0.806   1.038
 9347SOL     OW28939   0.902   4.383   0.769
 9347SOL    HW128940   0.975   4.331   0.726
 9347SOL    HW228941   0.928   4.479   0.774
 9348SOL     OW28942   4.033   5.724   1.932
 9348SOL    HW128943   4.031   5.772   1.844
 9348SOL    HW228944   3.944   5.684   1.951
 9349SOL     OW28945   1.060   6.386   2.343
 9349SOL    HW128946   1.053   6.286   2.340
 9349SOL    HW228947   0.981   6.426   2.297
 9350SOL     OW28948   0.474   3.382   5.297
 9350SOL    HW128949   0.376   3.398   5.309
 9350SOL    HW228950   0.489   3.291   5.259
 9351SOL     OW28951   2.836   0.375   6.435
 9351SOL    HW128952   2.835   0.338   6.342
 9351SOL    HW228953   2.880   0.465   6.435
 9352SOL     OW28954   3.422   2.462   6.904
 9352SOL    HW128955   3.343   2.484   6.847
 9352SOL    HW228956   3.503   2.449   6.846
 9353SOL     OW28957   0.797   5.134   0.737
 9353SOL    HW128958   0.861   5.105   0.665
 9353SOL    HW228959   0.821   5.226   0.768
 9354SOL     OW28960   6.459   1.788   6.465
 9354SOL    HW128961   6.410   1.742   6.391
 9354SOL    HW228962   6.491   1.877   6.433
 9355SOL     OW28963   0.426   2.361   5.029
 9355SOL    HW128964   0.371   2.395   5.105
 9355SOL    HW228965   0.521   2.387   5.043
 9356SOL     OW28966   4.270   0.187   1.514
 9356SOL    HW128967   4.246   0.243   1.435
 9356SOL    HW228968   4.339   0.233   1.569
 9357SOL     OW28969   0.887   3.547   6.508
 9357SOL    HW128970   0.869   3.642   6.534
 9357SOL    HW228971   0.846   3.486   6.575
 9358SOL     OW28972   6.823   4.000   2.598
 9358SOL    HW128973   6.773   3.939   2.659
 9358SOL    HW228974   6.815   4.094   2.631
 9359SOL     OW28975   1.681   4.868   0.053
 9359SOL    HW128976   1.670   4.825   6.987
 9359SOL    HW228977   1.659   4.802   0.124
 9360SOL     OW28978   1.688   5.344   6.277
 9360SOL    HW128979   1.722   5.250   6.270
 9360SOL    HW228980   1.621   5.350   6.350
 9361SOL     OW28981   1.819   5.449   3.365
 9361SOL    HW128982   1.819   5.501   3.450
 9361SOL    HW228983   1.799   5.510   3.288
 9362SOL     OW28984   1.245   1.339   2.797
 9362SOL    HW128985   1.325   1.348   2.856
 9362SOL    HW228986   1.184   1.417   2.812
 9363SOL     OW28987   3.740   5.302   1.719
 9363SOL    HW128988   3.757   5.252   1.635
 9363SOL    HW228989   3.779   5.394   1.713
 9364SOL     OW28990   2.243   1.868   0.669
 9364SOL    HW128991   2.174   1.805   0.634
 9364SOL    HW228992   2.213   1.905   0.757
 9365SOL     OW28993   2.939   1.949   3.853
 9365SOL    HW128994   2.990   1.904   3.780
 9365SOL    HW228995   2.844   1.964   3.824
 9366SOL     OW28996   3.440   5.383   0.233
 9366SOL    HW128997   3.510   5.328   0.279
 9366SOL    HW228998   3.426   5.468   0.283
 9367SOL     OW28999   6.447   0.375   1.557
 9367SOL    HW129000   6.454   0.299   1.492
 9367SOL    HW229001   6.369   0.360   1.618
 9368SOL     OW29002   3.640   6.267   1.819
 9368SOL    HW129003   3.684   6.235   1.903
 9368SOL    HW229004   3.686   6.226   1.740
 9369SOL     OW29005   0.157   6.087   5.165
 9369SOL    HW129006   0.072   6.051   5.203
 9369SOL    HW229007   0.231   6.021   5.182
 9370SOL     OW29008   5.013   0.577   3.492
 9370SOL    HW129009   5.099   0.573   3.543
 9370SOL    HW229010   5.028   0.623   3.405
 9371SOL     OW29011   2.462   5.753   1.235
 9371SOL    HW129012   2.545   5.702   1.260
 9371SOL    HW229013   2.443   5.742   1.138
 9372SOL     OW29014   5.121   6.945   1.602
 9372SOL    HW129015   5.183   7.010   1.646
 9372SOL    HW229016   5.044   6.925   1.663
 9373SOL     OW29017   5.406   2.245   0.421
 9373SOL    HW129018   5.491   2.295   0.439
 9373SOL    HW229019   5.330   2.289   0.469
 9374SOL     OW29020   6.566   3.278   5.811
 9374SOL    HW129021   6.510   3.327   5.744
 9374SOL    HW229022   6.515   3.269   5.897
 9375SOL     OW29023   6.633   1.531   1.174
 9375SOL    HW129024   6.721   1.573   1.196
 9375SOL    HW229025   6.567   1.552   1.246
 9376SOL     OW29026   2.073   3.454   1.762
 9376SOL    HW129027   2.052   3.545   1.726
 9376SOL    HW229028   2.143   3.461   1.833
 9377SOL     OW29029   2.467   5.479   3.243
 9377SOL    HW129030   2.402   5.541   3.200
 9377SOL    HW229031   2.554   5.480   3.193
 9378SOL     OW29032   3.205   1.339   3.848
 9378SOL    HW129033   3.200   1.267   3.916
 9378SOL    HW229034   3.265   1.412   3.881
 9379SOL     OW29035   5.295   0.220   4.768
 9379SOL    HW129036   5.358   0.192   4.697
 9379SOL    HW229037   5.202   0.190   4.745
 9380SOL     OW29038   3.423   5.795   5.611
 9380SOL    HW129039   3.494   5.784   5.542
 9380SOL    HW229040   3.377   5.707   5.625
 9381SOL     OW29041   5.100   2.604   4.965
 9381SOL    HW129042   5.095   2.703   4.962
 9381SOL    HW229043   5.188   2.573   4.928
 9382SOL     OW29044   3.931   0.942   4.005
 9382SOL    HW129045   3.951   0.862   3.948
 9382SOL    HW229046   4.008   1.005   4.002
 9383SOL     OW29047   4.831   4.437   4.356
 9383SOL    HW129048   4.740   4.479   4.366
 9383SOL    HW229049   4.849   4.419   4.259
 9384SOL     OW29050   2.855   6.568   1.993
 9384SOL    HW129051   2.812   6.480   1.973
 9384SOL    HW229052   2.818   6.606   2.078
 9385SOL     OW29053   4.374   1.684   4.205
 9385SOL    HW129054   4.453   1.707   4.260
 9385SOL    HW229055   4.301   1.751   4.221
 9386SOL     OW29056   2.887   5.891   5.426
 9386SOL    HW129057   2.809   5.833   5.448
 9386SOL    HW229058   2.911   5.946   5.505
 9387SOL     OW29059   3.681   2.184   0.100
 9387SOL    HW129060   3.763   2.151   0.054
 9387SOL    HW229061   3.693   2.176   0.199
 9388SOL     OW29062   1.926   6.779   3.290
 9388SOL    HW129063   1.872   6.715   3.235
 9388SOL    HW229064   2.004   6.811   3.236
 9389SOL     OW29065   3.204   6.085   2.376
 9389SOL    HW129066   3.295   6.091   2.418
 9389SOL    HW229067   3.197   6.155   2.305
 9390SOL     OW29068   5.927   5.023   6.119
 9390SOL    HW129069   5.834   5.050   6.145
 9390SOL    HW229070   5.978   4.998   6.202
 9391SOL     OW29071   0.854   0.023   4.785
 9391SOL    HW129072   0.940   0.030   4.734
 9391SOL    HW229073   0.845   6.955   4.823
 9392SOL     OW29074   4.679   4.245   3.968
 9392SOL    HW129075   4.723   4.248   3.879
 9392SOL    HW229076   4.708   4.162   4.016
 9393SOL     OW29077   2.635   6.859   5.894
 9393SOL    HW129078   2.605   6.856   5.990
 9393SOL    HW229079   2.648   6.766   5.860
 9394SOL     OW29080   5.831   0.644   1.314
 9394SOL    HW129081   5.834   0.681   1.407
 9394SOL    HW229082   5.891   0.565   1.308
 9395SOL     OW29083   2.576   1.367   0.905
 9395SOL    HW129084   2.611   1.438   0.967
 9395SOL    HW229085   2.478   1.382   0.889
 9396SOL     OW29086   2.027   5.078   5.491
 9396SOL    HW129087   2.032   5.023   5.408
 9396SOL    HW229088   2.118   5.112   5.515
 9397SOL     OW29089   3.274   6.540   5.450
 9397SOL    HW129090   3.231   6.453   5.428
 9397SOL    HW229091   3.373   6.533   5.436
 9398SOL     OW29092   6.092   0.944   5.714
 9398SOL    HW129093   6.169   0.990   5.670
 9398SOL    HW229094   6.125   0.866   5.767
 9399SOL     OW29095   1.002   2.371   4.526
 9399SOL    HW129096   1.052   2.292   4.491
 9399SOL    HW229097   0.905   2.348   4.534
 9400SOL     OW29098   4.839   0.456   0.167
 9400SOL    HW129099   4.785   0.526   0.212
 9400SOL    HW229100   4.816   0.454   0.069
 9401SOL     OW29101   0.064   2.639   1.706
 9401SOL    HW129102   7.017   2.582   1.746
 9401SOL    HW229103   0.106   2.696   1.777
 9402SOL     OW29104   1.952   5.297   3.644
 9402SOL    HW129105   1.924   5.237   3.720
 9402SOL    HW229106   1.974   5.241   3.564
 9403SOL     OW29107   0.443   1.256   2.564
 9403SOL    HW129108   0.531   1.303   2.567
 9403SOL    HW229109   0.386   1.295   2.492
 9404SOL     OW29110   0.242   2.325   1.276
 9404SOL    HW129111   0.174   2.398   1.272
 9404SOL    HW229112   0.202   2.244   1.319
 9405SOL     OW29113   1.120   4.368   4.831
 9405SOL    HW129114   1.151   4.339   4.741
 9405SOL    HW229115   1.075   4.458   4.823
 9406SOL     OW29116   0.804   3.404   6.740
 9406SOL    HW129117   0.843   3.312   6.748
 9406SOL    HW229118   0.797   3.446   6.831
 9407SOL     OW29119   2.732   5.024   4.933
 9407SOL    HW129120   2.786   4.993   5.011
 9407SOL    HW229121   2.638   4.990   4.942
 9408SOL     OW29122   6.958   3.051   5.681
 9408SOL    HW129123   6.928   2.972   5.627
 9408SOL    HW229124   6.895   3.128   5.666
 9409SOL     OW29125   6.615   5.532   2.343
 9409SOL    HW129126   6.658   5.549   2.254
 9409SOL    HW229127   6.684   5.502   2.408
 9410SOL     OW29128   5.180   1.146   1.698
 9410SOL    HW129129   5.219   1.104   1.616
 9410SOL    HW229130   5.122   1.223   1.672
 9411SOL     OW29131   2.927   3.297   2.899
 9411SOL    HW129132   2.975   3.260   2.819
 9411SOL    HW229133   2.834   3.261   2.903
 9412SOL     OW29134   0.972   0.720   0.986
 9412SOL    HW129135   1.012   0.703   0.896
 9412SOL    HW229136   0.918   0.804   0.983
 9413SOL     OW29137   4.826   4.553   4.787
 9413SOL    HW129138   4.751   4.570   4.850
 9413SOL    HW229139   4.813   4.465   4.741
 9414SOL     OW29140   2.586   2.115   4.844
 9414SOL    HW129141   2.653   2.188   4.834
 9414SOL    HW229142   2.495   2.150   4.820
 9415SOL     OW29143   2.940   0.037   1.638
 9415SOL    HW129144   2.948   0.000   1.730
 9415SOL    HW229145   3.020   0.011   1.584
 9416SOL     OW29146   0.657   7.015   5.038
 9416SOL    HW129147   0.592   0.014   4.965
 9416SOL    HW229148   0.706   0.072   5.066
 9417SOL     OW29149   3.336   6.435   1.635
 9417SOL    HW129150   3.355   6.452   1.731
 9417SOL    HW229151   3.408   6.378   1.596
 9418SOL     OW29152   3.153   1.310   3.232
 9418SOL    HW129153   3.090   1.260   3.291
 9418SOL    HW229154   3.109   1.394   3.199
 9419SOL     OW29155   2.424   2.654   6.281
 9419SOL    HW129156   2.332   2.688   6.264
 9419SOL    HW229157   2.460   2.697   6.364
 9420SOL     OW29158   5.942   4.509   0.578
 9420SOL    HW129159   5.927   4.521   0.480
 9420SOL    HW229160   5.966   4.596   0.620
 9421SOL     OW29161   3.301   5.397   4.571
 9421SOL    HW129162   3.244   5.476   4.548
 9421SOL    HW229163   3.243   5.324   4.607
 9422SOL     OW29164   2.616   6.443   4.039
 9422SOL    HW129165   2.621   6.392   3.953
 9422SOL    HW229166   2.546   6.515   4.030
 9423SOL     OW29167   3.718   5.714   2.834
 9423SOL    HW129168   3.691   5.627   2.794
 9423SOL    HW229169   3.779   5.698   2.912
 9424SOL     OW29170   5.035   1.770   4.711
 9424SOL    HW129171   5.130   1.755   4.684
 9424SOL    HW229172   4.978   1.697   4.673
 9425SOL     OW29173   6.076   4.738   1.517
 9425SOL    HW129174   6.145   4.764   1.450
 9425SOL    HW229175   6.022   4.661   1.482
 9426SOL     OW29176   1.115   1.848   6.450
 9426SOL    HW129177   1.049   1.872   6.521
 9426SOL    HW229178   1.148   1.755   6.465
 9427SOL     OW29179   2.600   5.812   3.036
 9427SOL    HW129180   2.500   5.817   3.039
 9427SOL    HW229181   2.633   5.849   2.949
 9428SOL     OW29182   6.329   6.127   0.304
 9428SOL    HW129183   6.387   6.108   0.384
 9428SOL    HW229184   6.261   6.055   0.295
 9429SOL     OW29185   1.485   2.262   4.496
 9429SOL    HW129186   1.500   2.225   4.403
 9429SOL    HW229187   1.414   2.208   4.541
 9430SOL     OW29188   0.094   2.239   4.721
 9430SOL    HW129189   0.005   2.283   4.733
 9430SOL    HW229190   0.166   2.307   4.733
 9431SOL     OW29191   6.714   4.580   0.910
 9431SOL    HW129192   6.668   4.494   0.933
 9431SOL    HW229193   6.810   4.574   0.937
 9432SOL     OW29194   6.746   1.630   4.081
 9432SOL    HW129195   6.698   1.564   4.138
 9432SOL    HW229196   6.735   1.722   4.120
 9433SOL     OW29197   4.083   5.742   2.646
 9433SOL    HW129198   4.150   5.715   2.577
 9433SOL    HW229199   3.992   5.712   2.618
 9434SOL     OW29200   5.741   5.514   3.783
 9434SOL    HW129201   5.646   5.538   3.803
 9434SOL    HW229202   5.799   5.595   3.790
 9435SOL     OW29203   0.275   2.647   2.452
 9435SOL    HW129204   0.197   2.675   2.507
 9435SOL    HW229205   0.323   2.572   2.498
 9436SOL     OW29206   1.177   0.955   2.036
 9436SOL    HW129207   1.169   0.883   2.105
 9436SOL    HW229208   1.263   1.005   2.050
 9437SOL     OW29209   0.623   5.147   3.140
 9437SOL    HW129210   0.648   5.141   3.043
 9437SOL    HW229211   0.582   5.062   3.170
 9438SOL     OW29212   1.870   6.975   1.658
 9438SOL    HW129213   1.959   6.993   1.617
 9438SOL    HW229214   1.801   6.971   1.586
 9439SOL     OW29215   0.649   3.100   0.856
 9439SOL    HW129216   0.734   3.108   0.805
 9439SOL    HW229217   0.634   3.184   0.910
 9440SOL     OW29218   2.942   4.949   3.311
 9440SOL    HW129219   2.932   5.036   3.263
 9440SOL    HW229220   2.881   4.881   3.270
 9441SOL     OW29221   6.777   5.612   5.090
 9441SOL    HW129222   6.837   5.618   5.170
 9441SOL    HW229223   6.832   5.619   5.007
 9442SOL     OW29224   4.671   3.576   1.418
 9442SOL    HW129225   4.603   3.641   1.382
 9442SOL    HW229226   4.737   3.625   1.475
 9443SOL     OW29227   2.813   5.802   1.780
 9443SOL    HW129228   2.742   5.857   1.824
 9443SOL    HW229229   2.777   5.711   1.761
 9444SOL     OW29230   1.779   3.747   0.524
 9444SOL    HW129231   1.828   3.778   0.605
 9444SOL    HW229232   1.835   3.762   0.443
 9445SOL     OW29233   0.321   2.083   3.863
 9445SOL    HW129234   0.411   2.067   3.903
 9445SOL    HW229235   0.321   2.053   3.767
 9446SOL     OW29236   6.307   5.204   4.392
 9446SOL    HW129237   6.270   5.126   4.342
 9446SOL    HW229238   6.397   5.227   4.356
 9447SOL     OW29239   4.880   5.343   2.817
 9447SOL    HW129240   4.930   5.429   2.810
 9447SOL    HW229241   4.927   5.273   2.764
 9448SOL     OW29242   6.088   6.811   5.498
 9448SOL    HW129243   6.181   6.841   5.480
 9448SOL    HW229244   6.070   6.813   5.596
 9449SOL     OW29245   5.429   6.634   6.623
 9449SOL    HW129246   5.426   6.726   6.584
 9449SOL    HW229247   5.494   6.578   6.572
 9450SOL     OW29248   1.903   5.505   4.493
 9450SOL    HW129249   1.806   5.481   4.501
 9450SOL    HW229250   1.952   5.471   4.574
 9451SOL     OW29251   3.495   5.751   6.545
 9451SOL    HW129252   3.413   5.762   6.600
 9451SOL    HW229253   3.471   5.724   6.452
 9452SOL     OW29254   0.363   4.225   1.179
 9452SOL    HW129255   0.376   4.301   1.243
 9452SOL    HW229256   0.437   4.226   1.111
 9453SOL     OW29257   3.196   5.065   3.267
 9453SOL    HW129258   3.271   5.013   3.307
 9453SOL    HW229259   3.110   5.015   3.280
 9454SOL     OW29260   4.513   4.134   1.110
 9454SOL    HW129261   4.459   4.050   1.105
 9454SOL    HW229262   4.594   4.118   1.166
 9455SOL     OW29263   2.507   2.256   2.746
 9455SOL    HW129264   2.481   2.213   2.660
 9455SOL    HW229265   2.457   2.214   2.822
 9456SOL     OW29266   6.424   3.804   2.589
 9456SOL    HW129267   6.422   3.810   2.489
 9456SOL    HW229268   6.348   3.857   2.627
 9457SOL     OW29269   0.935   5.181   4.535
 9457SOL    HW129270   0.970   5.111   4.473
 9457SOL    HW229271   0.950   5.272   4.494
 9458SOL     OW29272   6.901   4.337   0.571
 9458SOL    HW129273   6.817   4.363   0.523
 9458SOL    HW229274   6.958   4.281   0.510
 9459SOL     OW29275   5.272   4.206   4.496
 9459SOL    HW129276   5.276   4.133   4.564
 9459SOL    HW229277   5.312   4.174   4.410
 9460SOL     OW29278   1.808   3.270   4.714
 9460SOL    HW129279   1.796   3.189   4.772
 9460SOL    HW229280   1.839   3.242   4.623
 9461SOL     OW29281   1.085   1.798   1.298
 9461SOL    HW129282   1.041   1.727   1.243
 9461SOL    HW229283   1.183   1.781   1.302
 9462SOL     OW29284   1.358   3.046   3.411
 9462SOL    HW129285   1.330   3.099   3.491
 9462SOL    HW229286   1.317   3.086   3.329
 9463SOL     OW29287   5.200   6.600   1.422
 9463SOL    HW129288   5.259   6.576   1.499
 9463SOL    HW229289   5.120   6.649   1.456
 9464SOL     OW29290   6.590   0.597   1.548
 9464SOL    HW129291   6.526   0.519   1.545
 9464SOL    HW229292   6.539   0.682   1.532
 9465SOL     OW29293   0.254   3.896   1.699
 9465SOL    HW129294   0.237   3.804   1.734
 9465SOL    HW229295   0.324   3.940   1.756
 9466SOL     OW29296   4.367   5.796   6.436
 9466SOL    HW129297   4.332   5.814   6.344
 9466SOL    HW229298   4.451   5.743   6.430
 9467SOL     OW29299   2.099   2.716   0.788
 9467SOL    HW129300   2.096   2.656   0.868
 9467SOL    HW229301   2.120   2.662   0.707
 9468SOL     OW29302   6.605   3.740   6.575
 9468SOL    HW129303   6.610   3.680   6.655
 9468SOL    HW229304   6.511   3.773   6.564
 9469SOL     OW29305   6.760   6.246   0.209
 9469SOL    HW129306   6.686   6.259   0.143
 9469SOL    HW229307   6.819   6.171   0.178
 9470SOL     OW29308   4.789   3.989   0.069
 9470SOL    HW129309   4.749   3.993   7.002
 9470SOL    HW229310   4.734   4.044   0.132
 9471SOL     OW29311   6.428   2.380   5.318
 9471SOL    HW129312   6.423   2.464   5.264
 9471SOL    HW229313   6.471   2.308   5.262
 9472SOL     OW29314   1.142   4.431   6.417
 9472SOL    HW129315   1.238   4.431   6.388
 9472SOL    HW229316   1.117   4.523   6.448
 9473SOL     OW29317   3.587   4.015   6.889
 9473SOL    HW129318   3.584   3.921   6.854
 9473SOL    HW229319   3.566   4.015   6.987
 9474SOL     OW29320   6.148   3.558   1.774
 9474SOL    HW129321   6.191   3.632   1.826
 9474SOL    HW229322   6.063   3.590   1.733
 9475SOL     OW29323   4.354   3.669   6.508
 9475SOL    HW129324   4.378   3.589   6.453
 9475SOL    HW229325   4.348   3.644   6.604
 9476SOL     OW29326   3.864   4.287   5.688
 9476SOL    HW129327   3.795   4.267   5.619
 9476SOL    HW229328   3.823   4.279   5.779
 9477SOL     OW29329   1.670   3.444   0.813
 9477SOL    HW129330   1.718   3.389   0.881
 9477SOL    HW229331   1.734   3.476   0.744
 9478SOL     OW29332   4.336   2.595   1.413
 9478SOL    HW129333   4.311   2.498   1.407
 9478SOL    HW229334   4.320   2.628   1.506
 9479SOL     OW29335   4.206   0.787   1.346
 9479SOL    HW129336   4.285   0.784   1.285
 9479SOL    HW229337   4.224   0.730   1.426
 9480SOL     OW29338   5.714   5.921   6.940
 9480SOL    HW129339   5.785   5.968   6.889
 9480SOL    HW229340   5.668   5.985   7.002
 9481SOL     OW29341   4.870   2.029   3.081
 9481SOL    HW129342   4.887   2.127   3.076
 9481SOL    HW229343   4.772   2.013   3.096
 9482SOL     OW29344   5.965   0.152   1.242
 9482SOL    HW129345   5.903   0.196   1.178
 9482SOL    HW229346   5.934   0.059   1.260
 9483SOL     OW29347   1.277   0.817   0.011
 9483SOL    HW129348   1.241   0.872   6.960
 9483SOL    HW229349   1.376   0.827   0.015
 9484SOL     OW29350   2.819   0.183   4.416
 9484SOL    HW129351   2.914   0.176   4.384
 9484SOL    HW229352   2.784   0.091   4.437
 9485SOL     OW29353   6.047   1.592   1.111
 9485SOL    HW129354   5.976   1.542   1.061
 9485SOL    HW229355   6.023   1.595   1.208
 9486SOL     OW29356   4.961   5.569   0.904
 9486SOL    HW129357   4.912   5.632   0.964
 9486SOL    HW229358   4.994   5.491   0.957
 9487SOL     OW29359   3.279   3.632   4.478
 9487SOL    HW129360   3.307   3.727   4.488
 9487SOL    HW229361   3.219   3.622   4.398
 9488SOL     OW29362   1.603   1.157   1.763
 9488SOL    HW129363   1.622   1.068   1.720
 9488SOL    HW229364   1.562   1.218   1.695
 9489SOL     OW29365   5.402   4.395   0.746
 9489SOL    HW129366   5.358   4.306   0.733
 9489SOL    HW229367   5.484   4.384   0.801
 9490SOL     OW29368   6.601   5.926   3.899
 9490SOL    HW129369   6.578   6.011   3.852
 9490SOL    HW229370   6.647   5.947   3.985
 9491SOL     OW29371   5.653   5.949   3.891
 9491SOL    HW129372   5.680   5.897   3.810
 9491SOL    HW229373   5.722   5.937   3.963
 9492SOL     OW29374   4.679   3.020   5.193
 9492SOL    HW129375   4.720   2.967   5.119
 9492SOL    HW229376   4.709   3.115   5.186
 9493SOL     OW29377   3.182   6.173   4.085
 9493SOL    HW129378   3.214   6.205   4.174
 9493SOL    HW229379   3.159   6.252   4.028
 9494SOL     OW29380   5.779   2.996   2.047
 9494SOL    HW129381   5.831   3.076   2.018
 9494SOL    HW229382   5.816   2.962   2.134
 9495SOL     OW29383   6.675   1.151   2.285
 9495SOL    HW129384   6.647   1.162   2.190
 9495SOL    HW229385   6.707   1.239   2.321
 9496SOL     OW29386   4.854   2.148   2.180
 9496SOL    HW129387   4.857   2.245   2.204
 9496SOL    HW229388   4.759   2.119   2.170
 9497SOL     OW29389   5.339   5.775   5.386
 9497SOL    HW129390   5.302   5.713   5.316
 9497SOL    HW229391   5.417   5.825   5.348
 9498SOL     OW29392   0.275   4.823   4.612
 9498SOL    HW129393   0.274   4.742   4.671
 9498SOL    HW229394   0.348   4.812   4.544
 9499SOL     OW29395   0.074   5.383   5.326
 9499SOL    HW129396   0.042   5.334   5.245
 9499SOL    HW229397   0.002   5.385   5.395
 9500SOL     OW29398   4.128   6.446   1.119
 9500SOL    HW129399   4.158   6.422   1.212
 9500SOL    HW229400   4.034   6.479   1.122
 9501SOL     OW29401   1.501   1.499   4.620
 9501SOL    HW129402   1.502   1.558   4.539
 9501SOL    HW229403   1.435   1.425   4.606
 9502SOL     OW29404   5.538   4.188   4.874
 9502SOL    HW129405   5.624   4.211   4.828
 9502SOL    HW229406   5.556   4.118   4.943
 9503SOL     OW29407   0.889   2.404   0.745
 9503SOL    HW129408   0.883   2.357   0.656
 9503SOL    HW229409   0.857   2.498   0.735
 9504SOL     OW29410   6.599   3.604   2.076
 9504SOL    HW129411   6.638   3.631   1.988
 9504SOL    HW229412   6.585   3.685   2.133
 9505SOL     OW29413   4.618   5.085   5.665
 9505SOL    HW129414   4.641   5.176   5.701
 9505SOL    HW229415   4.566   5.095   5.581
 9506SOL     OW29416   2.204   2.425   0.295
 9506SOL    HW129417   2.230   2.515   0.258
 9506SOL    HW229418   2.130   2.387   0.241
 9507SOL     OW29419   6.215   0.283   0.663
 9507SOL    HW129420   6.159   0.329   0.594
 9507SOL    HW229421   6.259   0.351   0.721
 9508SOL     OW29422   5.491   1.626   2.208
 9508SOL    HW129423   5.463   1.680   2.129
 9508SOL    HW229424   5.476   1.528   2.189
 9509SOL     OW29425   6.263   0.447   3.306
 9509SOL    HW129426   6.303   0.428   3.216
 9509SOL    HW229427   6.221   0.537   3.306
 9510SOL     OW29428   0.861   3.389   3.429
 9510SOL    HW129429   0.799   3.337   3.370
 9510SOL    HW229430   0.941   3.416   3.377
 9511SOL     OW29431   1.034   1.106   1.567
 9511SOL    HW129432   1.043   1.079   1.662
 9511SOL    HW229433   1.052   1.027   1.508
 9512SOL     OW29434   6.989   3.092   1.080
 9512SOL    HW129435   7.018   3.006   1.038
 9512SOL    HW229436   6.894   3.083   1.111
 9513SOL     OW29437   3.443   4.809   5.995
 9513SOL    HW129438   3.378   4.780   5.924
 9513SOL    HW229439   3.409   4.892   6.039
 9514SOL     OW29440   2.961   3.340   6.532
 9514SOL    HW129441   2.951   3.241   6.528
 9514SOL    HW229442   3.032   3.364   6.598
 9515SOL     OW29443   2.741   5.155   3.317
 9515SOL    HW129444   2.693   5.075   3.282
 9515SOL    HW229445   2.796   5.130   3.396
 9516SOL     OW29446   5.944   4.789   0.671
 9516SOL    HW129447   5.943   4.770   0.769
 9516SOL    HW229448   5.853   4.821   0.643
 9517SOL     OW29449   1.096   4.392   1.381
 9517SOL    HW129450   1.172   4.331   1.403
 9517SOL    HW229451   1.110   4.430   1.289
 9518SOL     OW29452   2.934   1.309   0.564
 9518SOL    HW129453   2.901   1.215   0.567
 9518SOL    HW229454   2.882   1.366   0.628
 9519SOL     OW29455   1.033   2.300   5.709
 9519SOL    HW129456   1.036   2.329   5.804
 9519SOL    HW229457   1.059   2.204   5.702
 9520SOL     OW29458   2.822   0.441   2.292
 9520SOL    HW129459   2.736   0.423   2.340
 9520SOL    HW229460   2.803   0.489   2.207
 9521SOL     OW29461   5.868   6.141   3.667
 9521SOL    HW129462   5.788   6.153   3.725
 9521SOL    HW229463   5.885   6.226   3.616
 9522SOL     OW29464   3.441   5.768   0.797
 9522SOL    HW129465   3.517   5.767   0.732
 9522SOL    HW229466   3.476   5.764   0.890
 9523SOL     OW29467   3.254   5.308   4.272
 9523SOL    HW129468   3.185   5.281   4.339
 9523SOL    HW229469   3.236   5.401   4.241
 9524SOL     OW29470   3.774   2.628   1.489
 9524SOL    HW129471   3.676   2.609   1.481
 9524SOL    HW229472   3.814   2.639   1.397
 9525SOL     OW29473   2.205   1.159   5.775
 9525SOL    HW129474   2.145   1.238   5.776
 9525SOL    HW229475   2.268   1.165   5.853
 9526SOL     OW29476   5.678   6.128   3.309
 9526SOL    HW129477   5.682   6.069   3.227
 9526SOL    HW229478   5.758   6.188   3.311
 9527SOL     OW29479   1.121   0.621   1.835
 9527SOL    HW129480   1.219   0.618   1.855
 9527SOL    HW229481   1.085   0.528   1.834
 9528SOL     OW29482   6.707   0.120   0.534
 9528SOL    HW129483   6.622   0.143   0.581
 9528SOL    HW229484   6.782   0.173   0.575
 9529SOL     OW29485   1.181   3.431   6.503
 9529SOL    HW129486   1.096   3.442   6.554
 9529SOL    HW229487   1.231   3.518   6.501
 9530SOL     OW29488   1.480   2.800   2.916
 9530SOL    HW129489   1.579   2.807   2.924
 9530SOL    HW229490   1.442   2.888   2.886
 9531SOL     OW29491   4.100   6.034   2.670
 9531SOL    HW129492   4.096   5.938   2.644
 9531SOL    HW229493   4.179   6.050   2.730
 9532SOL     OW29494   1.737   6.089   1.209
 9532SOL    HW129495   1.819   6.062   1.158
 9532SOL    HW229496   1.656   6.070   1.154
 9533SOL     OW29497   0.465   1.297   5.225
 9533SOL    HW129498   0.544   1.302   5.163
 9533SOL    HW229499   0.384   1.332   5.178
 9534SOL     OW29500   5.444   2.327   5.375
 9534SOL    HW129501   5.492   2.347   5.289
 9534SOL    HW229502   5.464   2.399   5.441
 9535SOL     OW29503   2.770   0.652   5.677
 9535SOL    HW129504   2.841   0.582   5.686
 9535SOL    HW229505   2.688   0.611   5.637
 9536SOL     OW29506   2.088   5.940   5.556
 9536SOL    HW129507   2.087   6.028   5.508
 9536SOL    HW229508   1.998   5.896   5.547
 9537SOL     OW29509   3.494   0.144   2.349
 9537SOL    HW129510   3.498   0.167   2.447
 9537SOL    HW229511   3.568   0.191   2.301
 9538SOL     OW29512   6.516   1.965   4.691
 9538SOL    HW129513   6.518   1.881   4.636
 9538SOL    HW229514   6.423   1.980   4.725
 9539SOL     OW29515   2.237   4.753   6.298
 9539SOL    HW129516   2.251   4.795   6.208
 9539SOL    HW229517   2.322   4.757   6.350
 9540SOL     OW29518   4.703   4.806   5.385
 9540SOL    HW129519   4.608   4.810   5.354
 9540SOL    HW229520   4.707   4.829   5.482
 9541SOL     OW29521   1.508   2.459   5.151
 9541SOL    HW129522   1.547   2.456   5.059
 9541SOL    HW229523   1.443   2.535   5.157
 9542SOL     OW29524   4.955   3.382   5.029
 9542SOL    HW129525   5.007   3.365   5.113
 9542SOL    HW229526   4.903   3.467   5.038
 9543SOL     OW29527   4.578   0.721   4.135
 9543SOL    HW129528   4.494   0.770   4.157
 9543SOL    HW229529   4.611   0.673   4.217
 9544SOL     OW29530   5.953   0.092   2.353
 9544SOL    HW129531   5.952   0.033   2.272
 9544SOL    HW229532   5.877   0.157   2.348
 9545SOL     OW29533   6.812   6.682   3.083
 9545SOL    HW129534   6.787   6.661   2.989
 9545SOL    HW229535   6.738   6.653   3.144
 9546SOL     OW29536   2.941   3.815   6.716
 9546SOL    HW129537   2.863   3.857   6.668
 9546SOL    HW229538   3.022   3.872   6.703
 9547SOL     OW29539   1.590   6.127   4.116
 9547SOL    HW129540   1.688   6.147   4.106
 9547SOL    HW229541   1.577   6.068   4.195
 9548SOL     OW29542   6.164   5.759   4.547
 9548SOL    HW129543   6.208   5.843   4.515
 9548SOL    HW229544   6.172   5.688   4.477
 9549SOL     OW29545   3.711   5.217   0.578
 9549SOL    HW129546   3.780   5.288   0.566
 9549SOL    HW229547   3.752   5.127   0.563
 9550SOL     OW29548   0.480   1.730   0.272
 9550SOL    HW129549   0.441   1.819   0.250
 9550SOL    HW229550   0.494   1.679   0.187
 9551SOL     OW29551   0.425   0.059   4.896
 9551SOL    HW129552   0.341   0.032   4.848
 9551SOL    HW229553   0.474   0.126   4.840
 9552SOL     OW29554   1.152   7.024   3.292
 9552SOL    HW129555   1.061   6.983   3.301
 9552SOL    HW229556   1.202   6.978   3.219
 9553SOL     OW29557   6.087   4.661   6.791
 9553SOL    HW129558   6.080   4.633   6.887
 9553SOL    HW229559   6.068   4.583   6.732
 9554SOL     OW29560   2.535   1.138   2.120
 9554SOL    HW129561   2.543   1.132   2.021
 9554SOL    HW229562   2.614   1.186   2.158
 9555SOL     OW29563   6.511   2.364   1.360
 9555SOL    HW129564   6.485   2.459   1.342
 9555SOL    HW229565   6.560   2.327   1.281
 9556SOL     OW29566   2.469   0.980   1.130
 9556SOL    HW129567   2.536   0.981   1.055
 9556SOL    HW229568   2.381   0.948   1.095
 9557SOL     OW29569   6.261   0.646   2.726
 9557SOL    HW129570   6.209   0.693   2.655
 9557SOL    HW229571   6.324   0.711   2.769
 9558SOL     OW29572   0.137   4.775   3.016
 9558SOL    HW129573   0.161   4.724   3.099
 9558SOL    HW229574   0.131   4.872   3.038
 9559SOL     OW29575   0.315   3.233   1.920
 9559SOL    HW129576   0.384   3.209   1.852
 9559SOL    HW229577   0.281   3.150   1.964
 9560SOL     OW29578   2.315   1.548   3.766
 9560SOL    HW129579   2.386   1.580   3.704
 9560SOL    HW229580   2.257   1.482   3.718
 9561SOL     OW29581   3.236   6.641   0.797
 9561SOL    HW129582   3.295   6.722   0.786
 9561SOL    HW229583   3.187   6.647   0.883
 9562SOL     OW29584   4.439   5.906   3.323
 9562SOL    HW129585   4.363   5.957   3.283
 9562SOL    HW229586   4.414   5.876   3.415
 9563SOL     OW29587   7.002   6.349   6.443
 9563SOL    HW129588   0.031   6.409   6.383
 9563SOL    HW229589   6.930   6.304   6.389
 9564SOL     OW29590   2.710   6.562   6.315
 9564SOL    HW129591   2.737   6.647   6.270
 9564SOL    HW229592   2.788   6.499   6.317
 9565SOL     OW29593   3.851   5.837   4.322
 9565SOL    HW129594   3.768   5.822   4.268
 9565SOL    HW229595   3.897   5.919   4.290
 9566SOL     OW29596   3.208   4.420   5.880
 9566SOL    HW129597   3.155   4.394   5.799
 9566SOL    HW229598   3.227   4.340   5.936
 9567SOL     OW29599   6.096   6.088   6.557
 9567SOL    HW129600   6.008   6.075   6.512
 9567SOL    HW229601   6.148   6.158   6.508
 9568SOL     OW29602   5.459   3.920   6.356
 9568SOL    HW129603   5.407   3.849   6.402
 9568SOL    HW229604   5.553   3.888   6.340
 9569SOL     OW29605   6.342   1.597   0.070
 9569SOL    HW129606   6.440   1.590   0.048
 9569SOL    HW229607   6.320   1.692   0.094
 9570SOL     OW29608   0.023   1.059   0.723
 9570SOL    HW129609   6.993   0.988   0.679
 9570SOL    HW229610   6.995   1.097   0.800
 9571SOL     OW29611   2.247   3.883   0.484
 9571SOL    HW129612   2.327   3.938   0.463
 9571SOL    HW229613   2.263   3.832   0.569
 9572SOL     OW29614   1.005   4.635   0.740
 9572SOL    HW129615   1.009   4.672   0.647
 9572SOL    HW229616   1.098   4.624   0.775
 9573SOL     OW29617   1.395   1.420   0.168
 9573SOL    HW129618   1.489   1.447   0.149
 9573SOL    HW229619   1.353   1.386   0.084
 9574SOL     OW29620   3.547   3.601   5.573
 9574SOL    HW129621   3.502   3.532   5.516
 9574SOL    HW229622   3.641   3.572   5.591
 9575SOL     OW29623   5.543   0.564   1.980
 9575SOL    HW129624   5.623   0.595   1.929
 9575SOL    HW229625   5.472   0.635   1.976
 9576SOL     OW29626   2.922   1.577   4.309
 9576SOL    HW129627   2.971   1.614   4.231
 9576SOL    HW229628   2.897   1.651   4.372
 9577SOL     OW29629   0.073   6.659   2.372
 9577SOL    HW129630   0.001   6.592   2.387
 9577SOL    HW229631   0.092   6.707   2.457
 9578SOL     OW29632   6.387   2.656   2.610
 9578SOL    HW129633   6.288   2.669   2.606
 9578SOL    HW229634   6.431   2.740   2.640
 9579SOL     OW29635   1.720   6.955   1.415
 9579SOL    HW129636   1.649   0.001   1.418
 9579SOL    HW229637   1.678   6.866   1.397
 9580SOL     OW29638   4.532   3.750   0.257
 9580SOL    HW129639   4.604   3.742   0.326
 9580SOL    HW229640   4.476   3.831   0.278
 9581SOL     OW29641   1.151   4.915   6.379
 9581SOL    HW129642   1.095   4.994   6.354
 9581SOL    HW229643   1.092   4.843   6.418
 9582SOL     OW29644   4.374   4.781   4.287
 9582SOL    HW129645   4.352   4.796   4.190
 9582SOL    HW229646   4.290   4.776   4.340
 9583SOL     OW29647   2.009   3.443   2.102
 9583SOL    HW129648   1.946   3.521   2.105
 9583SOL    HW229649   2.087   3.466   2.044
 9584SOL     OW29650   6.356   5.153   6.334
 9584SOL    HW129651   6.299   5.074   6.360
 9584SOL    HW229652   6.336   5.229   6.396
 9585SOL     OW29653   6.097   0.242   3.339
 9585SOL    HW129654   6.020   0.253   3.402
 9585SOL    HW229655   6.166   0.312   3.357
 9586SOL     OW29656   5.148   3.419   2.809
 9586SOL    HW129657   5.182   3.459   2.894
 9586SOL    HW229658   5.108   3.330   2.827
 9587SOL     OW29659   5.959   0.156   1.870
 9587SOL    HW129660   5.983   0.091   1.798
 9587SOL    HW229661   5.870   0.131   1.909
 9588SOL     OW29662   6.990   0.620   1.688
 9588SOL    HW129663   7.000   0.568   1.603
 9588SOL    HW229664   0.017   0.706   1.681
 9589SOL     OW29665   2.513   0.146   6.077
 9589SOL    HW129666   2.601   0.106   6.100
 9589SOL    HW229667   2.473   0.097   5.999
 9590SOL     OW29668   6.965   4.394   3.182
 9590SOL    HW129669   6.890   4.460   3.171
 9590SOL    HW229670   0.005   4.405   3.107
 9591SOL     OW29671   2.393   5.701   0.979
 9591SOL    HW129672   2.409   5.758   0.898
 9591SOL    HW229673   2.317   5.639   0.961
 9592SOL     OW29674   4.268   5.387   2.563
 9592SOL    HW129675   4.223   5.470   2.530
 9592SOL    HW229676   4.348   5.412   2.619
 9593SOL     OW29677   6.376   2.654   4.657
 9593SOL    HW129678   6.425   2.569   4.634
 9593SOL    HW229679   6.435   2.732   4.638
 9594SOL     OW29680   6.595   6.593   2.286
 9594SOL    HW129681   6.533   6.521   2.316
 9594SOL    HW229682   6.571   6.621   2.193
 9595SOL     OW29683   1.940   6.069   4.563
 9595SOL    HW129684   2.013   6.078   4.496
 9595SOL    HW229685   1.898   5.979   4.555
 9596SOL     OW29686   6.148   5.909   5.281
 9596SOL    HW129687   6.100   5.990   5.314
 9596SOL    HW229688   6.200   5.868   5.355
 9597SOL     OW29689   1.294   4.012   1.664
 9597SOL    HW129690   1.328   4.053   1.749
 9597SOL    HW229691   1.355   3.937   1.637
 9598SOL     OW29692   0.050   4.634   6.287
 9598SOL    HW129693   6.985   4.672   6.267
 9598SOL    HW229694   0.120   4.705   6.279
 9599SOL     OW29695   4.023   0.820   5.644
 9599SOL    HW129696   4.057   0.846   5.735
 9599SOL    HW229697   4.043   0.892   5.579
 9600SOL     OW29698   1.688   6.721   5.897
 9600SOL    HW129699   1.639   6.801   5.930
 9600SOL    HW229700   1.635   6.638   5.919
 9601SOL     OW29701   0.662   4.620   5.199
 9601SOL    HW129702   0.747   4.660   5.164
 9601SOL    HW229703   0.585   4.661   5.151
 9602SOL     OW29704   0.993   5.275   6.776
 9602SOL    HW129705   0.993   5.372   6.752
 9602SOL    HW229706   1.002   5.265   6.875
 9603SOL     OW29707   1.386   6.141   4.705
 9603SOL    HW129708   1.313   6.193   4.748
 9603SOL    HW229709   1.402   6.176   4.613
 9604SOL     OW29710   4.966   1.481   6.533
 9604SOL    HW129711   5.030   1.411   6.502
 9604SOL    HW229712   4.998   1.518   6.621
 9605SOL     OW29713   2.527   5.692   6.346
 9605SOL    HW129714   2.452   5.677   6.409
 9605SOL    HW229715   2.491   5.717   6.256
 9606SOL     OW29716   0.240   6.171   3.730
 9606SOL    HW129717   0.275   6.088   3.772
 9606SOL    HW229718   0.285   6.186   3.642
 9607SOL     OW29719   1.180   1.540   2.337
 9607SOL    HW129720   1.184   1.597   2.419
 9607SOL    HW229721   1.243   1.463   2.346
 9608SOL     OW29722   0.305   0.031   2.645
 9608SOL    HW129723   0.363   0.085   2.584
 9608SOL    HW229724   0.254   0.092   2.705
 9609SOL     OW29725   1.944   4.479   4.546
 9609SOL    HW129726   1.993   4.488   4.633
 9609SOL    HW229727   2.010   4.467   4.472
 9610SOL     OW29728   2.060   1.667   6.422
 9610SOL    HW129729   2.065   1.624   6.332
 9610SOL    HW229730   1.977   1.636   6.469
 9611SOL     OW29731   6.342   0.513   0.792
 9611SOL    HW129732   6.425   0.566   0.805
 9611SOL    HW229733   6.317   0.467   0.877
 9612SOL     OW29734   5.739   3.411   1.507
 9612SOL    HW129735   5.799   3.419   1.587
 9612SOL    HW229736   5.696   3.320   1.506
 9613SOL     OW29737   6.583   6.184   4.907
 9613SOL    HW129738   6.543   6.249   4.971
 9613SOL    HW229739   6.680   6.170   4.930
 9614SOL     OW29740   3.455   3.829   2.156
 9614SOL    HW129741   3.463   3.798   2.251
 9614SOL    HW229742   3.363   3.811   2.123
 9615SOL     OW29743   1.261   6.029   2.528
 9615SOL    HW129744   1.303   6.120   2.533
 9615SOL    HW229745   1.312   5.972   2.465
 9616SOL     OW29746   3.687   2.364   0.773
 9616SOL    HW129747   3.696   2.264   0.775
 9616SOL    HW229748   3.671   2.393   0.679
 9617SOL     OW29749   1.383   3.177   3.767
 9617SOL    HW129750   1.407   3.253   3.828
 9617SOL    HW229751   1.464   3.151   3.714
 9618SOL     OW29752   3.344   6.241   6.489
 9618SOL    HW129753   3.358   6.159   6.434
 9618SOL    HW229754   3.323   6.318   6.430
 9619SOL     OW29755   2.513   6.069   0.606
 9619SOL    HW129756   2.496   6.160   0.644
 9619SOL    HW229757   2.460   6.001   0.658
 9620SOL     OW29758   3.280   0.796   0.053
 9620SOL    HW129759   3.182   0.817   0.059
 9620SOL    HW229760   3.301   0.761   6.987
 9621SOL     OW29761   0.796   0.809   2.161
 9621SOL    HW129762   0.774   0.901   2.196
 9621SOL    HW229763   0.727   0.783   2.093
 9622SOL     OW29764   5.740   0.024   6.493
 9622SOL    HW129765   5.791   0.020   6.579
 9622SOL    HW229766   5.655   6.996   6.503
 9623SOL     OW29767   4.532   6.081   6.295
 9623SOL    HW129768   4.458   6.138   6.258
 9623SOL    HW229769   4.620   6.123   6.273
 9624SOL     OW29770   4.422   5.716   4.889
 9624SOL    HW129771   4.416   5.815   4.884
 9624SOL    HW229772   4.342   5.680   4.938
 9625SOL     OW29773   5.244   4.205   6.646
 9625SOL    HW129774   5.222   4.266   6.722
 9625SOL    HW229775   5.321   4.242   6.594
 9626SOL     OW29776   1.558   4.417   6.060
 9626SOL    HW129777   1.646   4.419   6.108
 9626SOL    HW229778   1.559   4.346   5.990
 9627SOL     OW29779   1.188   5.416   6.438
 9627SOL    HW129780   1.131   5.466   6.504
 9627SOL    HW229781   1.236   5.342   6.486
 9628SOL     OW29782   5.553   3.979   6.599
 9628SOL    HW129783   5.512   3.962   6.510
 9628SOL    HW229784   5.549   3.896   6.655
 9629SOL     OW29785   0.060   5.687   2.816
 9629SOL    HW129786   7.002   5.742   2.830
 9629SOL    HW229787   0.136   5.746   2.789
 9630SOL     OW29788   6.343   6.422   5.722
 9630SOL    HW129789   6.347   6.366   5.640
 9630SOL    HW229790   6.436   6.451   5.747
 9631SOL     OW29791   4.346   1.373   1.144
 9631SOL    HW129792   4.290   1.446   1.107
 9631SOL    HW229793   4.288   1.305   1.189
 9632SOL     OW29794   3.160   6.529   1.063
 9632SOL    HW129795   3.247   6.529   1.114
 9632SOL    HW229796   3.084   6.514   1.127
 9633SOL     OW29797   4.021   3.168   2.625
 9633SOL    HW129798   3.952   3.147   2.556
 9633SOL    HW229799   4.067   3.254   2.602
 9634SOL     OW29800   5.409   4.928   2.734
 9634SOL    HW129801   5.363   5.003   2.686
 9634SOL    HW229802   5.437   4.858   2.668
 9635SOL     OW29803   1.669   3.957   3.961
 9635SOL    HW129804   1.720   3.971   3.876
 9635SOL    HW229805   1.572   3.943   3.940
 9636SOL     OW29806   4.227   2.211   4.909
 9636SOL    HW129807   4.252   2.138   4.973
 9636SOL    HW229808   4.211   2.296   4.960
 9637SOL     OW29809   2.513   2.786   0.892
 9637SOL    HW129810   2.477   2.787   0.799
 9637SOL    HW229811   2.543   2.694   0.916
 9638SOL     OW29812   0.410   4.498   5.961
 9638SOL    HW129813   0.414   4.433   6.037
 9638SOL    HW229814   0.315   4.519   5.940
 9639SOL     OW29815   4.554   1.917   1.743
 9639SOL    HW129816   4.635   1.965   1.778
 9639SOL    HW229817   4.562   1.819   1.762
 9640SOL     OW29818   3.779   0.809   2.265
 9640SOL    HW129819   3.868   0.777   2.297
 9640SOL    HW229820   3.762   0.773   2.173
 9641SOL     OW29821   5.919   4.717   2.741
 9641SOL    HW129822   5.886   4.810   2.727
 9641SOL    HW229823   5.906   4.664   2.656
 9642SOL     OW29824   1.307   0.345   3.737
 9642SOL    HW129825   1.265   0.321   3.650
 9642SOL    HW229826   1.351   0.434   3.730
 9643SOL     OW29827   5.150   3.928   4.093
 9643SOL    HW129828   5.091   3.928   4.174
 9643SOL    HW229829   5.152   4.020   4.054
 9644SOL     OW29830   1.283   5.705   5.134
 9644SOL    HW129831   1.326   5.637   5.193
 9644SOL    HW229832   1.271   5.667   5.042
 9645SOL     OW29833   1.484   5.361   6.081
 9645SOL    HW129834   1.471   5.275   6.033
 9645SOL    HW229835   1.573   5.360   6.127
 9646SOL     OW29836   2.946   6.632   4.949
 9646SOL    HW129837   2.853   6.656   4.923
 9646SOL    HW229838   2.966   6.669   5.040
 9647SOL     OW29839   6.273   6.296   3.441
 9647SOL    HW129840   6.250   6.260   3.531
 9647SOL    HW229841   6.372   6.304   3.433
 9648SOL     OW29842   4.807   2.059   1.338
 9648SOL    HW129843   4.793   2.118   1.259
 9648SOL    HW229844   4.727   2.064   1.398
 9649SOL     OW29845   2.230   3.499   0.491
 9649SOL    HW129846   2.161   3.556   0.535
 9649SOL    HW229847   2.193   3.459   0.408
 9650SOL     OW29848   6.823   4.944   4.160
 9650SOL    HW129849   6.875   4.868   4.123
 9650SOL    HW229850   6.728   4.915   4.175
 9651SOL     OW29851   2.357   1.400   0.172
 9651SOL    HW129852   2.273   1.351   0.197
 9651SOL    HW229853   2.436   1.340   0.187
 9652SOL     OW29854   0.038   3.932   1.297
 9652SOL    HW129855   0.119   3.899   1.344
 9652SOL    HW229856   0.061   4.012   1.242
 9653SOL     OW29857   4.660   3.858   6.160
 9653SOL    HW129858   4.607   3.776   6.179
 9653SOL    HW229859   4.749   3.832   6.122
 9654SOL     OW29860   3.592   3.123   3.677
 9654SOL    HW129861   3.590   3.121   3.777
 9654SOL    HW229862   3.635   3.039   3.643
 9655SOL     OW29863   5.839   0.665   1.790
 9655SOL    HW129864   5.839   0.572   1.755
 9655SOL    HW229865   5.865   0.664   1.887
 9656SOL     OW29866   6.019   3.672   0.736
 9656SOL    HW129867   5.992   3.761   0.698
 9656SOL    HW229868   6.102   3.683   0.790
 9657SOL     OW29869   5.774   3.767   3.230
 9657SOL    HW129870   5.681   3.757   3.267
 9657SOL    HW229871   5.793   3.693   3.166
 9658SOL     OW29872   4.315   1.470   2.834
 9658SOL    HW129873   4.242   1.405   2.855
 9658SOL    HW229874   4.284   1.562   2.859
 9659SOL     OW29875   3.430   2.575   0.825
 9659SOL    HW129876   3.525   2.553   0.805
 9659SOL    HW229877   3.384   2.606   0.742
 9660SOL     OW29878   0.940   5.766   0.617
 9660SOL    HW129879   0.865   5.805   0.564
 9660SOL    HW229880   0.992   5.703   0.560
 9661SOL     OW29881   5.321   4.876   1.585
 9661SOL    HW129882   5.372   4.867   1.499
 9661SOL    HW229883   5.259   4.798   1.595
 9662SOL     OW29884   5.251   4.868   0.162
 9662SOL    HW129885   5.345   4.902   0.154
 9662SOL    HW229886   5.251   4.785   0.218
 9663SOL     OW29887   1.153   4.039   3.749
 9663SOL    HW129888   1.178   4.058   3.844
 9663SOL    HW229889   1.175   4.119   3.692
 9664SOL     OW29890   5.252   3.925   3.520
 9664SOL    HW129891   5.309   3.929   3.438
 9664SOL    HW229892   5.160   3.955   3.498
 9665SOL     OW29893   6.577   6.504   6.567
 9665SOL    HW129894   6.669   6.475   6.593
 9665SOL    HW229895   6.578   6.600   6.540
 9666SOL     OW29896   6.325   4.354   1.302
 9666SOL    HW129897   6.357   4.265   1.268
 9666SOL    HW229898   6.364   4.427   1.247
 9667SOL     OW29899   4.536   5.617   0.768
 9667SOL    HW129900   4.541   5.641   0.865
 9667SOL    HW229901   4.605   5.548   0.747
 9668SOL     OW29902   1.523   6.234   5.636
 9668SOL    HW129903   1.520   6.215   5.734
 9668SOL    HW229904   1.430   6.235   5.600
 9669SOL     OW29905   2.543   6.895   0.841
 9669SOL    HW129906   2.485   6.927   0.916
 9669SOL    HW229907   2.527   6.798   0.826
 9670SOL     OW29908   0.393   0.319   5.780
 9670SOL    HW129909   0.428   0.369   5.860
 9670SOL    HW229910   0.456   0.246   5.755
 9671SOL     OW29911   1.002   4.997   6.817
 9671SOL    HW129912   1.089   4.962   6.782
 9671SOL    HW229913   0.991   5.092   6.789
 9672SOL     OW29914   0.647   4.499   3.795
 9672SOL    HW129915   0.640   4.406   3.760
 9672SOL    HW229916   0.702   4.498   3.879
 9673SOL     OW29917   3.172   4.329   1.503
 9673SOL    HW129918   3.259   4.280   1.494
 9673SOL    HW229919   3.130   4.339   1.413
 9674SOL     OW29920   3.448   6.364   3.089
 9674SOL    HW129921   3.351   6.365   3.111
 9674SOL    HW229922   3.499   6.411   3.161
 9675SOL     OW29923   4.540   4.061   0.824
 9675SOL    HW129924   4.514   3.967   0.848
 9675SOL    HW229925   4.547   4.116   0.907
 9676SOL     OW29926   0.964   2.754   6.188
 9676SOL    HW129927   0.993   2.672   6.236
 9676SOL    HW229928   0.890   2.798   6.238
 9677SOL     OW29929   6.043   5.070   0.760
 9677SOL    HW129930   6.075   4.976   0.765
 9677SOL    HW229931   6.115   5.128   0.720
 9678SOL     OW29932   3.242   3.909   4.526
 9678SOL    HW129933   3.144   3.895   4.538
 9678SOL    HW229934   3.286   3.913   4.616
 9679SOL     OW29935   2.359   1.877   4.594
 9679SOL    HW129936   2.308   1.932   4.660
 9679SOL    HW229937   2.301   1.804   4.559
 9680SOL     OW29938   4.767   6.246   3.794
 9680SOL    HW129939   4.688   6.206   3.748
 9680SOL    HW229940   4.737   6.317   3.858
 9681SOL     OW29941   2.228   0.899   1.038
 9681SOL    HW129942   2.154   0.859   0.984
 9681SOL    HW229943   2.188   0.959   1.109
 9682SOL     OW29944   5.481   5.013   4.371
 9682SOL    HW129945   5.493   5.022   4.469
 9682SOL    HW229946   5.400   5.065   4.342
 9683SOL     OW29947   1.729   6.326   0.618
 9683SOL    HW129948   1.785   6.308   0.537
 9683SOL    HW229949   1.774   6.394   0.676
 9684SOL     OW29950   1.774   4.166   5.467
 9684SOL    HW129951   1.815   4.132   5.552
 9684SOL    HW229952   1.838   4.154   5.392
 9685SOL     OW29953   4.339   3.453   0.960
 9685SOL    HW129954   4.277   3.436   1.036
 9685SOL    HW229955   4.359   3.367   0.913
 9686SOL     OW29956   6.475   2.291   6.607
 9686SOL    HW129957   6.422   2.290   6.522
 9686SOL    HW229958   6.560   2.342   6.593
 9687SOL     OW29959   6.299   6.768   1.439
 9687SOL    HW129960   6.208   6.731   1.457
 9687SOL    HW229961   6.334   6.729   1.354
 9688SOL     OW29962   1.664   4.725   1.267
 9688SOL    HW129963   1.747   4.781   1.269
 9688SOL    HW229964   1.659   4.676   1.180
 9689SOL     OW29965   1.375   6.077   6.762
 9689SOL    HW129966   1.460   6.070   6.813
 9689SOL    HW229967   1.389   6.040   6.670
 9690SOL     OW29968   4.916   5.085   4.493
 9690SOL    HW129969   5.014   5.068   4.504
 9690SOL    HW229970   4.870   5.070   4.581
 9691SOL     OW29971   3.238   4.026   2.047
 9691SOL    HW129972   3.232   4.062   1.953
 9691SOL    HW229973   3.146   4.008   2.081
 9692SOL     OW29974   4.366   5.252   6.923
 9692SOL    HW129975   4.267   5.237   6.915
 9692SOL    HW229976   4.410   5.169   6.958
 9693SOL     OW29977   6.092   3.570   4.254
 9693SOL    HW129978   6.088   3.509   4.174
 9693SOL    HW229979   5.999   3.589   4.285
 9694SOL     OW29980   3.012   6.898   1.885
 9694SOL    HW129981   3.012   6.806   1.847
 9694SOL    HW229982   2.918   6.923   1.912
 9695SOL     OW29983   0.099   4.008   3.710
 9695SOL    HW129984   0.093   3.946   3.787
 9695SOL    HW229985   0.187   4.057   3.712
 9696SOL     OW29986   6.012   1.662   3.162
 9696SOL    HW129987   5.940   1.629   3.100
 9696SOL    HW229988   6.082   1.710   3.108
 9697SOL     OW29989   6.891   6.064   0.085
 9697SOL    HW129990   6.850   6.038   7.022
 9697SOL    HW229991   6.943   5.987   0.122
 9698SOL     OW29992   5.820   3.566   0.199
 9698SOL    HW129993   5.761   3.498   0.158
 9698SOL    HW229994   5.914   3.532   0.201
 9699SOL     OW29995   1.301   5.723   0.040
 9699SOL    HW129996   1.213   5.739   7.019
 9699SOL    HW229997   1.287   5.662   0.118
 9700SOL     OW29998   6.220   6.935   3.793
 9700SOL    HW129999   6.212   6.944   3.893
 9700SOL    HW230000   6.267   7.015   3.757
 9701SOL     OW30001   4.925   3.318   6.874
 9701SOL    HW130002   4.919   3.228   6.916
 9701SOL    HW230003   4.853   3.328   6.806
 9702SOL     OW30004   3.582   3.057   0.443
 9702SOL    HW130005   3.592   3.111   0.527
 9702SOL    HW230006   3.573   3.119   0.365
 9703SOL     OW30007   6.189   4.226   4.759
 9703SOL    HW130008   6.180   4.325   4.768
 9703SOL    HW230009   6.206   4.186   4.850
 9704SOL     OW30010   3.100   4.899   2.733
 9704SOL    HW130011   3.088   4.875   2.637
 9704SOL    HW230012   3.190   4.870   2.765
 9705SOL     OW30013   6.066   4.150   5.448
 9705SOL    HW130014   6.094   4.142   5.353
 9705SOL    HW230015   6.023   4.239   5.463
 9706SOL     OW30016   1.711   1.341   1.990
 9706SOL    HW130017   1.628   1.395   2.007
 9706SOL    HW230018   1.706   1.302   1.898
 9707SOL     OW30019   6.054   4.810   2.320
 9707SOL    HW130020   6.016   4.835   2.409
 9707SOL    HW230021   6.031   4.715   2.299
 9708SOL     OW30022   1.862   0.888   2.566
 9708SOL    HW130023   1.803   0.907   2.644
 9708SOL    HW230024   1.815   0.916   2.481
 9709SOL     OW30025   5.837   3.430   2.170
 9709SOL    HW130026   5.867   3.346   2.123
 9709SOL    HW230027   5.917   3.478   2.206
 9710SOL     OW30028   6.453   7.021   6.550
 9710SOL    HW130029   6.494   0.042   6.629
 9710SOL    HW230030   6.391   0.060   6.503
 9711SOL     OW30031   3.788   6.092   6.631
 9711SOL    HW130032   3.871   6.130   6.591
 9711SOL    HW230033   3.730   6.165   6.666
 9712SOL     OW30034   5.961   3.056   1.095
 9712SOL    HW130035   5.935   3.043   1.191
 9712SOL    HW230036   5.914   2.989   1.038
 9713SOL     OW30037   1.782   6.413   3.345
 9713SOL    HW130038   1.747   6.320   3.360
 9713SOL    HW230039   1.801   6.426   3.248
 9714SOL     OW30040   3.502   5.244   4.685
 9714SOL    HW130041   3.418   5.282   4.649
 9714SOL    HW230042   3.569   5.317   4.699
 9715SOL     OW30043   6.050   4.453   1.416
 9715SOL    HW130044   6.142   4.416   1.430
 9715SOL    HW230045   6.014   4.423   1.328
 9716SOL     OW30046   4.115   4.243   6.522
 9716SOL    HW130047   4.056   4.164   6.506
 9716SOL    HW230048   4.190   4.216   6.583
 9717SOL     OW30049   4.289   0.097   6.283
 9717SOL    HW130050   4.282   0.196   6.270
 9717SOL    HW230051   4.365   0.077   6.345
 9718SOL     OW30052   3.650   1.838   0.574
 9718SOL    HW130053   3.600   1.795   0.499
 9718SOL    HW230054   3.745   1.851   0.547
 9719SOL     OW30055   5.042   6.619   4.877
 9719SOL    HW130056   5.101   6.620   4.959
 9719SOL    HW230057   4.948   6.603   4.905
 9720SOL     OW30058   1.663   4.200   2.686
 9720SOL    HW130059   1.605   4.123   2.712
 9720SOL    HW230060   1.678   4.259   2.766
 9721SOL     OW30061   0.405   1.619   1.098
 9721SOL    HW130062   0.394   1.524   1.070
 9721SOL    HW230063   0.369   1.679   1.026
 9722SOL     OW30064   3.736   2.351   5.645
 9722SOL    HW130065   3.694   2.328   5.732
 9722SOL    HW230066   3.708   2.443   5.618
 9723SOL     OW30067   6.293   4.885   4.713
 9723SOL    HW130068   6.224   4.836   4.765
 9723SOL    HW230069   6.261   4.978   4.694
 9724SOL     OW30070   1.933   5.493   6.330
 9724SOL    HW130071   1.838   5.460   6.328
 9724SOL    HW230072   1.977   5.472   6.243
 9725SOL     OW30073   3.865   5.584   5.087
 9725SOL    HW130074   3.844   5.680   5.068
 9725SOL    HW230075   3.841   5.528   5.008
 9726SOL     OW30076   5.191   1.046   4.201
 9726SOL    HW130077   5.231   0.958   4.227
 9726SOL    HW230078   5.206   1.112   4.275
 9727SOL     OW30079   0.382   2.303   7.009
 9727SOL    HW130080   0.301   2.340   0.030
 9727SOL    HW230081   0.438   2.254   0.051
 9728SOL     OW30082   5.824   0.931   5.859
 9728SOL    HW130083   5.845   0.996   5.932
 9728SOL    HW230084   5.907   0.911   5.807
 9729SOL     OW30085   1.433   3.964   3.759
 9729SOL    HW130086   1.464   4.059   3.763
 9729SOL    HW230087   1.339   3.961   3.725
 9730SOL     OW30088   0.443   4.148   4.283
 9730SOL    HW130089   0.424   4.214   4.355
 9730SOL    HW230090   0.536   4.162   4.248
 9731SOL     OW30091   5.128   4.156   2.396
 9731SOL    HW130092   5.071   4.159   2.479
 9731SOL    HW230093   5.141   4.061   2.368
 9732SOL     OW30094   1.014   3.244   2.073
 9732SOL    HW130095   0.984   3.175   2.139
 9732SOL    HW230096   1.031   3.331   2.121
 9733SOL     OW30097   6.248   5.746   2.814
 9733SOL    HW130098   6.233   5.746   2.715
 9733SOL    HW230099   6.336   5.790   2.833
 9734SOL     OW30100   6.264   6.718   6.844
 9734SOL    HW130101   6.347   6.675   6.878
 9734SOL    HW230102   6.282   6.760   6.755
 9735SOL     OW30103   1.559   2.137   3.756
 9735SOL    HW130104   1.650   2.112   3.725
 9735SOL    HW230105   1.540   2.232   3.731
 9736SOL     OW30106   5.034   2.029   5.938
 9736SOL    HW130107   4.965   2.064   6.001
 9736SOL    HW230108   5.124   2.036   5.980
 9737SOL     OW30109   5.778   2.215   2.367
 9737SOL    HW130110   5.723   2.189   2.287
 9737SOL    HW230111   5.718   2.255   2.436
 9738SOL     OW30112   1.749   6.541   0.369
 9738SOL    HW130113   1.843   6.569   0.388
 9738SOL    HW230114   1.747   6.490   0.283
 9739SOL     OW30115   4.555   6.165   6.992
 9739SOL    HW130116   4.588   6.072   7.003
 9739SOL    HW230117   4.581   6.200   6.902
 9740SOL     OW30118   5.730   0.852   2.181
 9740SOL    HW130119   5.789   0.907   2.123
 9740SOL    HW230120   5.786   0.793   2.239
 9741SOL     OW30121   2.771   1.090   3.950
 9741SOL    HW130122   2.747   1.087   4.047
 9741SOL    HW230123   2.754   1.182   3.914
 9742SOL     OW30124   4.258   1.450   6.729
 9742SOL    HW130125   4.172   1.421   6.770
 9742SOL    HW230126   4.309   1.370   6.698
 9743SOL     OW30127   0.376   3.176   3.496
 9743SOL    HW130128   0.353   3.245   3.427
 9743SOL    HW230129   0.432   3.105   3.453
 9744SOL     OW30130   2.327   6.882   2.634
 9744SOL    HW130131   2.263   6.810   2.661
 9744SOL    HW230132   2.350   6.938   2.714
 9745SOL     OW30133   5.605   1.767   5.900
 9745SOL    HW130134   5.524   1.756   5.957
 9745SOL    HW230135   5.685   1.783   5.958
 9746SOL     OW30136   4.855   6.748   6.742
 9746SOL    HW130137   4.834   6.781   6.650
 9746SOL    HW230138   4.851   6.648   6.743
 9747SOL     OW30139   2.550   1.702   1.642
 9747SOL    HW130140   2.550   1.796   1.609
 9747SOL    HW230141   2.629   1.688   1.702
 9748SOL     OW30142   0.077   0.541   3.068
 9748SOL    HW130143   0.135   0.613   3.031
 9748SOL    HW230144   0.036   0.571   3.154
 9749SOL     OW30145   0.594   2.313   2.264
 9749SOL    HW130146   0.674   2.265   2.228
 9749SOL    HW230147   0.516   2.299   2.202
 9750SOL     OW30148   6.423   4.828   3.822
 9750SOL    HW130149   6.344   4.800   3.768
 9750SOL    HW230150   6.419   4.926   3.838
 9751SOL     OW30151   2.724   0.185   1.240
 9751SOL    HW130152   2.649   0.219   1.184
 9751SOL    HW230153   2.783   0.126   1.185
 9752SOL     OW30154   4.323   2.509   6.868
 9752SOL    HW130155   4.421   2.499   6.850
 9752SOL    HW230156   4.275   2.524   6.782
 9753SOL     OW30157   0.859   5.667   5.986
 9753SOL    HW130158   0.796   5.743   5.968
 9753SOL    HW230159   0.889   5.671   6.081
 9754SOL     OW30160   3.789   0.527   0.546
 9754SOL    HW130161   3.760   0.611   0.592
 9754SOL    HW230162   3.822   0.461   0.614
 9755SOL     OW30163   3.050   4.085   5.179
 9755SOL    HW130164   3.034   4.172   5.226
 9755SOL    HW230165   3.144   4.082   5.145
 9756SOL     OW30166   5.593   1.376   6.013
 9756SOL    HW130167   5.551   1.440   5.948
 9756SOL    HW230168   5.597   1.419   6.103
 9757SOL     OW30169   6.055   4.522   3.873
 9757SOL    HW130170   5.989   4.446   3.876
 9757SOL    HW230171   6.039   4.583   3.951
 9758SOL     OW30172   1.243   1.389   0.388
 9758SOL    HW130173   1.219   1.292   0.395
 9758SOL    HW230174   1.298   1.404   0.307
 9759SOL     OW30175   0.869   1.687   0.471
 9759SOL    HW130176   0.875   1.645   0.381
 9759SOL    HW230177   0.786   1.743   0.477
 9760SOL     OW30178   5.168   2.628   6.647
 9760SOL    HW130179   5.258   2.589   6.665
 9760SOL    HW230180   5.107   2.609   6.724
 9761SOL     OW30181   1.512   1.069   1.996
 9761SOL    HW130182   1.545   1.129   1.923
 9761SOL    HW230183   1.524   0.974   1.969
 9762SOL     OW30184   2.850   1.924   4.656
 9762SOL    HW130185   2.812   1.849   4.710
 9762SOL    HW230186   2.777   1.965   4.601
 9763SOL     OW30187   6.468   1.446   2.664
 9763SOL    HW130188   6.383   1.433   2.715
 9763SOL    HW230189   6.447   1.478   2.571
 9764SOL     OW30190   6.129   2.664   2.629
 9764SOL    HW130191   6.100   2.575   2.665
 9764SOL    HW230192   6.069   2.690   2.553
 9765SOL     OW30193   6.356   1.333   2.224
 9765SOL    HW130194   6.366   1.265   2.152
 9765SOL    HW230195   6.263   1.370   2.223
 9766SOL     OW30196   2.297   0.191   3.273
 9766SOL    HW130197   2.237   0.194   3.353
 9766SOL    HW230198   2.321   0.284   3.246
 9767SOL     OW30199   2.381   2.946   5.608
 9767SOL    HW130200   2.466   2.926   5.656
 9767SOL    HW230201   2.319   2.868   5.617
 9768SOL     OW30202   5.616   2.413   0.507
 9768SOL    HW130203   5.648   2.423   0.601
 9768SOL    HW230204   5.684   2.449   0.444
 9769SOL     OW30205   3.470   0.869   5.046
 9769SOL    HW130206   3.543   0.819   5.092
 9769SOL    HW230207   3.408   0.908   5.114
 9770SOL     OW30208   3.383   2.135   5.792
 9770SOL    HW130209   3.292   2.105   5.761
 9770SOL    HW230210   3.450   2.116   5.720
 9771SOL     OW30211   2.132   6.886   1.604
 9771SOL    HW130212   2.185   6.912   1.684
 9771SOL    HW230213   2.069   6.812   1.627
 9772SOL     OW30214   2.157   6.151   1.952
 9772SOL    HW130215   2.204   6.126   1.867
 9772SOL    HW230216   2.204   6.229   1.994
 9773SOL     OW30217   5.767   5.138   3.332
 9773SOL    HW130218   5.679   5.182   3.352
 9773SOL    HW230219   5.841   5.198   3.361
 9774SOL     OW30220   0.876   5.096   3.383
 9774SOL    HW130221   0.857   5.176   3.439
 9774SOL    HW230222   0.972   5.071   3.393
 9775SOL     OW30223   2.932   0.436   3.253
 9775SOL    HW130224   2.971   0.484   3.174
 9775SOL    HW230225   2.984   0.460   3.335
 9776SOL     OW30226   1.984   5.144   6.138
 9776SOL    HW130227   1.932   5.140   6.224
 9776SOL    HW230228   2.029   5.057   6.123
 9777SOL     OW30229   4.991   6.268   6.452
 9777SOL    HW130230   5.055   6.307   6.386
 9777SOL    HW230231   5.039   6.251   6.538
 9778SOL     OW30232   0.113   2.016   4.607
 9778SOL    HW130233   0.086   2.106   4.640
 9778SOL    HW230234   0.198   2.024   4.556
 9779SOL     OW30235   0.599   2.825   3.891
 9779SOL    HW130236   0.516   2.870   3.922
 9779SOL    HW230237   0.588   2.796   3.796
 9780SOL     OW30238   1.669   1.525   1.570
 9780SOL    HW130239   1.720   1.439   1.572
 9780SOL    HW230240   1.714   1.592   1.629
 9781SOL     OW30241   1.891   3.691   4.482
 9781SOL    HW130242   1.891   3.770   4.543
 9781SOL    HW230243   1.962   3.627   4.509
 9782SOL     OW30244   0.456   2.025   0.994
 9782SOL    HW130245   0.555   2.041   0.991
 9782SOL    HW230246   0.437   1.928   0.979
 9783SOL     OW30247   4.273   1.864   3.263
 9783SOL    HW130248   4.288   1.783   3.206
 9783SOL    HW230249   4.175   1.878   3.276
 9784SOL     OW30250   3.419   1.111   6.435
 9784SOL    HW130251   3.415   1.093   6.337
 9784SOL    HW230252   3.450   1.029   6.483
 9785SOL     OW30253   6.406   2.551   5.130
 9785SOL    HW130254   6.321   2.603   5.131
 9785SOL    HW230255   6.476   2.602   5.080
 9786SOL     OW30256   2.812   4.192   0.747
 9786SOL    HW130257   2.767   4.134   0.679
 9786SOL    HW230258   2.847   4.274   0.701
 9787SOL     OW30259   3.990   3.536   4.303
 9787SOL    HW130260   3.984   3.636   4.303
 9787SOL    HW230261   4.060   3.507   4.367
 9788SOL     OW30262   1.004   5.895   2.203
 9788SOL    HW130263   1.013   5.796   2.201
 9788SOL    HW230264   0.913   5.919   2.238
 9789SOL     OW30265   2.829   6.965   6.782
 9789SOL    HW130266   2.877   6.903   6.844
 9789SOL    HW230267   2.759   7.016   6.833
 9790SOL     OW30268   6.412   4.725   5.224
 9790SOL    HW130269   6.419   4.804   5.162
 9790SOL    HW230270   6.463   4.745   5.308
 9791SOL     OW30271   0.711   0.266   0.297
 9791SOL    HW130272   0.673   0.342   0.246
 9791SOL    HW230273   0.665   0.181   0.271
 9792SOL     OW30274   3.932   5.323   1.032
 9792SOL    HW130275   3.937   5.384   0.952
 9792SOL    HW230276   3.973   5.368   1.111
 9793SOL     OW30277   4.243   0.355   1.319
 9793SOL    HW130278   4.184   0.341   1.240
 9793SOL    HW230279   4.325   0.404   1.291
 9794SOL     OW30280   4.987   4.477   4.578
 9794SOL    HW130281   4.971   4.564   4.625
 9794SOL    HW230282   4.924   4.468   4.501
 9795SOL     OW30283   1.019   3.220   4.118
 9795SOL    HW130284   0.967   3.157   4.176
 9795SOL    HW230285   0.970   3.234   4.032
 9796SOL     OW30286   4.073   3.762   3.874
 9796SOL    HW130287   4.033   3.772   3.783
 9796SOL    HW230288   4.131   3.681   3.877
 9797SOL     OW30289   2.602   6.147   6.855
 9797SOL    HW130290   2.654   6.096   6.923
 9797SOL    HW230291   2.564   6.229   6.897
 9798SOL     OW30292   2.219   1.773   1.403
 9798SOL    HW130293   2.292   1.707   1.420
 9798SOL    HW230294   2.159   1.777   1.483
 9799SOL     OW30295   3.017   4.167   6.482
 9799SOL    HW130296   3.026   4.088   6.421
 9799SOL    HW230297   2.990   4.247   6.430
 9800SOL     OW30298   5.631   3.136   4.283
 9800SOL    HW130299   5.662   3.042   4.295
 9800SOL    HW230300   5.542   3.136   4.238
 9801SOL     OW30301   4.986   4.685   0.202
 9801SOL    HW130302   4.891   4.685   0.171
 9801SOL    HW230303   5.004   4.770   0.253
 9802SOL     OW30304   4.291   4.654   0.551
 9802SOL    HW130305   4.368   4.621   0.603
 9802SOL    HW230306   4.206   4.616   0.588
 9803SOL     OW30307   1.953   3.388   6.789
 9803SOL    HW130308   1.946   3.449   6.710
 9803SOL    HW230309   2.017   3.314   6.768
 9804SOL     OW30310   6.794   6.110   3.008
 9804SOL    HW130311   6.884   6.093   3.049
 9804SOL    HW230312   6.769   6.206   3.023
 9805SOL     OW30313   1.319   0.022   2.971
 9805SOL    HW130314   1.296   6.951   2.994
 9805SOL    HW230315   1.362   0.026   2.881
 9806SOL     OW30316   2.877   2.848   6.105
 9806SOL    HW130317   2.911   2.765   6.060
 9806SOL    HW230318   2.778   2.854   6.093
 9807SOL     OW30319   3.453   2.892   2.322
 9807SOL    HW130320   3.448   2.812   2.261
 9807SOL    HW230321   3.427   2.974   2.271
 9808SOL     OW30322   4.021   5.489   3.927
 9808SOL    HW130323   4.031   5.560   3.857
 9808SOL    HW230324   3.932   5.445   3.918
 9809SOL     OW30325   0.653   3.276   0.411
 9809SOL    HW130326   0.654   3.200   0.346
 9809SOL    HW230327   0.659   3.362   0.361
 9810SOL     OW30328   2.631   1.804   4.827
 9810SOL    HW130329   2.607   1.888   4.778
 9810SOL    HW230330   2.666   1.828   4.918
 9811SOL     OW30331   6.015   3.567   3.653
 9811SOL    HW130332   6.022   3.601   3.559
 9811SOL    HW230333   6.106   3.554   3.691
 9812SOL     OW30334   2.638   0.262   4.217
 9812SOL    HW130335   2.550   0.292   4.252
 9812SOL    HW230336   2.703   0.251   4.293
 9813SOL     OW30337   5.987   2.332   0.401
 9813SOL    HW130338   5.913   2.271   0.430
 9813SOL    HW230339   6.067   2.277   0.375
 9814SOL     OW30340   5.127   1.795   6.927
 9814SOL    HW130341   5.222   1.774   6.949
 9814SOL    HW230342   5.067   1.762   6.999
 9815SOL     OW30343   4.730   2.503   4.187
 9815SOL    HW130344   4.704   2.566   4.259
 9815SOL    HW230345   4.769   2.420   4.228
 9816SOL     OW30346   0.877   0.192   6.332
 9816SOL    HW130347   0.886   0.129   6.410
 9816SOL    HW230348   0.922   0.153   6.253
 9817SOL     OW30349   0.687   6.766   2.891
 9817SOL    HW130350   0.782   6.797   2.901
 9817SOL    HW230351   0.647   6.809   2.810
 9818SOL     OW30352   6.231   2.245   4.965
 9818SOL    HW130353   6.296   2.171   4.979
 9818SOL    HW230354   6.139   2.215   4.992
 9819SOL     OW30355   4.707   2.769   3.529
 9819SOL    HW130356   4.723   2.866   3.512
 9819SOL    HW230357   4.775   2.735   3.594
 9820SOL     OW30358   3.396   3.469   6.941
 9820SOL    HW130359   3.339   3.392   6.913
 9820SOL    HW230360   3.385   3.545   6.877
 9821SOL     OW30361   5.844   0.284   6.456
 9821SOL    HW130362   5.851   0.306   6.553
 9821SOL    HW230363   5.817   0.188   6.446
 9822SOL     OW30364   0.649   0.021   2.421
 9822SOL    HW130365   0.584   0.092   2.448
 9822SOL    HW230366   0.739   0.062   2.405
 9823SOL     OW30367   3.527   0.237   1.253
 9823SOL    HW130368   3.528   0.331   1.289
 9823SOL    HW230369   3.459   0.231   1.180
 9824SOL     OW30370   1.596   4.259   5.859
 9824SOL    HW130371   1.554   4.177   5.819
 9824SOL    HW230372   1.609   4.328   5.788
 9825SOL     OW30373   3.346   5.152   5.293
 9825SOL    HW130374   3.446   5.154   5.281
 9825SOL    HW230375   3.304   5.210   5.223
 9826SOL     OW30376   4.276   5.824   6.138
 9826SOL    HW130377   4.359   5.770   6.125
 9826SOL    HW230378   4.196   5.767   6.119
 9827SOL     OW30379   2.092   4.414   4.275
 9827SOL    HW130380   2.005   4.379   4.240
 9827SOL    HW230381   2.134   4.344   4.334
 9828SOL     OW30382   3.203   2.770   6.564
 9828SOL    HW130383   3.141   2.822   6.506
 9828SOL    HW230384   3.167   2.767   6.657
 9829SOL     OW30385   2.874   6.741   0.890
 9829SOL    HW130386   2.900   6.680   0.816
 9829SOL    HW230387   2.936   6.729   0.967
 9830SOL     OW30388   5.579   2.249   1.480
 9830SOL    HW130389   5.551   2.160   1.514
 9830SOL    HW230390   5.502   2.314   1.488
 9831SOL     OW30391   1.991   6.148   0.181
 9831SOL    HW130392   2.037   6.230   0.148
 9831SOL    HW230393   2.053   6.096   0.240
 9832SOL     OW30394   4.993   5.586   2.493
 9832SOL    HW130395   4.966   5.650   2.565
 9832SOL    HW230396   5.063   5.628   2.435
 9833SOL     OW30397   3.374   2.900   5.108
 9833SOL    HW130398   3.342   2.810   5.138
 9833SOL    HW230399   3.295   2.959   5.087
 9834SOL     OW30400   2.527   3.985   5.915
 9834SOL    HW130401   2.597   3.928   5.958
 9834SOL    HW230402   2.500   3.945   5.828
 9835SOL     OW30403   3.704   2.611   5.842
 9835SOL    HW130404   3.717   2.609   5.743
 9835SOL    HW230405   3.619   2.660   5.863
 9836SOL     OW30406   6.473   4.416   3.690
 9836SOL    HW130407   6.555   4.376   3.731
 9836SOL    HW230408   6.446   4.362   3.611
 9837SOL     OW30409   2.169   0.372   2.534
 9837SOL    HW130410   2.235   0.446   2.520
 9837SOL    HW230411   2.217   0.290   2.564
 9838SOL     OW30412   0.693   6.961   5.908
 9838SOL    HW130413   0.757   6.897   5.866
 9838SOL    HW230414   0.602   6.947   5.869
 9839SOL     OW30415   6.285   1.185   2.982
 9839SOL    HW130416   6.363   1.232   3.024
 9839SOL    HW230417   6.205   1.243   2.986
 9840SOL     OW30418   0.287   0.800   0.976
 9840SOL    HW130419   0.316   0.708   1.001
 9840SOL    HW230420   0.309   0.863   1.051
 9841SOL     OW30421   1.271   4.867   4.925
 9841SOL    HW130422   1.251   4.948   4.980
 9841SOL    HW230423   1.186   4.835   4.881
 9842SOL     OW30424   3.524   4.020   3.307
 9842SOL    HW130425   3.498   3.931   3.344
 9842SOL    HW230426   3.442   4.077   3.299
 9843SOL     OW30427   6.654   1.632   2.054
 9843SOL    HW130428   6.686   1.539   2.040
 9843SOL    HW230429   6.732   1.693   2.067
 9844SOL     OW30430   4.855   0.425   2.587
 9844SOL    HW130431   4.887   0.431   2.682
 9844SOL    HW230432   4.934   0.429   2.525
 9845SOL     OW30433   2.464   1.571   5.049
 9845SOL    HW130434   2.436   1.663   5.075
 9845SOL    HW230435   2.530   1.575   4.975
 9846SOL     OW30436   3.729   3.372   2.558
 9846SOL    HW130437   3.656   3.413   2.504
 9846SOL    HW230438   3.751   3.281   2.522
 9847SOL     OW30439   3.380   3.196   6.086
 9847SOL    HW130440   3.300   3.177   6.142
 9847SOL    HW230441   3.463   3.180   6.139
 9848SOL     OW30442   3.498   2.545   6.444
 9848SOL    HW130443   3.574   2.491   6.406
 9848SOL    HW230444   3.426   2.555   6.376
 9849SOL     OW30445   5.975   0.743   0.129
 9849SOL    HW130446   5.953   0.787   0.042
 9849SOL    HW230447   6.061   0.781   0.164
 9850SOL     OW30448   5.474   6.352   2.584
 9850SOL    HW130449   5.401   6.321   2.645
 9850SOL    HW230450   5.434   6.398   2.505
 9851SOL     OW30451   4.373   1.989   5.597
 9851SOL    HW130452   4.464   2.029   5.583
 9851SOL    HW230453   4.304   2.060   5.586
 9852SOL     OW30454   4.370   2.069   3.413
 9852SOL    HW130455   4.331   2.005   3.348
 9852SOL    HW230456   4.428   2.019   3.478
 9853SOL     OW30457   4.658   4.207   3.426
 9853SOL    HW130458   4.705   4.293   3.445
 9853SOL    HW230459   4.664   4.147   3.506
 9854SOL     OW30460   6.057   4.739   5.188
 9854SOL    HW130461   6.052   4.718   5.090
 9854SOL    HW230462   6.148   4.716   5.222
 9855SOL     OW30463   1.976   4.724   1.854
 9855SOL    HW130464   1.942   4.738   1.761
 9855SOL    HW230465   2.068   4.684   1.851
 9856SOL     OW30466   5.231   3.860   6.994
 9856SOL    HW130467   5.251   3.955   7.019
 9856SOL    HW230468   5.159   3.824   0.029
 9857SOL     OW30469   4.694   2.278   3.551
 9857SOL    HW130470   4.647   2.365   3.568
 9857SOL    HW230471   4.671   2.245   3.460
 9858SOL     OW30472   6.473   1.095   1.267
 9858SOL    HW130473   6.465   1.006   1.312
 9858SOL    HW230474   6.557   1.140   1.298
 9859SOL     OW30475   6.590   0.015   0.948
 9859SOL    HW130476   6.499   6.998   0.940
 9859SOL    HW230477   6.587   0.088   1.016
 9860SOL     OW30478   6.847   0.851   2.501
 9860SOL    HW130479   6.790   0.854   2.419
 9860SOL    HW230480   6.806   0.790   2.568
 9861SOL     OW30481   2.819   0.085   3.408
 9861SOL    HW130482   2.777   7.019   3.402
 9861SOL    HW230483   2.850   0.113   3.317
 9862SOL     OW30484   2.611   4.179   0.981
 9862SOL    HW130485   2.521   4.153   0.945
 9862SOL    HW230486   2.681   4.159   0.912
 9863SOL     OW30487   3.262   0.185   3.332
 9863SOL    HW130488   3.339   0.248   3.334
 9863SOL    HW230489   3.246   0.147   3.423
 9864SOL     OW30490   4.087   5.644   4.164
 9864SOL    HW130491   4.047   5.602   4.083
 9864SOL    HW230492   4.068   5.742   4.163
 9865SOL     OW30493   1.158   1.397   4.717
 9865SOL    HW130494   1.074   1.376   4.767
 9865SOL    HW230495   1.196   1.483   4.751
 9866SOL     OW30496   5.268   4.235   4.905
 9866SOL    HW130497   5.215   4.234   4.820
 9866SOL    HW230498   5.365   4.219   4.884
 9867SOL     OW30499   6.268   0.432   1.049
 9867SOL    HW130500   6.257   0.462   1.144
 9867SOL    HW230501   6.215   0.349   1.034
 9868SOL     OW30502   1.401   4.860   5.750
 9868SOL    HW130503   1.440   4.853   5.842
 9868SOL    HW230504   1.305   4.887   5.757
 9869SOL     OW30505   1.888   3.231   2.326
 9869SOL    HW130506   1.849   3.268   2.241
 9869SOL    HW230507   1.983   3.260   2.334
 9870SOL     OW30508   4.278   5.637   2.440
 9870SOL    HW130509   4.367   5.659   2.480
 9870SOL    HW230510   4.285   5.637   2.341
 9871SOL     OW30511   0.905   6.769   5.884
 9871SOL    HW130512   0.890   6.795   5.788
 9871SOL    HW230513   0.975   6.828   5.923
 9872SOL     OW30514   3.046   5.045   4.018
 9872SOL    HW130515   3.094   4.990   3.950
 9872SOL    HW230516   3.083   5.026   4.109
 9873SOL     OW30517   2.983   2.272   1.261
 9873SOL    HW130518   2.943   2.351   1.308
 9873SOL    HW230519   2.987   2.290   1.163
 9874SOL     OW30520   0.635   3.486   4.395
 9874SOL    HW130521   0.715   3.448   4.347
 9874SOL    HW230522   0.586   3.412   4.441
 9875SOL     OW30523   0.369   6.630   2.076
 9875SOL    HW130524   0.378   6.532   2.061
 9875SOL    HW230525   0.384   6.650   2.173
 9876SOL     OW30526   6.522   0.933   2.787
 9876SOL    HW130527   6.524   1.023   2.743
 9876SOL    HW230528   6.583   0.871   2.738
 9877SOL     OW30529   0.378   6.604   3.049
 9877SOL    HW130530   0.279   6.612   3.055
 9877SOL    HW230531   0.411   6.540   3.119
 9878SOL     OW30532   2.565   5.499   4.681
 9878SOL    HW130533   2.586   5.404   4.700
 9878SOL    HW230534   2.553   5.512   4.582
 9879SOL     OW30535   5.636   5.542   4.556
 9879SOL    HW130536   5.653   5.606   4.631
 9879SOL    HW230537   5.684   5.573   4.475
 9880SOL     OW30538   2.552   1.849   5.571
 9880SOL    HW130539   2.517   1.872   5.662
 9880SOL    HW230540   2.569   1.933   5.519
 9881SOL     OW30541   2.057   1.099   4.870
 9881SOL    HW130542   2.064   1.172   4.801
 9881SOL    HW230543   2.146   1.057   4.883
 9882SOL     OW30544   1.096   2.270   4.127
 9882SOL    HW130545   1.146   2.357   4.133
 9882SOL    HW230546   1.148   2.198   4.172
 9883SOL     OW30547   2.117   5.260   6.730
 9883SOL    HW130548   2.161   5.336   6.778
 9883SOL    HW230549   2.079   5.293   6.643
 9884SOL     OW30550   4.038   1.568   3.201
 9884SOL    HW130551   4.122   1.514   3.196
 9884SOL    HW230552   4.045   1.646   3.140
 9885SOL     OW30553   6.747   3.210   5.569
 9885SOL    HW130554   6.774   3.254   5.484
 9885SOL    HW230555   6.674   3.263   5.613
 9886SOL     OW30556   0.774   4.538   1.646
 9886SOL    HW130557   0.782   4.453   1.595
 9886SOL    HW230558   0.776   4.519   1.744
 9887SOL     OW30559   3.356   1.117   5.627
 9887SOL    HW130560   3.298   1.045   5.588
 9887SOL    HW230561   3.423   1.147   5.558
 9888SOL     OW30562   6.373   4.042   2.038
 9888SOL    HW130563   6.467   4.013   2.020
 9888SOL    HW230564   6.372   4.140   2.060
 9889SOL     OW30565   6.894   5.256   1.882
 9889SOL    HW130566   6.902   5.166   1.925
 9889SOL    HW230567   6.956   5.261   1.805
 9890SOL     OW30568   1.543   2.077   0.171
 9890SOL    HW130569   1.456   2.115   0.136
 9890SOL    HW230570   1.524   1.998   0.229
 9891SOL     OW30571   5.511   2.779   1.326
 9891SOL    HW130572   5.544   2.783   1.232
 9891SOL    HW230573   5.420   2.820   1.331
 9892SOL     OW30574   7.015   5.145   0.752
 9892SOL    HW130575   6.973   5.201   0.823
 9892SOL    HW230576   0.086   5.174   0.738
 9893SOL     OW30577   1.362   6.707   1.010
 9893SOL    HW130578   1.290   6.672   1.070
 9893SOL    HW230579   1.320   6.745   0.927
 9894SOL     OW30580   2.423   2.649   1.938
 9894SOL    HW130581   2.328   2.674   1.958
 9894SOL    HW230582   2.484   2.723   1.969
 9895SOL     OW30583   6.597   3.712   5.317
 9895SOL    HW130584   6.586   3.772   5.396
 9895SOL    HW230585   6.695   3.699   5.298
 9896SOL     OW30586   6.024   0.522   6.818
 9896SOL    HW130587   5.978   0.557   6.737
 9896SOL    HW230588   6.113   0.568   6.828
 9897SOL     OW30589   6.378   5.545   3.206
 9897SOL    HW130590   6.331   5.576   3.124
 9897SOL    HW230591   6.321   5.478   3.254
 9898SOL     OW30592   1.642   6.046   4.829
 9898SOL    HW130593   1.671   5.950   4.820
 9898SOL    HW230594   1.563   6.062   4.770
 9899SOL     OW30595   0.671   5.486   6.907
 9899SOL    HW130596   0.577   5.514   6.926
 9899SOL    HW230597   0.707   5.539   6.830
 9900SOL     OW30598   1.672   3.788   3.404
 9900SOL    HW130599   1.621   3.858   3.353
 9900SOL    HW230600   1.683   3.707   3.347
 9901SOL     OW30601   2.942   0.868   6.181
 9901SOL    HW130602   2.873   0.930   6.144
 9901SOL    HW230603   3.013   0.852   6.112
 9902SOL     OW30604   3.285   5.005   0.716
 9902SOL    HW130605   3.267   5.027   0.812
 9902SOL    HW230606   3.341   5.077   0.675
 9903SOL     OW30607   5.210   1.470   2.053
 9903SOL    HW130608   5.276   1.439   1.984
 9903SOL    HW230609   5.196   1.568   2.045
 9904SOL     OW30610   1.390   4.393   0.013
 9904SOL    HW130611   1.322   4.365   0.081
 9904SOL    HW230612   1.345   4.404   6.949
 9905SOL     OW30613   2.437   0.327   6.259
 9905SOL    HW130614   2.467   0.266   6.185
 9905SOL    HW230615   2.451   0.282   6.347
 9906SOL     OW30616   2.624   3.329   1.761
 9906SOL    HW130617   2.535   3.371   1.783
 9906SOL    HW230618   2.608   3.243   1.712
 9907SOL     OW30619   6.641   0.247   1.126
 9907SOL    HW130620   6.723   0.191   1.137
 9907SOL    HW230621   6.667   0.342   1.108
 9908SOL     OW30622   5.333   1.835   4.677
 9908SOL    HW130623   5.314   1.876   4.588
 9908SOL    HW230624   5.340   1.907   4.746
 9909SOL     OW30625   4.065   0.759   3.868
 9909SOL    HW130626   4.163   0.775   3.882
 9909SOL    HW230627   4.052   0.669   3.828
 9910SOL     OW30628   1.596   4.015   2.989
 9910SOL    HW130629   1.504   4.000   3.026
 9910SOL    HW230630   1.611   4.113   2.977
 9911SOL     OW30631   3.258   6.191   2.006
 9911SOL    HW130632   3.167   6.193   2.047
 9911SOL    HW230633   3.250   6.164   1.910
 9912SOL     OW30634   4.030   0.999   1.443
 9912SOL    HW130635   4.098   0.949   1.389
 9912SOL    HW230636   3.987   0.936   1.508
 9913SOL     OW30637   6.360   4.040   1.443
 9913SOL    HW130638   6.398   4.008   1.529
 9913SOL    HW230639   6.260   4.034   1.446
 9914SOL     OW30640   5.746   1.968   4.752
 9914SOL    HW130641   5.651   1.997   4.747
 9914SOL    HW230642   5.754   1.873   4.720
 9915SOL     OW30643   4.997   0.714   3.852
 9915SOL    HW130644   4.968   0.742   3.944
 9915SOL    HW230645   4.923   0.664   3.808
 9916SOL     OW30646   2.168   2.648   3.254
 9916SOL    HW130647   2.227   2.599   3.189
 9916SOL    HW230648   2.188   2.618   3.347
 9917SOL     OW30649   5.813   3.964   6.928
 9917SOL    HW130650   5.854   3.953   7.019
 9917SOL    HW230651   5.817   3.878   6.879
 9918SOL     OW30652   3.357   1.576   3.568
 9918SOL    HW130653   3.301   1.596   3.649
 9918SOL    HW230654   3.380   1.662   3.522
 9919SOL     OW30655   6.388   4.950   1.730
 9919SOL    HW130656   6.439   4.896   1.663
 9919SOL    HW230657   6.453   5.003   1.785
 9920SOL     OW30658   4.979   1.499   1.888
 9920SOL    HW130659   4.891   1.505   1.936
 9920SOL    HW230660   5.053   1.513   1.954
 9921SOL     OW30661   4.174   0.129   5.496
 9921SOL    HW130662   4.266   0.098   5.474
 9921SOL    HW230663   4.111   0.051   5.495
 9922SOL     OW30664   2.783   4.059   0.489
 9922SOL    HW130665   2.746   4.043   0.397
 9922SOL    HW230666   2.869   4.009   0.500
 9923SOL     OW30667   5.070   4.781   6.584
 9923SOL    HW130668   5.041   4.686   6.567
 9923SOL    HW230669   5.151   4.781   6.642
 9924SOL     OW30670   6.586   2.167   5.155
 9924SOL    HW130671   6.630   2.086   5.194
 9924SOL    HW230672   6.654   2.239   5.141
 9925SOL     OW30673   6.750   2.960   4.353
 9925SOL    HW130674   6.741   3.004   4.264
 9925SOL    HW230675   6.745   2.860   4.342
 9926SOL     OW30676   3.998   2.267   0.619
 9926SOL    HW130677   3.933   2.203   0.659
 9926SOL    HW230678   4.062   2.298   0.689
 9927SOL     OW30679   0.060   6.506   0.255
 9927SOL    HW130680   0.039   6.501   0.352
 9927SOL    HW230681   0.100   6.420   0.225
 9928SOL     OW30682   5.487   4.585   2.458
 9928SOL    HW130683   5.435   4.670   2.469
 9928SOL    HW230684   5.468   4.524   2.535
 9929SOL     OW30685   3.025   4.381   5.660
 9929SOL    HW130686   2.958   4.436   5.611
 9929SOL    HW230687   3.090   4.341   5.595
 9930SOL     OW30688   6.923   6.495   4.930
 9930SOL    HW130689   6.994   6.483   4.999
 9930SOL    HW230690   6.965   6.501   4.840
 9931SOL     OW30691   0.421   5.752   4.109
 9931SOL    HW130692   0.357   5.828   4.123
 9931SOL    HW230693   0.465   5.730   4.196
 9932SOL     OW30694   3.177   4.264   0.048
 9932SOL    HW130695   3.115   4.335   0.080
 9932SOL    HW230696   3.124   4.186   0.015
 9933SOL     OW30697   0.406   6.127   3.501
 9933SOL    HW130698   0.411   6.029   3.516
 9933SOL    HW230699   0.397   6.145   3.403
 9934SOL     OW30700   5.812   2.354   5.838
 9934SOL    HW130701   5.796   2.264   5.798
 9934SOL    HW230702   5.756   2.365   5.920
 9935SOL     OW30703   2.412   6.597   6.868
 9935SOL    HW130704   2.362   6.560   6.790
 9935SOL    HW230705   2.455   6.522   6.919
 9936SOL     OW30706   6.386   5.614   6.547
 9936SOL    HW130707   6.349   5.540   6.603
 9936SOL    HW230708   6.439   5.576   6.471
 9937SOL     OW30709   6.365   1.533   0.717
 9937SOL    HW130710   6.306   1.474   0.772
 9937SOL    HW230711   6.326   1.625   0.713
 9938SOL     OW30712   6.792   5.289   2.716
 9938SOL    HW130713   6.700   5.296   2.754
 9938SOL    HW230714   6.859   5.283   2.790
 9939SOL     OW30715   4.167   2.382   0.810
 9939SOL    HW130716   4.125   2.456   0.863
 9939SOL    HW230717   4.252   2.352   0.855
 9940SOL     OW30718   1.038   0.537   1.146
 9940SOL    HW130719   1.029   0.441   1.119
 9940SOL    HW230720   0.981   0.594   1.086
 9941SOL     OW30721   3.047   4.019   5.567
 9941SOL    HW130722   3.076   3.926   5.548
 9941SOL    HW230723   2.968   4.043   5.511
 9942SOL     OW30724   2.727   5.386   2.251
 9942SOL    HW130725   2.715   5.309   2.188
 9942SOL    HW230726   2.650   5.449   2.240
 9943SOL     OW30727   6.987   4.454   5.456
 9943SOL    HW130728   0.058   4.480   5.464
 9943SOL    HW230729   6.947   4.442   5.547
 9944SOL     OW30730   1.601   4.773   6.601
 9944SOL    HW130731   1.629   4.739   6.690
 9944SOL    HW230732   1.558   4.699   6.549
 9945SOL     OW30733   5.833   5.476   6.465
 9945SOL    HW130734   5.925   5.508   6.440
 9945SOL    HW230735   5.791   5.540   6.528
 9946SOL     OW30736   4.909   1.191   3.587
 9946SOL    HW130737   4.882   1.181   3.492
 9946SOL    HW230738   4.919   1.288   3.609
 9947SOL     OW30739   1.753   2.812   5.049
 9947SOL    HW130740   1.817   2.850   5.115
 9947SOL    HW230741   1.770   2.852   4.959
 9948SOL     OW30742   5.238   3.943   4.886
 9948SOL    HW130743   5.252   4.029   4.936
 9948SOL    HW230744   5.300   3.874   4.922
 9949SOL     OW30745   0.119   4.824   4.386
 9949SOL    HW130746   0.143   4.733   4.352
 9949SOL    HW230747   0.138   4.829   4.484
 9950SOL     OW30748   5.876   5.862   5.104
 9950SOL    HW130749   5.793   5.884   5.052
 9950SOL    HW230750   5.934   5.802   5.050
 9951SOL     OW30751   0.017   0.532   4.700
 9951SOL    HW130752   0.073   0.608   4.732
 9951SOL    HW230753   0.001   0.541   4.601
 9952SOL     OW30754   1.327   3.684   1.234
 9952SOL    HW130755   1.239   3.703   1.277
 9952SOL    HW230756   1.399   3.689   1.303
 9953SOL     OW30757   5.682   2.881   4.330
 9953SOL    HW130758   5.764   2.866   4.385
 9953SOL    HW230759   5.617   2.806   4.345
 9954SOL     OW30760   6.375   0.453   6.318
 9954SOL    HW130761   6.469   0.429   6.342
 9954SOL    HW230762   6.351   0.541   6.361
 9955SOL     OW30763   6.278   3.546   5.192
 9955SOL    HW130764   6.271   3.572   5.095
 9955SOL    HW230765   6.258   3.626   5.249
 9956SOL     OW30766   1.662   0.021   2.441
 9956SOL    HW130767   1.757   0.039   2.465
 9956SOL    HW230768   1.615   7.004   2.519
 9957SOL     OW30769   5.228   5.727   2.424
 9957SOL    HW130770   5.321   5.693   2.436
 9957SOL    HW230771   5.218   5.813   2.475
 9958SOL     OW30772   3.901   5.445   0.796
 9958SOL    HW130773   3.884   5.540   0.771
 9958SOL    HW230774   3.921   5.392   0.713
 9959SOL     OW30775   4.138   3.650   5.239
 9959SOL    HW130776   4.128   3.629   5.142
 9959SOL    HW230777   4.183   3.739   5.249
 9960SOL     OW30778   0.276   6.931   2.043
 9960SOL    HW130779   0.334   6.923   2.124
 9960SOL    HW230780   0.277   6.845   1.992
 9961SOL     OW30781   1.285   5.248   4.436
 9961SOL    HW130782   1.325   5.196   4.511
 9961SOL    HW230783   1.238   5.329   4.473
 9962SOL     OW30784   6.223   0.044   2.765
 9962SOL    HW130785   6.281   6.991   2.740
 9962SOL    HW230786   6.130   0.029   2.732
 9963SOL     OW30787   3.064   3.028   6.658
 9963SOL    HW130788   3.011   3.018   6.574
 9963SOL    HW230789   3.001   3.022   6.737
 9964SOL     OW30790   4.975   4.888   5.650
 9964SOL    HW130791   4.884   4.848   5.634
 9964SOL    HW230792   5.022   4.900   5.563
 9965SOL     OW30793   3.565   6.635   6.447
 9965SOL    HW130794   3.637   6.670   6.387
 9965SOL    HW230795   3.606   6.596   6.529
 9966SOL     OW30796   1.764   5.851   1.849
 9966SOL    HW130797   1.811   5.930   1.808
 9966SOL    HW230798   1.832   5.788   1.887
 9967SOL     OW30799   0.597   6.717   1.937
 9967SOL    HW130800   0.518   6.675   1.981
 9967SOL    HW230801   0.609   6.810   1.973
 9968SOL     OW30802   3.865   4.013   1.285
 9968SOL    HW130803   3.772   3.977   1.276
 9968SOL    HW230804   3.910   4.011   1.196
 9969SOL     OW30805   1.672   2.718   2.491
 9969SOL    HW130806   1.614   2.797   2.471
 9969SOL    HW230807   1.670   2.655   2.414
 9970SOL     OW30808   5.414   4.005   2.551
 9970SOL    HW130809   5.320   4.012   2.517
 9970SOL    HW230810   5.471   4.073   2.505
 9971SOL     OW30811   1.984   5.451   1.654
 9971SOL    HW130812   2.034   5.368   1.679
 9971SOL    HW230813   1.886   5.436   1.665
 9972SOL     OW30814   4.894   4.637   1.744
 9972SOL    HW130815   4.878   4.666   1.838
 9972SOL    HW230816   4.887   4.538   1.737
 9973SOL     OW30817   5.233   1.962   3.845
 9973SOL    HW130818   5.278   2.049   3.865
 9973SOL    HW230819   5.294   1.903   3.792
 9974SOL     OW30820   0.494   2.681   2.716
 9974SOL    HW130821   0.587   2.700   2.685
 9974SOL    HW230822   0.446   2.628   2.647
 9975SOL     OW30823   6.113   4.314   6.979
 9975SOL    HW130824   6.081   4.319   0.050
 9975SOL    HW230825   6.188   4.249   6.973
 9976SOL     OW30826   1.235   6.175   5.595
 9976SOL    HW130827   1.168   6.128   5.652
 9976SOL    HW230828   1.192   6.253   5.550
 9977SOL     OW30829   0.075   5.104   5.740
 9977SOL    HW130830   0.085   5.124   5.643
 9977SOL    HW230831   0.157   5.058   5.773
 9978SOL     OW30832   0.317   2.509   4.400
 9978SOL    HW130833   0.362   2.524   4.488
 9978SOL    HW230834   0.218   2.518   4.411
 9979SOL     OW30835   6.005   5.091   5.612
 9979SOL    HW130836   5.997   5.178   5.564
 9979SOL    HW230837   6.033   5.020   5.548
 9980SOL     OW30838   2.017   0.987   5.934
 9980SOL    HW130839   2.105   0.992   5.886
 9980SOL    HW230840   1.943   0.993   5.868
 9981SOL     OW30841   2.812   1.408   3.022
 9981SOL    HW130842   2.760   1.327   2.996
 9981SOL    HW230843   2.903   1.405   2.979
 9982SOL     OW30844   6.518   6.677   4.450
 9982SOL    HW130845   6.513   6.756   4.512
 9982SOL    HW230846   6.561   6.601   4.498
 9983SOL     OW30847   6.637   1.978   2.615
 9983SOL    HW130848   6.559   1.916   2.624
 9983SOL    HW230849   6.718   1.925   2.589
 9984SOL     OW30850   2.011   0.941   0.045
 9984SOL    HW130851   2.106   0.968   0.029
 9984SOL    HW230852   1.997   0.849   0.008
 9985SOL     OW30853   0.938   0.999   1.229
 9985SOL    HW130854   0.901   0.941   1.156
 9985SOL    HW230855   0.981   0.941   1.298
 9986SOL     OW30856   5.351   4.077   5.999
 9986SOL    HW130857   5.440   4.051   5.963
 9986SOL    HW230858   5.347   4.176   6.010
 9987SOL     OW30859   0.431   3.191   4.427
 9987SOL    HW130860   0.451   3.141   4.342
 9987SOL    HW230861   0.509   3.183   4.489
 9988SOL     OW30862   6.681   5.935   4.155
 9988SOL    HW130863   6.726   5.856   4.197
 9988SOL    HW230864   6.585   5.937   4.181
 9989SOL     OW30865   6.604   3.590   3.777
 9989SOL    HW130866   6.565   3.543   3.698
 9989SOL    HW230867   6.641   3.523   3.841
 9990SOL     OW30868   2.374   5.435   2.220
 9990SOL    HW130869   2.442   5.459   2.151
 9990SOL    HW230870   2.296   5.391   2.175
 9991SOL     OW30871   2.046   2.368   3.940
 9991SOL    HW130872   1.996   2.413   4.014
 9991SOL    HW230873   2.068   2.436   3.870
 9992SOL     OW30874   5.434   5.105   0.033
 9992SOL    HW130875   5.528   5.080   0.054
 9992SOL    HW230876   5.425   5.204   0.032
 9993SOL     OW30877   3.064   1.033   0.828
 9993SOL    HW130878   3.013   1.031   0.742
 9993SOL    HW230879   3.113   0.947   0.840
 9994SOL     OW30880   6.020   4.574   3.160
 9994SOL    HW130881   5.930   4.539   3.133
 9994SOL    HW230882   6.085   4.498   3.164
 9995SOL     OW30883   4.440   1.075   3.039
 9995SOL    HW130884   4.440   1.174   3.027
 9995SOL    HW230885   4.534   1.042   3.040
 9996SOL     OW30886   3.132   3.299   0.762
 9996SOL    HW130887   3.218   3.278   0.715
 9996SOL    HW230888   3.068   3.342   0.699
 9997SOL     OW30889   3.281   1.656   6.301
 9997SOL    HW130890   3.311   1.571   6.257
 9997SOL    HW230891   3.333   1.733   6.266
 9998SOL     OW30892   5.577   4.710   6.109
 9998SOL    HW130893   5.570   4.790   6.048
 9998SOL    HW230894   5.671   4.701   6.141
 9999SOL     OW30895   6.126   2.913   5.771
 9999SOL    HW130896   6.034   2.937   5.741
 9999SOL    HW230897   6.189   2.989   5.753
10000SOL     OW30898   0.206   4.711   6.995
10000SOL    HW130899   0.172   4.698   6.902
10000SOL    HW230900   0.173   4.637   0.029
10001SOL     OW30901   5.219   6.711   2.122
10001SOL    HW130902   5.203   6.806   2.147
10001SOL    HW230903   5.221   6.655   2.205
10002SOL     OW30904   0.914   0.117   2.713
10002SOL    HW130905   0.858   0.138   2.633
10002SOL    HW230906   1.003   0.162   2.704
10003SOL     OW30907   4.047   1.613   3.778
10003SOL    HW130908   3.974   1.587   3.715
10003SOL    HW230909   4.114   1.669   3.729
10004SOL     OW30910   6.812   2.442   4.170
10004SOL    HW130911   6.737   2.399   4.119
10004SOL    HW230912   6.795   2.540   4.178
10005SOL     OW30913   5.493   0.211   4.559
10005SOL    HW130914   5.543   0.251   4.636
10005SOL    HW230915   5.557   0.165   4.498
10006SOL     OW30916   5.094   5.472   4.378
10006SOL    HW130917   5.143   5.418   4.447
10006SOL    HW230918   4.996   5.452   4.384
10007SOL     OW30919   6.692   4.599   5.362
10007SOL    HW130920   6.713   4.689   5.401
10007SOL    HW230921   6.635   4.547   5.426
10008SOL     OW30922   3.673   1.060   4.955
10008SOL    HW130923   3.659   0.961   4.946
10008SOL    HW230924   3.737   1.091   4.885
10009SOL     OW30925   1.927   3.864   1.939
10009SOL    HW130926   2.020   3.831   1.955
10009SOL    HW230927   1.927   3.926   1.860
10010SOL     OW30928   2.298   1.038   5.547
10010SOL    HW130929   2.251   1.096   5.613
10010SOL    HW230930   2.326   0.952   5.591
10011SOL     OW30931   5.985   0.586   5.779
10011SOL    HW130932   5.905   0.641   5.758
10011SOL    HW230933   6.060   0.646   5.809
10012SOL     OW30934   5.634   1.396   3.173
10012SOL    HW130935   5.645   1.296   3.177
10012SOL    HW230936   5.571   1.420   3.099
10013SOL     OW30937   0.265   1.147   3.545
10013SOL    HW130938   0.226   1.154   3.453
10013SOL    HW230939   0.253   1.234   3.593
10014SOL     OW30940   0.111   4.156   0.375
10014SOL    HW130941   0.077   4.092   0.444
10014SOL    HW230942   0.211   4.164   0.383
10015SOL     OW30943   2.493   4.925   0.626
10015SOL    HW130944   2.522   4.967   0.540
10015SOL    HW230945   2.495   4.994   0.699
10016SOL     OW30946   0.836   1.586   6.342
10016SOL    HW130947   0.875   1.510   6.291
10016SOL    HW230948   0.762   1.553   6.400
10017SOL     OW30949   2.868   1.959   3.009
10017SOL    HW130950   2.787   2.012   3.034
10017SOL    HW230951   2.949   2.000   3.052
10018SOL     OW30952   4.670   0.591   6.389
10018SOL    HW130953   4.726   0.545   6.458
10018SOL    HW230954   4.706   0.570   6.298
10019SOL     OW30955   0.363   1.530   2.958
10019SOL    HW130956   0.375   1.569   2.867
10019SOL    HW230957   0.269   1.497   2.968
10020SOL     OW30958   1.953   1.963   1.268
10020SOL    HW130959   2.048   1.993   1.258
10020SOL    HW230960   1.950   1.863   1.269
10021SOL     OW30961   0.198   2.608   1.469
10021SOL    HW130962   0.140   2.615   1.550
10021SOL    HW230963   0.263   2.534   1.480
10022SOL     OW30964   2.809   1.381   5.875
10022SOL    HW130965   2.724   1.398   5.924
10022SOL    HW230966   2.835   1.462   5.823
10023SOL     OW30967   6.917   4.897   1.060
10023SOL    HW130968   6.968   4.893   0.974
10023SOL    HW230969   6.819   4.896   1.042
10024SOL     OW30970   2.385   6.386   2.596
10024SOL    HW130971   2.397   6.464   2.534
10024SOL    HW230972   2.431   6.406   2.683
10025SOL     OW30973   1.452   0.635   0.797
10025SOL    HW130974   1.522   0.671   0.859
10025SOL    HW230975   1.454   0.687   0.712
10026SOL     OW30976   4.947   6.765   3.578
10026SOL    HW130977   4.991   6.816   3.504
10026SOL    HW230978   4.988   6.791   3.665
10027SOL     OW30979   6.264   3.523   4.671
10027SOL    HW130980   6.265   3.588   4.594
10027SOL    HW230981   6.207   3.445   4.647
10028SOL     OW30982   1.023   0.215   1.957
10028SOL    HW130983   1.114   0.243   1.988
10028SOL    HW230984   0.990   0.278   1.887
10029SOL     OW30985   5.006   2.183   4.017
10029SOL    HW130986   4.975   2.208   3.925
10029SOL    HW230987   5.096   2.222   4.034
10030SOL     OW30988   2.289   1.133   3.139
10030SOL    HW130989   2.274   1.227   3.170
10030SOL    HW230990   2.387   1.119   3.120
10031SOL     OW30991   5.554   4.497   4.588
10031SOL    HW130992   5.576   4.588   4.621
10031SOL    HW230993   5.455   4.484   4.588
10032SOL     OW30994   2.908   1.516   5.132
10032SOL    HW130995   2.853   1.491   5.212
10032SOL    HW230996   2.997   1.549   5.162
10033SOL     OW30997   6.907   3.367   4.505
10033SOL    HW130998   6.814   3.344   4.531
10033SOL    HW230999   6.963   3.379   4.587
10034SOL     OW31000   3.830   0.330   4.307
10034SOL    HW131001   3.788   0.365   4.391
10034SOL    HW231002   3.768   0.264   4.264
10035SOL     OW31003   6.676   5.269   1.671
10035SOL    HW131004   6.653   5.180   1.710
10035SOL    HW231005   6.766   5.298   1.705
10036SOL     OW31006   6.517   1.936   0.937
10036SOL    HW131007   6.601   1.884   0.954
10036SOL    HW231008   6.469   1.898   0.858
10037SOL     OW31009   6.854   1.458   6.754
10037SOL    HW131010   6.856   1.390   6.681
10037SOL    HW231011   6.789   1.531   6.729
10038SOL     OW31012   5.950   0.296   0.429
10038SOL    HW131013   5.911   0.379   0.388
10038SOL    HW231014   5.895   0.271   0.508
10039SOL     OW31015   3.446   0.765   3.270
10039SOL    HW131016   3.480   0.825   3.342
10039SOL    HW231017   3.390   0.692   3.311
10040SOL     OW31018   5.812   4.658   7.023
10040SOL    HW131019   5.910   4.652   7.004
10040SOL    HW231020   5.765   4.580   6.981
10041SOL     OW31021   3.221   6.104   0.410
10041SOL    HW131022   3.187   6.113   0.316
10041SOL    HW231023   3.221   6.007   0.435
10042SOL     OW31024   0.112   1.857   3.678
10042SOL    HW131025   0.082   1.951   3.663
10042SOL    HW231026   0.032   1.799   3.696
10043SOL     OW31027   6.312   1.522   5.426
10043SOL    HW131028   6.409   1.517   5.401
10043SOL    HW231029   6.302   1.504   5.524
10044SOL     OW31030   2.603   3.377   6.261
10044SOL    HW131031   2.509   3.398   6.287
10044SOL    HW231032   2.604   3.326   6.176
10045SOL     OW31033   4.267   1.022   0.961
10045SOL    HW131034   4.317   1.030   1.047
10045SOL    HW231035   4.220   0.934   0.957
10046SOL     OW31036   1.808   3.758   1.042
10046SOL    HW131037   1.796   3.846   0.995
10046SOL    HW231038   1.738   3.749   1.113
10047SOL     OW31039   0.952   3.502   6.245
10047SOL    HW131040   0.926   3.521   6.340
10047SOL    HW231041   0.885   3.543   6.184
10048SOL     OW31042   0.048   6.873   2.851
10048SOL    HW131043   0.109   6.951   2.866
10048SOL    HW231044   0.082   6.794   2.903
10049SOL     OW31045   0.279   2.047   6.213
10049SOL    HW131046   0.335   2.096   6.280
10049SOL    HW231047   0.257   1.956   6.249
10050SOL     OW31048   5.082   3.930   5.246
10050SOL    HW131049   5.099   3.921   5.344
10050SOL    HW231050   5.125   4.014   5.212
10051SOL     OW31051   0.976   3.899   5.040
10051SOL    HW131052   0.994   3.991   5.005
10051SOL    HW231053   0.921   3.906   5.123
10052SOL     OW31054   1.312   0.763   3.565
10052SOL    HW131055   1.223   0.758   3.519
10052SOL    HW231056   1.338   0.673   3.598
10053SOL     OW31057   5.049   5.312   3.971
10053SOL    HW131058   5.004   5.305   4.060
10053SOL    HW231059   5.129   5.252   3.969
10054SOL     OW31060   6.008   4.372   4.425
10054SOL    HW131061   6.064   4.292   4.444
10054SOL    HW231062   5.918   4.360   4.468
10055SOL     OW31063   6.397   2.637   6.657
10055SOL    HW131064   6.477   2.670   6.707
10055SOL    HW231065   6.329   2.602   6.722
10056SOL     OW31066   5.362   3.388   3.167
10056SOL    HW131067   5.330   3.458   3.103
10056SOL    HW231068   5.393   3.432   3.251
10057SOL     OW31069   5.781   3.838   5.955
10057SOL    HW131070   5.812   3.909   6.018
10057SOL    HW231071   5.852   3.768   5.944
10058SOL     OW31072   6.719   3.123   4.590
10058SOL    HW131073   6.739   3.050   4.525
10058SOL    HW231074   6.647   3.182   4.553
10059SOL     OW31075   6.044   1.619   0.769
10059SOL    HW131076   5.948   1.609   0.796
10059SOL    HW231077   6.049   1.635   0.670
10060SOL     OW31078   2.845   1.786   2.773
10060SOL    HW131079   2.895   1.833   2.846
10060SOL    HW231080   2.746   1.797   2.788
10061SOL     OW31081   4.390   1.467   3.674
10061SOL    HW131082   4.479   1.482   3.716
10061SOL    HW231083   4.336   1.551   3.679
10062SOL     OW31084   0.580   6.855   3.715
10062SOL    HW131085   0.609   6.901   3.799
10062SOL    HW231086   0.553   6.922   3.647
10063SOL     OW31087   1.922   2.159   4.807
10063SOL    HW131088   1.922   2.249   4.849
10063SOL    HW231089   1.868   2.095   4.862
10064SOL     OW31090   3.243   6.407   0.146
10064SOL    HW131091   3.327   6.459   0.160
10064SOL    HW231092   3.266   6.314   0.118
10065SOL     OW31093   1.315   0.366   1.306
10065SOL    HW131094   1.349   0.272   1.309
10065SOL    HW231095   1.368   0.419   1.239
10066SOL     OW31096   0.070   3.655   5.253
10066SOL    HW131097   0.110   3.672   5.343
10066SOL    HW231098   0.137   3.608   5.196
10067SOL     OW31099   0.669   2.925   6.667
10067SOL    HW131100   0.607   2.900   6.741
10067SOL    HW231101   0.684   3.024   6.667
10068SOL     OW31102   1.788   2.964   2.342
10068SOL    HW131103   1.785   3.064   2.349
10068SOL    HW231104   1.698   2.926   2.365
10069SOL     OW31105   3.641   5.058   1.769
10069SOL    HW131106   3.541   5.068   1.773
10069SOL    HW231107   3.683   5.148   1.760
10070SOL     OW31108   2.680   6.169   4.446
10070SOL    HW131109   2.699   6.162   4.348
10070SOL    HW231110   2.661   6.078   4.483
10071SOL     OW31111   0.375   6.695   3.860
10071SOL    HW131112   0.416   6.778   3.899
10071SOL    HW231113   0.393   6.692   3.762
10072SOL     OW31114   6.848   1.252   2.900
10072SOL    HW131115   6.861   1.173   2.840
10072SOL    HW231116   6.787   1.226   2.975
10073SOL     OW31117   6.330   2.846   3.941
10073SOL    HW131118   6.276   2.787   3.880
10073SOL    HW231119   6.282   2.932   3.956
10074SOL     OW31120   2.210   4.977   0.547
10074SOL    HW131121   2.171   4.888   0.571
10074SOL    HW231122   2.309   4.968   0.537
10075SOL     OW31123   2.365   1.806   2.525
10075SOL    HW131124   2.358   1.905   2.511
10075SOL    HW231125   2.386   1.761   2.438
10076SOL     OW31126   4.974   5.516   3.140
10076SOL    HW131127   4.899   5.450   3.135
10076SOL    HW231128   5.026   5.502   3.224
10077SOL     OW31129   6.551   3.391   6.558
10077SOL    HW131130   6.585   3.475   6.517
10077SOL    HW231131   6.469   3.360   6.509
10078SOL     OW31132   0.133   6.351   5.059
10078SOL    HW131133   0.217   6.398   5.083
10078SOL    HW231134   0.118   6.275   5.122
10079SOL     OW31135   5.214   3.217   3.016
10079SOL    HW131136   5.276   3.289   3.048
10079SOL    HW231137   5.264   3.130   3.010
10080SOL     OW31138   5.470   0.954   5.565
10080SOL    HW131139   5.457   0.929   5.661
10080SOL    HW231140   5.440   0.878   5.506
10081SOL     OW31141   1.965   2.251   6.870
10081SOL    HW131142   1.979   2.161   6.829
10081SOL    HW231143   1.878   2.250   6.921
10082SOL     OW31144   1.576   4.739   2.808
10082SOL    HW131145   1.663   4.700   2.777
10082SOL    HW231146   1.501   4.682   2.774
10083SOL     OW31147   3.828   5.297   4.050
10083SOL    HW131148   3.768   5.364   4.092
10083SOL    HW231149   3.897   5.267   4.116
10084SOL     OW31150   1.031   6.922   5.424
10084SOL    HW131151   1.032   6.897   5.327
10084SOL    HW231152   1.069   6.847   5.477
10085SOL     OW31153   3.905   6.664   0.420
10085SOL    HW131154   3.952   6.605   0.485
10085SOL    HW231155   3.939   6.646   0.328
10086SOL     OW31156   6.487   6.635   2.027
10086SOL    HW131157   6.418   6.703   2.052
10086SOL    HW231158   6.448   6.572   1.959
10087SOL     OW31159   1.094   6.493   4.328
10087SOL    HW131160   1.173   6.444   4.291
10087SOL    HW231161   1.120   6.587   4.351
10088SOL     OW31162   6.854   2.827   7.022
10088SOL    HW131163   6.888   2.858   0.086
10088SOL    HW231164   6.806   2.740   0.008
10089SOL     OW31165   4.563   2.097   2.166
10089SOL    HW131166   4.515   2.112   2.079
10089SOL    HW231167   4.496   2.099   2.241
10090SOL     OW31168   1.232   4.873   1.367
10090SOL    HW131169   1.284   4.797   1.406
10090SOL    HW231170   1.271   4.959   1.398
10091SOL     OW31171   6.184   4.961   5.812
10091SOL    HW131172   6.275   5.001   5.813
10091SOL    HW231173   6.117   5.030   5.786
10092SOL     OW31174   0.541   2.914   5.344
10092SOL    HW131175   0.615   2.847   5.345
10092SOL    HW231176   0.467   2.884   5.403
10093SOL     OW31177   5.552   3.988   5.867
10093SOL    HW131178   5.563   4.009   5.769
10093SOL    HW231179   5.636   3.945   5.901
10094SOL     OW31180   2.989   0.396   1.021
10094SOL    HW131181   3.065   0.442   1.066
10094SOL    HW231182   3.008   0.298   1.015
10095SOL     OW31183   5.495   2.924   5.118
10095SOL    HW131184   5.570   2.971   5.070
10095SOL    HW231185   5.434   2.992   5.159
10096SOL     OW31186   4.709   1.101   2.826
10096SOL    HW131187   4.775   1.091   2.901
10096SOL    HW231188   4.686   1.011   2.790
10097SOL     OW31189   1.376   1.682   6.354
10097SOL    HW131190   1.343   1.633   6.274
10097SOL    HW231191   1.428   1.762   6.325
10098SOL     OW31192   3.172   5.614   4.745
10098SOL    HW131193   3.099   5.549   4.724
10098SOL    HW231194   3.147   5.666   4.827
10099SOL     OW31195   0.197   4.330   2.407
10099SOL    HW131196   0.281   4.385   2.411
10099SOL    HW231197   0.128   4.378   2.354
10100SOL     OW31198   5.109   5.043   4.791
10100SOL    HW131199   5.045   4.979   4.833
10100SOL    HW231200   5.137   5.111   4.859
10101SOL     OW31201   1.212   2.107   1.734
10101SOL    HW131202   1.226   2.130   1.830
10101SOL    HW231203   1.181   2.012   1.726
10102SOL     OW31204   6.475   6.647   1.247
10102SOL    HW131205   6.424   6.659   1.162
10102SOL    HW231206   6.547   6.716   1.252
10103SOL     OW31207   0.002   6.697   5.765
10103SOL    HW131208   7.012   6.601   5.791
10103SOL    HW231209   0.100   6.717   5.766
10104SOL     OW31210   2.132   0.561   5.874
10104SOL    HW131211   2.071   0.523   5.805
10104SOL    HW231212   2.200   0.493   5.900
10105SOL     OW31213   2.487   0.817   5.703
10105SOL    HW131214   2.459   0.847   5.794
10105SOL    HW231215   2.584   0.792   5.704
10106SOL     OW31216   4.836   6.383   1.104
10106SOL    HW131217   4.783   6.301   1.124
10106SOL    HW231218   4.918   6.385   1.161
10107SOL     OW31219   5.545   4.395   6.789
10107SOL    HW131220   5.557   4.309   6.839
10107SOL    HW231221   5.489   4.379   6.708
10108SOL     OW31222   1.562   2.717   0.619
10108SOL    HW131223   1.563   2.628   0.573
10108SOL    HW231224   1.503   2.711   0.700
10109SOL     OW31225   0.625   1.829   0.489
10109SOL    HW131226   0.569   1.787   0.418
10109SOL    HW231227   0.572   1.837   0.574
10110SOL     OW31228   4.898   5.926   2.867
10110SOL    HW131229   4.912   5.971   2.779
10110SOL    HW231230   4.877   5.995   2.936
10111SOL     OW31231   1.438   1.453   2.024
10111SOL    HW131232   1.414   1.384   2.092
10111SOL    HW231233   1.361   1.467   1.962
10112SOL     OW31234   6.182   2.747   3.730
10112SOL    HW131235   6.256   2.746   3.663
10112SOL    HW231236   6.099   2.709   3.689
10113SOL     OW31237   5.177   1.271   6.496
10113SOL    HW131238   5.252   1.206   6.507
10113SOL    HW231239   5.093   1.221   6.477
10114SOL     OW31240   3.927   1.547   2.884
10114SOL    HW131241   3.840   1.549   2.933
10114SOL    HW231242   3.944   1.636   2.842
10115SOL     OW31243   3.327   1.939   5.273
10115SOL    HW131244   3.297   1.970   5.183
10115SOL    HW231245   3.278   1.854   5.297
10116SOL     OW31246   6.384   0.664   4.714
10116SOL    HW131247   6.456   0.605   4.681
10116SOL    HW231248   6.318   0.681   4.641
10117SOL     OW31249   6.549   5.426   4.121
10117SOL    HW131250   6.546   5.345   4.181
10117SOL    HW231251   6.461   5.474   4.126
10118SOL     OW31252   3.428   4.926   4.960
10118SOL    HW131253   3.477   4.891   4.880
10118SOL    HW231254   3.488   4.988   5.011
10119SOL     OW31255   0.448   5.065   4.598
10119SOL    HW131256   0.521   5.053   4.531
10119SOL    HW231257   0.409   4.975   4.621
10120SOL     OW31258   2.142   2.890   1.838
10120SOL    HW131259   2.150   2.940   1.924
10120SOL    HW231260   2.112   2.797   1.856
10121SOL     OW31261   6.493   4.365   0.683
10121SOL    HW131262   6.408   4.329   0.721
10121SOL    HW231263   6.568   4.346   0.747
10122SOL     OW31264   0.807   1.469   3.964
10122SOL    HW131265   0.810   1.568   3.954
10122SOL    HW231266   0.860   1.426   3.891
10123SOL     OW31267   5.836   6.092   0.921
10123SOL    HW131268   5.794   6.147   0.993
10123SOL    HW231269   5.796   6.117   0.833
10124SOL     OW31270   0.763   4.084   2.885
10124SOL    HW131271   0.855   4.098   2.922
10124SOL    HW231272   0.706   4.164   2.904
10125SOL     OW31273   1.319   2.027   6.525
10125SOL    HW131274   1.257   1.949   6.520
10125SOL    HW231275   1.412   1.994   6.545
10126SOL     OW31276   6.617   6.791   6.591
10126SOL    HW131277   6.671   6.814   6.510
10126SOL    HW231278   6.547   6.860   6.605
10127SOL     OW31279   2.461   5.117   5.990
10127SOL    HW131280   2.367   5.130   5.957
10127SOL    HW231281   2.476   5.020   6.009
10128SOL     OW31282   3.284   0.605   6.876
10128SOL    HW131283   3.368   0.572   6.921
10128SOL    HW231284   3.213   0.534   6.883
10129SOL     OW31285   6.430   1.247   3.920
10129SOL    HW131286   6.511   1.303   3.936
10129SOL    HW231287   6.459   1.156   3.889
10130SOL     OW31288   1.721   2.249   2.463
10130SOL    HW131289   1.648   2.313   2.485
10130SOL    HW231290   1.736   2.187   2.540
10131SOL     OW31291   1.776   0.748   4.082
10131SOL    HW131292   1.800   0.787   4.171
10131SOL    HW231293   1.767   0.649   4.091
10132SOL     OW31294   6.828   0.993   2.813
10132SOL    HW131295   6.786   0.904   2.830
10132SOL    HW231296   6.916   0.980   2.768
10133SOL     OW31297   5.111   6.418   0.698
10133SOL    HW131298   5.158   6.501   0.727
10133SOL    HW231299   5.015   6.422   0.727
10134SOL     OW31300   5.953   1.015   2.072
10134SOL    HW131301   6.049   0.989   2.072
10134SOL    HW231302   5.928   1.052   1.982
10135SOL     OW31303   5.580   6.909   2.940
10135SOL    HW131304   5.594   6.867   3.030
10135SOL    HW231305   5.504   6.974   2.945
10136SOL     OW31306   4.500   1.550   2.665
10136SOL    HW131307   4.432   1.523   2.734
10136SOL    HW231308   4.509   1.649   2.664
10137SOL     OW31309   6.641   5.724   5.686
10137SOL    HW131310   6.734   5.723   5.648
10137SOL    HW231311   6.575   5.704   5.614
10138SOL     OW31312   5.882   1.088   0.456
10138SOL    HW131313   5.844   1.157   0.395
10138SOL    HW231314   5.813   1.063   0.525
10139SOL     OW31315   3.173   3.531   5.343
10139SOL    HW131316   3.102   3.471   5.381
10139SOL    HW231317   3.160   3.623   5.378
10140SOL     OW31318   6.963   5.179   5.990
10140SOL    HW131319   6.970   5.277   6.010
10140SOL    HW231320   7.006   5.160   5.901
10141SOL     OW31321   2.542   1.520   4.557
10141SOL    HW131322   2.444   1.511   4.536
10141SOL    HW231323   2.576   1.607   4.521
10142SOL     OW31324   5.968   6.473   4.151
10142SOL    HW131325   6.043   6.439   4.207
10142SOL    HW231326   5.895   6.509   4.210
10143SOL     OW31327   5.695   2.875   0.058
10143SOL    HW131328   5.741   2.962   0.071
10143SOL    HW231329   5.681   2.859   6.985
10144SOL     OW31330   3.844   6.562   5.803
10144SOL    HW131331   3.784   6.483   5.794
10144SOL    HW231332   3.904   6.568   5.723
10145SOL     OW31333   5.362   5.908   0.032
10145SOL    HW131334   5.323   5.817   0.025
10145SOL    HW231335   5.298   5.976   7.021
10146SOL     OW31336   0.302   2.407   4.777
10146SOL    HW131337   0.354   2.479   4.730
10146SOL    HW231338   0.339   2.396   4.870
10147SOL     OW31339   5.035   5.980   6.634
10147SOL    HW131340   5.129   5.950   6.613
10147SOL    HW231341   4.980   5.976   6.551
10148SOL     OW31342   0.768   4.839   6.721
10148SOL    HW131343   0.678   4.881   6.723
10148SOL    HW231344   0.834   4.898   6.768
10149SOL     OW31345   4.478   4.257   0.568
10149SOL    HW131346   4.389   4.288   0.604
10149SOL    HW231347   4.538   4.235   0.644
10150SOL     OW31348   4.355   4.047   0.142
10150SOL    HW131349   4.324   4.088   0.228
10150SOL    HW231350   4.354   4.117   0.070
10151SOL     OW31351   6.153   6.775   5.200
10151SOL    HW131352   6.152   6.675   5.200
10151SOL    HW231353   6.171   6.808   5.293
10152SOL     OW31354   5.521   6.700   2.788
10152SOL    HW131355   5.542   6.775   2.851
10152SOL    HW231356   5.574   6.619   2.813
10153SOL     OW31357   5.460   4.291   3.654
10153SOL    HW131358   5.493   4.334   3.738
10153SOL    HW231359   5.519   4.213   3.631
10154SOL     OW31360   5.139   5.303   4.602
10154SOL    HW131361   5.114   5.331   4.695
10154SOL    HW231362   5.189   5.217   4.605
10155SOL     OW31363   4.473   2.177   5.302
10155SOL    HW131364   4.549   2.112   5.309
10155SOL    HW231365   4.396   2.134   5.256
10156SOL     OW31366   4.992   1.460   0.315
10156SOL    HW131367   4.939   1.399   0.373
10156SOL    HW231368   4.957   1.553   0.323
10157SOL     OW31369   0.254   2.941   1.462
10157SOL    HW131370   0.214   2.873   1.401
10157SOL    HW231371   0.296   2.896   1.540
10158SOL     OW31372   5.804   5.892   1.510
10158SOL    HW131373   5.724   5.853   1.464
10158SOL    HW231374   5.847   5.960   1.450
10159SOL     OW31375   3.360   3.382   2.653
10159SOL    HW131376   3.348   3.472   2.694
10159SOL    HW231377   3.446   3.342   2.685
10160SOL     OW31378   1.919   4.725   3.754
10160SOL    HW131379   1.994   4.791   3.756
10160SOL    HW231380   1.940   4.649   3.816
10161SOL     OW31381   4.394   3.960   6.044
10161SOL    HW131382   4.480   3.942   6.091
10161SOL    HW231383   4.352   4.043   6.079
10162SOL     OW31384   1.471   3.875   2.640
10162SOL    HW131385   1.567   3.872   2.613
10162SOL    HW231386   1.449   3.793   2.694
10163SOL     OW31387   1.067   6.235   5.083
10163SOL    HW131388   1.089   6.168   5.154
10163SOL    HW231389   1.144   6.245   5.020
10164SOL     OW31390   0.471   3.089   2.942
10164SOL    HW131391   0.430   3.000   2.923
10164SOL    HW231392   0.426   3.159   2.887
10165SOL     OW31393   6.526   3.370   4.159
10165SOL    HW131394   6.569   3.416   4.081
10165SOL    HW231395   6.503   3.276   4.134
10166SOL     OW31396   1.234   1.968   0.901
10166SOL    HW131397   1.196   1.956   0.809
10166SOL    HW231398   1.256   1.878   0.940
10167SOL     OW31399   1.284   0.035   6.640
10167SOL    HW131400   1.296   0.109   6.575
10167SOL    HW231401   1.371   7.010   6.651
10168SOL     OW31402   5.754   1.296   0.350
10168SOL    HW131403   5.704   1.310   0.265
10168SOL    HW231404   5.732   1.369   0.414
10169SOL     OW31405   6.464   2.939   3.679
10169SOL    HW131406   6.407   2.911   3.601
10169SOL    HW231407   6.420   2.912   3.764
10170SOL     OW31408   6.010   5.853   5.892
10170SOL    HW131409   6.077   5.910   5.940
10170SOL    HW231410   5.958   5.909   5.828
10171SOL     OW31411   1.744   3.649   6.028
10171SOL    HW131412   1.841   3.626   6.023
10171SOL    HW231413   1.732   3.748   6.016
10172SOL     OW31414   6.333   0.389   3.049
10172SOL    HW131415   6.253   0.330   3.063
10172SOL    HW231416   6.396   0.346   2.985
10173SOL     OW31417   3.390   4.693   6.327
10173SOL    HW131418   3.329   4.653   6.395
10173SOL    HW231419   3.391   4.637   6.245
10174SOL     OW31420   4.846   5.960   2.021
10174SOL    HW131421   4.837   6.040   2.081
10174SOL    HW231422   4.841   5.877   2.075
10175SOL     OW31423   0.493   1.706   4.297
10175SOL    HW131424   0.560   1.777   4.276
10175SOL    HW231425   0.401   1.742   4.283
10176SOL     OW31426   6.033   2.707   6.001
10176SOL    HW131427   6.070   2.618   5.974
10176SOL    HW231428   5.975   2.742   5.928
10177SOL     OW31429   2.492   0.864   2.497
10177SOL    HW131430   2.571   0.814   2.531
10177SOL    HW231431   2.446   0.909   2.574
10178SOL     OW31432   1.527   1.033   0.372
10178SOL    HW131433   1.575   1.112   0.410
10178SOL    HW231434   1.431   1.057   0.354
10179SOL     OW31435   0.029   4.207   1.394
10179SOL    HW131436   7.011   4.119   1.372
10179SOL    HW231437   0.050   4.256   1.310
10180SOL     OW31438   3.740   6.786   5.554
10180SOL    HW131439   3.709   6.860   5.494
10180SOL    HW231440   3.685   6.785   5.637
10181SOL     OW31441   6.854   3.443   1.692
10181SOL    HW131442   6.818   3.522   1.643
10181SOL    HW231443   6.903   3.474   1.774
10182SOL     OW31444   5.042   1.569   6.777
10182SOL    HW131445   5.038   1.668   6.781
10182SOL    HW231446   5.059   1.532   6.868
10183SOL     OW31447   6.027   2.628   6.278
10183SOL    HW131448   6.005   2.701   6.343
10183SOL    HW231449   6.006   2.657   6.185
10184SOL     OW31450   5.523   3.463   5.900
10184SOL    HW131451   5.508   3.370   5.934
10184SOL    HW231452   5.606   3.465   5.845
10185SOL     OW31453   3.966   5.490   2.575
10185SOL    HW131454   3.969   5.408   2.632
10185SOL    HW231455   3.900   5.477   2.501
10186SOL     OW31456   4.114   3.432   5.686
10186SOL    HW131457   4.147   3.437   5.592
10186SOL    HW231458   4.099   3.524   5.721
10187SOL     OW31459   2.218   5.183   5.840
10187SOL    HW131460   2.198   5.092   5.806
10187SOL    HW231461   2.134   5.238   5.840
10188SOL     OW31462   3.133   0.124   6.889
10188SOL    HW131463   3.157   0.193   6.958
10188SOL    HW231464   3.101   0.041   6.934
10189SOL     OW31465   0.739   1.808   6.558
10189SOL    HW131466   0.683   1.812   6.476
10189SOL    HW231467   0.684   1.775   6.635
10190SOL     OW31468   3.356   4.998   1.652
10190SOL    HW131469   3.307   4.941   1.717
10190SOL    HW231470   3.390   4.941   1.577
10191SOL     OW31471   5.807   5.721   0.092
10191SOL    HW131472   5.713   5.727   0.126
10191SOL    HW231473   5.825   5.797   0.029
10192SOL     OW31474   1.867   1.994   5.201
10192SOL    HW131475   1.906   2.082   5.228
10192SOL    HW231476   1.853   1.937   5.282
10193SOL     OW31477   4.063   3.847   3.057
10193SOL    HW131478   4.080   3.760   3.010
10193SOL    HW231479   4.148   3.899   3.064
10194SOL     OW31480   3.442   0.172   3.972
10194SOL    HW131481   3.530   0.173   4.018
10194SOL    HW231482   3.394   0.258   3.991
10195SOL     OW31483   4.730   0.054   2.334
10195SOL    HW131484   4.684   0.134   2.370
10195SOL    HW231485   4.689   0.028   2.246
10196SOL     OW31486   5.490   1.542   2.989
10196SOL    HW131487   5.409   1.538   2.931
10196SOL    HW231488   5.510   1.636   3.013
10197SOL     OW31489   6.235   0.917   2.486
10197SOL    HW131490   6.322   0.868   2.472
10197SOL    HW231491   6.248   1.014   2.465
10198SOL     OW31492   3.336   6.619   1.421
10198SOL    HW131493   3.379   6.568   1.496
10198SOL    HW231494   3.237   6.609   1.426
10199SOL     OW31495   0.573   1.491   6.730
10199SOL    HW131496   0.602   1.461   6.639
10199SOL    HW231497   0.476   1.468   6.743
10200SOL     OW31498   4.982   4.375   5.322
10200SOL    HW131499   4.983   4.368   5.422
10200SOL    HW231500   5.076   4.368   5.287
10201SOL     OW31501   0.693   5.424   2.358
10201SOL    HW131502   0.727   5.507   2.404
10201SOL    HW231503   0.745   5.408   2.275
10202SOL     OW31504   0.985   3.097   1.839
10202SOL    HW131505   1.010   3.143   1.924
10202SOL    HW231506   0.939   3.011   1.860
10203SOL     OW31507   1.515   3.023   1.979
10203SOL    HW131508   1.531   3.004   2.076
10203SOL    HW231509   1.426   3.066   1.967
10204SOL     OW31510   3.093   4.739   5.228
10204SOL    HW131511   3.054   4.647   5.227
10204SOL    HW231512   3.193   4.732   5.237
10205SOL     OW31513   5.490   1.998   3.463
10205SOL    HW131514   5.471   2.085   3.508
10205SOL    HW231515   5.435   1.925   3.504
10206SOL     OW31516   5.430   6.647   5.806
10206SOL    HW131517   5.398   6.563   5.763
10206SOL    HW231518   5.514   6.628   5.857
10207SOL     OW31519   3.258   1.024   3.179
10207SOL    HW131520   3.235   1.119   3.156
10207SOL    HW231521   3.352   1.020   3.212
10208SOL     OW31522   5.847   4.708   6.102
10208SOL    HW131523   5.879   4.770   6.030
10208SOL    HW231524   5.897   4.621   6.095
10209SOL     OW31525   6.896   0.224   6.647
10209SOL    HW131526   6.898   0.260   6.553
10209SOL    HW231527   6.819   0.265   6.696
10210SOL     OW31528   5.965   6.688   2.424
10210SOL    HW131529   6.044   6.718   2.478
10210SOL    HW231530   5.893   6.656   2.486
10211SOL     OW31531   3.731   6.152   5.212
10211SOL    HW131532   3.635   6.147   5.240
10211SOL    HW231533   3.782   6.078   5.255
10212SOL     OW31534   0.461   1.099   3.753
10212SOL    HW131535   0.436   1.012   3.795
10212SOL    HW231536   0.428   1.102   3.659
10213SOL     OW31537   6.227   1.974   3.366
10213SOL    HW131538   6.200   1.878   3.369
10213SOL    HW231539   6.204   2.018   3.453
10214SOL     OW31540   6.650   0.990   1.987
10214SOL    HW131541   6.635   1.041   1.902
10214SOL    HW231542   6.667   0.894   1.966
10215SOL     OW31543   4.096   3.413   6.748
10215SOL    HW131544   4.051   3.465   6.675
10215SOL    HW231545   4.028   3.360   6.798
10216SOL     OW31546   5.992   7.004   0.987
10216SOL    HW131547   5.935   0.027   1.054
10216SOL    HW231548   6.048   6.936   1.033
10217SOL     OW31549   2.468   1.956   4.268
10217SOL    HW131550   2.395   2.019   4.295
10217SOL    HW231551   2.436   1.897   4.195
10218SOL     OW31552   2.017   0.776   0.946
10218SOL    HW131553   1.983   0.690   0.981
10218SOL    HW231554   1.943   0.844   0.946
10219SOL     OW31555   1.002   2.642   1.681
10219SOL    HW131556   1.018   2.549   1.713
10219SOL    HW231557   0.925   2.643   1.618
10220SOL     OW31558   4.445   1.873   1.353
10220SOL    HW131559   4.455   1.774   1.363
10220SOL    HW231560   4.348   1.897   1.355
10221SOL     OW31561   2.627   0.408   5.209
10221SOL    HW131562   2.532   0.397   5.239
10221SOL    HW231563   2.662   0.495   5.243
10222SOL     OW31564   1.440   4.459   5.186
10222SOL    HW131565   1.359   4.514   5.204
10222SOL    HW231566   1.435   4.422   5.093
10223SOL     OW31567   1.963   4.589   0.046
10223SOL    HW131568   2.027   4.640   0.104
10223SOL    HW231569   2.012   4.548   6.993
10224SOL     OW31570   1.076   6.866   4.200
10224SOL    HW131571   1.068   6.965   4.205
10224SOL    HW231572   0.991   6.827   4.165
10225SOL     OW31573   6.834   6.218   5.041
10225SOL    HW131574   6.910   6.164   5.006
10225SOL    HW231575   6.851   6.315   5.027
10226SOL     OW31576   2.397   0.976   6.733
10226SOL    HW131577   2.428   0.978   6.638
10226SOL    HW231578   2.300   0.999   6.738
10227SOL     OW31579   4.695   4.271   0.161
10227SOL    HW131580   4.789   4.280   0.193
10227SOL    HW231581   4.690   4.295   0.065
10228SOL     OW31582   1.340   5.480   3.417
10228SOL    HW131583   1.364   5.482   3.513
10228SOL    HW231584   1.352   5.571   3.377
10229SOL     OW31585   0.977   0.070   3.679
10229SOL    HW131586   0.918   0.000   3.718
10229SOL    HW231587   0.937   0.103   3.593
10230SOL     OW31588   5.893   0.007   3.600
10230SOL    HW131589   5.906   0.050   3.510
10230SOL    HW231590   5.873   6.934   3.587
10231SOL     OW31591   5.592   6.592   4.422
10231SOL    HW131592   5.566   6.675   4.472
10231SOL    HW231593   5.640   6.530   4.485
10232SOL     OW31594   3.549   1.308   4.583
10232SOL    HW131595   3.597   1.228   4.546
10232SOL    HW231596   3.467   1.277   4.632
10233SOL     OW31597   4.550   2.958   5.876
10233SOL    HW131598   4.539   2.860   5.862
10233SOL    HW231599   4.562   2.977   5.974
10234SOL     OW31600   4.974   0.130   0.931
10234SOL    HW131601   4.972   0.229   0.925
10234SOL    HW231602   4.925   0.091   0.853
10235SOL     OW31603   4.423   1.930   6.859
10235SOL    HW131604   4.505   1.986   6.871
10235SOL    HW231605   4.342   1.984   6.883
10236SOL     OW31606   2.398   6.067   2.116
10236SOL    HW131607   2.481   6.037   2.162
10236SOL    HW231608   2.373   6.159   2.147
10237SOL     OW31609   6.374   4.163   2.668
10237SOL    HW131610   6.466   4.131   2.644
10237SOL    HW231611   6.318   4.170   2.586
10238SOL     OW31612   3.754   4.482   5.329
10238SOL    HW131613   3.734   4.401   5.383
10238SOL    HW231614   3.841   4.522   5.359
10239SOL     OW31615   0.257   3.956   5.158
10239SOL    HW131616   0.294   4.044   5.127
10239SOL    HW231617   0.333   3.898   5.190
10240SOL     OW31618   0.945   4.072   3.134
10240SOL    HW131619   0.881   4.111   3.200
10240SOL    HW231620   1.035   4.116   3.145
10241SOL     OW31621   0.944   1.373   2.474
10241SOL    HW131622   0.931   1.468   2.445
10241SOL    HW231623   0.984   1.321   2.399
10242SOL     OW31624   7.022   1.313   6.022
10242SOL    HW131625   0.009   1.290   5.926
10242SOL    HW231626   6.926   1.304   6.048
10243SOL     OW31627   0.595   5.545   1.363
10243SOL    HW131628   0.593   5.606   1.284
10243SOL    HW231629   0.646   5.462   1.340
10244SOL     OW31630   2.704   4.617   0.449
10244SOL    HW131631   2.735   4.677   0.524
10244SOL    HW231632   2.661   4.672   0.378
10245SOL     OW31633   1.390   3.356   6.972
10245SOL    HW131634   1.390   3.273   6.916
10245SOL    HW231635   1.420   3.333   0.040
10246SOL     OW31636   2.966   3.936   4.596
10246SOL    HW131637   2.984   3.902   4.688
10246SOL    HW231638   2.905   4.015   4.601
10247SOL     OW31639   6.874   5.359   6.340
10247SOL    HW131640   6.816   5.329   6.264
10247SOL    HW231641   6.916   5.447   6.317
10248SOL     OW31642   3.062   0.718   1.744
10248SOL    HW131643   3.038   0.631   1.702
10248SOL    HW231644   3.006   0.732   1.826
10249SOL     OW31645   4.438   1.149   5.415
10249SOL    HW131646   4.411   1.062   5.456
10249SOL    HW231647   4.536   1.165   5.433
10250SOL     OW31648   5.964   1.013   1.310
10250SOL    HW131649   6.055   1.041   1.342
10250SOL    HW231650   5.960   0.913   1.304
10251SOL     OW31651   2.855   2.883   6.771
10251SOL    HW131652   2.854   2.906   6.869
10251SOL    HW231653   2.908   2.800   6.757
10252SOL     OW31654   6.653   6.389   0.962
10252SOL    HW131655   6.617   6.392   1.055
10252SOL    HW231656   6.734   6.330   0.959
10253SOL     OW31657   4.892   4.313   0.544
10253SOL    HW131658   4.919   4.298   0.449
10253SOL    HW231659   4.853   4.229   0.581
10254SOL     OW31660   2.842   1.342   4.924
10254SOL    HW131661   2.861   1.407   4.997
10254SOL    HW231662   2.803   1.390   4.846
10255SOL     OW31663   1.951   5.682   1.948
10255SOL    HW131664   1.951   5.584   1.930
10255SOL    HW231665   1.990   5.699   2.038
10256SOL     OW31666   4.905   0.002   0.276
10256SOL    HW131667   4.945   0.085   0.236
10256SOL    HW231668   4.915   6.950   0.212
10257SOL     OW31669   1.227   4.988   6.098
10257SOL    HW131670   1.284   5.043   6.038
10257SOL    HW231671   1.162   5.046   6.146
10258SOL     OW31672   4.325   6.217   3.471
10258SOL    HW131673   4.350   6.235   3.376
10258SOL    HW231674   4.271   6.133   3.476
10259SOL     OW31675   0.380   4.513   4.279
10259SOL    HW131676   0.400   4.471   4.191
10259SOL    HW231677   0.420   4.459   4.352
10260SOL     OW31678   0.839   6.557   2.539
10260SOL    HW131679   0.808   6.626   2.473
10260SOL    HW231680   0.931   6.527   2.515
10261SOL     OW31681   0.277   5.474   2.171
10261SOL    HW131682   0.316   5.485   2.262
10261SOL    HW231683   0.255   5.564   2.133
10262SOL     OW31684   3.389   4.932   4.184
10262SOL    HW131685   3.294   4.921   4.215
10262SOL    HW231686   3.450   4.925   4.262
10263SOL     OW31687   4.963   1.920   6.237
10263SOL    HW131688   4.981   1.873   6.323
10263SOL    HW231689   4.889   1.873   6.188
10264SOL     OW31690   5.876   1.348   6.147
10264SOL    HW131691   5.863   1.346   6.048
10264SOL    HW231692   5.798   1.393   6.190
10265SOL     OW31693   3.678   1.723   2.879
10265SOL    HW131694   3.764   1.740   2.830
10265SOL    HW231695   3.689   1.749   2.975
10266SOL     OW31696   3.565   3.806   6.363
10266SOL    HW131697   3.635   3.740   6.335
10266SOL    HW231698   3.493   3.759   6.414
10267SOL     OW31699   6.996   1.874   0.064
10267SOL    HW131700   6.926   1.910   0.125
10267SOL    HW231701   0.058   1.862   0.114
10268SOL     OW31702   5.465   5.769   1.605
10268SOL    HW131703   5.435   5.813   1.521
10268SOL    HW231704   5.435   5.674   1.605
10269SOL     OW31705   2.025   2.140   6.009
10269SOL    HW131706   1.932   2.118   6.038
10269SOL    HW231707   2.022   2.210   5.938
10270SOL     OW31708   2.115   5.871   0.366
10270SOL    HW131709   2.074   5.802   0.426
10270SOL    HW231710   2.116   5.837   0.272
10271SOL     OW31711   3.692   3.760   1.415
10271SOL    HW131712   3.596   3.753   1.388
10271SOL    HW231713   3.738   3.673   1.401
10272SOL     OW31714   0.955   0.782   4.580
10272SOL    HW131715   1.050   0.752   4.577
10272SOL    HW231716   0.940   0.839   4.660
10273SOL     OW31717   3.372   5.766   4.423
10273SOL    HW131718   3.403   5.738   4.513
10273SOL    HW231719   3.272   5.771   4.422
10274SOL     OW31720   1.188   5.122   5.799
10274SOL    HW131721   1.262   5.149   5.860
10274SOL    HW231722   1.102   5.162   5.831
10275SOL     OW31723   0.841   6.364   2.802
10275SOL    HW131724   0.793   6.308   2.736
10275SOL    HW231725   0.790   6.448   2.819
10276SOL     OW31726   6.927   5.386   5.561
10276SOL    HW131727   6.885   5.298   5.542
10276SOL    HW231728   6.986   5.379   5.641
10277SOL     OW31729   2.968   6.397   4.024
10277SOL    HW131730   2.940   6.428   4.115
10277SOL    HW231731   2.913   6.445   3.955
10278SOL     OW31732   6.293   0.368   6.611
10278SOL    HW131733   6.211   0.414   6.575
10278SOL    HW231734   6.268   0.314   6.691
10279SOL     OW31735   3.413   0.295   4.491
10279SOL    HW131736   3.355   0.363   4.446
10279SOL    HW231737   3.397   0.205   4.450
10280SOL     OW31738   1.621   4.347   0.968
10280SOL    HW131739   1.575   4.423   1.014
10280SOL    HW231740   1.558   4.270   0.959
10281SOL     OW31741   4.750   1.393   2.381
10281SOL    HW131742   4.671   1.352   2.335
10281SOL    HW231743   4.758   1.354   2.473
10282SOL     OW31744   0.634   2.446   3.937
10282SOL    HW131745   0.623   2.523   3.999
10282SOL    HW231746   0.731   2.430   3.919
10283SOL     OW31747   1.142   3.324   0.583
10283SOL    HW131748   1.069   3.306   0.518
10283SOL    HW231749   1.136   3.419   0.616
10284SOL     OW31750   5.436   3.907   5.327
10284SOL    HW131751   5.518   3.953   5.360
10284SOL    HW231752   5.412   3.831   5.389
10285SOL     OW31753   4.716   0.622   1.122
10285SOL    HW131754   4.798   0.565   1.126
10285SOL    HW231755   4.637   0.568   1.151
10286SOL     OW31756   3.785   1.219   3.382
10286SOL    HW131757   3.718   1.187   3.315
10286SOL    HW231758   3.868   1.248   3.335
10287SOL     OW31759   1.455   6.756   1.348
10287SOL    HW131760   1.361   6.780   1.323
10287SOL    HW231761   1.473   6.660   1.324
10288SOL     OW31762   5.274   5.633   3.215
10288SOL    HW131763   5.346   5.702   3.203
10288SOL    HW231764   5.197   5.654   3.155
10289SOL     OW31765   3.096   1.488   1.655
10289SOL    HW131766   3.094   1.588   1.646
10289SOL    HW231767   3.021   1.449   1.600
10290SOL     OW31768   4.128   3.404   2.564
10290SOL    HW131769   4.153   3.394   2.468
10290SOL    HW231770   4.076   3.489   2.577
10291SOL     OW31771   3.716   0.810   3.546
10291SOL    HW131772   3.798   0.835   3.496
10291SOL    HW231773   3.672   0.892   3.582
10292SOL     OW31774   0.084   2.331   5.027
10292SOL    HW131775   0.142   2.299   4.952
10292SOL    HW231776   0.038   2.415   5.000
10293SOL     OW31777   1.804   6.048   3.150
10293SOL    HW131778   1.729   6.014   3.206
10293SOL    HW231779   1.770   6.118   3.087
10294SOL     OW31780   4.932   2.140   2.588
10294SOL    HW131781   4.840   2.106   2.569
10294SOL    HW231782   4.931   2.192   2.673
10295SOL     OW31783   0.018   4.770   5.475
10295SOL    HW131784   6.949   4.757   5.507
10295SOL    HW231785   0.077   4.794   5.552
10296SOL     OW31786   5.870   4.009   6.153
10296SOL    HW131787   5.969   4.003   6.148
10296SOL    HW231788   5.842   4.105   6.159
10297SOL     OW31789   1.491   6.244   3.873
10297SOL    HW131790   1.538   6.211   3.955
10297SOL    HW231791   1.447   6.331   3.894
10298SOL     OW31792   4.947   3.874   3.792
10298SOL    HW131793   5.036   3.916   3.813
10298SOL    HW231794   4.961   3.798   3.728
10299SOL     OW31795   4.645   4.443   3.705
10299SOL    HW131796   4.571   4.421   3.768
10299SOL    HW231797   4.721   4.379   3.719
10300SOL     OW31798   1.145   3.308   1.675
10300SOL    HW131799   1.057   3.356   1.679
10300SOL    HW231800   1.136   3.219   1.719
10301SOL     OW31801   6.056   1.295   3.070
10301SOL    HW131802   6.015   1.296   3.161
10301SOL    HW231803   6.102   1.382   3.053
10302SOL     OW31804   1.086   6.212   2.792
10302SOL    HW131805   0.999   6.259   2.781
10302SOL    HW231806   1.070   6.117   2.819
10303SOL     OW31807   3.834   3.529   1.327
10303SOL    HW131808   3.861   3.534   1.231
10303SOL    HW231809   3.766   3.457   1.338
10304SOL     OW31810   6.778   0.021   3.516
10304SOL    HW131811   6.843   6.977   3.551
10304SOL    HW231812   6.757   7.024   3.421
10305SOL     OW31813   2.239   5.869   6.939
10305SOL    HW131814   2.246   5.870   6.840
10305SOL    HW231815   2.328   5.848   6.979
10306SOL     OW31816   4.713   5.682   0.170
10306SOL    HW131817   4.631   5.629   0.148
10306SOL    HW231818   4.794   5.624   0.159
10307SOL     OW31819   1.319   0.891   5.867
10307SOL    HW131820   1.259   0.915   5.943
10307SOL    HW231821   1.409   0.865   5.903
10308SOL     OW31822   3.242   5.342   3.351
10308SOL    HW131823   3.219   5.300   3.438
10308SOL    HW231824   3.242   5.272   3.279
10309SOL     OW31825   5.868   6.824   3.164
10309SOL    HW131826   5.962   6.793   3.171
10309SOL    HW231827   5.854   6.870   3.076
10310SOL     OW31828   3.058   3.620   2.576
10310SOL    HW131829   3.011   3.552   2.520
10310SOL    HW231830   3.137   3.656   2.527
10311SOL     OW31831   0.456   5.525   0.687
10311SOL    HW131832   0.465   5.426   0.694
10311SOL    HW231833   0.491   5.567   0.771
10312SOL     OW31834   3.495   4.738   1.077
10312SOL    HW131835   3.441   4.707   0.999
10312SOL    HW231836   3.554   4.814   1.050
10313SOL     OW31837   4.563   0.460   2.538
10313SOL    HW131838   4.657   0.430   2.552
10313SOL    HW231839   4.559   0.560   2.539
10314SOL     OW31840   6.511   0.175   0.687
10314SOL    HW131841   6.503   0.155   0.785
10314SOL    HW231842   6.419   0.182   0.648
10315SOL     OW31843   6.661   5.735   5.336
10315SOL    HW131844   6.623   5.795   5.265
10315SOL    HW231845   6.622   5.644   5.326
10316SOL     OW31846   0.798   3.532   5.052
10316SOL    HW131847   0.795   3.433   5.039
10316SOL    HW231848   0.720   3.562   5.107
10317SOL     OW31849   4.254   5.206   6.323
10317SOL    HW131850   4.203   5.155   6.393
10317SOL    HW231851   4.336   5.154   6.298
10318SOL     OW31852   6.309   5.184   1.541
10318SOL    HW131853   6.323   5.240   1.623
10318SOL    HW231854   6.296   5.089   1.568
10319SOL     OW31855   0.044   5.001   3.574
10319SOL    HW131856   0.020   5.033   3.666
10319SOL    HW231857   0.113   5.062   3.535
10320SOL     OW31858   0.445   6.150   0.820
10320SOL    HW131859   0.544   6.165   0.814
10320SOL    HW231860   0.409   6.127   0.729
10321SOL     OW31861   4.523   5.232   4.812
10321SOL    HW131862   4.424   5.229   4.810
10321SOL    HW231863   4.553   5.308   4.870
10322SOL     OW31864   6.610   5.200   0.962
10322SOL    HW131865   6.602   5.101   0.976
10322SOL    HW231866   6.525   5.245   0.990
10323SOL     OW31867   5.543   3.295   6.163
10323SOL    HW131868   5.547   3.245   6.076
10323SOL    HW231869   5.536   3.231   6.238
10324SOL     OW31870   3.111   3.948   3.813
10324SOL    HW131871   3.089   3.972   3.719
10324SOL    HW231872   3.204   3.978   3.834
10325SOL     OW31873   6.935   3.121   3.427
10325SOL    HW131874   6.870   3.188   3.390
10325SOL    HW231875   0.000   3.135   3.385
10326SOL     OW31876   4.992   2.638   6.858
10326SOL    HW131877   4.907   2.659   6.905
10326SOL    HW231878   5.042   2.568   6.909
10327SOL     OW31879   0.581   1.033   2.732
10327SOL    HW131880   0.524   1.102   2.687
10327SOL    HW231881   0.618   1.071   2.817
10328SOL     OW31882   6.009   3.789   2.415
10328SOL    HW131883   6.037   3.884   2.408
10328SOL    HW231884   5.917   3.783   2.453
10329SOL     OW31885   3.221   0.428   2.661
10329SOL    HW131886   3.244   0.333   2.683
10329SOL    HW231887   3.135   0.430   2.611
10330SOL     OW31888   3.548   4.918   2.599
10330SOL    HW131889   3.589   4.884   2.515
10330SOL    HW231890   3.498   5.003   2.580
10331SOL     OW31891   5.391   1.107   3.967
10331SOL    HW131892   5.322   1.073   3.903
10331SOL    HW231893   5.349   1.121   4.056
10332SOL     OW31894   6.816   2.183   0.560
10332SOL    HW131895   6.891   2.116   0.566
10332SOL    HW231896   6.851   2.268   0.521
10333SOL     OW31897   5.907   5.590   4.442
10333SOL    HW131898   5.892   5.649   4.363
10333SOL    HW231899   5.926   5.497   4.410
10334SOL     OW31900   2.173   4.826   4.111
10334SOL    HW131901   2.084   4.807   4.153
10334SOL    HW231902   2.246   4.810   4.178
10335SOL     OW31903   2.824   5.095   0.716
10335SOL    HW131904   2.738   5.067   0.759
10335SOL    HW231905   2.812   5.185   0.673
10336SOL     OW31906   4.705   6.841   2.458
10336SOL    HW131907   4.757   6.776   2.402
10336SOL    HW231908   4.710   6.932   2.416
10337SOL     OW31909   0.284   4.986   5.194
10337SOL    HW131910   0.281   4.901   5.247
10337SOL    HW231911   0.379   5.005   5.168
10338SOL     OW31912   2.820   6.780   2.197
10338SOL    HW131913   2.789   6.811   2.288
10338SOL    HW231914   2.762   6.821   2.127
10339SOL     OW31915   2.884   6.153   1.509
10339SOL    HW131916   2.850   6.083   1.446
10339SOL    HW231917   2.862   6.244   1.473
10340SOL     OW31918   2.662   5.863   0.400
10340SOL    HW131919   2.667   5.951   0.354
10340SOL    HW231920   2.709   5.869   0.489
10341SOL     OW31921   2.405   1.533   2.332
10341SOL    HW131922   2.380   1.624   2.300
10341SOL    HW231923   2.490   1.504   2.288
10342SOL     OW31924   2.244   0.387   5.593
10342SOL    HW131925   2.331   0.345   5.616
10342SOL    HW231926   2.246   0.485   5.617
10343SOL     OW31927   2.641   3.843   6.155
10343SOL    HW131928   2.737   3.843   6.184
10343SOL    HW231929   2.591   3.915   6.203
10344SOL     OW31930   4.145   3.561   5.001
10344SOL    HW131931   4.243   3.548   4.985
10344SOL    HW231932   4.093   3.510   4.933
10345SOL     OW31933   1.921   1.545   0.093
10345SOL    HW131934   1.995   1.482   0.068
10345SOL    HW231935   1.949   1.639   0.072
10346SOL     OW31936   5.045   0.193   0.134
10346SOL    HW131937   5.024   0.203   0.037
10346SOL    HW231938   5.090   0.276   0.167
10347SOL     OW31939   5.218   1.843   1.773
10347SOL    HW131940   5.150   1.821   1.703
10347SOL    HW231941   5.279   1.914   1.739
10348SOL     OW31942   5.683   0.722   5.953
10348SOL    HW131943   5.744   0.801   5.957
10348SOL    HW231944   5.604   0.744   5.896
10349SOL     OW31945   6.547   1.559   1.601
10349SOL    HW131946   6.641   1.558   1.568
10349SOL    HW231947   6.533   1.483   1.664
10350SOL     OW31948   2.713   5.875   4.262
10350SOL    HW131949   2.771   5.793   4.268
10350SOL    HW231950   2.769   5.953   4.233
10351SOL     OW31951   5.560   5.096   5.432
10351SOL    HW131952   5.601   5.137   5.513
10351SOL    HW231953   5.584   4.999   5.428
10352SOL     OW31954   5.458   1.873   6.878
10352SOL    HW131955   5.418   1.908   6.793
10352SOL    HW231956   5.491   1.780   6.863
10353SOL     OW31957   0.341   2.826   2.894
10353SOL    HW131958   0.272   2.778   2.947
10353SOL    HW231959   0.389   2.761   2.835
10354SOL     OW31960   0.041   3.707   0.493
10354SOL    HW131961   6.969   3.681   0.487
10354SOL    HW231962   0.098   3.626   0.477
10355SOL     OW31963   1.360   0.311   0.404
10355SOL    HW131964   1.370   0.296   0.502
10355SOL    HW231965   1.265   0.299   0.378
10356SOL     OW31966   6.666   3.649   0.133
10356SOL    HW131967   6.578   3.602   0.125
10356SOL    HW231968   6.652   3.748   0.127
10357SOL     OW31969   1.159   2.971   6.119
10357SOL    HW131970   1.146   2.873   6.105
10357SOL    HW231971   1.135   2.995   6.213
10358SOL     OW31972   0.982   2.491   3.002
10358SOL    HW131973   1.071   2.464   2.964
10358SOL    HW231974   0.996   2.550   3.082
10359SOL     OW31975   5.386   2.176   2.556
10359SOL    HW131976   5.390   2.099   2.619
10359SOL    HW231977   5.295   2.182   2.515
10360SOL     OW31978   5.857   5.009   2.709
10360SOL    HW131979   5.772   5.053   2.739
10360SOL    HW231980   5.884   5.046   2.620
10361SOL     OW31981   0.631   1.090   1.566
10361SOL    HW131982   0.693   1.014   1.547
10361SOL    HW231983   0.659   1.170   1.512
10362SOL     OW31984   1.567   4.994   2.973
10362SOL    HW131985   1.548   4.913   2.916
10362SOL    HW231986   1.481   5.035   3.003
10363SOL     OW31987   5.380   3.591   0.728
10363SOL    HW131988   5.438   3.510   0.727
10363SOL    HW231989   5.438   3.673   0.726
10364SOL     OW31990   5.579   4.566   1.947
10364SOL    HW131991   5.589   4.538   1.851
10364SOL    HW231992   5.482   4.576   1.969
10365SOL     OW31993   6.001   5.403   0.487
10365SOL    HW131994   6.001   5.303   0.491
10365SOL    HW231995   6.042   5.433   0.400
10366SOL     OW31996   3.544   6.175   2.894
10366SOL    HW131997   3.552   6.221   2.806
10366SOL    HW231998   3.514   6.240   2.963
10367SOL     OW31999   6.079   1.961   0.740
10367SOL    HW132000   6.042   1.917   0.822
10367SOL    HW232001   6.096   2.058   0.759
10368SOL     OW32002   2.196   0.130   2.007
10368SOL    HW132003   2.218   0.214   1.957
10368SOL    HW232004   2.099   0.108   1.995
10369SOL     OW32005   3.143   6.614   5.183
10369SOL    HW132006   3.120   6.547   5.112
10369SOL    HW232007   3.186   6.568   5.260
10370SOL     OW32008   0.295   2.044   4.373
10370SOL    HW132009   0.387   2.004   4.379
10370SOL    HW232010   0.240   1.991   4.309
10371SOL     OW32011   3.325   5.989   3.368
10371SOL    HW132012   3.417   6.023   3.348
10371SOL    HW232013   3.305   5.911   3.309
10372SOL     OW32014   2.467   6.899   1.559
10372SOL    HW132015   2.557   6.912   1.517
10372SOL    HW232016   2.477   6.893   1.658
10373SOL     OW32017   6.814   1.674   5.752
10373SOL    HW132018   6.783   1.590   5.797
10373SOL    HW232019   6.778   1.678   5.659
10374SOL     OW32020   3.327   6.997   4.455
10374SOL    HW132021   3.410   6.997   4.511
10374SOL    HW232022   3.249   0.001   4.511
10375SOL     OW32023   4.360   2.822   0.054
10375SOL    HW132024   4.336   2.728   0.077
10375SOL    HW232025   4.302   2.853   7.003
10376SOL     OW32026   1.792   5.954   2.777
10376SOL    HW132027   1.843   6.010   2.842
10376SOL    HW232028   1.854   5.915   2.710
10377SOL     OW32029   0.246   1.509   1.906
10377SOL    HW132030   0.232   1.555   1.818
10377SOL    HW232031   0.301   1.427   1.892
10378SOL     OW32032   0.120   5.149   5.479
10378SOL    HW132033   0.104   5.232   5.426
10378SOL    HW232034   0.111   5.069   5.420
10379SOL     OW32035   2.452   6.684   3.956
10379SOL    HW132036   2.385   6.714   4.023
10379SOL    HW232037   2.543   6.712   3.985
10380SOL     OW32038   1.482   2.792   4.989
10380SOL    HW132039   1.576   2.783   5.022
10380SOL    HW232040   1.482   2.805   4.890
10381SOL     OW32041   4.351   4.321   1.402
10381SOL    HW132042   4.429   4.370   1.442
10381SOL    HW232043   4.313   4.259   1.470
10382SOL     OW32044   3.294   4.768   1.794
10382SOL    HW132045   3.392   4.757   1.807
10382SOL    HW232046   3.251   4.789   1.881
10383SOL     OW32047   2.345   4.942   0.178
10383SOL    HW132048   2.431   4.892   0.192
10383SOL    HW232049   2.329   4.954   0.080
10384SOL     OW32050   6.139   6.289   1.189
10384SOL    HW132051   6.236   6.274   1.174
10384SOL    HW232052   6.098   6.326   1.105
10385SOL     OW32053   3.302   4.940   6.205
10385SOL    HW132054   3.362   4.879   6.258
10385SOL    HW232055   3.208   4.930   6.238
10386SOL     OW32056   7.022   1.065   6.581
10386SOL    HW132057   0.077   1.125   6.584
10386SOL    HW232058   6.988   1.049   6.674
10387SOL     OW32059   4.956   3.146   2.817
10387SOL    HW132060   4.887   3.123   2.748
10387SOL    HW232061   5.025   3.074   2.821
10388SOL     OW32062   2.860   0.495   5.954
10388SOL    HW132063   2.905   0.445   5.880
10388SOL    HW232064   2.846   0.590   5.925
10389SOL     OW32065   6.527   3.907   0.100
10389SOL    HW132066   6.430   3.930   0.113
10389SOL    HW232067   6.582   3.955   0.167
10390SOL     OW32068   2.149   2.248   1.212
10390SOL    HW132069   2.166   2.259   1.114
10390SOL    HW232070   2.236   2.233   1.259
10391SOL     OW32071   0.569   6.457   3.657
10391SOL    HW132072   0.600   6.537   3.605
10391SOL    HW232073   0.485   6.421   3.617
10392SOL     OW32074   6.990   5.397   4.856
10392SOL    HW132075   6.940   5.483   4.849
10392SOL    HW232076   7.024   5.370   4.766
10393SOL     OW32077   2.102   3.730   4.064
10393SOL    HW132078   2.081   3.822   4.097
10393SOL    HW232079   2.145   3.677   4.137
10394SOL     OW32080   2.663   6.207   4.185
10394SOL    HW132081   2.620   6.291   4.154
10394SOL    HW232082   2.685   6.150   4.106
10395SOL     OW32083   0.345   6.478   1.278
10395SOL    HW132084   0.370   6.472   1.181
10395SOL    HW232085   0.409   6.424   1.333
10396SOL     OW32086   3.246   2.179   3.916
10396SOL    HW132087   3.192   2.137   3.843
10396SOL    HW232088   3.339   2.141   3.915
10397SOL     OW32089   3.181   2.150   2.738
10397SOL    HW132090   3.231   2.065   2.724
10397SOL    HW232091   3.143   2.182   2.650
10398SOL     OW32092   7.000   3.374   1.152
10398SOL    HW132093   7.009   3.276   1.134
10398SOL    HW232094   6.972   3.388   1.247
10399SOL     OW32095   5.420   2.554   2.457
10399SOL    HW132096   5.329   2.579   2.422
10399SOL    HW232097   5.452   2.625   2.519
10400SOL     OW32098   4.217   6.851   0.228
10400SOL    HW132099   4.160   6.930   0.204
10400SOL    HW232100   4.262   6.868   0.316
10401SOL     OW32101   5.989   0.960   3.886
10401SOL    HW132102   6.075   0.910   3.897
10401SOL    HW232103   6.007   1.047   3.840
10402SOL     OW32104   6.625   3.196   5.033
10402SOL    HW132105   6.693   3.174   4.963
10402SOL    HW232106   6.559   3.262   4.996
10403SOL     OW32107   3.689   1.102   3.605
10403SOL    HW132108   3.622   1.155   3.657
10403SOL    HW232109   3.706   1.145   3.517
10404SOL     OW32110   5.735   0.258   5.015
10404SOL    HW132111   5.785   0.276   4.930
10404SOL    HW232112   5.760   0.328   5.083
10405SOL     OW32113   0.444   1.643   5.966
10405SOL    HW132114   0.515   1.714   5.967
10405SOL    HW232115   0.427   1.612   6.059
10406SOL     OW32116   3.345   4.863   2.819
10406SOL    HW132117   3.369   4.917   2.900
10406SOL    HW232118   3.422   4.860   2.756
10407SOL     OW32119   3.202   6.507   6.172
10407SOL    HW132120   3.160   6.417   6.183
10407SOL    HW232121   3.251   6.531   6.256
10408SOL     OW32122   4.551   0.691   0.590
10408SOL    HW132123   4.577   0.608   0.541
10408SOL    HW232124   4.538   0.671   0.687
10409SOL     OW32125   6.834   4.217   1.626
10409SOL    HW132126   6.853   4.164   1.543
10409SOL    HW232127   6.915   4.271   1.649
10410SOL     OW32128   6.035   1.002   6.587
10410SOL    HW132129   6.043   1.070   6.660
10410SOL    HW232130   5.964   0.935   6.613
10411SOL     OW32131   3.590   6.405   3.329
10411SOL    HW132132   3.678   6.431   3.289
10411SOL    HW232133   3.592   6.422   3.427
10412SOL     OW32134   6.341   0.564   0.422
10412SOL    HW132135   6.432   0.524   0.412
10412SOL    HW232136   6.317   0.569   0.519
10413SOL     OW32137   5.925   2.151   0.925
10413SOL    HW132138   5.955   2.058   0.903
10413SOL    HW232139   5.993   2.216   0.890
10414SOL     OW32140   4.107   4.168   5.295
10414SOL    HW132141   4.144   4.255   5.261
10414SOL    HW232142   4.013   4.156   5.261
10415SOL     OW32143   0.612   4.001   5.003
10415SOL    HW132144   0.644   3.916   4.961
10415SOL    HW232145   0.686   4.041   5.057
10416SOL     OW32146   6.444   0.827   3.471
10416SOL    HW132147   6.525   0.866   3.514
10416SOL    HW232148   6.454   0.827   3.372
10417SOL     OW32149   3.790   5.216   4.436
10417SOL    HW132150   3.862   5.196   4.369
10417SOL    HW232151   3.705   5.238   4.389
10418SOL     OW32152   0.217   4.833   6.228
10418SOL    HW132153   0.146   4.902   6.238
10418SOL    HW232154   0.306   4.878   6.216
10419SOL     OW32155   1.422   0.200   6.446
10419SOL    HW132156   1.396   0.281   6.394
10419SOL    HW232157   1.479   0.227   6.524
10420SOL     OW32158   6.903   3.277   2.743
10420SOL    HW132159   6.968   3.353   2.739
10420SOL    HW232160   6.818   3.302   2.696
10421SOL     OW32161   0.304   1.800   3.477
10421SOL    HW132162   0.285   1.869   3.408
10421SOL    HW232163   0.280   1.836   3.567
10422SOL     OW32164   6.176   2.632   5.595
10422SOL    HW132165   6.230   2.599   5.672
10422SOL    HW232166   6.085   2.660   5.627
10423SOL     OW32167   5.375   4.825   4.720
10423SOL    HW132168   5.350   4.787   4.631
10423SOL    HW232169   5.421   4.913   4.707
10424SOL     OW32170   5.858   3.230   0.404
10424SOL    HW132171   5.905   3.151   0.444
10424SOL    HW232172   5.858   3.306   0.469
10425SOL     OW32173   1.833   6.788   2.128
10425SOL    HW132174   1.792   6.766   2.040
10425SOL    HW232175   1.792   6.872   2.165
10426SOL     OW32176   6.808   4.717   0.659
10426SOL    HW132177   6.722   4.717   0.608
10426SOL    HW232178   6.809   4.638   0.721
10427SOL     OW32179   3.625   1.506   0.189
10427SOL    HW132180   3.697   1.556   0.237
10427SOL    HW232181   3.536   1.542   0.216
10428SOL     OW32182   2.611   1.475   4.217
10428SOL    HW132183   2.552   1.524   4.282
10428SOL    HW232184   2.700   1.460   4.259
10429SOL     OW32185   0.212   5.297   1.383
10429SOL    HW132186   0.297   5.243   1.380
10429SOL    HW232187   0.230   5.384   1.430
10430SOL     OW32188   4.208   6.149   3.769
10430SOL    HW132189   4.306   6.166   3.761
10430SOL    HW232190   4.157   6.224   3.726
10431SOL     OW32191   3.486   5.996   4.653
10431SOL    HW132192   3.489   6.095   4.667
10431SOL    HW232193   3.417   5.975   4.584
10432SOL     OW32194   6.257   0.343   4.538
10432SOL    HW132195   6.200   0.285   4.480
10432SOL    HW232196   6.353   0.331   4.513
10433SOL     OW32197   1.976   0.053   1.015
10433SOL    HW132198   1.908   0.064   0.943
10433SOL    HW232199   2.067   0.078   0.980
10434SOL     OW32200   3.824   6.833   3.352
10434SOL    HW132201   3.866   6.855   3.440
10434SOL    HW232202   3.862   6.748   3.316
10435SOL     OW32203   0.089   0.279   4.803
10435SOL    HW132204   0.044   0.274   4.714
10435SOL    HW232205   0.123   0.371   4.818
10436SOL     OW32206   0.861   4.964   5.743
10436SOL    HW132207   0.913   5.038   5.784
10436SOL    HW232208   0.873   4.966   5.643
10437SOL     OW32209   6.304   4.607   5.513
10437SOL    HW132210   6.299   4.680   5.444
10437SOL    HW232211   6.395   4.566   5.511
10438SOL     OW32212   5.173   6.567   6.705
10438SOL    HW132213   5.112   6.637   6.669
10438SOL    HW232214   5.268   6.595   6.690
10439SOL     OW32215   3.355   1.688   5.933
10439SOL    HW132216   3.282   1.682   5.865
10439SOL    HW232217   3.346   1.614   5.999
10440SOL     OW32218   1.805   6.227   6.961
10440SOL    HW132219   1.882   6.287   6.940
10440SOL    HW232220   1.731   6.281   7.002
10441SOL     OW32221   4.853   1.324   6.983
10441SOL    HW132222   4.892   1.307   6.892
10441SOL    HW232223   4.916   1.381   0.011
10442SOL     OW32224   3.178   6.093   6.026
10442SOL    HW132225   3.182   6.012   6.085
10442SOL    HW232226   3.110   6.078   5.953
10443SOL     OW32227   5.110   3.620   5.070
10443SOL    HW132228   5.187   3.568   5.107
10443SOL    HW232229   5.078   3.576   4.986
10444SOL     OW32230   3.957   6.078   4.704
10444SOL    HW132231   3.881   6.019   4.676
10444SOL    HW232232   4.039   6.053   4.652
10445SOL     OW32233   0.421   5.565   3.906
10445SOL    HW132234   0.409   5.616   3.992
10445SOL    HW232235   0.516   5.575   3.876
10446SOL     OW32236   1.115   3.728   5.926
10446SOL    HW132237   1.207   3.735   5.965
10446SOL    HW232238   1.087   3.632   5.922
10447SOL     OW32239   6.406   1.194   1.647
10447SOL    HW132240   6.452   1.229   1.728
10447SOL    HW232241   6.334   1.129   1.674
10448SOL     OW32242   4.120   2.374   1.377
10448SOL    HW132243   4.094   2.447   1.440
10448SOL    HW232244   4.108   2.285   1.421
10449SOL     OW32245   2.251   5.542   4.934
10449SOL    HW132246   2.212   5.627   4.898
10449SOL    HW232247   2.342   5.561   4.971
10450SOL     OW32248   0.343   2.169   0.784
10450SOL    HW132249   0.397   2.115   0.849
10450SOL    HW232250   0.246   2.164   0.809
10451SOL     OW32251   2.386   5.012   2.609
10451SOL    HW132252   2.342   5.021   2.698
10451SOL    HW232253   2.473   4.962   2.619
10452SOL     OW32254   6.268   3.583   3.805
10452SOL    HW132255   6.232   3.664   3.852
10452SOL    HW232256   6.368   3.588   3.803
10453SOL     OW32257   5.779   6.246   1.729
10453SOL    HW132258   5.852   6.186   1.759
10453SOL    HW232259   5.785   6.260   1.630
10454SOL     OW32260   5.184   2.622   1.652
10454SOL    HW132261   5.186   2.699   1.715
10454SOL    HW232262   5.112   2.637   1.584
10455SOL     OW32263   0.366   4.571   2.862
10455SOL    HW132264   0.370   4.661   2.819
10455SOL    HW232265   0.338   4.503   2.794
10456SOL     OW32266   3.121   6.392   1.461
10456SOL    HW132267   3.163   6.371   1.549
10456SOL    HW232268   3.171   6.344   1.388
10457SOL     OW32269   3.229   3.241   3.045
10457SOL    HW132270   3.173   3.189   3.110
10457SOL    HW232271   3.220   3.200   2.954
10458SOL     OW32272   0.241   0.344   0.324
10458SOL    HW132273   0.156   0.297   0.303
10458SOL    HW232274   0.262   0.334   0.421
10459SOL     OW32275   5.346   5.359   3.152
10459SOL    HW132276   5.271   5.312   3.105
10459SOL    HW232277   5.314   5.448   3.184
10460SOL     OW32278   1.904   5.756   1.360
10460SOL    HW132279   1.946   5.666   1.344
10460SOL    HW232280   1.956   5.805   1.430
10461SOL     OW32281   1.156   6.020   5.805
10461SOL    HW132282   1.232   5.999   5.867
10461SOL    HW232283   1.073   6.038   5.857
10462SOL     OW32284   5.483   1.612   2.476
10462SOL    HW132285   5.576   1.604   2.511
10462SOL    HW232286   5.486   1.638   2.380
10463SOL     OW32287   3.793   3.793   5.871
10463SOL    HW132288   3.853   3.841   5.808
10463SOL    HW232289   3.767   3.704   5.832
10464SOL     OW32290   5.351   0.170   0.471
10464SOL    HW132291   5.322   0.114   0.394
10464SOL    HW232292   5.423   0.233   0.440
10465SOL     OW32293   6.444   6.930   0.448
10465SOL    HW132294   6.491   6.905   0.533
10465SOL    HW232295   6.347   6.947   0.467
10466SOL     OW32296   4.931   5.277   4.905
10466SOL    HW132297   4.877   5.222   4.842
10466SOL    HW232298   5.002   5.220   4.947
10467SOL     OW32299   1.473   1.880   5.722
10467SOL    HW132300   1.402   1.899   5.654
10467SOL    HW232301   1.557   1.927   5.695
10468SOL     OW32302   3.497   5.900   3.723
10468SOL    HW132303   3.555   5.860   3.653
10468SOL    HW232304   3.454   5.983   3.688
10469SOL     OW32305   3.590   3.677   0.890
10469SOL    HW132306   3.525   3.740   0.848
10469SOL    HW232307   3.667   3.662   0.828
10470SOL     OW32308   1.900   2.088   2.699
10470SOL    HW132309   1.993   2.077   2.663
10470SOL    HW232310   1.867   2.000   2.734
10471SOL     OW32311   2.149   3.335   0.931
10471SOL    HW132312   2.121   3.416   0.984
10471SOL    HW232313   2.087   3.259   0.951
10472SOL     OW32314   3.925   6.053   1.572
10472SOL    HW132315   3.900   6.121   1.641
10472SOL    HW232316   3.966   6.100   1.494
10473SOL     OW32317   5.289   7.018   0.704
10473SOL    HW132318   5.296   0.029   0.611
10473SOL    HW232319   5.208   6.959   0.710
10474SOL     OW32320   4.810   0.449   4.791
10474SOL    HW132321   4.727   0.498   4.815
10474SOL    HW232322   4.827   0.457   4.693
10475SOL     OW32323   4.752   6.116   1.200
10475SOL    HW132324   4.654   6.099   1.195
10475SOL    HW232325   4.801   6.048   1.145
10476SOL     OW32326   6.705   5.613   6.650
10476SOL    HW132327   6.749   5.523   6.652
10476SOL    HW232328   6.607   5.602   6.669
10477SOL     OW32329   6.265   3.633   4.930
10477SOL    HW132330   6.262   3.583   4.843
10477SOL    HW232331   6.251   3.730   4.913
10478SOL     OW32332   0.717   7.005   6.824
10478SOL    HW132333   0.651   7.003   6.749
10478SOL    HW232334   0.747   0.075   6.840
10479SOL     OW32335   1.108   1.828   1.805
10479SOL    HW132336   1.145   1.739   1.778
10479SOL    HW232337   1.095   1.830   1.904
10480SOL     OW32338   5.793   0.274   1.073
10480SOL    HW132339   5.806   0.366   1.111
10480SOL    HW232340   5.699   0.264   1.041
10481SOL     OW32341   2.710   1.097   4.823
10481SOL    HW132342   2.755   1.155   4.891
10481SOL    HW232343   2.706   1.145   4.736
10482SOL     OW32344   0.678   6.000   3.718
10482SOL    HW132345   0.746   6.073   3.711
10482SOL    HW232346   0.589   6.039   3.742
10483SOL     OW32347   6.378   5.096   0.254
10483SOL    HW132348   6.348   5.187   0.224
10483SOL    HW232349   6.373   5.090   0.353
10484SOL     OW32350   6.996   0.500   1.219
10484SOL    HW132351   0.017   0.497   1.308
10484SOL    HW232352   6.954   0.590   1.205
10485SOL     OW32353   3.876   3.723   3.196
10485SOL    HW132354   3.881   3.740   3.294
10485SOL    HW232355   3.954   3.767   3.150
10486SOL     OW32356   6.089   0.072   5.994
10486SOL    HW132357   5.995   0.088   6.025
10486SOL    HW232358   6.092   7.017   5.933
10487SOL     OW32359   4.593   2.054   1.520
10487SOL    HW132360   4.571   2.006   1.605
10487SOL    HW232361   4.544   2.011   1.444
10488SOL     OW32362   0.447   2.058   5.969
10488SOL    HW132363   0.508   1.981   5.987
10488SOL    HW232364   0.404   2.087   6.055
10489SOL     OW32365   5.802   5.887   3.625
10489SOL    HW132366   5.843   5.827   3.693
10489SOL    HW232367   5.841   5.979   3.633
10490SOL     OW32368   5.539   0.665   0.439
10490SOL    HW132369   5.517   0.646   0.535
10490SOL    HW232370   5.603   0.741   0.435
10491SOL     OW32371   1.602   2.825   6.020
10491SOL    HW132372   1.512   2.839   6.061
10491SOL    HW232373   1.617   2.728   6.003
10492SOL     OW32374   4.000   6.697   0.846
10492SOL    HW132375   4.043   6.722   0.759
10492SOL    HW232376   4.042   6.750   0.920
10493SOL     OW32377   4.010   5.527   1.177
10493SOL    HW132378   4.015   5.615   1.131
10493SOL    HW232379   4.079   5.523   1.250
10494SOL     OW32380   0.823   4.778   6.006
10494SOL    HW132381   0.725   4.796   6.001
10494SOL    HW232382   0.853   4.736   5.920
10495SOL     OW32383   6.804   6.086   6.860
10495SOL    HW132384   6.708   6.116   6.856
10495SOL    HW232385   6.864   6.164   6.845
10496SOL     OW32386   6.638   4.026   5.256
10496SOL    HW132387   6.670   4.116   5.286
10496SOL    HW232388   6.716   3.965   5.244
10497SOL     OW32389   2.005   6.653   1.705
10497SOL    HW132390   2.045   6.632   1.795
10497SOL    HW232391   1.977   6.568   1.661
10498SOL     OW32392   5.275   5.935   0.998
10498SOL    HW132393   5.232   5.980   0.920
10498SOL    HW232394   5.348   5.874   0.965
10499SOL     OW32395   5.870   5.532   1.166
10499SOL    HW132396   5.779   5.570   1.177
10499SOL    HW232397   5.864   5.437   1.137
10500SOL     OW32398   5.447   3.626   4.758
10500SOL    HW132399   5.464   3.682   4.677
10500SOL    HW232400   5.431   3.685   4.837
10501SOL     OW32401   2.755   5.590   2.704
10501SOL    HW132402   2.718   5.676   2.740
10501SOL    HW232403   2.720   5.513   2.757
10502SOL     OW32404   3.185   3.028   1.849
10502SOL    HW132405   3.201   3.075   1.762
10502SOL    HW232406   3.211   2.932   1.841
10503SOL     OW32407   6.836   3.906   6.519
10503SOL    HW132408   6.747   3.886   6.559
10503SOL    HW232409   6.825   3.922   6.421
10504SOL     OW32410   1.451   2.487   6.144
10504SOL    HW132411   1.389   2.419   6.106
10504SOL    HW232412   1.528   2.501   6.081
10505SOL     OW32413   5.932   5.848   2.180
10505SOL    HW132414   6.013   5.858   2.238
10505SOL    HW232415   5.857   5.902   2.218
10506SOL     OW32416   0.447   3.103   6.929
10506SOL    HW132417   0.448   3.139   6.836
10506SOL    HW232418   0.509   3.157   6.986
10507SOL     OW32419   2.808   4.620   6.948
10507SOL    HW132420   2.804   4.532   6.901
10507SOL    HW232421   2.794   4.606   0.022
10508SOL     OW32422   0.536   5.942   4.546
10508SOL    HW132423   0.595   5.971   4.472
10508SOL    HW232424   0.589   5.892   4.614
10509SOL     OW32425   4.857   3.209   4.312
10509SOL    HW132426   4.843   3.206   4.213
10509SOL    HW232427   4.926   3.278   4.334
10510SOL     OW32428   5.049   6.381   5.500
10510SOL    HW132429   5.103   6.464   5.511
10510SOL    HW232430   5.014   6.375   5.407
10511SOL     OW32431   3.132   1.153   1.735
10511SOL    HW132432   3.217   1.115   1.772
10511SOL    HW232433   3.151   1.243   1.696
10512SOL     OW32434   4.201   6.896   5.921
10512SOL    HW132435   4.112   6.857   5.946
10512SOL    HW232436   4.211   6.986   5.962
10513SOL     OW32437   6.246   3.015   2.535
10513SOL    HW132438   6.223   3.104   2.496
10513SOL    HW232439   6.330   2.981   2.493
10514SOL     OW32440   2.366   2.148   1.365
10514SOL    HW132441   2.400   2.086   1.294
10514SOL    HW232442   2.382   2.108   1.455
10515SOL     OW32443   2.227   2.434   4.368
10515SOL    HW132444   2.194   2.440   4.462
10515SOL    HW232445   2.239   2.526   4.331
10516SOL     OW32446   2.752   1.759   0.371
10516SOL    HW132447   2.667   1.708   0.368
10516SOL    HW232448   2.735   1.854   0.344
10517SOL     OW32449   1.929   4.098   2.862
10517SOL    HW132450   1.972   4.182   2.828
10517SOL    HW232451   1.916   4.105   2.961
10518SOL     OW32452   0.433   5.498   2.416
10518SOL    HW132453   0.415   5.405   2.449
10518SOL    HW232454   0.531   5.513   2.413
10519SOL     OW32455   3.005   5.220   1.765
10519SOL    HW132456   3.065   5.188   1.839
10519SOL    HW232457   2.978   5.142   1.709
10520SOL     OW32458   6.310   1.632   6.285
10520SOL    HW132459   6.313   1.533   6.281
10520SOL    HW232460   6.276   1.668   6.198
10521SOL     OW32461   6.156   3.774   1.420
10521SOL    HW132462   6.069   3.822   1.416
10521SOL    HW232463   6.207   3.804   1.500
10522SOL     OW32464   6.557   2.567   3.050
10522SOL    HW132465   6.642   2.533   3.011
10522SOL    HW232466   6.538   2.519   3.135
10523SOL     OW32467   0.682   4.214   4.171
10523SOL    HW132468   0.718   4.300   4.208
10523SOL    HW232469   0.665   4.225   4.073
10524SOL     OW32470   0.077   5.338   3.573
10524SOL    HW132471   0.035   5.424   3.546
10524SOL    HW232472   0.148   5.313   3.507
10525SOL     OW32473   4.404   1.000   4.778
10525SOL    HW132474   4.465   0.947   4.721
10525SOL    HW232475   4.453   1.032   4.860
10526SOL     OW32476   0.352   5.792   1.259
10526SOL    HW132477   0.376   5.839   1.174
10526SOL    HW232478   0.312   5.703   1.237
10527SOL     OW32479   6.835   1.073   5.492
10527SOL    HW132480   6.916   1.027   5.456
10527SOL    HW232481   6.798   1.135   5.422
10528SOL     OW32482   0.631   4.715   7.002
10528SOL    HW132483   0.709   4.737   6.943
10528SOL    HW232484   0.548   4.756   6.964
10529SOL     OW32485   1.906   6.109   5.787
10529SOL    HW132486   1.962   6.147   5.860
10529SOL    HW232487   1.919   6.010   5.783
10530SOL     OW32488   1.168   6.685   6.185
10530SOL    HW132489   1.114   6.666   6.267
10530SOL    HW232490   1.110   6.730   6.117
10531SOL     OW32491   2.975   2.498   5.372
10531SOL    HW132492   3.022   2.547   5.446
10531SOL    HW232493   3.040   2.478   5.299
10532SOL     OW32494   6.143   6.759   6.369
10532SOL    HW132495   6.152   6.858   6.364
10532SOL    HW232496   6.046   6.734   6.363
10533SOL     OW32497   3.171   5.836   4.109
10533SOL    HW132498   3.242   5.780   4.067
10533SOL    HW232499   3.196   5.933   4.101
10534SOL     OW32500   0.363   5.474   2.992
10534SOL    HW132501   0.389   5.437   2.903
10534SOL    HW232502   0.349   5.573   2.984
10535SOL     OW32503   2.664   1.278   2.374
10535SOL    HW132504   2.674   1.362   2.320
10535SOL    HW232505   2.744   1.220   2.362
10536SOL     OW32506   4.414   0.391   3.588
10536SOL    HW132507   4.327   0.436   3.570
10536SOL    HW232508   4.422   0.372   3.686
10537SOL     OW32509   4.575   6.504   3.506
10537SOL    HW132510   4.595   6.414   3.468
10537SOL    HW232511   4.484   6.534   3.475
10538SOL     OW32512   5.996   4.138   2.736
10538SOL    HW132513   6.067   4.071   2.714
10538SOL    HW232514   5.915   4.091   2.771
10539SOL     OW32515   6.235   5.732   2.540
10539SOL    HW132516   6.231   5.772   2.449
10539SOL    HW232517   6.242   5.633   2.533
10540SOL     OW32518   2.267   4.136   6.019
10540SOL    HW132519   2.333   4.065   5.997
10540SOL    HW232520   2.235   4.180   5.935
10541SOL     OW32521   2.941   3.355   4.562
10541SOL    HW132522   2.907   3.381   4.472
10541SOL    HW232523   2.993   3.270   4.555
10542SOL     OW32524   6.084   0.183   4.385
10542SOL    HW132525   6.043   0.269   4.352
10542SOL    HW232526   6.050   0.107   4.330
10543SOL     OW32527   6.353   2.318   5.763
10543SOL    HW132528   6.381   2.234   5.809
10543SOL    HW232529   6.331   2.298   5.667
10544SOL     OW32530   1.103   0.833   4.177
10544SOL    HW132531   1.190   0.860   4.218
10544SOL    HW232532   1.052   0.915   4.150
10545SOL     OW32533   1.151   2.675   2.706
10545SOL    HW132534   1.184   2.730   2.629
10545SOL    HW232535   1.228   2.651   2.765
10546SOL     OW32536   2.622   6.492   1.266
10546SOL    HW132537   2.577   6.531   1.346
10546SOL    HW232538   2.553   6.469   1.197
10547SOL     OW32539   4.717   0.021   4.693
10547SOL    HW132540   4.666   0.065   4.619
10547SOL    HW232541   4.744   0.090   4.760
10548SOL     OW32542   0.966   4.830   4.815
10548SOL    HW132543   0.973   4.880   4.902
10548SOL    HW232544   0.934   4.892   4.744
10549SOL     OW32545   0.293   1.780   0.888
10549SOL    HW132546   0.222   1.844   0.917
10549SOL    HW232547   0.252   1.711   0.828
10550SOL     OW32548   3.897   6.153   2.834
10550SOL    HW132549   3.954   6.096   2.774
10550SOL    HW232550   3.950   6.182   2.913
10551SOL     OW32551   2.873   1.755   6.062
10551SOL    HW132552   2.910   1.819   6.129
10551SOL    HW232553   2.899   1.783   5.970
10552SOL     OW32554   3.022   0.997   3.837
10552SOL    HW132555   3.036   0.904   3.869
10552SOL    HW232556   2.947   1.039   3.889
10553SOL     OW32557   6.911   5.268   1.009
10553SOL    HW132558   6.818   5.233   1.000
10553SOL    HW232559   6.932   5.284   1.105
10554SOL     OW32560   6.674   4.908   2.875
10554SOL    HW132561   6.695   4.814   2.904
10554SOL    HW232562   6.576   4.926   2.888
10555SOL     OW32563   2.874   1.861   0.774
10555SOL    HW132564   2.866   1.774   0.726
10555SOL    HW232565   2.871   1.936   0.709
10556SOL     OW32566   2.540   1.792   3.255
10556SOL    HW132567   2.572   1.887   3.248
10556SOL    HW232568   2.593   1.735   3.192
10557SOL     OW32569   1.926   3.902   4.647
10557SOL    HW132570   1.954   3.840   4.721
10557SOL    HW232571   1.873   3.978   4.686
10558SOL     OW32572   3.365   4.733   5.223
10558SOL    HW132573   3.412   4.787   5.154
10558SOL    HW232574   3.432   4.688   5.282
10559SOL     OW32575   3.425   0.364   0.557
10559SOL    HW132576   3.516   0.337   0.589
10559SOL    HW232577   3.424   0.462   0.540
10560SOL     OW32578   4.508   6.030   1.980
10560SOL    HW132579   4.523   6.006   2.076
10560SOL    HW232580   4.587   6.003   1.926
10561SOL     OW32581   4.978   4.268   2.058
10561SOL    HW132582   4.936   4.356   2.081
10561SOL    HW232583   5.076   4.281   2.040
10562SOL     OW32584   3.401   6.922   1.074
10562SOL    HW132585   3.409   6.904   0.975
10562SOL    HW232586   3.384   7.019   1.089
10563SOL     OW32587   0.529   6.914   1.055
10563SOL    HW132588   0.521   6.815   1.052
10563SOL    HW232589   0.599   6.941   1.121
10564SOL     OW32590   6.554   5.542   3.778
10564SOL    HW132591   6.482   5.584   3.834
10564SOL    HW232592   6.641   5.591   3.793
10565SOL     OW32593   6.700   0.193   5.774
10565SOL    HW132594   6.776   0.127   5.771
10565SOL    HW232595   6.666   0.209   5.682
10566SOL     OW32596   2.707   2.626   6.764
10566SOL    HW132597   2.665   2.696   6.821
10566SOL    HW232598   2.799   2.607   6.796
10567SOL     OW32599   1.599   2.266   5.940
10567SOL    HW132600   1.630   2.359   5.920
10567SOL    HW232601   1.503   2.268   5.966
10568SOL     OW32602   5.537   3.178   6.678
10568SOL    HW132603   5.471   3.155   6.750
10568SOL    HW232604   5.494   3.170   6.589
10569SOL     OW32605   5.349   0.165   2.112
10569SOL    HW132606   5.381   0.094   2.049
10569SOL    HW232607   5.302   0.236   2.060
10570SOL     OW32608   1.049   4.964   4.104
10570SOL    HW132609   1.016   4.919   4.021
10570SOL    HW232610   1.146   4.985   4.095
10571SOL     OW32611   0.069   4.517   6.537
10571SOL    HW132612   0.042   4.587   6.471
10571SOL    HW232613   0.115   4.442   6.489
10572SOL     OW32614   6.617   3.942   2.005
10572SOL    HW132615   6.597   3.888   1.923
10572SOL    HW232616   6.715   3.957   2.012
10573SOL     OW32617   5.752   0.642   4.477
10573SOL    HW132618   5.675   0.579   4.487
10573SOL    HW232619   5.716   0.734   4.456
10574SOL     OW32620   6.386   0.569   3.808
10574SOL    HW132621   6.388   0.571   3.708
10574SOL    HW232622   6.337   0.488   3.838
10575SOL     OW32623   5.255   0.538   3.200
10575SOL    HW132624   5.283   0.501   3.289
10575SOL    HW232625   5.168   0.587   3.210
10576SOL     OW32626   1.829   4.993   2.906
10576SOL    HW132627   1.853   4.994   2.809
10576SOL    HW232628   1.733   5.020   2.917
10577SOL     OW32629   3.142   6.246   0.674
10577SOL    HW132630   3.237   6.231   0.702
10577SOL    HW232631   3.120   6.344   0.683
10578SOL     OW32632   6.219   2.487   4.070
10578SOL    HW132633   6.307   2.477   4.024
10578SOL    HW232634   6.195   2.402   4.117
10579SOL     OW32635   3.166   3.589   1.300
10579SOL    HW132636   3.214   3.538   1.229
10579SOL    HW232637   3.084   3.538   1.327
10580SOL     OW32638   6.085   6.912   6.932
10580SOL    HW132639   6.095   6.943   0.002
10580SOL    HW232640   6.137   6.827   6.919
10581SOL     OW32641   5.350   6.386   2.949
10581SOL    HW132642   5.255   6.354   2.938
10581SOL    HW232643   5.350   6.484   2.970
10582SOL     OW32644   5.442   4.394   6.525
10582SOL    HW132645   5.402   4.485   6.511
10582SOL    HW232646   5.439   4.343   6.439
10583SOL     OW32647   3.334   6.931   3.995
10583SOL    HW132648   3.278   6.922   3.912
10583SOL    HW232649   3.371   7.024   4.000
10584SOL     OW32650   6.726   0.392   5.973
10584SOL    HW132651   6.664   0.366   6.047
10584SOL    HW232652   6.701   0.341   5.890
10585SOL     OW32653   0.337   1.957   6.614
10585SOL    HW132654   0.401   1.894   6.659
10585SOL    HW232655   0.356   2.050   6.644
10586SOL     OW32656   4.709   4.822   5.661
10586SOL    HW132657   4.689   4.918   5.680
10586SOL    HW232658   4.628   4.767   5.677
10587SOL     OW32659   0.409   5.839   5.725
10587SOL    HW132660   0.428   5.905   5.652
10587SOL    HW232661   0.354   5.764   5.688
10588SOL     OW32662   1.713   3.069   4.408
10588SOL    HW132663   1.718   3.161   4.369
10588SOL    HW232664   1.799   3.049   4.455
10589SOL     OW32665   5.645   5.994   5.001
10589SOL    HW132666   5.574   5.951   5.057
10589SOL    HW232667   5.608   6.077   4.958
10590SOL     OW32668   0.362   5.951   1.527
10590SOL    HW132669   0.285   6.014   1.515
10590SOL    HW232670   0.348   5.870   1.471
10591SOL     OW32671   1.606   1.031   1.370
10591SOL    HW132672   1.548   0.966   1.419
10591SOL    HW232673   1.549   1.100   1.325
10592SOL     OW32674   6.118   2.434   4.788
10592SOL    HW132675   6.127   2.532   4.804
10592SOL    HW232676   6.179   2.384   4.849
10593SOL     OW32677   2.440   6.304   0.685
10593SOL    HW132678   2.472   6.362   0.611
10593SOL    HW232679   2.341   6.316   0.697
10594SOL     OW32680   4.060   1.183   3.556
10594SOL    HW132681   3.967   1.161   3.526
10594SOL    HW232682   4.094   1.111   3.616
10595SOL     OW32683   5.854   0.639   0.595
10595SOL    HW132684   5.851   0.639   0.495
10595SOL    HW232685   5.950   0.643   0.625
10596SOL     OW32686   4.611   1.687   0.136
10596SOL    HW132687   4.611   1.690   0.036
10596SOL    HW232688   4.629   1.593   0.166
10597SOL     OW32689   2.529   0.820   6.086
10597SOL    HW132690   2.448   0.776   6.047
10597SOL    HW232691   2.608   0.802   6.027
10598SOL     OW32692   2.427   1.782   6.285
10598SOL    HW132693   2.484   1.864   6.284
10598SOL    HW232694   2.348   1.797   6.345
10599SOL     OW32695   6.452   4.496   5.826
10599SOL    HW132696   6.450   4.425   5.896
10599SOL    HW232697   6.426   4.584   5.866
10600SOL     OW32698   3.344   0.893   1.477
10600SOL    HW132699   3.341   0.897   1.577
10600SOL    HW232700   3.254   0.867   1.442
10601SOL     OW32701   0.287   6.678   5.764
10601SOL    HW132702   0.355   6.670   5.691
10601SOL    HW232703   0.289   6.594   5.820
10602SOL     OW32704   0.305   0.546   0.182
10602SOL    HW132705   0.274   0.464   0.229
10602SOL    HW232706   0.363   0.521   0.105
10603SOL     OW32707   4.623   6.396   1.641
10603SOL    HW132708   4.686   6.472   1.624
10603SOL    HW232709   4.632   6.329   1.567
10604SOL     OW32710   0.052   6.514   4.692
10604SOL    HW132711   0.117   6.470   4.630
10604SOL    HW232712   0.055   6.613   4.679
10605SOL     OW32713   2.087   0.228   0.111
10605SOL    HW132714   2.002   0.263   0.152
10605SOL    HW232715   2.138   0.303   0.070
10606SOL     OW32716   6.143   0.659   1.511
10606SOL    HW132717   6.053   0.701   1.503
10606SOL    HW232718   6.150   0.610   1.598
10607SOL     OW32719   4.305   4.114   6.703
10607SOL    HW132720   4.329   4.017   6.712
10607SOL    HW232721   4.335   4.163   6.785
10608SOL     OW32722   6.480   2.819   3.029
10608SOL    HW132723   6.515   2.726   3.041
10608SOL    HW232724   6.416   2.820   2.952
10609SOL     OW32725   3.694   6.881   0.585
10609SOL    HW132726   3.758   6.848   0.517
10609SOL    HW232727   3.697   6.823   0.666
10610SOL     OW32728   6.766   1.876   4.245
10610SOL    HW132729   6.857   1.915   4.255
10610SOL    HW232730   6.716   1.884   4.331
10611SOL     OW32731   2.533   5.049   4.616
10611SOL    HW132732   2.621   5.025   4.575
10611SOL    HW232733   2.487   4.967   4.648
10612SOL     OW32734   5.680   1.269   4.186
10612SOL    HW132735   5.761   1.225   4.147
10612SOL    HW232736   5.617   1.198   4.219
10613SOL     OW32737   5.405   6.227   4.229
10613SOL    HW132738   5.347   6.171   4.170
10613SOL    HW232739   5.383   6.324   4.215
10614SOL     OW32740   5.082   0.597   5.764
10614SOL    HW132741   5.075   0.550   5.676
10614SOL    HW232742   5.104   0.531   5.836
10615SOL     OW32743   3.167   1.621   5.758
10615SOL    HW132744   3.169   1.529   5.719
10615SOL    HW232745   3.075   1.642   5.790
10616SOL     OW32746   2.677   6.608   6.603
10616SOL    HW132747   2.687   6.601   6.504
10616SOL    HW232748   2.688   6.518   6.645
10617SOL     OW32749   2.344   3.674   1.701
10617SOL    HW132750   2.354   3.755   1.759
10617SOL    HW232751   2.329   3.594   1.759
10618SOL     OW32752   0.362   5.237   5.281
10618SOL    HW132753   0.347   5.140   5.262
10618SOL    HW232754   0.305   5.264   5.358
10619SOL     OW32755   0.552   2.053   2.864
10619SOL    HW132756   0.513   1.981   2.921
10619SOL    HW232757   0.493   2.069   2.785
10620SOL     OW32758   1.645   0.313   5.070
10620SOL    HW132759   1.680   0.239   5.012
10620SOL    HW232760   1.687   0.400   5.041
10621SOL     OW32761   0.751   3.905   2.678
10621SOL    HW132762   0.657   3.869   2.686
10621SOL    HW232763   0.763   3.981   2.741
10622SOL     OW32764   4.406   2.655   0.831
10622SOL    HW132765   4.416   2.556   0.838
10622SOL    HW232766   4.309   2.679   0.826
10623SOL     OW32767   5.859   6.083   5.250
10623SOL    HW132768   5.873   6.074   5.349
10623SOL    HW232769   5.874   5.995   5.206
10624SOL     OW32770   0.822   2.886   4.910
10624SOL    HW132771   0.885   2.920   4.980
10624SOL    HW232772   0.872   2.827   4.846
10625SOL     OW32773   0.197   3.039   7.021
10625SOL    HW132774   0.293   3.059   7.000
10625SOL    HW232775   0.171   2.953   6.978
10626SOL     OW32776   3.823   3.052   1.547
10626SOL    HW132777   3.852   3.110   1.623
10626SOL    HW232778   3.725   3.066   1.530
10627SOL     OW32779   5.618   0.353   6.323
10627SOL    HW132780   5.557   0.294   6.376
10627SOL    HW232781   5.713   0.337   6.352
10628SOL     OW32782   3.954   0.207   0.322
10628SOL    HW132783   3.957   0.306   0.311
10628SOL    HW232784   3.896   0.183   0.400
10629SOL     OW32785   3.295   5.197   4.966
10629SOL    HW132786   3.350   5.114   4.960
10629SOL    HW232787   3.264   5.223   4.875
10630SOL     OW32788   4.905   0.686   2.478
10630SOL    HW132789   4.969   0.650   2.410
10630SOL    HW232790   4.874   0.612   2.538
10631SOL     OW32791   4.479   5.090   6.194
10631SOL    HW132792   4.503   5.090   6.096
10631SOL    HW232793   4.552   5.046   6.246
10632SOL     OW32794   4.892   5.797   3.590
10632SOL    HW132795   4.980   5.837   3.563
10632SOL    HW232796   4.882   5.799   3.689
10633SOL     OW32797   1.827   2.654   1.494
10633SOL    HW132798   1.886   2.735   1.487
10633SOL    HW232799   1.803   2.623   1.402
10634SOL     OW32800   1.559   5.388   0.165
10634SOL    HW132801   1.539   5.417   0.071
10634SOL    HW232802   1.658   5.391   0.180
10635SOL     OW32803   2.000   3.821   0.332
10635SOL    HW132804   1.991   3.816   0.233
10635SOL    HW232805   2.085   3.869   0.356
10636SOL     OW32806   6.299   1.794   0.678
10636SOL    HW132807   6.223   1.850   0.710
10636SOL    HW232808   6.276   1.755   0.589
10637SOL     OW32809   2.767   6.204   6.440
10637SOL    HW132810   2.797   6.109   6.430
10637SOL    HW232811   2.771   6.250   6.351
10638SOL     OW32812   6.706   6.281   2.482
10638SOL    HW132813   6.685   6.374   2.512
10638SOL    HW232814   6.638   6.251   2.415
10639SOL     OW32815   2.189   3.813   1.993
10639SOL    HW132816   2.223   3.870   1.918
10639SOL    HW232817   2.222   3.720   1.983
10640SOL     OW32818   4.592   1.033   3.506
10640SOL    HW132819   4.657   1.097   3.466
10640SOL    HW232820   4.642   0.967   3.564
10641SOL     OW32821   1.537   1.577   3.796
10641SOL    HW132822   1.443   1.587   3.766
10641SOL    HW232823   1.597   1.565   3.717
10642SOL     OW32824   5.867   2.014   0.305
10642SOL    HW132825   5.887   1.968   0.219
10642SOL    HW232826   5.776   2.057   0.301
10643SOL     OW32827   1.979   5.699   5.183
10643SOL    HW132828   2.006   5.604   5.196
10643SOL    HW232829   1.927   5.730   5.262
10644SOL     OW32830   5.958   3.229   1.707
10644SOL    HW132831   5.918   3.310   1.750
10644SOL    HW232832   6.053   3.220   1.736
10645SOL     OW32833   2.148   3.376   3.530
10645SOL    HW132834   2.112   3.468   3.512
10645SOL    HW232835   2.169   3.332   3.443
10646SOL     OW32836   5.216   1.043   5.554
10646SOL    HW132837   5.311   1.016   5.563
10646SOL    HW232838   5.205   1.138   5.582
10647SOL     OW32839   3.926   5.617   5.355
10647SOL    HW132840   3.983   5.697   5.368
10647SOL    HW232841   3.909   5.604   5.257
10648SOL     OW32842   6.195   5.636   5.970
10648SOL    HW132843   6.197   5.616   6.068
10648SOL    HW232844   6.171   5.732   5.956
10649SOL     OW32845   0.536   3.198   3.732
10649SOL    HW132846   0.474   3.187   3.655
10649SOL    HW232847   0.594   3.117   3.739
10650SOL     OW32848   6.995   0.394   4.163
10650SOL    HW132849   6.930   0.430   4.096
10650SOL    HW232850   0.023   0.320   4.122
10651SOL     OW32851   5.330   6.380   5.688
10651SOL    HW132852   5.356   6.373   5.592
10651SOL    HW232853   5.264   6.309   5.710
10652SOL     OW32854   2.151   6.800   6.010
10652SOL    HW132855   2.128   6.863   5.936
10652SOL    HW232856   2.079   6.731   6.019
10653SOL     OW32857   3.764   5.901   4.600
10653SOL    HW132858   3.667   5.918   4.614
10653SOL    HW232859   3.776   5.848   4.516
10654SOL     OW32860   4.914   1.912   4.193
10654SOL    HW132861   4.848   1.910   4.269
10654SOL    HW232862   4.865   1.927   4.107
10655SOL     OW32863   2.180   4.710   1.550
10655SOL    HW132864   2.222   4.710   1.460
10655SOL    HW232865   2.080   4.712   1.541
10656SOL     OW32866   6.298   1.176   2.442
10656SOL    HW132867   6.344   1.229   2.371
10656SOL    HW232868   6.203   1.205   2.449
10657SOL     OW32869   6.439   1.212   4.277
10657SOL    HW132870   6.352   1.261   4.284
10657SOL    HW232871   6.443   1.165   4.188
10658SOL     OW32872   5.569   4.002   5.080
10658SOL    HW132873   5.546   3.977   5.174
10658SOL    HW232874   5.656   3.959   5.054
10659SOL     OW32875   1.314   4.650   0.754
10659SOL    HW132876   1.327   4.731   0.698
10659SOL    HW232877   1.343   4.569   0.703
10660SOL     OW32878   5.974   3.846   5.337
10660SOL    HW132879   6.055   3.791   5.356
10660SOL    HW232880   5.965   3.918   5.406
10661SOL     OW32881   1.265   5.310   1.033
10661SOL    HW132882   1.236   5.334   0.940
10661SOL    HW232883   1.320   5.226   1.029
10662SOL     OW32884   3.744   1.273   2.153
10662SOL    HW132885   3.701   1.260   2.243
10662SOL    HW232886   3.674   1.298   2.086
10663SOL     OW32887   0.619   1.974   3.587
10663SOL    HW132888   0.648   2.062   3.548
10663SOL    HW232889   0.678   1.901   3.553
10664SOL     OW32890   0.373   5.599   4.739
10664SOL    HW132891   0.443   5.535   4.709
10664SOL    HW232892   0.301   5.604   4.670
10665SOL     OW32893   2.258   2.277   6.762
10665SOL    HW132894   2.262   2.375   6.781
10665SOL    HW232895   2.212   2.230   6.836
10666SOL     OW32896   3.216   3.563   2.208
10666SOL    HW132897   3.273   3.494   2.163
10666SOL    HW232898   3.170   3.619   2.138
10667SOL     OW32899   4.835   1.830   3.618
10667SOL    HW132900   4.869   1.922   3.639
10667SOL    HW232901   4.861   1.767   3.692
10668SOL     OW32902   3.211   1.676   5.344
10668SOL    HW132903   3.214   1.593   5.289
10668SOL    HW232904   3.269   1.664   5.425
10669SOL     OW32905   5.584   0.420   0.645
10669SOL    HW132906   5.619   0.484   0.714
10669SOL    HW232907   5.484   0.419   0.649
10670SOL     OW32908   5.881   4.624   4.400
10670SOL    HW132909   5.835   4.674   4.328
10670SOL    HW232910   5.897   4.530   4.371
10671SOL     OW32911   1.270   1.355   4.465
10671SOL    HW132912   1.204   1.306   4.409
10671SOL    HW232913   1.253   1.337   4.562
10672SOL     OW32914   6.380   3.876   1.704
10672SOL    HW132915   6.412   3.961   1.746
10672SOL    HW232916   6.459   3.823   1.672
10673SOL     OW32917   1.338   6.977   0.518
10673SOL    HW132918   1.342   6.992   0.420
10673SOL    HW232919   1.422   6.930   0.548
10674SOL     OW32920   4.034   3.846   4.580
10674SOL    HW132921   4.113   3.900   4.609
10674SOL    HW232922   3.977   3.901   4.518
10675SOL     OW32923   2.959   0.614   6.383
10675SOL    HW132924   2.952   0.663   6.296
10675SOL    HW232925   3.055   0.614   6.412
10676SOL     OW32926   6.866   6.303   4.618
10676SOL    HW132927   6.933   6.311   4.545
10676SOL    HW232928   6.912   6.286   4.705
10677SOL     OW32929   1.413   1.176   1.188
10677SOL    HW132930   1.318   1.201   1.209
10677SOL    HW232931   1.414   1.111   1.112
10678SOL     OW32932   4.105   4.828   4.007
10678SOL    HW132933   4.172   4.758   3.985
10678SOL    HW232934   4.150   4.916   4.018
10679SOL     OW32935   4.260   5.567   6.994
10679SOL    HW132936   4.211   5.653   7.006
10679SOL    HW232937   4.358   5.586   6.986
10680SOL     OW32938   3.678   1.928   3.762
10680SOL    HW132939   3.649   1.939   3.667
10680SOL    HW232940   3.770   1.964   3.773
10681SOL     OW32941   6.845   3.501   0.312
10681SOL    HW132942   6.854   3.552   0.398
10681SOL    HW232943   6.803   3.560   0.243
10682SOL     OW32944   0.512   3.144   5.188
10682SOL    HW132945   0.506   3.112   5.093
10682SOL    HW232946   0.527   3.065   5.248
10683SOL     OW32947   4.402   1.162   3.691
10683SOL    HW132948   4.421   1.256   3.660
10683SOL    HW232949   4.473   1.101   3.657
10684SOL     OW32950   4.624   5.629   1.812
10684SOL    HW132951   4.689   5.646   1.738
10684SOL    HW232952   4.653   5.677   1.894
10685SOL     OW32953   0.292   5.754   0.607
10685SOL    HW132954   0.350   5.684   0.648
10685SOL    HW232955   0.327   5.845   0.630
10686SOL     OW32956   1.816   4.364   6.186
10686SOL    HW132957   1.892   4.354   6.250
10686SOL    HW232958   1.841   4.429   6.114
10687SOL     OW32959   6.982   4.438   4.470
10687SOL    HW132960   6.968   4.351   4.422
10687SOL    HW232961   7.008   4.508   4.403
10688SOL     OW32962   5.489   2.701   2.675
10688SOL    HW132963   5.557   2.681   2.746
10688SOL    HW232964   5.487   2.799   2.657
10689SOL     OW32965   6.976   0.223   1.986
10689SOL    HW132966   6.993   0.124   1.991
10689SOL    HW232967   6.903   0.241   1.921
10690SOL     OW32968   0.280   5.213   3.407
10690SOL    HW132969   0.357   5.268   3.442
10690SOL    HW232970   0.270   5.229   3.309
10691SOL     OW32971   2.134   1.771   1.645
10691SOL    HW132972   2.117   1.855   1.697
10691SOL    HW232973   2.121   1.692   1.705
10692SOL     OW32974   2.382   0.415   3.696
10692SOL    HW132975   2.422   0.439   3.608
10692SOL    HW232976   2.454   0.407   3.765
10693SOL     OW32977   1.459   6.011   1.166
10693SOL    HW132978   1.471   5.913   1.157
10693SOL    HW232979   1.379   6.040   1.114
10694SOL     OW32980   5.233   6.391   6.292
10694SOL    HW132981   5.289   6.311   6.307
10694SOL    HW232982   5.212   6.401   6.195
10695SOL     OW32983   1.637   2.386   2.027
10695SOL    HW132984   1.694   2.307   2.004
10695SOL    HW232985   1.582   2.411   1.947
10696SOL     OW32986   6.838   3.632   4.680
10696SOL    HW132987   6.879   3.604   4.594
10696SOL    HW232988   6.759   3.574   4.700
10697SOL     OW32989   0.111   0.243   5.797
10697SOL    HW132990   0.046   0.256   5.872
10697SOL    HW232991   0.195   0.295   5.815
10698SOL     OW32992   4.645   4.145   6.649
10698SOL    HW132993   4.723   4.195   6.610
10698SOL    HW232994   4.657   4.136   6.748
10699SOL     OW32995   3.869   4.902   1.598
10699SOL    HW132996   3.968   4.888   1.598
10699SOL    HW232997   3.829   4.858   1.518
10700SOL     OW32998   5.693   6.358   1.094
10700SOL    HW132999   5.661   6.445   1.059
10700SOL    HW233000   5.736   6.372   1.184
10701SOL     OW33001   3.064   0.016   5.911
10701SOL    HW133002   3.107   6.954   5.886
10701SOL    HW233003   3.108   0.091   5.861
10702SOL     OW33004   5.294   3.368   2.046
10702SOL    HW133005   5.255   3.279   2.024
10702SOL    HW233006   5.224   3.438   2.037
10703SOL     OW33007   2.626   2.711   5.586
10703SOL    HW133008   2.649   2.786   5.647
10703SOL    HW233009   2.658   2.625   5.626
10704SOL     OW33010   6.958   5.093   2.350
10704SOL    HW133011   0.032   5.091   2.333
10704SOL    HW233012   6.923   5.000   2.359
10705SOL     OW33013   6.058   5.577   1.690
10705SOL    HW133014   6.036   5.624   1.604
10705SOL    HW233015   6.016   5.486   1.689
10706SOL     OW33016   3.873   0.058   2.255
10706SOL    HW133017   3.821   0.092   2.177
10706SOL    HW233018   3.938   7.014   2.224
10707SOL     OW33019   0.681   6.656   3.522
10707SOL    HW133020   0.706   6.659   3.426
10707SOL    HW233021   0.630   6.739   3.546
10708SOL     OW33022   3.833   1.555   1.495
10708SOL    HW133023   3.775   1.562   1.577
10708SOL    HW233024   3.814   1.468   1.449
10709SOL     OW33025   5.464   5.072   4.661
10709SOL    HW133026   5.563   5.058   4.668
10709SOL    HW233027   5.446   5.162   4.621
10710SOL     OW33028   6.172   1.210   4.026
10710SOL    HW133029   6.184   1.114   4.051
10710SOL    HW233030   6.262   1.253   4.015
10711SOL     OW33031   1.565   6.679   3.901
10711SOL    HW133032   1.552   6.646   3.994
10711SOL    HW233033   1.526   6.771   3.893
10712SOL     OW33034   3.180   1.039   2.253
10712SOL    HW133035   3.107   1.025   2.319
10712SOL    HW233036   3.218   1.130   2.264
10713SOL     OW33037   0.834   3.454   0.655
10713SOL    HW133038   0.918   3.493   0.693
10713SOL    HW233039   0.832   3.468   0.556
10714SOL     OW33040   4.855   3.858   5.841
10714SOL    HW133041   4.944   3.899   5.862
10714SOL    HW233042   4.827   3.799   5.916
10715SOL     OW33043   4.516   0.709   2.296
10715SOL    HW133044   4.588   0.670   2.238
10715SOL    HW233045   4.548   0.711   2.391
10716SOL     OW33046   5.756   2.460   3.647
10716SOL    HW133047   5.765   2.369   3.687
10716SOL    HW233048   5.679   2.507   3.690
10717SOL     OW33049   1.760   2.641   1.237
10717SOL    HW133050   1.716   2.611   1.153
10717SOL    HW233051   1.815   2.722   1.219
10718SOL     OW33052   0.727   4.009   0.134
10718SOL    HW133053   0.806   4.037   0.080
10718SOL    HW233054   0.702   4.081   0.198
10719SOL     OW33055   0.199   5.932   2.839
10719SOL    HW133056   0.269   6.003   2.832
10719SOL    HW233057   0.127   5.950   2.772
10720SOL     OW33058   6.776   4.668   5.111
10720SOL    HW133059   6.739   4.647   5.201
10720SOL    HW233060   6.770   4.767   5.095
10721SOL     OW33061   5.091   3.324   5.309
10721SOL    HW133062   5.092   3.268   5.391
10721SOL    HW233063   5.136   3.412   5.328
10722SOL     OW33064   1.418   5.177   0.231
10722SOL    HW133065   1.330   5.171   0.184
10722SOL    HW233066   1.462   5.264   0.209
10723SOL     OW33067   6.965   2.610   6.641
10723SOL    HW133068   0.004   2.569   6.707
10723SOL    HW233069   6.994   2.586   6.549
10724SOL     OW33070   6.035   0.590   6.541
10724SOL    HW133071   6.067   0.674   6.498
10724SOL    HW233072   5.971   0.543   6.480
10725SOL     OW33073   1.621   5.542   5.136
10725SOL    HW133074   1.601   5.584   5.225
10725SOL    HW233075   1.650   5.612   5.072
10726SOL     OW33076   5.612   0.313   4.142
10726SOL    HW133077   5.571   0.292   4.054
10726SOL    HW233078   5.668   0.395   4.134
10727SOL     OW33079   0.276   5.609   5.575
10727SOL    HW133080   0.257   5.512   5.586
10727SOL    HW233081   0.341   5.623   5.501
10728SOL     OW33082   1.568   5.600   7.002
10728SOL    HW133083   1.617   5.665   6.944
10728SOL    HW233084   1.482   5.641   0.008
10729SOL     OW33085   4.508   1.267   2.657
10729SOL    HW133086   4.491   1.365   2.665
10729SOL    HW233087   4.563   1.235   2.734
10730SOL     OW33088   1.500   0.495   1.141
10730SOL    HW133089   1.438   0.572   1.152
10730SOL    HW233090   1.589   0.518   1.181
10731SOL     OW33091   3.637   0.972   0.690
10731SOL    HW133092   3.553   0.919   0.698
10731SOL    HW233093   3.617   1.069   0.706
10732SOL     OW33094   6.526   5.014   4.800
10732SOL    HW133095   6.445   4.956   4.799
10732SOL    HW233096   6.576   5.002   4.714
10733SOL     OW33097   6.918   1.577   0.268
10733SOL    HW133098   6.976   1.503   0.304
10733SOL    HW233099   6.932   1.584   0.169
10734SOL     OW33100   1.051   0.901   0.432
10734SOL    HW133101   1.135   0.863   0.394
10734SOL    HW233102   0.972   0.854   0.392
10735SOL     OW33103   0.062   2.730   2.604
10735SOL    HW133104   0.067   2.822   2.644
10735SOL    HW233105   0.022   2.667   2.671
10736SOL     OW33106   0.954   0.519   3.706
10736SOL    HW133107   0.971   0.435   3.757
10736SOL    HW233108   0.999   0.596   3.752
10737SOL     OW33109   1.156   1.666   0.380
10737SOL    HW133110   1.171   1.567   0.373
10737SOL    HW233111   1.076   1.682   0.438
10738SOL     OW33112   2.516   0.743   2.805
10738SOL    HW133113   2.506   0.655   2.759
10738SOL    HW233114   2.467   0.741   2.892
10739SOL     OW33115   1.588   1.358   0.788
10739SOL    HW133116   1.617   1.263   0.799
10739SOL    HW233117   1.509   1.362   0.727
10740SOL     OW33118   0.141   4.734   5.004
10740SOL    HW133119   0.096   4.694   5.084
10740SOL    HW233120   0.092   4.815   4.974
10741SOL     OW33121   4.891   0.856   1.102
10741SOL    HW133122   4.831   0.786   1.141
10741SOL    HW233123   4.950   0.814   1.032
10742SOL     OW33124   5.376   0.013   1.265
10742SOL    HW133125   5.300   6.972   1.268
10742SOL    HW233126   5.348   0.093   1.211
10743SOL     OW33127   1.842   1.590   5.368
10743SOL    HW133128   1.761   1.561   5.317
10743SOL    HW233129   1.925   1.563   5.319
10744SOL     OW33130   3.785   1.478   1.207
10744SOL    HW133131   3.771   1.476   1.108
10744SOL    HW233132   3.704   1.515   1.252
10745SOL     OW33133   0.440   6.035   6.465
10745SOL    HW133134   0.432   6.128   6.502
10745SOL    HW233135   0.382   6.027   6.384
10746SOL     OW33136   2.380   5.026   1.407
10746SOL    HW133137   2.393   4.986   1.498
10746SOL    HW233138   2.457   5.000   1.348
10747SOL     OW33139   4.141   1.142   4.801
10747SOL    HW133140   4.220   1.081   4.800
10747SOL    HW233141   4.075   1.111   4.733
10748SOL     OW33142   5.647   1.198   0.900
10748SOL    HW133143   5.598   1.256   0.835
10748SOL    HW233144   5.603   1.204   0.990
10749SOL     OW33145   0.070   5.569   3.331
10749SOL    HW133146   0.044   5.536   3.240
10749SOL    HW233147   0.168   5.553   3.345
10750SOL     OW33148   4.256   6.029   4.011
10750SOL    HW133149   4.340   5.983   3.983
10750SOL    HW233150   4.217   6.078   3.933
10751SOL     OW33151   1.871   4.952   4.512
10751SOL    HW133152   1.957   4.995   4.486
10751SOL    HW233153   1.844   4.983   4.603
10752SOL     OW33154   6.219   4.247   5.680
10752SOL    HW133155   6.165   4.186   5.622
10752SOL    HW233156   6.174   4.336   5.686
10753SOL     OW33157   5.194   5.037   4.545
10753SOL    HW133158   5.161   5.049   4.638
10753SOL    HW233159   5.220   4.942   4.531
10754SOL     OW33160   0.654   0.690   2.981
10754SOL    HW133161   0.686   0.703   3.074
10754SOL    HW233162   0.574   0.747   2.965
10755SOL     OW33163   0.306   0.925   0.350
10755SOL    HW133164   0.233   0.957   0.289
10755SOL    HW233165   0.286   0.831   0.378
10756SOL     OW33166   6.377   4.915   6.755
10756SOL    HW133167   6.284   4.950   6.741
10756SOL    HW233168   6.387   4.828   6.707
10757SOL     OW33169   1.639   3.140   7.003
10757SOL    HW133170   1.566   3.185   0.029
10757SOL    HW233171   1.683   3.072   0.038
10758SOL     OW33172   0.778   6.061   4.041
10758SOL    HW133173   0.700   6.097   3.990
10758SOL    HW233174   0.856   6.051   3.980
10759SOL     OW33175   2.126   2.792   1.394
10759SOL    HW133176   2.179   2.875   1.377
10759SOL    HW233177   2.147   2.723   1.325
10760SOL     OW33178   5.416   0.338   2.749
10760SOL    HW133179   5.442   0.424   2.792
10760SOL    HW233180   5.406   0.267   2.819
10761SOL     OW33181   1.018   6.253   6.102
10761SOL    HW133182   1.003   6.348   6.075
10761SOL    HW233183   0.945   6.196   6.063
10762SOL     OW33184   3.297   2.165   4.183
10762SOL    HW133185   3.278   2.157   4.085
10762SOL    HW233186   3.359   2.242   4.198
10763SOL     OW33187   4.891   6.882   3.032
10763SOL    HW133188   4.889   6.902   3.129
10763SOL    HW233189   4.858   6.789   3.016
10764SOL     OW33190   5.053   2.473   5.970
10764SOL    HW133191   5.133   2.532   5.972
10764SOL    HW233192   5.059   2.411   5.891
10765SOL     OW33193   5.074   2.442   1.041
10765SOL    HW133194   5.155   2.479   1.087
10765SOL    HW233195   5.009   2.516   1.023
10766SOL     OW33196   5.129   4.712   0.525
10766SOL    HW133197   5.030   4.718   0.517
10766SOL    HW233198   5.153   4.647   0.597
10767SOL     OW33199   1.751   0.254   0.630
10767SOL    HW133200   1.670   0.311   0.639
10767SOL    HW233201   1.784   0.256   0.536
10768SOL     OW33202   4.982   5.245   1.617
10768SOL    HW133203   4.986   5.146   1.630
10768SOL    HW233204   4.911   5.268   1.551
10769SOL     OW33205   2.337   4.254   5.253
10769SOL    HW133206   2.379   4.175   5.210
10769SOL    HW233207   2.246   4.269   5.215
10770SOL     OW33208   5.423   6.557   4.718
10770SOL    HW133209   5.496   6.490   4.722
10770SOL    HW233210   5.352   6.526   4.654
10771SOL     OW33211   5.357   0.065   3.264
10771SOL    HW133212   5.365   0.124   3.183
10771SOL    HW233213   5.434   0.082   3.325
10772SOL     OW33214   5.831   0.443   3.823
10772SOL    HW133215   5.907   0.478   3.768
10772SOL    HW233216   5.744   0.470   3.782
10773SOL     OW33217   6.457   5.533   6.028
10773SOL    HW133218   6.440   5.439   6.058
10773SOL    HW233219   6.386   5.560   5.963
10774SOL     OW33220   2.475   1.527   6.193
10774SOL    HW133221   2.446   1.623   6.199
10774SOL    HW233222   2.544   1.508   6.263
10775SOL     OW33223   0.582   4.372   2.164
10775SOL    HW133224   0.649   4.299   2.179
10775SOL    HW233225   0.579   4.431   2.245
10776SOL     OW33226   0.656   0.991   6.563
10776SOL    HW133227   0.727   0.943   6.511
10776SOL    HW233228   0.619   1.066   6.508
10777SOL     OW33229   4.359   5.711   1.742
10777SOL    HW133230   4.302   5.635   1.772
10777SOL    HW233231   4.452   5.698   1.776
10778SOL     OW33232   4.926   6.848   4.045
10778SOL    HW133233   4.874   6.907   4.107
10778SOL    HW233234   4.998   6.801   4.096
10779SOL     OW33235   6.381   3.282   3.547
10779SOL    HW133236   6.368   3.380   3.561
10779SOL    HW233237   6.467   3.266   3.498
10780SOL     OW33238   1.847   0.833   3.850
10780SOL    HW133239   1.869   0.743   3.813
10780SOL    HW233240   1.796   0.823   3.936
10781SOL     OW33241   4.321   0.896   4.118
10781SOL    HW133242   4.276   0.917   4.205
10781SOL    HW233243   4.309   0.972   4.055
10782SOL     OW33244   0.215   1.201   2.742
10782SOL    HW133245   0.293   1.191   2.681
10782SOL    HW233246   0.130   1.198   2.689
10783SOL     OW33247   0.647   2.252   2.550
10783SOL    HW133248   0.594   2.297   2.478
10783SOL    HW233249   0.621   2.288   2.639
10784SOL     OW33250   3.920   6.990   4.069
10784SOL    HW133251   3.977   0.024   4.011
10784SOL    HW233252   3.962   6.983   4.160
10785SOL     OW33253   0.117   4.614   0.510
10785SOL    HW133254   0.136   4.710   0.534
10785SOL    HW233255   0.115   4.559   0.593
10786SOL     OW33256   6.115   4.671   3.413
10786SOL    HW133257   6.183   4.731   3.371
10786SOL    HW233258   6.065   4.622   3.342
10787SOL     OW33259   1.664   1.471   5.936
10787SOL    HW133260   1.680   1.503   6.029
10787SOL    HW233261   1.623   1.545   5.882
10788SOL     OW33262   1.915   4.485   6.665
10788SOL    HW133263   1.972   4.451   6.739
10788SOL    HW233264   1.918   4.585   6.664
10789SOL     OW33265   6.138   2.964   6.547
10789SOL    HW133266   6.232   2.949   6.579
10789SOL    HW233267   6.124   2.917   6.460
10790SOL     OW33268   0.663   0.418   1.813
10790SOL    HW133269   0.675   0.369   1.900
10790SOL    HW233270   0.577   0.469   1.815
10791SOL     OW33271   6.959   6.683   1.529
10791SOL    HW133272   6.957   6.624   1.609
10791SOL    HW233273   6.934   6.630   1.448
10792SOL     OW33274   3.497   2.943   4.828
10792SOL    HW133275   3.472   2.873   4.895
10792SOL    HW233276   3.596   2.941   4.815
10793SOL     OW33277   5.945   3.214   5.468
10793SOL    HW133278   5.942   3.135   5.529
10793SOL    HW233279   5.910   3.189   5.378
10794SOL     OW33280   3.878   3.022   4.344
10794SOL    HW133281   3.790   3.055   4.378
10794SOL    HW233282   3.893   2.929   4.378
10795SOL     OW33283   0.239   4.976   2.539
10795SOL    HW133284   0.203   5.052   2.592
10795SOL    HW233285   0.223   4.993   2.442
10796SOL     OW33286   6.397   6.836   5.760
10796SOL    HW133287   6.351   6.769   5.818
10796SOL    HW233288   6.427   6.913   5.815
10797SOL     OW33289   3.246   2.548   1.414
10797SOL    HW133290   3.246   2.483   1.338
10797SOL    HW233291   3.240   2.642   1.378
10798SOL     OW33292   2.863   1.028   0.183
10798SOL    HW133293   2.939   1.037   0.248
10798SOL    HW233294   2.861   1.109   0.124
10799SOL     OW33295   4.026   1.522   2.228
10799SOL    HW133296   4.049   1.446   2.289
10799SOL    HW233297   3.927   1.538   2.232
10800SOL     OW33298   0.398   6.231   5.340
10800SOL    HW133299   0.465   6.246   5.266
10800SOL    HW233300   0.426   6.152   5.394
10801SOL     OW33301   1.150   0.282   0.040
10801SOL    HW133302   1.237   0.237   0.021
10801SOL    HW233303   1.154   0.377   0.009
10802SOL     OW33304   0.503   0.573   2.187
10802SOL    HW133305   0.437   0.645   2.207
10802SOL    HW233306   0.554   0.551   2.270
10803SOL     OW33307   1.949   5.326   5.814
10803SOL    HW133308   1.905   5.294   5.898
10803SOL    HW233309   1.891   5.303   5.736
10804SOL     OW33310   5.993   3.369   2.762
10804SOL    HW133311   5.945   3.292   2.722
10804SOL    HW233312   6.054   3.337   2.835
10805SOL     OW33313   4.728   6.880   5.448
10805SOL    HW133314   4.737   6.918   5.356
10805SOL    HW233315   4.771   6.941   5.514
10806SOL     OW33316   3.930   4.409   6.104
10806SOL    HW133317   3.946   4.493   6.052
10806SOL    HW233318   3.864   4.352   6.056
10807SOL     OW33319   1.898   0.155   3.367
10807SOL    HW133320   1.849   0.219   3.425
10807SOL    HW233321   1.965   0.105   3.422
10808SOL     OW33322   0.366   3.117   5.965
10808SOL    HW133323   0.320   3.050   5.907
10808SOL    HW233324   0.437   3.072   6.018
10809SOL     OW33325   2.217   4.131   3.834
10809SOL    HW133326   2.216   4.042   3.787
10809SOL    HW233327   2.260   4.199   3.775
10810SOL     OW33328   0.279   0.625   4.055
10810SOL    HW133329   0.342   0.551   4.030
10810SOL    HW233330   0.286   0.642   4.154
10811SOL     OW33331   4.486   4.681   5.711
10811SOL    HW133332   4.419   4.747   5.745
10811SOL    HW233333   4.451   4.588   5.724
10812SOL     OW33334   6.776   3.894   0.532
10812SOL    HW133335   6.867   3.934   0.531
10812SOL    HW233336   6.707   3.967   0.533
10813SOL     OW33337   0.596   4.041   6.000
10813SOL    HW133338   0.520   4.045   5.935
10813SOL    HW233339   0.682   4.030   5.951
10814SOL     OW33340   1.608   0.264   6.648
10814SOL    HW133341   1.651   0.184   6.690
10814SOL    HW233342   1.678   0.317   6.600
10815SOL     OW33343   4.909   3.311   3.027
10815SOL    HW133344   4.878   3.282   2.936
10815SOL    HW233345   5.007   3.290   3.037
10816SOL     OW33346   3.026   3.411   2.361
10816SOL    HW133347   3.119   3.421   2.326
10816SOL    HW233348   2.963   3.464   2.303
10817SOL     OW33349   3.528   0.551   3.789
10817SOL    HW133350   3.523   0.591   3.880
10817SOL    HW233351   3.613   0.580   3.745
10818SOL     OW33352   4.829   4.048   5.526
10818SOL    HW133353   4.894   4.104   5.578
10818SOL    HW233354   4.752   4.023   5.585
10819SOL     OW33355   6.004   4.757   6.324
10819SOL    HW133356   5.952   4.713   6.397
10819SOL    HW233357   5.959   4.740   6.236
10820SOL     OW33358   0.684   5.384   4.342
10820SOL    HW133359   0.658   5.332   4.424
10820SOL    HW233360   0.782   5.401   4.344
10821SOL     OW33361   4.140   6.776   3.479
10821SOL    HW133362   4.118   6.781   3.382
10821SOL    HW233363   4.058   6.750   3.530
10822SOL     OW33364   6.146   1.873   2.535
10822SOL    HW133365   6.196   1.957   2.512
10822SOL    HW233366   6.056   1.874   2.492
10823SOL     OW33367   1.082   0.755   2.209
10823SOL    HW133368   0.991   0.764   2.169
10823SOL    HW233369   1.090   0.667   2.255
10824SOL     OW33370   0.527   0.431   2.602
10824SOL    HW133371   0.606   0.477   2.562
10824SOL    HW233372   0.549   0.402   2.695
10825SOL     OW33373   2.173   1.833   0.318
10825SOL    HW133374   2.119   1.762   0.364
10825SOL    HW233375   2.116   1.880   0.250
10826SOL     OW33376   1.254   1.464   3.140
10826SOL    HW133377   1.345   1.438   3.108
10826SOL    HW233378   1.185   1.413   3.089
10827SOL     OW33379   0.215   3.486   5.052
10827SOL    HW133380   0.185   3.532   4.968
10827SOL    HW233381   0.311   3.459   5.042
10828SOL     OW33382   2.004   4.547   0.599
10828SOL    HW133383   2.063   4.621   0.631
10828SOL    HW233384   1.956   4.506   0.677
10829SOL     OW33385   5.257   2.551   0.359
10829SOL    HW133386   5.170   2.538   0.311
10829SOL    HW233387   5.254   2.503   0.446
10830SOL     OW33388   4.070   1.804   3.070
10830SOL    HW133389   4.144   1.823   3.006
10830SOL    HW233390   3.990   1.859   3.045
10831SOL     OW33391   3.340   6.376   2.307
10831SOL    HW133392   3.307   6.449   2.247
10831SOL    HW233393   3.424   6.407   2.352
10832SOL     OW33394   0.096   3.839   6.337
10832SOL    HW133395   0.086   3.740   6.344
10832SOL    HW233396   0.092   3.866   6.241
10833SOL     OW33397   0.362   1.349   1.397
10833SOL    HW133398   0.414   1.339   1.312
10833SOL    HW233399   0.281   1.290   1.395
10834SOL     OW33400   5.960   1.517   0.428
10834SOL    HW133401   6.006   1.474   0.350
10834SOL    HW233402   5.941   1.448   0.497
10835SOL     OW33403   6.052   2.905   0.064
10835SOL    HW133404   6.095   2.983   0.019
10835SOL    HW233405   6.102   2.883   0.148
10836SOL     OW33406   0.184   2.131   3.414
10836SOL    HW133407   0.263   2.128   3.475
10836SOL    HW233408   0.120   2.200   3.446
10837SOL     OW33409   6.772   4.941   1.507
10837SOL    HW133410   6.860   4.920   1.549
10837SOL    HW233411   6.780   5.028   1.457
10838SOL     OW33412   6.552   6.748   4.027
10838SOL    HW133413   6.639   6.723   4.070
10838SOL    HW233414   6.503   6.812   4.086
10839SOL     OW33415   4.156   3.660   0.714
10839SOL    HW133416   4.192   3.570   0.692
10839SOL    HW233417   4.210   3.730   0.669
10840SOL     OW33418   3.513   6.186   2.210
10840SOL    HW133419   3.528   6.168   2.113
10840SOL    HW233420   3.428   6.238   2.221
10841SOL     OW33421   6.025   4.452   4.859
10841SOL    HW133422   6.112   4.469   4.905
10841SOL    HW233423   6.012   4.519   4.786
10842SOL     OW33424   4.869   2.708   1.331
10842SOL    HW133425   4.773   2.698   1.306
10842SOL    HW233426   4.875   2.753   1.421
10843SOL     OW33427   1.180   1.552   1.174
10843SOL    HW133428   1.099   1.496   1.189
10843SOL    HW233429   1.248   1.530   1.244
10844SOL     OW33430   0.531   5.406   3.210
10844SOL    HW133431   0.478   5.433   3.130
10844SOL    HW233432   0.566   5.313   3.197
10845SOL     OW33433   3.977   6.203   5.465
10845SOL    HW133434   3.947   6.296   5.443
10845SOL    HW233435   3.905   6.138   5.441
10846SOL     OW33436   5.050   0.009   6.537
10846SOL    HW133437   4.987   0.081   6.567
10846SOL    HW233438   5.049   0.003   6.438
10847SOL     OW33439   3.482   2.353   0.124
10847SOL    HW133440   3.462   2.409   0.043
10847SOL    HW233441   3.547   2.281   0.099
10848SOL     OW33442   1.125   4.317   0.616
10848SOL    HW133443   1.203   4.335   0.676
10848SOL    HW233444   1.128   4.223   0.585
10849SOL     OW33445   2.694   4.638   4.047
10849SOL    HW133446   2.645   4.723   4.061
10849SOL    HW233447   2.630   4.561   4.053
10850SOL     OW33448   3.527   6.578   5.840
10850SOL    HW133449   3.430   6.554   5.838
10850SOL    HW233450   3.582   6.495   5.851
10851SOL     OW33451   3.297   3.660   0.631
10851SOL    HW133452   3.324   3.647   0.536
10851SOL    HW233453   3.308   3.575   0.682
10852SOL     OW33454   1.469   0.736   6.807
10852SOL    HW133455   1.462   0.836   6.811
10852SOL    HW233456   1.417   0.702   6.729
10853SOL     OW33457   2.070   2.869   5.874
10853SOL    HW133458   1.993   2.919   5.914
10853SOL    HW233459   2.077   2.889   5.776
10854SOL     OW33460   4.194   5.345   5.342
10854SOL    HW133461   4.209   5.371   5.246
10854SOL    HW233462   4.232   5.416   5.401
10855SOL     OW33463   4.146   0.476   0.270
10855SOL    HW133464   4.114   0.546   0.206
10855SOL    HW233465   4.232   0.437   0.238
10856SOL     OW33466   5.663   1.483   0.526
10856SOL    HW133467   5.585   1.466   0.586
10856SOL    HW233468   5.692   1.578   0.534
10857SOL     OW33469   1.087   2.469   2.502
10857SOL    HW133470   1.055   2.543   2.561
10857SOL    HW233471   1.176   2.493   2.464
10858SOL     OW33472   0.830   0.941   0.948
10858SOL    HW133473   0.801   1.037   0.943
10858SOL    HW233474   0.754   0.882   0.924
10859SOL     OW33475   1.153   4.548   4.468
10859SOL    HW133476   1.077   4.603   4.436
10859SOL    HW233477   1.234   4.568   4.413
10860SOL     OW33478   0.738   3.255   5.030
10860SOL    HW133479   0.671   3.278   4.959
10860SOL    HW233480   0.692   3.253   5.119
10861SOL     OW33481   3.377   3.713   3.159
10861SOL    HW133482   3.288   3.669   3.144
10861SOL    HW233483   3.388   3.732   3.257
10862SOL     OW33484   1.145   0.989   6.055
10862SOL    HW133485   1.052   0.968   6.024
10862SOL    HW233486   1.169   1.082   6.028
10863SOL     OW33487   2.066   0.909   3.997
10863SOL    HW133488   2.149   0.956   3.967
10863SOL    HW233489   2.005   0.898   3.918
10864SOL     OW33490   2.770   6.185   0.261
10864SOL    HW133491   2.676   6.174   0.293
10864SOL    HW233492   2.831   6.194   0.339
10865SOL     OW33493   6.338   1.073   0.756
10865SOL    HW133494   6.310   1.133   0.830
10865SOL    HW233495   6.277   1.085   0.677
10866SOL     OW33496   5.194   4.191   0.790
10866SOL    HW133497   5.182   4.092   0.797
10866SOL    HW233498   5.105   4.235   0.780
10867SOL     OW33499   3.204   3.946   0.969
10867SOL    HW133500   3.153   3.860   0.968
10867SOL    HW233501   3.146   4.019   0.932
10868SOL     OW33502   4.865   1.677   3.872
10868SOL    HW133503   4.961   1.688   3.897
10868SOL    HW233504   4.854   1.590   3.824
10869NA      NA33505   6.586   3.173   5.290
10870NA      NA33506   4.372   4.576   5.284
10871NA      NA33507   1.590   2.776   1.561
10872NA      NA33508   4.946   3.766   5.147
10873NA      NA33509   4.281   2.558   5.387
10874NA      NA33510   3.706   4.822   1.748
10875NA      NA33511   6.583   5.020   6.795
10876NA      NA33512   3.315   3.288   4.534
10877NA      NA33513   4.682   5.911   0.193
10878NA      NA33514   4.263   6.436   5.143
10879NA      NA33515   6.251   5.228   2.232
10880NA      NA33516   2.225   6.772   3.626
10881NA      NA33517   4.140   5.801   2.115
10882NA      NA33518   3.426   4.075   2.176
   7.02437   7.02437   7.02437
