Generated by trjconv : CNT in water t= 263.00000
33518
    1C        C    1   2.842   2.768   4.744
    1C        C    2   2.891   2.717   4.866
    1C        C    3   2.839   2.772   4.984
    1C        C    4   2.844   2.769   4.258
    1C        C    5   2.893   2.721   4.381
    1C        C    6   2.842   2.772   4.503
    1C        C    7   3.009   2.634   4.624
    1C        C    8   2.896   2.719   4.623
    1C        C    9   3.068   2.599   4.747
    1C        C   10   3.001   2.629   4.867
    1C        C   11   3.179   2.487   4.973
    1C        C   12   3.059   2.558   4.974
    1C        C   13   2.846   2.766   3.770
    1C        C   14   2.898   2.722   3.893
    1C        C   15   2.844   2.771   4.014
    1C        C   16   3.018   2.649   4.134
    1C        C   17   2.898   2.723   4.136
    1C        C   18   3.078   2.618   4.259
    1C        C   19   3.014   2.648   4.381
    1C        C   20   3.206   2.562   4.502
    1C        C   21   3.070   2.600   4.501
    1C        C   22   3.274   2.540   4.624
    1C        C   23   3.201   2.547   4.744
    1C        C   24   3.408   2.481   4.863
    1C        C   25   3.266   2.497   4.860
    1C        C   26   3.484   2.475   4.981
    1C        C   27   2.847   2.767   3.279
    1C        C   28   2.899   2.719   3.402
    1C        C   29   2.849   2.767   3.526
    1C        C   30   3.015   2.636   3.646
    1C        C   31   2.899   2.717   3.648
    1C        C   32   3.076   2.605   3.770
    1C        C   33   3.013   2.639   3.891
    1C        C   34   3.205   2.549   4.015
    1C        C   35   3.076   2.606   4.013
    1C        C   36   3.272   2.528   4.138
    1C        C   37   3.206   2.558   4.259
    1C        C   38   3.413   2.512   4.379
    1C        C   39   3.273   2.535   4.381
    1C        C   40   3.484   2.506   4.501
    1C        C   41   3.413   2.512   4.623
    1C        C   42   3.625   2.481   4.744
    1C        C   43   3.482   2.479   4.742
    1C        C   44   3.703   2.484   4.861
    1C        C   45   3.623   2.468   4.975
    1C        C   46   2.833   2.749   2.793
    1C        C   47   2.893   2.709   2.915
    1C        C   48   2.845   2.764   3.036
    1C        C   49   3.015   2.636   3.159
    1C        C   50   2.901   2.719   3.158
    1C        C   51   3.079   2.603   3.280
    1C        C   52   3.016   2.641   3.401
    1C        C   53   3.207   2.551   3.525
    1C        C   54   3.075   2.602   3.523
    1C        C   55   3.273   2.525   3.647
    1C        C   56   3.208   2.552   3.769
    1C        C   57   3.411   2.503   3.890
    1C        C   58   3.272   2.528   3.892
    1C        C   59   3.483   2.502   4.012
    1C        C   60   3.412   2.504   4.134
    1C        C   61   3.623   2.502   4.256
    1C        C   62   3.482   2.502   4.257
    1C        C   63   3.695   2.505   4.378
    1C        C   64   3.625   2.502   4.501
    1C        C   65   3.831   2.541   4.619
    1C        C   66   3.694   2.505   4.623
    1C        C   67   3.901   2.563   4.739
    1C        C   68   3.837   2.527   4.860
    1C        C   69   4.050   2.579   4.976
    1C        C   70   3.921   2.526   4.973
    1C        C   71   2.821   2.732   2.308
    1C        C   72   2.880   2.690   2.429
    1C        C   73   2.829   2.740   2.551
    1C        C   74   3.003   2.617   2.671
    1C        C   75   2.887   2.697   2.673
    1C        C   76   3.071   2.588   2.792
    1C        C   77   3.011   2.632   2.912
    1C        C   78   3.202   2.542   3.037
    1C        C   79   3.073   2.599   3.035
    1C        C   80   3.272   2.521   3.158
    1C        C   81   3.208   2.545   3.281
    1C        C   82   3.414   2.496   3.400
    1C        C   83   3.276   2.526   3.404
    1C        C   84   3.483   2.493   3.523
    1C        C   85   3.413   2.500   3.645
    1C        C   86   3.623   2.496   3.765
    1C        C   87   3.482   2.495   3.768
    1C        C   88   3.693   2.504   3.888
    1C        C   89   3.624   2.502   4.011
    1C        C   90   3.830   2.543   4.132
    1C        C   91   3.694   2.507   4.134
    1C        C   92   3.898   2.566   4.254
    1C        C   93   3.831   2.541   4.376
    1C        C   94   4.023   2.632   4.496
    1C        C   95   3.901   2.561   4.497
    1C        C   96   4.086   2.670   4.617
    1C        C   97   4.026   2.630   4.739
    1C        C   98   4.185   2.762   4.857
    1C        C   99   4.097   2.649   4.860
    1C        C  100   4.212   2.841   4.969
    1C        C  101   2.817   2.725   2.069
    1C        C  102   2.990   2.593   2.188
    1C        C  103   2.875   2.678   2.188
    1C        C  104   3.063   2.573   2.308
    1C        C  105   2.999   2.614   2.427
    1C        C  106   3.198   2.535   2.548
    1C        C  107   3.065   2.584   2.548
    1C        C  108   3.268   2.517   2.669
    1C        C  109   3.203   2.537   2.793
    1C        C  110   3.410   2.495   2.911
    1C        C  111   3.270   2.517   2.915
    1C        C  112   3.480   2.492   3.034
    1C        C  113   3.411   2.496   3.157
    1C        C  114   3.625   2.492   3.275
    1C        C  115   3.484   2.489   3.278
    1C        C  116   3.694   2.503   3.398
    1C        C  117   3.624   2.495   3.521
    1C        C  118   3.831   2.541   3.642
    1C        C  119   3.694   2.505   3.643
    1C        C  120   3.895   2.565   3.765
    1C        C  121   3.829   2.543   3.888
    1C        C  122   4.022   2.632   4.008
    1C        C  123   3.897   2.566   4.010
    1C        C  124   4.083   2.671   4.130
    1C        C  125   4.023   2.632   4.252
    1C        C  126   4.190   2.763   4.376
    1C        C  127   4.082   2.672   4.374
    1C        C  128   4.240   2.818   4.496
    1C        C  129   4.192   2.763   4.616
    1C        C  130   4.328   2.928   4.736
    1C        C  131   4.243   2.814   4.738
    1C        C  132   4.356   3.000   4.854
    1C        C  133   4.291   2.956   4.970
    1C        C  134   3.167   2.466   2.078
    1C        C  135   3.034   2.510   2.079
    1C        C  136   3.255   2.471   2.187
    1C        C  137   3.191   2.512   2.306
    1C        C  138   3.402   2.472   2.428
    1C        C  139   3.264   2.503   2.427
    1C        C  140   3.479   2.477   2.546
    1C        C  141   3.406   2.487   2.666
    1C        C  142   3.619   2.491   2.788
    1C        C  143   3.478   2.486   2.788
    1C        C  144   3.693   2.498   2.908
    1C        C  145   3.621   2.488   3.029
    1C        C  146   3.826   2.539   3.154
    1C        C  147   3.692   2.496   3.151
    1C        C  148   3.895   2.563   3.275
    1C        C  149   3.830   2.541   3.399
    1C        C  150   4.026   2.625   3.520
    1C        C  151   3.899   2.563   3.520
    1C        C  152   4.085   2.664   3.642
    1C        C  153   4.020   2.631   3.763
    1C        C  154   4.194   2.753   3.885
    1C        C  155   4.079   2.672   3.885
    1C        C  156   4.245   2.805   4.006
    1C        C  157   4.193   2.759   4.129
    1C        C  158   4.333   2.916   4.249
    1C        C  159   4.244   2.807   4.252
    1C        C  160   4.372   2.979   4.369
    1C        C  161   4.330   2.928   4.494
    1C        C  162   4.440   3.111   4.612
    1C        C  163   4.368   2.989   4.615
    1C        C  164   4.468   3.180   4.732
    1C        C  165   4.430   3.120   4.854
    1C        C  166   4.520   3.319   4.968
    1C        C  167   4.475   3.188   4.968
    1C        C  168   3.473   2.436   2.071
    1C        C  169   3.395   2.454   2.186
    1C        C  170   3.613   2.468   2.303
    1C        C  171   3.471   2.460   2.305
    1C        C  172   3.689   2.487   2.420
    1C        C  173   3.620   2.484   2.544
    1C        C  174   3.827   2.536   2.667
    1C        C  175   3.690   2.500   2.666
    1C        C  176   3.896   2.558   2.788
    1C        C  177   3.830   2.533   2.910
    1C        C  178   4.023   2.622   3.031
    1C        C  179   3.896   2.561   3.032
    1C        C  180   4.083   2.661   3.152
    1C        C  181   4.021   2.627   3.274
    1C        C  182   4.192   2.752   3.395
    1C        C  183   4.082   2.663   3.396
    1C        C  184   4.250   2.796   3.516
    1C        C  185   4.200   2.747   3.638
    1C        C  186   4.336   2.907   3.760
    1C        C  187   4.247   2.797   3.762
    1C        C  188   4.376   2.969   3.881
    1C        C  189   4.338   2.911   4.004
    1C        C  190   4.437   3.099   4.124
    1C        C  191   4.375   2.972   4.126
    1C        C  192   4.466   3.166   4.246
    1C        C  193   4.439   3.104   4.370
    1C        C  194   4.507   3.309   4.487
    1C        C  195   4.471   3.173   4.489
    1C        C  196   4.519   3.385   4.606
    1C        C  197   4.508   3.317   4.729
    1C        C  198   4.551   3.532   4.846
    1C        C  199   4.536   3.389   4.848
    1C        C  200   4.586   3.620   4.953
    1C        C  201   3.612   2.419   2.070
    1C        C  202   3.824   2.511   2.180
    1C        C  203   3.688   2.465   2.182
    1C        C  204   3.895   2.538   2.300
    1C        C  205   3.826   2.520   2.422
    1C        C  206   4.017   2.618   2.541
    1C        C  207   3.891   2.554   2.542
    1C        C  208   4.085   2.649   2.661
    1C        C  209   4.026   2.615   2.784
    1C        C  210   4.197   2.739   2.905
    1C        C  211   4.083   2.655   2.907
    1C        C  212   4.245   2.795   3.025
    1C        C  213   4.193   2.749   3.149
    1C        C  214   4.335   2.905   3.270
    1C        C  215   4.243   2.798   3.272
    1C        C  216   4.370   2.966   3.393
    1C        C  217   4.337   2.908   3.517
    1C        C  218   4.438   3.095   3.635
    1C        C  219   4.375   2.968   3.639
    1C        C  220   4.458   3.163   3.757
    1C        C  221   4.433   3.098   3.879
    1C        C  222   4.494   3.302   4.002
    1C        C  223   4.461   3.164   4.001
    1C        C  224   4.506   3.375   4.122
    1C        C  225   4.499   3.303   4.244
    1C        C  226   4.511   3.518   4.360
    1C        C  227   4.510   3.377   4.363
    1C        C  228   4.508   3.593   4.480
    1C        C  229   4.515   3.526   4.604
    1C        C  230   4.502   3.740   4.722
    1C        C  231   4.531   3.600   4.723
    1C        C  232   4.489   3.817   4.840
    1C        C  233   4.540   3.752   4.953
    1C        C  234   4.020   2.601   2.060
    1C        C  235   3.893   2.543   2.063
    1C        C  236   4.086   2.642   2.176
    1C        C  237   4.022   2.604   2.296
    1C        C  238   4.190   2.737   2.419
    1C        C  239   4.080   2.647   2.417
    1C        C  240   4.247   2.786   2.538
    1C        C  241   4.196   2.736   2.661
    1C        C  242   4.332   2.900   2.781
    1C        C  243   4.248   2.787   2.782
    1C        C  244   4.379   2.957   2.902
    1C        C  245   4.335   2.904   3.025
    1C        C  246   4.440   3.087   3.145
    1C        C  247   4.376   2.962   3.147
    1C        C  248   4.462   3.156   3.266
    1C        C  249   4.433   3.093   3.389
    1C        C  250   4.484   3.299   3.511
    1C        C  251   4.457   3.161   3.511
    1C        C  252   4.504   3.368   3.633
    1C        C  253   4.497   3.299   3.757
    1C        C  254   4.515   3.511   3.872
    1C        C  255   4.508   3.370   3.879
    1C        C  256   4.512   3.584   3.993
    1C        C  257   4.513   3.516   4.117
    1C        C  258   4.485   3.729   4.238
    1C        C  259   4.508   3.589   4.237
    1C        C  260   4.468   3.802   4.358
    1C        C  261   4.480   3.731   4.479
    1C        C  262   4.428   3.938   4.599
    1C        C  263   4.475   3.805   4.600
    1C        C  264   4.398   4.009   4.718
    1C        C  265   4.424   3.942   4.839
    1C        C  266   4.315   4.129   4.956
    1C        C  267   4.387   4.010   4.956
    1C        C  268   4.267   2.764   2.060
    1C        C  269   4.199   2.727   2.176
    1C        C  270   4.337   2.890   2.295
    1C        C  271   4.248   2.780   2.297
    1C        C  272   4.380   2.949   2.416
    1C        C  273   4.341   2.891   2.539
    1C        C  274   4.447   3.078   2.657
    1C        C  275   4.376   2.956   2.659
    1C        C  276   4.465   3.150   2.777
    1C        C  277   4.439   3.084   2.899
    1C        C  278   4.504   3.287   3.023
    1C        C  279   4.468   3.150   3.021
    1C        C  280   4.510   3.362   3.143
    1C        C  281   4.496   3.293   3.265
    1C        C  282   4.506   3.506   3.386
    1C        C  283   4.502   3.365   3.387
    1C        C  284   4.506   3.578   3.507
    1C        C  285   4.511   3.509   3.630
    1C        C  286   4.479   3.721   3.751
    1C        C  287   4.507   3.582   3.751
    1C        C  288   4.465   3.791   3.873
    1C        C  289   4.490   3.723   3.994
    1C        C  290   4.430   3.931   4.111
    1C        C  291   4.474   3.796   4.114
    1C        C  292   4.398   3.996   4.232
    1C        C  293   4.422   3.935   4.358
    1C        C  294   4.329   4.128   4.472
    1C        C  295   4.393   4.002   4.479
    1C        C  296   4.285   4.185   4.594
    1C        C  297   4.325   4.131   4.718
    1C        C  298   4.201   4.314   4.832
    1C        C  299   4.280   4.194   4.837
    1C        C  300   4.171   4.403   4.940
    1C        C  301   4.348   2.878   2.060
    1C        C  302   4.466   3.065   2.174
    1C        C  303   4.395   2.941   2.175
    1C        C  304   4.478   3.140   2.294
    1C        C  305   4.448   3.073   2.415
    1C        C  306   4.508   3.280   2.533
    1C        C  307   4.475   3.143   2.534
    1C        C  308   4.515   3.353   2.653
    1C        C  309   4.499   3.287   2.777
    1C        C  310   4.513   3.497   2.895
    1C        C  311   4.512   3.355   2.900
    1C        C  312   4.508   3.570   3.016
    1C        C  313   4.509   3.503   3.140
    1C        C  314   4.478   3.714   3.262
    1C        C  315   4.499   3.574   3.262
    1C        C  316   4.467   3.784   3.384
    1C        C  317   4.487   3.718   3.507
    1C        C  318   4.424   3.924   3.627
    1C        C  319   4.468   3.789   3.628
    1C        C  320   4.391   3.989   3.748
    1C        C  321   4.418   3.924   3.870
    1C        C  322   4.314   4.111   3.987
    1C        C  323   4.392   3.994   3.991
    1C        C  324   4.277   4.172   4.109
    1C        C  325   4.320   4.114   4.230
    1C        C  326   4.184   4.281   4.348
    1C        C  327   4.284   4.181   4.349
    1C        C  328   4.135   4.333   4.469
    1C        C  329   4.192   4.292   4.591
    1C        C  330   4.028   4.438   4.709
    1C        C  331   4.139   4.349   4.709
    1C        C  332   3.967   4.487   4.827
    1C        C  333   4.050   4.473   4.939
    1C        C  334   4.545   3.268   2.056
    1C        C  335   4.527   3.129   2.061
    1C        C  336   4.536   3.348   2.171
    1C        C  337   4.509   3.279   2.291
    1C        C  338   4.515   3.494   2.409
    1C        C  339   4.517   3.352   2.412
    1C        C  340   4.518   3.565   2.531
    1C        C  341   4.525   3.494   2.653
    1C        C  342   4.492   3.708   2.774
    1C        C  343   4.511   3.568   2.773
    1C        C  344   4.471   3.778   2.895
    1C        C  345   4.485   3.709   3.017
    1C        C  346   4.426   3.915   3.133
    1C        C  347   4.470   3.781   3.138
    1C        C  348   4.392   3.980   3.254
    1C        C  349   4.419   3.917   3.378
    1C        C  350   4.319   4.101   3.498
    1C        C  351   4.393   3.981   3.501
    1C        C  352   4.274   4.163   3.617
    1C        C  353   4.314   4.107   3.740
    1C        C  354   4.175   4.266   3.862
    1C        C  355   4.271   4.163   3.863
    1C        C  356   4.125   4.320   3.983
    1C        C  357   4.178   4.273   4.105
    1C        C  358   4.008   4.400   4.227
    1C        C  359   4.128   4.326   4.226
    1C        C  360   3.948   4.436   4.350
    1C        C  361   4.018   4.412   4.470
    1C        C  362   3.825   4.511   4.588
    1C        C  363   3.955   4.456   4.590
    1C        C  364   3.759   4.542   4.709
    1C        C  365   3.834   4.534   4.828
    1C        C  366   3.628   4.603   4.946
    1C        C  367   3.764   4.575   4.942
    1C        C  368   4.517   3.563   2.048
    1C        C  369   4.527   3.488   2.166
    1C        C  370   4.504   3.703   2.285
    1C        C  371   4.520   3.563   2.286
    1C        C  372   4.485   3.773   2.405
    1C        C  373   4.502   3.705   2.528
    1C        C  374   4.430   3.905   2.647
    1C        C  375   4.482   3.774   2.650
    1C        C  376   4.399   3.974   2.766
    1C        C  377   4.430   3.913   2.890
    1C        C  378   4.318   4.095   3.009
    1C        C  379   4.400   3.980   3.011
    1C        C  380   4.272   4.152   3.130
    1C        C  381   4.318   4.100   3.253
    1C        C  382   4.178   4.258   3.374
    1C        C  383   4.279   4.158   3.375
    1C        C  384   4.122   4.306   3.494
    1C        C  385   4.173   4.262   3.618
    1C        C  386   4.008   4.396   3.739
    1C        C  387   4.122   4.313   3.739
    1C        C  388   3.948   4.438   3.860
    1C        C  389   4.006   4.396   3.982
    1C        C  390   3.816   4.489   4.104
    1C        C  391   3.945   4.432   4.104
    1C        C  392   3.748   4.514   4.226
    1C        C  393   3.821   4.497   4.346
    1C        C  394   3.617   4.550   4.470
    1C        C  395   3.757   4.532   4.467
    1C        C  396   3.545   4.557   4.592
    1C        C  397   3.619   4.560   4.712
    1C        C  398   3.409   4.551   4.836
    1C        C  399   3.548   4.577   4.833
    1C        C  400   3.344   4.515   4.954
    1C        C  401   4.510   3.702   2.047
    1C        C  402   4.456   3.912   2.161
    1C        C  403   4.493   3.776   2.164
    1C        C  404   4.416   3.974   2.281
    1C        C  405   4.436   3.906   2.403
    1C        C  406   4.325   4.088   2.522
    1C        C  407   4.404   3.971   2.525
    1C        C  408   4.275   4.144   2.641
    1C        C  409   4.314   4.087   2.764
    1C        C  410   4.171   4.245   2.885
    1C        C  411   4.268   4.142   2.886
    1C        C  412   4.122   4.298   3.006
    1C        C  413   4.174   4.254   3.130
    1C        C  414   4.000   4.374   3.249
    1C        C  415   4.120   4.301   3.252
    1C        C  416   3.938   4.407   3.372
    1C        C  417   4.003   4.382   3.495
    1C        C  418   3.811   4.475   3.615
    1C        C  419   3.943   4.423   3.617
    1C        C  420   3.748   4.498   3.739
    1C        C  421   3.814   4.485   3.863
    1C        C  422   3.605   4.529   3.982
    1C        C  423   3.745   4.508   3.984
    1C        C  424   3.538   4.538   4.106
    1C        C  425   3.608   4.531   4.228
    1C        C  426   3.399   4.542   4.351
    1C        C  427   3.540   4.546   4.351
    1C        C  428   3.331   4.545   4.475
    1C        C  429   3.404   4.552   4.596
    1C        C  430   3.194   4.514   4.718
    1C        C  431   3.333   4.544   4.717
    1C        C  432   3.123   4.491   4.839
    1C        C  433   3.206   4.496   4.952
    1C        C  434   4.384   4.116   2.050
    1C        C  435   4.455   3.996   2.049
    1C        C  436   4.305   4.160   2.161
    1C        C  437   4.339   4.094   2.282
    1C        C  438   4.180   4.243   2.398
    1C        C  439   4.284   4.148   2.400
    1C        C  440   4.118   4.283   2.519
    1C        C  441   4.175   4.243   2.642
    1C        C  442   3.999   4.366   2.762
    1C        C  443   4.119   4.291   2.763
    1C        C  444   3.941   4.407   2.884
    1C        C  445   4.005   4.378   3.007
    1C        C  446   3.808   4.463   3.125
    1C        C  447   3.938   4.410   3.127
    1C        C  448   3.739   4.480   3.248
    1C        C  449   3.806   4.459   3.370
    1C        C  450   3.603   4.512   3.496
    1C        C  451   3.741   4.484   3.493
    1C        C  452   3.535   4.530   3.618
    1C        C  453   3.610   4.530   3.738
    1C        C  454   3.395   4.532   3.860
    1C        C  455   3.536   4.534   3.858
    1C        C  456   3.328   4.526   3.984
    1C        C  457   3.397   4.533   4.107
    1C        C  458   3.190   4.494   4.234
    1C        C  459   3.327   4.530   4.230
    1C        C  460   3.126   4.476   4.358
    1C        C  461   3.195   4.508   4.477
    1C        C  462   2.997   4.426   4.598
    1C        C  463   3.125   4.485   4.598
    1C        C  464   2.928   4.394   4.717
    1C        C  465   2.989   4.441   4.837
    1C        C  466   2.803   4.334   4.957
    1C        C  467   2.910   4.424   4.955
    1C        C  468   4.123   4.278   2.039
    1C        C  469   4.189   4.244   2.158
    1C        C  470   4.004   4.363   2.275
    1C        C  471   4.127   4.292   2.276
    1C        C  472   3.939   4.400   2.395
    1C        C  473   4.000   4.360   2.516
    1C        C  474   3.809   4.454   2.639
    1C        C  475   3.936   4.392   2.638
    1C        C  476   3.741   4.482   2.760
    1C        C  477   3.810   4.459   2.881
    1C        C  478   3.604   4.516   3.003
    1C        C  479   3.741   4.483   3.002
    1C        C  480   3.535   4.526   3.126
    1C        C  481   3.602   4.514   3.249
    1C        C  482   3.393   4.527   3.373
    1C        C  483   3.534   4.522   3.373
    1C        C  484   3.322   4.527   3.495
    1C        C  485   3.394   4.538   3.617
    1C        C  486   3.185   4.494   3.741
    1C        C  487   3.322   4.529   3.738
    1C        C  488   3.122   4.471   3.865
    1C        C  489   3.190   4.492   3.987
    1C        C  490   2.996   4.416   4.113
    1C        C  491   3.124   4.476   4.111
    1C        C  492   2.933   4.386   4.235
    1C        C  493   2.996   4.419   4.357
    1C        C  494   2.823   4.297   4.481
    1C        C  495   2.936   4.382   4.479
    1C        C  496   2.762   4.257   4.602
    1C        C  497   2.812   4.312   4.722
    1C        C  498   2.666   4.158   4.843
    1C        C  499   2.753   4.269   4.843
    1C        C  500   2.596   4.113   4.956
    1C        C  501   4.003   4.349   2.037
    1C        C  502   3.813   4.458   2.151
    1C        C  503   3.938   4.392   2.153
    1C        C  504   3.744   4.477   2.272
    1C        C  505   3.808   4.452   2.396
    1C        C  506   3.602   4.502   2.515
    1C        C  507   3.741   4.476   2.518
    1C        C  508   3.531   4.517   2.636
    1C        C  509   3.603   4.509   2.758
    1C        C  510   3.393   4.524   2.884
    1C        C  511   3.534   4.521   2.881
    1C        C  512   3.320   4.522   3.005
    1C        C  513   3.393   4.530   3.125
    1C        C  514   3.188   4.487   3.251
    1C        C  515   3.325   4.521   3.249
    1C        C  516   3.120   4.463   3.372
    1C        C  517   3.186   4.490   3.494
    1C        C  518   2.992   4.412   3.623
    1C        C  519   3.120   4.472   3.618
    1C        C  520   2.935   4.372   3.746
    1C        C  521   2.996   4.408   3.868
    1C        C  522   2.829   4.282   3.992
    1C        C  523   2.938   4.372   3.992
    1C        C  524   2.775   4.241   4.116
    1C        C  525   2.819   4.302   4.236
    1C        C  526   2.690   4.134   4.362
    1C        C  527   2.773   4.249   4.359
    1C        C  528   2.651   4.072   4.483
    1C        C  529   2.680   4.142   4.602
    1C        C  530   2.584   3.955   4.728
    1C        C  531   2.636   4.087   4.725
    1C        C  532   2.535   3.899   4.850
    1C        C  533   2.522   3.993   4.957
    1C        C  534   3.615   4.552   2.035
    1C        C  535   3.747   4.503   2.036
    1C        C  536   3.535   4.535   2.152
    1C        C  537   3.605   4.508   2.273
    1C        C  538   3.390   4.511   2.397
    1C        C  539   3.531   4.513   2.393
    1C        C  540   3.318   4.508   2.518
    1C        C  541   3.390   4.518   2.640
    1C        C  542   3.182   4.483   2.764
    1C        C  543   3.320   4.513   2.763
    1C        C  544   3.117   4.459   2.887
    1C        C  545   3.184   4.484   3.009
    1C        C  546   2.992   4.395   3.135
    1C        C  547   3.118   4.459   3.131
    1C        C  548   2.934   4.359   3.258
    1C        C  549   2.994   4.399   3.380
    1C        C  550   2.824   4.277   3.505
    1C        C  551   2.931   4.370   3.503
    1C        C  552   2.773   4.231   3.628
    1C        C  553   2.823   4.287   3.748
    1C        C  554   2.697   4.117   3.873
    1C        C  555   2.774   4.235   3.871
    1C        C  556   2.658   4.060   3.996
    1C        C  557   2.693   4.126   4.116
    1C        C  558   2.592   3.945   4.243
    1C        C  559   2.655   4.072   4.240
    1C        C  560   2.567   3.876   4.364
    1C        C  561   2.588   3.946   4.485
    1C        C  562   2.529   3.746   4.612
    1C        C  563   2.561   3.883   4.609
    1C        C  564   2.516   3.677   4.734
    1C        C  565   2.520   3.757   4.852
    1C        C  566   2.534   3.545   4.975
    1C        C  567   2.529   3.684   4.971
    1C        C  568   3.328   4.473   2.036
    1C        C  569   3.394   4.514   2.152
    1C        C  570   3.184   4.468   2.276
    1C        C  571   3.321   4.505   2.274
    1C        C  572   3.112   4.455   2.396
    1C        C  573   3.180   4.479   2.518
    1C        C  574   2.988   4.398   2.645
    1C        C  575   3.115   4.460   2.642
    1C        C  576   2.930   4.356   2.767
    1C        C  577   2.992   4.394   2.889
    1C        C  578   2.822   4.273   3.014
    1C        C  579   2.929   4.364   3.012
    1C        C  580   2.774   4.220   3.136
    1C        C  581   2.822   4.272   3.258
    1C        C  582   2.691   4.112   3.381
    1C        C  583   2.776   4.225   3.383
    1C        C  584   2.652   4.058   3.505
    1C        C  585   2.689   4.117   3.628
    1C        C  586   2.594   3.930   3.751
    1C        C  587   2.657   4.057   3.751
    1C        C  588   2.571   3.868   3.876
    1C        C  589   2.595   3.934   3.999
    1C        C  590   2.535   3.736   4.125
    1C        C  591   2.569   3.873   4.124
    1C        C  592   2.526   3.667   4.249
    1C        C  593   2.532   3.740   4.370
    1C        C  594   2.517   3.529   4.496
    1C        C  595   2.522   3.670   4.493
    1C        C  596   2.516   3.459   4.618
    1C        C  597   2.515   3.534   4.738
    1C        C  598   2.529   3.324   4.864
    1C        C  599   2.523   3.465   4.861
    1C        C  600   2.531   3.244   4.978
    1C        C  601   3.195   4.436   2.041
    1C        C  602   2.979   4.391   2.157
    1C        C  603   3.117   4.428   2.157
    1C        C  604   2.917   4.359   2.282
    1C        C  605   2.983   4.396   2.401
    1C        C  606   2.818   4.268   2.526
    1C        C  607   2.924   4.361   2.524
    1C        C  608   2.768   4.220   2.649
    1C        C  609   2.817   4.272   2.770
    1C        C  610   2.685   4.107   2.891
    1C        C  611   2.772   4.219   2.893
    1C        C  612   2.643   4.052   3.014
    1C        C  613   2.686   4.109   3.136
    1C        C  614   2.582   3.927   3.263
    1C        C  615   2.651   4.051   3.260
    1C        C  616   2.560   3.864   3.388
    1C        C  617   2.591   3.930   3.508
    1C        C  618   2.531   3.727   3.635
    1C        C  619   2.567   3.863   3.630
    1C        C  620   2.520   3.661   3.759
    1C        C  621   2.533   3.732   3.881
    1C        C  622   2.513   3.523   4.005
    1C        C  623   2.522   3.664   4.004
    1C        C  624   2.520   3.456   4.129
    1C        C  625   2.521   3.526   4.252
    1C        C  626   2.538   3.317   4.377
    1C        C  627   2.519   3.457   4.375
    1C        C  628   2.550   3.246   4.499
    1C        C  629   2.537   3.319   4.619
    1C        C  630   2.594   3.118   4.743
    1C        C  631   2.548   3.253   4.743
    1C        C  632   2.613   3.044   4.862
    1C        C  633   2.552   3.105   4.976
    1C        C  634   2.776   4.302   2.051
    1C        C  635   2.887   4.388   2.048
    1C        C  636   2.743   4.228   2.165
    1C        C  637   2.804   4.273   2.284
    1C        C  638   2.671   4.109   2.407
    1C        C  639   2.761   4.217   2.407
    1C        C  640   2.639   4.045   2.528
    1C        C  641   2.686   4.105   2.648
    1C        C  642   2.584   3.919   2.772
    1C        C  643   2.650   4.044   2.770
    1C        C  644   2.557   3.856   2.896
    1C        C  645   2.586   3.923   3.017
    1C        C  646   2.521   3.725   3.145
    1C        C  647   2.561   3.860   3.141
    1C        C  648   2.512   3.655   3.268
    1C        C  649   2.529   3.726   3.389
    1C        C  650   2.514   3.516   3.515
    1C        C  651   2.521   3.657   3.512
    1C        C  652   2.518   3.450   3.640
    1C        C  653   2.509   3.520   3.762
    1C        C  654   2.535   3.311   3.888
    1C        C  655   2.509   3.450   3.885
    1C        C  656   2.546   3.243   4.011
    1C        C  657   2.534   3.315   4.133
    1C        C  658   2.600   3.114   4.257
    1C        C  659   2.550   3.246   4.255
    1C        C  660   2.626   3.048   4.379
    1C        C  661   2.595   3.112   4.500
    1C        C  662   2.700   2.931   4.624
    1C        C  663   2.621   3.048   4.623
    1C        C  664   2.747   2.873   4.744
    1C        C  665   2.696   2.927   4.866
    1C        C  666   2.737   2.866   4.985
    1C        C  667   2.683   4.019   2.053
    1C        C  668   2.678   4.103   2.165
    1C        C  669   2.583   3.912   2.290
    1C        C  670   2.636   4.044   2.286
    1C        C  671   2.552   3.847   2.412
    1C        C  672   2.583   3.915   2.532
    1C        C  673   2.513   3.715   2.655
    1C        C  674   2.550   3.851   2.653
    1C        C  675   2.501   3.647   2.778
    1C        C  676   2.524   3.718   2.898
    1C        C  677   2.506   3.512   3.027
    1C        C  678   2.520   3.653   3.023
    1C        C  679   2.509   3.442   3.149
    1C        C  680   2.507   3.514   3.271
    1C        C  681   2.533   3.305   3.395
    1C        C  682   2.507   3.443   3.394
    1C        C  683   2.558   3.244   3.520
    1C        C  684   2.537   3.310   3.642
    1C        C  685   2.604   3.111   3.768
    1C        C  686   2.550   3.242   3.765
    1C        C  687   2.629   3.047   3.891
    1C        C  688   2.597   3.112   4.012
    1C        C  689   2.708   2.932   4.135
    1C        C  690   2.634   3.052   4.135
    1C        C  691   2.752   2.877   4.258
    1C        C  692   2.703   2.929   4.380
    1C        C  693   2.744   2.873   4.503
    1C        C  694   2.632   3.889   2.057
    1C        C  695   2.533   3.698   2.171
    1C        C  696   2.581   3.831   2.174
    1C        C  697   2.507   3.634   2.294
    1C        C  698   2.522   3.709   2.412
    1C        C  699   2.486   3.501   2.541
    1C        C  700   2.504   3.641   2.535
    1C        C  701   2.492   3.432   2.664
    1C        C  702   2.496   3.506   2.784
    1C        C  703   2.514   3.296   2.908
    1C        C  704   2.500   3.437   2.908
    1C        C  705   2.534   3.226   3.029
    1C        C  706   2.529   3.302   3.148
    1C        C  707   2.597   3.104   3.274
    1C        C  708   2.547   3.236   3.272
    1C        C  709   2.635   3.047   3.398
    1C        C  710   2.607   3.111   3.521
    1C        C  711   2.712   2.931   3.646
    1C        C  712   2.633   3.049   3.645
    1C        C  713   2.754   2.873   3.767
    1C        C  714   2.707   2.928   3.888
    1C        C  715   2.751   2.877   4.012
    1C        C  716   2.452   3.496   2.058
    1C        C  717   2.485   3.633   2.057
    1C        C  718   2.471   3.421   2.178
    1C        C  719   2.481   3.494   2.300
    1C        C  720   2.510   3.286   2.423
    1C        C  721   2.483   3.424   2.422
    1C        C  722   2.531   3.219   2.546
    1C        C  723   2.515   3.292   2.665
    1C        C  724   2.585   3.093   2.790
    1C        C  725   2.530   3.224   2.788
    1C        C  726   2.611   3.027   2.912
    1C        C  727   2.570   3.089   3.032
    1C        C  728   2.704   2.922   3.158
    1C        C  729   2.619   3.035   3.153
    1C        C  730   2.753   2.872   3.281
    1C        C  731   2.711   2.928   3.404
    1C        C  732   2.752   2.869   3.525
    1C        C  733   2.496   3.194   2.072
    1C        C  734   2.493   3.279   2.182
    1C        C  735   2.581   3.081   2.307
    1C        C  736   2.525   3.212   2.303
    1C        C  737   2.617   3.019   2.429
    1C        C  738   2.586   3.088   2.548
    1C        C  739   2.691   2.905   2.671
    1C        C  740   2.619   3.026   2.671
    1C        C  741   2.736   2.851   2.794
    1C        C  742   2.695   2.914   2.914
    1C        C  743   2.748   2.867   3.036
    1C        C  744   2.545   3.063   2.071
    1C        C  745   2.683   2.894   2.184
    1C        C  746   2.608   3.014   2.186
    1C        C  747   2.728   2.839   2.306
    1C        C  748   2.688   2.897   2.428
    1C        C  749   2.741   2.850   2.550
    1C        C  750   2.728   2.832   2.067
    1C        C  751   3.658   2.304   1.989
    1C        O  752   3.691   2.200   2.053
    1C        O  753   3.658   2.304   1.849
    1C        C  754   4.601   3.055   1.957
    1C        O  755   4.575   3.087   1.838
    1C        O  756   4.735   3.022   1.982
    1C        C  757   4.434   4.212   1.949
    1C        O  758   4.543   4.273   1.962
    1C        O  759   4.411   4.184   1.813
    1C        C  760   3.583   4.655   1.934
    1C        O  761   3.574   4.778   1.957
    1C        O  762   3.588   4.622   1.798
    1C        C  763   2.878   4.488   1.939
    1C        O  764   2.958   4.495   1.842
    1C        O  765   2.770   4.577   1.943
    1C        C  766   2.341   3.468   1.964
    1C        O  767   2.364   3.426   1.848
    1C        O  768   2.215   3.528   1.976
    1C        C  769   4.694   3.594   5.051
    1C        O  770   4.680   3.617   5.174
    1C        O  771   4.826   3.614   5.010
    1C        C  772   4.277   4.450   5.031
    1C        O  773   4.304   4.395   5.141
    1C        O  774   4.347   4.570   5.012
    1C        C  775   4.152   2.511   5.059
    1C        O  776   4.221   2.413   5.018
    1C        O  777   4.146   2.501   5.198
    1C        C  778   2.881   4.549   5.028
    1C        O  779   2.806   4.639   4.980
    1C        O  780   2.938   4.580   5.152
    1C        C  781   2.462   3.033   5.070
    1C        O  782   2.341   3.021   5.039
    1C        O  783   2.504   3.012   5.201
    1C        C  784   2.397   4.005   5.035
    1C        O  785   2.289   4.041   4.982
    1C        O  786   2.395   4.014   5.175
    1C        C  787   2.943   2.447   1.980
    1C        O  788   2.937   2.504   1.868
    1C        O  789   2.877   2.326   1.987
    1C        C  790   3.182   2.368   5.063
    1C        O  791   3.201   2.251   5.021
    1C        O  792   3.239   2.383   5.190
    1C        H  793   4.288   3.018   5.056
    1C        H  794   4.139   2.836   5.047
    1C        H  795   4.484   3.136   5.061
    1C        H  796   4.542   3.373   5.059
    1C        H  797   4.544   3.797   5.050
    1C        H  798   4.440   3.995   5.048
    1C        H  799   4.288   4.175   5.049
    1C        H  800   4.033   4.537   5.023
    1C        H  801   3.823   4.609   5.025
    1C        H  802   3.597   4.661   5.030
    1C        H  803   3.401   4.449   5.016
    1C        H  804   3.155   4.486   5.046
    1C        H  805   3.890   2.463   5.054
    1C        H  806   3.669   2.470   5.072
    1C        H  807   3.016   2.576   5.070
    1C        H  808   3.437   2.500   5.074
    1C        H  809   2.889   2.752   5.077
    1C        H  810   2.680   2.876   5.075
    1C        H  811   2.551   3.297   5.069
    1C        H  812   2.565   3.507   5.070
    1C        H  813   2.483   3.729   5.056
    1C        H  814   2.597   4.176   5.043
    1C        H  815   2.766   4.307   5.053
    1C        H  816   2.709   2.886   1.976
    1C        H  817   2.808   2.650   1.993
    1C        H  818   3.187   2.387   2.009
    1C        H  819   3.430   2.462   1.976
    1C        H  820   3.877   2.492   1.971
    1C        H  821   4.076   2.592   1.970
    1C        H  822   4.312   2.683   2.006
    1C        H  823   4.350   2.935   1.969
    1C        H  824   4.600   3.307   1.973
    1C        H  825   4.547   3.517   1.956
    1C        H  826   4.541   3.754   1.959
    1C        H  827   3.808   4.519   1.950
    1C        H  828   3.962   4.359   1.939
    1C        H  829   4.177   4.271   1.947
    1C        H  830   4.535   3.989   1.978
    1C        H  831   2.614   3.846   1.961
    1C        H  832   2.664   4.069   1.960
    1C        H  833   2.728   4.288   1.956
    1C        H  834   3.387   4.448   1.950
    1C        H  835   3.156   4.416   1.943
    1C        H  836   2.520   2.999   1.989
    1C        H  837   2.432   3.210   1.988
    1C        H  838   2.532   3.657   1.963
    2V3OU   H29  839   2.803   3.545   2.512
    2V3OU   C27  840   2.786   3.502   2.614
    2V3OU   H27  841   2.729   3.566   2.686
    2V3OU   H28  842   2.741   3.401   2.597
    2V3OU   O11  843   2.909   3.472   2.679
    2V3OU   C15  844   2.922   3.394   2.793
    2V3OU   C13  845   3.049   3.374   2.850
    2V3OU   C14  846   3.073   3.267   2.937
    2V3OU   C16  847   2.973   3.183   2.985
    2V3OU    H6  848   2.986   3.108   3.064
    2V3OU   C12  849   3.209   3.226   2.979
    2V3OU    O2  850   3.233   3.122   3.044
    2V3OU   C10  851   3.323   3.308   2.935
    2V3OU    C8  852   3.451   3.268   2.974
    2V3OU   O10  853   3.482   3.147   3.026
    2V3OU   H26  854   3.403   3.113   3.072
    2V3OU    C6  855   3.564   3.346   2.932
    2V3OU    C5  856   3.535   3.461   2.859
    2V3OU    C4  857   3.702   3.290   2.935
    2V3OU    H4  858   3.720   3.224   3.024
    2V3OU    H5  859   3.705   3.230   2.839
    2V3OU    C2  860   3.813   3.396   2.934
    2V3OU    O6  861   3.801   3.470   3.056
    2V3OU   H21  862   3.760   3.549   3.015
    2V3OU    C3  863   3.778   3.491   2.820
    2V3OU    H2  864   3.855   3.569   2.797
    2V3OU    H3  865   3.780   3.436   2.722
    2V3OU   C25  866   3.948   3.325   2.919
    2V3OU    O7  867   3.999   3.293   2.812
    2V3OU   C26  868   4.024   3.286   3.045
    2V3OU   H22  869   4.053   3.381   3.096
    2V3OU   H23  870   4.115   3.226   3.017
    2V3OU    O8  871   3.963   3.201   3.139
    2V3OU   H24  872   3.921   3.257   3.206
    2V3OU    C1  873   3.644   3.561   2.837
    2V3OU    H1  874   3.619   3.614   2.740
    2V3OU    O3  875   3.655   3.653   2.946
    2V3OU   C19  876   3.617   3.789   2.923
    2V3OU    H9  877   3.517   3.796   2.872
    2V3OU    O4  878   3.709   3.848   2.834
    2V3OU   C20  879   3.840   3.870   2.887
    2V3OU   H10  880   3.898   3.777   2.911
    2V3OU   C24  881   3.606   3.854   3.062
    2V3OU   H16  882   3.533   3.797   3.125
    2V3OU   H17  883   3.561   3.954   3.040
    2V3OU   C23  884   3.746   3.873   3.121
    2V3OU   H15  885   3.787   3.768   3.137
    2V3OU    N1  886   3.735   3.953   3.242
    2V3OU   H19  887   3.805   3.920   3.305
    2V3OU   H20  888   3.646   3.936   3.285
    2V3OU   C21  889   3.848   3.939   3.023
    2V3OU   H11  890   3.952   3.925   3.063
    2V3OU    O5  891   3.824   4.079   3.019
    2V3OU   H18  892   3.782   4.099   3.104
    2V3OU   C22  893   3.903   3.950   2.774
    2V3OU   H12  894   3.849   4.047   2.763
    2V3OU   H13  895   3.903   3.889   2.680
    2V3OU   H14  896   4.013   3.965   2.794
    2V3OU   C11  897   3.158   3.468   2.823
    2V3OU    O1  898   3.131   3.584   2.784
    2V3OU    C9  899   3.295   3.422   2.855
    2V3OU    C7  900   3.404   3.498   2.816
    2V3OU    O9  901   3.383   3.616   2.748
    2V3OU   H25  902   3.286   3.623   2.741
    2V3OU   C17  903   2.822   3.307   2.841
    2V3OU    H7  904   2.726   3.346   2.810
    2V3OU   C18  905   2.847   3.205   2.932
    2V3OU    H8  906   2.775   3.166   3.006
    3SOL     OW  907   1.949   5.647   0.099
    3SOL    HW1  908   2.013   5.688   0.034
    3SOL    HW2  909   1.858   5.685   0.084
    4SOL     OW  910   6.518   0.599   2.152
    4SOL    HW1  911   6.517   0.513   2.102
    4SOL    HW2  912   6.450   0.596   2.226
    5SOL     OW  913   4.209   1.821   2.351
    5SOL    HW1  914   4.134   1.819   2.285
    5SOL    HW2  915   4.253   1.911   2.349
    6SOL     OW  916   4.071   0.854   1.708
    6SOL    HW1  917   4.003   0.817   1.644
    6SOL    HW2  918   4.148   0.791   1.714
    7SOL     OW  919   0.566   4.039   3.240
    7SOL    HW1  920   0.609   3.977   3.174
    7SOL    HW2  921   0.478   4.071   3.203
    8SOL     OW  922   3.344   0.797   5.954
    8SOL    HW1  923   3.410   0.728   5.985
    8SOL    HW2  924   3.314   0.775   5.861
    9SOL     OW  925   4.689   0.858   5.877
    9SOL    HW1  926   4.608   0.869   5.819
    9SOL    HW2  927   4.771   0.862   5.820
   10SOL     OW  928   1.769   4.955   4.920
   10SOL    HW1  929   1.868   4.959   4.924
   10SOL    HW2  930   1.741   4.867   4.880
   11SOL     OW  931   2.943   0.912   5.807
   11SOL    HW1  932   2.929   0.815   5.791
   11SOL    HW2  933   3.023   0.944   5.758
   12SOL     OW  934   3.141   5.734   3.768
   12SOL    HW1  935   3.136   5.813   3.707
   12SOL    HW2  936   3.184   5.657   3.720
   13SOL     OW  937   3.946   6.383   4.011
   13SOL    HW1  938   3.876   6.404   3.943
   13SOL    HW2  939   4.022   6.335   3.967
   14SOL     OW  940   3.909   5.215   6.287
   14SOL    HW1  941   3.915   5.296   6.344
   14SOL    HW2  942   3.993   5.205   6.233
   15SOL     OW  943   0.820   6.677   1.850
   15SOL    HW1  944   0.846   6.647   1.758
   15SOL    HW2  945   0.722   6.660   1.864
   16SOL     OW  946   5.303   2.322   6.337
   16SOL    HW1  947   5.278   2.381   6.414
   16SOL    HW2  948   5.403   2.312   6.333
   17SOL     OW  949   5.709   6.376   6.422
   17SOL    HW1  950   5.756   6.401   6.337
   17SOL    HW2  951   5.638   6.444   6.442
   18SOL     OW  952   3.345   1.302   5.337
   18SOL    HW1  953   3.311   1.278   5.246
   18SOL    HW2  954   3.443   1.283   5.342
   19SOL     OW  955   7.013   0.901   2.865
   19SOL    HW1  956   0.028   0.861   2.779
   19SOL    HW2  957   0.054   0.978   2.890
   20SOL     OW  958   4.851   1.726   4.231
   20SOL    HW1  959   4.810   1.762   4.316
   20SOL    HW2  960   4.894   1.802   4.181
   21SOL     OW  961   2.981   0.819   2.169
   21SOL    HW1  962   2.898   0.770   2.196
   21SOL    HW2  963   3.011   0.877   2.244
   22SOL     OW  964   1.109   6.321   6.960
   22SOL    HW1  965   1.186   6.384   6.948
   22SOL    HW2  966   1.101   6.262   6.880
   23SOL     OW  967   5.877   5.333   2.433
   23SOL    HW1  968   5.794   5.380   2.403
   23SOL    HW2  969   5.912   5.276   2.358
   24SOL     OW  970   3.748   0.148   3.078
   24SOL    HW1  971   3.681   0.221   3.092
   24SOL    HW2  972   3.825   0.161   3.141
   25SOL     OW  973   3.927   0.498   4.372
   25SOL    HW1  974   3.880   0.573   4.418
   25SOL    HW2  975   4.023   0.523   4.358
   26SOL     OW  976   6.919   0.586   0.291
   26SOL    HW1  977   6.995   0.651   0.300
   26SOL    HW2  978   6.841   0.619   0.346
   27SOL     OW  979   1.702   1.591   2.547
   27SOL    HW1  980   1.778   1.588   2.611
   27SOL    HW2  981   1.728   1.646   2.467
   28SOL     OW  982   2.732   1.241   5.895
   28SOL    HW1  983   2.737   1.194   5.807
   28SOL    HW2  984   2.693   1.332   5.882
   29SOL     OW  985   6.115   1.535   2.122
   29SOL    HW1  986   6.174   1.461   2.089
   29SOL    HW2  987   6.119   1.611   2.057
   30SOL     OW  988   3.750   1.210   3.506
   30SOL    HW1  989   3.779   1.129   3.456
   30SOL    HW2  990   3.655   1.199   3.536
   31SOL     OW  991   0.548   2.465   6.313
   31SOL    HW1  992   0.531   2.423   6.224
   31SOL    HW2  993   0.486   2.426   6.381
   32SOL     OW  994   0.089   1.844   3.042
   32SOL    HW1  995   0.078   1.840   2.943
   32SOL    HW2  996   0.004   1.816   3.086
   33SOL     OW  997   1.089   4.619   5.339
   33SOL    HW1  998   1.018   4.619   5.269
   33SOL    HW2  999   1.161   4.555   5.312
   34SOL     OW 1000   2.794   6.794   4.777
   34SOL    HW1 1001   2.880   6.845   4.771
   34SOL    HW2 1002   2.718   6.858   4.768
   35SOL     OW 1003   4.667   3.065   6.417
   35SOL    HW1 1004   4.599   3.110   6.475
   35SOL    HW2 1005   4.691   3.126   6.341
   36SOL     OW 1006   5.088   1.166   4.719
   36SOL    HW1 1007   5.064   1.260   4.695
   36SOL    HW2 1008   5.070   1.105   4.642
   37SOL     OW 1009   1.236   1.977   6.431
   37SOL    HW1 1010   1.272   2.050   6.489
   37SOL    HW2 1011   1.136   1.983   6.428
   38SOL     OW 1012   0.978   5.195   2.655
   38SOL    HW1 1013   1.069   5.182   2.617
   38SOL    HW2 1014   0.962   5.292   2.673
   39SOL     OW 1015   6.582   4.657   6.388
   39SOL    HW1 1016   6.591   4.603   6.304
   39SOL    HW2 1017   6.486   4.682   6.401
   40SOL     OW 1018   4.470   1.629   0.559
   40SOL    HW1 1019   4.421   1.696   0.503
   40SOL    HW2 1020   4.509   1.676   0.639
   41SOL     OW 1021   6.987   4.653   3.753
   41SOL    HW1 1022   0.061   4.691   3.769
   41SOL    HW2 1023   6.982   4.561   3.793
   42SOL     OW 1024   3.029   4.973   4.256
   42SOL    HW1 1025   3.111   5.019   4.223
   42SOL    HW2 1026   2.951   5.037   4.253
   43SOL     OW 1027   4.724   6.941   5.548
   43SOL    HW1 1028   4.630   6.926   5.518
   43SOL    HW2 1029   4.725   6.964   5.646
   44SOL     OW 1030   4.763   2.025   5.761
   44SOL    HW1 1031   4.726   2.010   5.669
   44SOL    HW2 1032   4.720   2.106   5.801
   45SOL     OW 1033   4.689   6.004   1.337
   45SOL    HW1 1034   4.606   5.993   1.283
   45SOL    HW2 1035   4.698   5.929   1.403
   46SOL     OW 1036   0.910   2.947   3.243
   46SOL    HW1 1037   0.955   3.026   3.285
   46SOL    HW2 1038   0.818   2.937   3.280
   47SOL     OW 1039   4.503   4.228   1.122
   47SOL    HW1 1040   4.563   4.210   1.044
   47SOL    HW2 1041   4.440   4.151   1.133
   48SOL     OW 1042   6.395   2.631   6.349
   48SOL    HW1 1043   6.358   2.706   6.295
   48SOL    HW2 1044   6.481   2.600   6.309
   49SOL     OW 1045   5.939   3.693   1.966
   49SOL    HW1 1046   5.979   3.739   2.046
   49SOL    HW2 1047   6.010   3.679   1.897
   50SOL     OW 1048   5.851   1.218   4.817
   50SOL    HW1 1049   5.927   1.271   4.855
   50SOL    HW2 1050   5.886   1.130   4.783
   51SOL     OW 1051   2.337   6.586   3.198
   51SOL    HW1 1052   2.415   6.625   3.147
   51SOL    HW2 1053   2.254   6.594   3.143
   52SOL     OW 1054   5.987   3.378   2.457
   52SOL    HW1 1055   5.943   3.384   2.368
   52SOL    HW2 1056   5.935   3.317   2.517
   53SOL     OW 1057   4.554   0.047   3.780
   53SOL    HW1 1058   4.576   0.032   3.876
   53SOL    HW2 1059   4.564   6.979   3.730
   54SOL     OW 1060   4.621   5.153   0.904
   54SOL    HW1 1061   4.587   5.182   0.815
   54SOL    HW2 1062   4.645   5.233   0.959
   55SOL     OW 1063   1.885   2.835   6.179
   55SOL    HW1 1064   1.787   2.816   6.186
   55SOL    HW2 1065   1.903   2.930   6.203
   56SOL     OW 1066   0.373   0.849   1.247
   56SOL    HW1 1067   0.346   0.761   1.208
   56SOL    HW2 1068   0.328   0.923   1.198
   57SOL     OW 1069   4.604   0.978   1.230
   57SOL    HW1 1070   4.582   1.073   1.210
   57SOL    HW2 1071   4.595   0.923   1.147
   58SOL     OW 1072   0.801   0.292   5.286
   58SOL    HW1 1073   0.718   0.326   5.242
   58SOL    HW2 1074   0.829   0.206   5.242
   59SOL     OW 1075   0.737   2.823   6.119
   59SOL    HW1 1076   0.654   2.837   6.065
   59SOL    HW2 1077   0.813   2.873   6.077
   60SOL     OW 1078   5.264   2.613   4.383
   60SOL    HW1 1079   5.350   2.659   4.362
   60SOL    HW2 1080   5.192   2.681   4.400
   61SOL     OW 1081   6.502   2.072   3.910
   61SOL    HW1 1082   6.555   2.056   3.827
   61SOL    HW2 1083   6.525   2.161   3.948
   62SOL     OW 1084   1.311   0.805   1.646
   62SOL    HW1 1085   1.250   0.767   1.716
   62SOL    HW2 1086   1.406   0.791   1.673
   63SOL     OW 1087   5.246   1.322   3.846
   63SOL    HW1 1088   5.205   1.238   3.881
   63SOL    HW2 1089   5.191   1.401   3.873
   64SOL     OW 1090   0.386   2.972   6.213
   64SOL    HW1 1091   0.440   2.895   6.247
   64SOL    HW2 1092   0.330   3.009   6.287
   65SOL     OW 1093   0.707   4.437   5.982
   65SOL    HW1 1094   0.734   4.380   6.060
   65SOL    HW2 1095   0.765   4.518   5.977
   66SOL     OW 1096   4.095   0.913   4.826
   66SOL    HW1 1097   4.177   0.934   4.772
   66SOL    HW2 1098   4.072   0.992   4.883
   67SOL     OW 1099   6.983   2.774   5.819
   67SOL    HW1 1100   0.003   2.752   5.729
   67SOL    HW2 1101   0.035   2.820   5.874
   68SOL     OW 1102   6.690   1.405   6.984
   68SOL    HW1 1103   6.703   1.308   6.967
   68SOL    HW2 1104   6.683   1.454   6.897
   69SOL     OW 1105   1.009   3.199   6.378
   69SOL    HW1 1106   0.962   3.275   6.422
   69SOL    HW2 1107   0.967   3.181   6.289
   70SOL     OW 1108   5.472   4.610   5.033
   70SOL    HW1 1109   5.545   4.602   4.965
   70SOL    HW2 1110   5.512   4.625   5.123
   71SOL     OW 1111   4.083   1.593   3.541
   71SOL    HW1 1112   4.152   1.578   3.613
   71SOL    HW2 1113   4.111   1.671   3.485
   72SOL     OW 1114   1.762   1.027   3.563
   72SOL    HW1 1115   1.741   1.124   3.557
   72SOL    HW2 1116   1.860   1.015   3.578
   73SOL     OW 1117   3.911   0.514   1.210
   73SOL    HW1 1118   3.989   0.570   1.238
   73SOL    HW2 1119   3.884   0.455   1.286
   74SOL     OW 1120   4.006   0.786   0.302
   74SOL    HW1 1121   3.950   0.731   0.240
   74SOL    HW2 1122   4.069   0.726   0.352
   75SOL     OW 1123   4.627   0.836   1.005
   75SOL    HW1 1124   4.568   0.893   0.948
   75SOL    HW2 1125   4.606   0.740   0.989
   76SOL     OW 1126   3.044   3.593   1.057
   76SOL    HW1 1127   3.033   3.688   1.084
   76SOL    HW2 1128   2.960   3.561   1.012
   77SOL     OW 1129   0.817   0.380   3.805
   77SOL    HW1 1130   0.906   0.426   3.800
   77SOL    HW2 1131   0.797   0.336   3.717
   78SOL     OW 1132   5.502   1.618   0.409
   78SOL    HW1 1133   5.477   1.628   0.313
   78SOL    HW2 1134   5.592   1.660   0.424
   79SOL     OW 1135   3.182   6.052   1.239
   79SOL    HW1 1136   3.280   6.065   1.227
   79SOL    HW2 1137   3.134   6.084   1.158
   80SOL     OW 1138   4.155   1.357   3.834
   80SOL    HW1 1139   4.150   1.312   3.745
   80SOL    HW2 1140   4.205   1.444   3.825
   81SOL     OW 1141   2.344   0.153   2.518
   81SOL    HW1 1142   2.262   0.168   2.463
   81SOL    HW2 1143   2.334   0.068   2.571
   82SOL     OW 1144   6.173   4.858   0.514
   82SOL    HW1 1145   6.088   4.903   0.542
   82SOL    HW2 1146   6.186   4.868   0.415
   83SOL     OW 1147   6.952   0.109   0.478
   83SOL    HW1 1148   6.922   0.165   0.400
   83SOL    HW2 1149   0.021   0.065   0.455
   84SOL     OW 1150   5.902   3.193   2.649
   84SOL    HW1 1151   5.816   3.205   2.697
   84SOL    HW2 1152   5.903   3.103   2.604
   85SOL     OW 1153   1.649   1.569   4.126
   85SOL    HW1 1154   1.695   1.499   4.180
   85SOL    HW2 1155   1.561   1.590   4.167
   86SOL     OW 1156   0.714   1.561   6.504
   86SOL    HW1 1157   0.663   1.638   6.543
   86SOL    HW2 1158   0.788   1.595   6.447
   87SOL     OW 1159   4.985   4.366   1.049
   87SOL    HW1 1160   4.954   4.276   1.018
   87SOL    HW2 1161   5.082   4.377   1.027
   88SOL     OW 1162   3.078   1.675   6.444
   88SOL    HW1 1163   3.042   1.757   6.401
   88SOL    HW2 1164   3.060   1.679   6.543
   89SOL     OW 1165   2.498   2.320   6.892
   89SOL    HW1 1166   2.506   2.288   6.797
   89SOL    HW2 1167   2.401   2.331   6.915
   90SOL     OW 1168   4.119   5.348   1.573
   90SOL    HW1 1169   4.081   5.260   1.545
   90SOL    HW2 1170   4.178   5.334   1.653
   91SOL     OW 1171   5.985   3.969   6.262
   91SOL    HW1 1172   6.068   3.913   6.268
   91SOL    HW2 1173   5.992   4.046   6.325
   92SOL     OW 1174   4.470   4.495   1.187
   92SOL    HW1 1175   4.383   4.538   1.163
   92SOL    HW2 1176   4.461   4.396   1.180
   93SOL     OW 1177   3.542   3.577   0.793
   93SOL    HW1 1178   3.533   3.554   0.696
   93SOL    HW2 1179   3.628   3.625   0.808
   94SOL     OW 1180   2.533   5.575   6.271
   94SOL    HW1 1181   2.481   5.489   6.269
   94SOL    HW2 1182   2.592   5.575   6.352
   95SOL     OW 1183   1.351   0.321   2.744
   95SOL    HW1 1184   1.298   0.381   2.684
   95SOL    HW2 1185   1.289   0.261   2.794
   96SOL     OW 1186   3.791   0.114   5.188
   96SOL    HW1 1187   3.811   0.180   5.116
   96SOL    HW2 1188   3.821   0.151   5.276
   97SOL     OW 1189   2.293   2.946   5.904
   97SOL    HW1 1190   2.319   2.983   5.993
   97SOL    HW2 1191   2.314   3.012   5.833
   98SOL     OW 1192   1.368   2.609   0.426
   98SOL    HW1 1193   1.413   2.598   0.515
   98SOL    HW2 1194   1.342   2.705   0.414
   99SOL     OW 1195   3.969   2.897   1.579
   99SOL    HW1 1196   4.032   2.970   1.550
   99SOL    HW2 1197   3.902   2.880   1.507
  100SOL     OW 1198   0.849   6.687   3.791
  100SOL    HW1 1199   0.924   6.743   3.825
  100SOL    HW2 1200   0.855   6.595   3.829
  101SOL     OW 1201   1.778   4.495   2.216
  101SOL    HW1 1202   1.765   4.437   2.297
  101SOL    HW2 1203   1.844   4.452   2.154
  102SOL     OW 1204   3.351   5.439   1.685
  102SOL    HW1 1205   3.393   5.390   1.761
  102SOL    HW2 1206   3.321   5.530   1.716
  103SOL     OW 1207   2.334   1.587   2.275
  103SOL    HW1 1208   2.405   1.592   2.344
  103SOL    HW2 1209   2.355   1.511   2.212
  104SOL     OW 1210   1.257   5.549   2.900
  104SOL    HW1 1211   1.178   5.495   2.931
  104SOL    HW2 1212   1.292   5.603   2.976
  105SOL     OW 1213   6.084   1.120   6.437
  105SOL    HW1 1214   6.056   1.046   6.376
  105SOL    HW2 1215   6.128   1.192   6.385
  106SOL     OW 1216   3.628   6.008   4.064
  106SOL    HW1 1217   3.640   5.979   3.969
  106SOL    HW2 1218   3.717   6.029   4.103
  107SOL     OW 1219   1.065   1.153   0.105
  107SOL    HW1 1220   0.985   1.137   0.162
  107SOL    HW2 1221   1.142   1.183   0.163
  108SOL     OW 1222   3.778   0.212   5.589
  108SOL    HW1 1223   3.812   0.279   5.656
  108SOL    HW2 1224   3.770   0.122   5.634
  109SOL     OW 1225   1.658   1.172   2.551
  109SOL    HW1 1226   1.596   1.094   2.546
  109SOL    HW2 1227   1.717   1.173   2.471
  110SOL     OW 1228   3.000   5.343   4.075
  110SOL    HW1 1229   3.058   5.423   4.089
  110SOL    HW2 1230   3.027   5.270   4.138
  111SOL     OW 1231   1.968   1.283   4.055
  111SOL    HW1 1232   2.017   1.209   4.009
  111SOL    HW2 1233   2.029   1.361   4.066
  112SOL     OW 1234   3.367   5.924   6.896
  112SOL    HW1 1235   3.300   5.897   6.965
  112SOL    HW2 1236   3.333   6.003   6.845
  113SOL     OW 1237   1.363   5.770   2.566
  113SOL    HW1 1238   1.290   5.831   2.536
  113SOL    HW2 1239   1.352   5.680   2.524
  114SOL     OW 1240   0.661   6.352   1.673
  114SOL    HW1 1241   0.734   6.365   1.741
  114SOL    HW2 1242   0.649   6.255   1.656
  115SOL     OW 1243   4.551   1.595   3.023
  115SOL    HW1 1244   4.637   1.645   3.012
  115SOL    HW2 1245   4.557   1.507   2.977
  116SOL     OW 1246   6.527   6.045   1.345
  116SOL    HW1 1247   6.529   6.136   1.303
  116SOL    HW2 1248   6.611   6.031   1.398
  117SOL     OW 1249   1.154   1.737   1.406
  117SOL    HW1 1250   1.167   1.722   1.308
  117SOL    HW2 1251   1.145   1.649   1.452
  118SOL     OW 1252   1.568   0.803   2.229
  118SOL    HW1 1253   1.548   0.705   2.232
  118SOL    HW2 1254   1.646   0.822   2.289
  119SOL     OW 1255   0.388   0.444   0.156
  119SOL    HW1 1256   0.324   0.392   0.100
  119SOL    HW2 1257   0.416   0.527   0.108
  120SOL     OW 1258   5.125   1.590   5.852
  120SOL    HW1 1259   5.033   1.571   5.885
  120SOL    HW2 1260   5.127   1.679   5.806
  121SOL     OW 1261   2.204   2.490   0.373
  121SOL    HW1 1262   2.118   2.542   0.365
  121SOL    HW2 1263   2.281   2.549   0.350
  122SOL     OW 1264   1.188   3.766   7.016
  122SOL    HW1 1265   1.219   3.674   0.020
  122SOL    HW2 1266   1.258   3.813   6.961
  123SOL     OW 1267   0.743   1.466   2.732
  123SOL    HW1 1268   0.806   1.395   2.763
  123SOL    HW2 1269   0.763   1.551   2.781
  124SOL     OW 1270   3.669   2.582   0.716
  124SOL    HW1 1271   3.642   2.490   0.741
  124SOL    HW2 1272   3.592   2.645   0.729
  125SOL     OW 1273   4.189   2.337   0.348
  125SOL    HW1 1274   4.092   2.336   0.375
  125SOL    HW2 1275   4.210   2.423   0.302
  126SOL     OW 1276   3.332   3.780   1.672
  126SOL    HW1 1277   3.430   3.786   1.692
  126SOL    HW2 1278   3.307   3.852   1.608
  127SOL     OW 1279   0.943   5.298   6.436
  127SOL    HW1 1280   1.000   5.217   6.448
  127SOL    HW2 1281   0.904   5.325   6.524
  128SOL     OW 1282   4.730   2.910   1.124
  128SOL    HW1 1283   4.690   2.902   1.215
  128SOL    HW2 1284   4.659   2.893   1.055
  129SOL     OW 1285   3.279   3.803   6.502
  129SOL    HW1 1286   3.181   3.787   6.514
  129SOL    HW2 1287   3.312   3.749   6.424
  130SOL     OW 1288   1.330   1.611   4.188
  130SOL    HW1 1289   1.316   1.516   4.216
  130SOL    HW2 1290   1.301   1.623   4.093
  131SOL     OW 1291   4.554   0.364   3.248
  131SOL    HW1 1292   4.602   0.281   3.275
  131SOL    HW2 1293   4.469   0.373   3.301
  132SOL     OW 1294   2.960   2.733   1.753
  132SOL    HW1 1295   3.056   2.761   1.757
  132SOL    HW2 1296   2.949   2.648   1.805
  133SOL     OW 1297   5.387   0.901   4.297
  133SOL    HW1 1298   5.334   0.975   4.338
  133SOL    HW2 1299   5.389   0.913   4.198
  134SOL     OW 1300   6.943   1.119   2.573
  134SOL    HW1 1301   6.867   1.079   2.625
  134SOL    HW2 1302   6.913   1.136   2.479
  135SOL     OW 1303   5.250   3.725   3.788
  135SOL    HW1 1304   5.204   3.676   3.714
  135SOL    HW2 1305   5.315   3.791   3.750
  136SOL     OW 1306   1.815   5.402   5.232
  136SOL    HW1 1307   1.778   5.372   5.320
  136SOL    HW2 1308   1.802   5.501   5.222
  137SOL     OW 1309   4.878   1.980   3.033
  137SOL    HW1 1310   4.913   2.074   3.033
  137SOL    HW2 1311   4.783   1.980   3.004
  138SOL     OW 1312   1.325   3.607   2.761
  138SOL    HW1 1313   1.315   3.532   2.695
  138SOL    HW2 1314   1.364   3.687   2.715
  139SOL     OW 1315   1.524   6.729   5.242
  139SOL    HW1 1316   1.430   6.764   5.244
  139SOL    HW2 1317   1.528   6.641   5.289
  140SOL     OW 1318   1.789   0.183   3.913
  140SOL    HW1 1319   1.764   0.243   3.990
  140SOL    HW2 1320   1.740   0.214   3.831
  141SOL     OW 1321   0.442   2.648   4.892
  141SOL    HW1 1322   0.456   2.587   4.814
  141SOL    HW2 1323   0.351   2.687   4.888
  142SOL     OW 1324   1.577   4.288   1.923
  142SOL    HW1 1325   1.650   4.234   1.878
  142SOL    HW2 1326   1.493   4.235   1.924
  143SOL     OW 1327   6.072   4.797   0.034
  143SOL    HW1 1328   6.129   4.847   6.987
  143SOL    HW2 1329   5.997   4.752   7.002
  144SOL     OW 1330   1.765   4.644   5.733
  144SOL    HW1 1331   1.731   4.655   5.640
  144SOL    HW2 1332   1.739   4.553   5.768
  145SOL     OW 1333   1.757   4.777   1.833
  145SOL    HW1 1334   1.688   4.846   1.812
  145SOL    HW2 1335   1.732   4.730   1.918
  146SOL     OW 1336   5.382   6.871   5.801
  146SOL    HW1 1337   5.391   6.970   5.803
  146SOL    HW2 1338   5.472   6.829   5.815
  147SOL     OW 1339   5.260   2.410   6.070
  147SOL    HW1 1340   5.306   2.365   6.146
  147SOL    HW2 1341   5.231   2.502   6.097
  148SOL     OW 1342   0.094   4.992   0.743
  148SOL    HW1 1343   0.114   4.932   0.665
  148SOL    HW2 1344   0.023   4.951   0.799
  149SOL     OW 1345   3.588   2.090   4.271
  149SOL    HW1 1346   3.561   2.095   4.175
  149SOL    HW2 1347   3.537   2.017   4.317
  150SOL     OW 1348   5.502   6.770   0.304
  150SOL    HW1 1349   5.490   6.867   0.284
  150SOL    HW2 1350   5.573   6.732   0.244
  151SOL     OW 1351   3.106   1.008   1.590
  151SOL    HW1 1352   3.095   0.919   1.546
  151SOL    HW2 1353   3.017   1.054   1.593
  152SOL     OW 1354   6.998   1.053   1.177
  152SOL    HW1 1355   0.073   1.088   1.190
  152SOL    HW2 1356   6.954   1.039   1.265
  153SOL     OW 1357   2.819   0.102   3.575
  153SOL    HW1 1358   2.860   0.017   3.609
  153SOL    HW2 1359   2.855   0.179   3.628
  154SOL     OW 1360   1.123   3.472   1.003
  154SOL    HW1 1361   1.028   3.495   1.021
  154SOL    HW2 1362   1.147   3.389   1.055
  155SOL     OW 1363   0.770   1.427   5.206
  155SOL    HW1 1364   0.763   1.439   5.305
  155SOL    HW2 1365   0.679   1.415   5.167
  156SOL     OW 1366   6.997   0.327   0.813
  156SOL    HW1 1367   6.992   0.235   0.774
  156SOL    HW2 1368   6.911   0.375   0.798
  157SOL     OW 1369   5.815   3.477   1.061
  157SOL    HW1 1370   5.800   3.533   0.980
  157SOL    HW2 1371   5.773   3.522   1.140
  158SOL     OW 1372   1.074   3.125   1.724
  158SOL    HW1 1373   1.104   3.076   1.806
  158SOL    HW2 1374   1.140   3.110   1.650
  159SOL     OW 1375   4.695   5.424   1.749
  159SOL    HW1 1376   4.632   5.487   1.794
  159SOL    HW2 1377   4.719   5.459   1.658
  160SOL     OW 1378   5.800   6.476   0.940
  160SOL    HW1 1379   5.843   6.543   0.879
  160SOL    HW2 1380   5.760   6.523   1.019
  161SOL     OW 1381   1.085   6.689   3.599
  161SOL    HW1 1382   1.101   6.761   3.532
  161SOL    HW2 1383   1.002   6.640   3.576
  162SOL     OW 1384   4.073   6.309   0.255
  162SOL    HW1 1385   4.123   6.292   0.340
  162SOL    HW2 1386   4.125   6.273   0.177
  163SOL     OW 1387   6.990   5.899   2.302
  163SOL    HW1 1388   6.894   5.915   2.325
  163SOL    HW2 1389   0.031   5.955   2.361
  164SOL     OW 1390   0.717   4.270   3.322
  164SOL    HW1 1391   0.659   4.196   3.287
  164SOL    HW2 1392   0.796   4.231   3.368
  165SOL     OW 1393   4.647   4.170   0.902
  165SOL    HW1 1394   4.740   4.134   0.909
  165SOL    HW2 1395   4.649   4.256   0.850
  166SOL     OW 1396   1.128   3.013   1.968
  166SOL    HW1 1397   1.163   2.957   2.043
  166SOL    HW2 1398   1.147   3.110   1.986
  167SOL     OW 1399   5.535   2.487   0.157
  167SOL    HW1 1400   5.597   2.541   0.214
  167SOL    HW2 1401   5.582   2.406   0.123
  168SOL     OW 1402   3.611   2.277   0.773
  168SOL    HW1 1403   3.707   2.280   0.746
  168SOL    HW2 1404   3.582   2.183   0.785
  169SOL     OW 1405   6.338   2.023   1.501
  169SOL    HW1 1406   6.254   1.968   1.500
  169SOL    HW2 1407   6.415   1.967   1.471
  170SOL     OW 1408   6.828   6.882   2.313
  170SOL    HW1 1409   6.833   6.974   2.350
  170SOL    HW2 1410   6.850   6.816   2.385
  171SOL     OW 1411   2.807   4.387   6.811
  171SOL    HW1 1412   2.756   4.371   6.727
  171SOL    HW2 1413   2.888   4.443   6.791
  172SOL     OW 1414   6.024   1.559   2.784
  172SOL    HW1 1415   6.000   1.461   2.782
  172SOL    HW2 1416   6.115   1.572   2.744
  173SOL     OW 1417   6.194   1.006   3.540
  173SOL    HW1 1418   6.148   1.087   3.503
  173SOL    HW2 1419   6.250   0.964   3.469
  174SOL     OW 1420   4.196   5.581   3.775
  174SOL    HW1 1421   4.228   5.592   3.681
  174SOL    HW2 1422   4.104   5.543   3.774
  175SOL     OW 1423   3.091   0.442   1.877
  175SOL    HW1 1424   3.165   0.509   1.869
  175SOL    HW2 1425   3.127   0.355   1.908
  176SOL     OW 1426   6.962   4.631   1.861
  176SOL    HW1 1427   6.896   4.633   1.936
  176SOL    HW2 1428   6.918   4.592   1.779
  177SOL     OW 1429   5.797   3.483   4.092
  177SOL    HW1 1430   5.716   3.542   4.099
  177SOL    HW2 1431   5.848   3.486   4.178
  178SOL     OW 1432   3.498   4.182   5.598
  178SOL    HW1 1433   3.491   4.224   5.508
  178SOL    HW2 1434   3.552   4.098   5.592
  179SOL     OW 1435   4.180   1.131   5.776
  179SOL    HW1 1436   4.148   1.150   5.869
  179SOL    HW2 1437   4.134   1.049   5.741
  180SOL     OW 1438   1.952   6.712   0.850
  180SOL    HW1 1439   1.991   6.800   0.821
  180SOL    HW2 1440   1.982   6.640   0.787
  181SOL     OW 1441   3.452   3.586   6.430
  181SOL    HW1 1442   3.543   3.573   6.469
  181SOL    HW2 1443   3.390   3.515   6.466
  182SOL     OW 1444   3.926   1.653   6.046
  182SOL    HW1 1445   3.920   1.616   5.953
  182SOL    HW2 1446   3.971   1.742   6.043
  183SOL     OW 1447   3.264   1.729   3.608
  183SOL    HW1 1448   3.346   1.779   3.582
  183SOL    HW2 1449   3.189   1.753   3.546
  184SOL     OW 1450   0.620   6.312   3.892
  184SOL    HW1 1451   0.595   6.253   3.815
  184SOL    HW2 1452   0.557   6.391   3.894
  185SOL     OW 1453   1.156   1.083   5.005
  185SOL    HW1 1454   1.097   1.158   5.032
  185SOL    HW2 1455   1.162   1.078   4.905
  186SOL     OW 1456   6.195   1.453   4.012
  186SOL    HW1 1457   6.225   1.477   3.920
  186SOL    HW2 1458   6.098   1.430   4.010
  187SOL     OW 1459   4.866   6.381   2.687
  187SOL    HW1 1460   4.828   6.416   2.602
  187SOL    HW2 1461   4.801   6.396   2.762
  188SOL     OW 1462   1.567   3.089   3.115
  188SOL    HW1 1463   1.470   3.065   3.104
  188SOL    HW2 1464   1.608   3.032   3.186
  189SOL     OW 1465   2.129   5.602   0.529
  189SOL    HW1 1466   2.116   5.637   0.437
  189SOL    HW2 1467   2.099   5.506   0.533
  190SOL     OW 1468   5.983   3.460   5.519
  190SOL    HW1 1469   6.026   3.493   5.435
  190SOL    HW2 1470   5.923   3.383   5.498
  191SOL     OW 1471   5.792   0.521   6.916
  191SOL    HW1 1472   5.710   0.464   6.923
  191SOL    HW2 1473   5.813   0.560   7.006
  192SOL     OW 1474   0.913   5.265   2.361
  192SOL    HW1 1475   0.833   5.311   2.398
  192SOL    HW2 1476   0.886   5.173   2.330
  193SOL     OW 1477   4.450   3.652   5.309
  193SOL    HW1 1478   4.416   3.558   5.319
  193SOL    HW2 1479   4.542   3.649   5.270
  194SOL     OW 1480   4.433   6.761   2.995
  194SOL    HW1 1481   4.336   6.776   3.017
  194SOL    HW2 1482   4.456   6.665   3.013
  195SOL     OW 1483   1.354   0.591   4.310
  195SOL    HW1 1484   1.399   0.614   4.224
  195SOL    HW2 1485   1.378   0.497   4.335
  196SOL     OW 1486   2.389   0.065   0.056
  196SOL    HW1 1487   2.466   0.117   0.093
  196SOL    HW2 1488   2.401   6.986   0.080
  197SOL     OW 1489   2.606   0.068   1.488
  197SOL    HW1 1490   2.645   0.141   1.433
  197SOL    HW2 1491   2.567   7.016   1.427
  198SOL     OW 1492   5.048   0.104   1.896
  198SOL    HW1 1493   5.046   0.087   1.798
  198SOL    HW2 1494   5.102   0.186   1.914
  199SOL     OW 1495   6.311   1.205   3.805
  199SOL    HW1 1496   6.319   1.300   3.774
  199SOL    HW2 1497   6.321   1.144   3.727
  200SOL     OW 1498   1.105   4.473   1.677
  200SOL    HW1 1499   1.147   4.520   1.755
  200SOL    HW2 1500   1.177   4.431   1.621
  201SOL     OW 1501   6.610   0.145   6.170
  201SOL    HW1 1502   6.621   0.055   6.212
  201SOL    HW2 1503   6.528   0.189   6.207
  202SOL     OW 1504   5.169   0.701   5.566
  202SOL    HW1 1505   5.242   0.739   5.622
  202SOL    HW2 1506   5.204   0.623   5.514
  203SOL     OW 1507   4.333   2.392   3.976
  203SOL    HW1 1508   4.389   2.318   3.939
  203SOL    HW2 1509   4.282   2.359   4.056
  204SOL     OW 1510   0.099   0.979   6.146
  204SOL    HW1 1511   0.131   0.917   6.074
  204SOL    HW2 1512   0.092   0.929   6.232
  205SOL     OW 1513   0.530   0.731   3.578
  205SOL    HW1 1514   0.614   0.730   3.632
  205SOL    HW2 1515   0.503   0.826   3.560
  206SOL     OW 1516   0.560   5.045   2.114
  206SOL    HW1 1517   0.532   5.131   2.155
  206SOL    HW2 1518   0.514   5.033   2.026
  207SOL     OW 1519   5.108   0.881   3.872
  207SOL    HW1 1520   5.170   0.805   3.893
  207SOL    HW2 1521   5.047   0.897   3.950
  208SOL     OW 1522   5.524   3.247   5.335
  208SOL    HW1 1523   5.478   3.262   5.247
  208SOL    HW2 1524   5.530   3.149   5.353
  209SOL     OW 1525   0.503   4.869   4.776
  209SOL    HW1 1526   0.426   4.835   4.722
  209SOL    HW2 1527   0.586   4.819   4.752
  210SOL     OW 1528   4.432   2.311   1.157
  210SOL    HW1 1529   4.376   2.365   1.095
  210SOL    HW2 1530   4.487   2.372   1.214
  211SOL     OW 1531   2.484   6.402   3.610
  211SOL    HW1 1532   2.396   6.421   3.568
  211SOL    HW2 1533   2.555   6.457   3.565
  212SOL     OW 1534   1.903   4.825   1.513
  212SOL    HW1 1535   1.939   4.806   1.421
  212SOL    HW2 1536   1.803   4.830   1.509
  213SOL     OW 1537   3.693   0.706   6.061
  213SOL    HW1 1538   3.688   0.607   6.045
  213SOL    HW2 1539   3.670   0.727   6.156
  214SOL     OW 1540   4.526   5.617   1.980
  214SOL    HW1 1541   4.613   5.614   2.029
  214SOL    HW2 1542   4.499   5.712   1.966
  215SOL     OW 1543   2.139   3.421   0.893
  215SOL    HW1 1544   2.224   3.422   0.840
  215SOL    HW2 1545   2.066   3.465   0.841
  216SOL     OW 1546   2.149   5.953   4.345
  216SOL    HW1 1547   2.205   5.994   4.274
  216SOL    HW2 1548   2.197   5.874   4.384
  217SOL     OW 1549   2.104   2.660   3.670
  217SOL    HW1 1550   2.174   2.710   3.619
  217SOL    HW2 1551   2.146   2.586   3.722
  218SOL     OW 1552   1.236   3.036   4.830
  218SOL    HW1 1553   1.313   2.973   4.839
  218SOL    HW2 1554   1.195   3.051   4.920
  219SOL     OW 1555   3.971   6.404   6.070
  219SOL    HW1 1556   3.879   6.419   6.034
  219SOL    HW2 1557   4.016   6.492   6.082
  220SOL     OW 1558   3.616   6.695   0.773
  220SOL    HW1 1559   3.577   6.624   0.715
  220SOL    HW2 1560   3.647   6.771   0.716
  221SOL     OW 1561   6.416   3.387   2.550
  221SOL    HW1 1562   6.465   3.306   2.518
  221SOL    HW2 1563   6.472   3.436   2.617
  222SOL     OW 1564   2.824   5.044   5.920
  222SOL    HW1 1565   2.731   5.065   5.888
  222SOL    HW2 1566   2.874   4.997   5.848
  223SOL     OW 1567   5.895   3.268   0.895
  223SOL    HW1 1568   5.813   3.263   0.837
  223SOL    HW2 1569   5.880   3.337   0.966
  224SOL     OW 1570   2.204   2.150   4.400
  224SOL    HW1 1571   2.249   2.061   4.412
  224SOL    HW2 1572   2.154   2.150   4.313
  225SOL     OW 1573   5.126   2.303   5.849
  225SOL    HW1 1574   5.031   2.335   5.852
  225SOL    HW2 1575   5.177   2.343   5.925
  226SOL     OW 1576   1.681   0.623   6.262
  226SOL    HW1 1577   1.648   0.533   6.235
  226SOL    HW2 1578   1.722   0.617   6.353
  227SOL     OW 1579   1.660   3.676   3.268
  227SOL    HW1 1580   1.616   3.623   3.340
  227SOL    HW2 1581   1.603   3.675   3.186
  228SOL     OW 1582   3.561   6.254   3.286
  228SOL    HW1 1583   3.559   6.186   3.359
  228SOL    HW2 1584   3.554   6.208   3.198
  229SOL     OW 1585   5.013   5.989   6.612
  229SOL    HW1 1586   4.981   5.898   6.584
  229SOL    HW2 1587   5.052   5.984   6.704
  230SOL     OW 1588   3.318   4.945   2.751
  230SOL    HW1 1589   3.272   4.905   2.831
  230SOL    HW2 1590   3.289   5.040   2.740
  231SOL     OW 1591   5.994   1.998   6.714
  231SOL    HW1 1592   5.984   1.994   6.615
  231SOL    HW2 1593   5.937   1.928   6.756
  232SOL     OW 1594   1.522   4.035   6.009
  232SOL    HW1 1595   1.455   4.104   5.981
  232SOL    HW2 1596   1.562   4.062   6.097
  233SOL     OW 1597   2.145   2.212   4.136
  233SOL    HW1 1598   2.211   2.173   4.073
  233SOL    HW2 1599   2.125   2.307   4.109
  234SOL     OW 1600   4.587   6.522   5.152
  234SOL    HW1 1601   4.643   6.603   5.167
  234SOL    HW2 1602   4.592   6.495   5.056
  235SOL     OW 1603   3.658   3.010   1.656
  235SOL    HW1 1604   3.607   3.078   1.707
  235SOL    HW2 1605   3.721   2.962   1.717
  236SOL     OW 1606   5.366   2.834   6.532
  236SOL    HW1 1607   5.391   2.875   6.619
  236SOL    HW2 1608   5.393   2.737   6.532
  237SOL     OW 1609   6.239   5.548   1.984
  237SOL    HW1 1610   6.338   5.540   1.978
  237SOL    HW2 1611   6.196   5.490   1.915
  238SOL     OW 1612   5.524   2.202   0.085
  238SOL    HW1 1613   5.624   2.201   0.092
  238SOL    HW2 1614   5.484   2.145   0.156
  239SOL     OW 1615   0.149   5.694   6.143
  239SOL    HW1 1616   0.169   5.624   6.074
  239SOL    HW2 1617   0.069   5.665   6.196
  240SOL     OW 1618   0.495   2.524   4.657
  240SOL    HW1 1619   0.560   2.459   4.618
  240SOL    HW2 1620   0.417   2.474   4.696
  241SOL     OW 1621   1.821   6.821   4.912
  241SOL    HW1 1622   1.864   6.838   4.823
  241SOL    HW2 1623   1.881   6.764   4.968
  242SOL     OW 1624   2.548   3.332   5.597
  242SOL    HW1 1625   2.551   3.272   5.677
  242SOL    HW2 1626   2.527   3.278   5.515
  243SOL     OW 1627   5.065   0.707   5.990
  243SOL    HW1 1628   5.144   0.767   5.976
  243SOL    HW2 1629   5.033   0.673   5.901
  244SOL     OW 1630   5.390   2.658   5.020
  244SOL    HW1 1631   5.305   2.678   4.969
  244SOL    HW2 1632   5.449   2.599   4.965
  245SOL     OW 1633   6.812   3.253   5.421
  245SOL    HW1 1634   6.782   3.221   5.331
  245SOL    HW2 1635   6.910   3.270   5.420
  246SOL     OW 1636   5.028   2.658   3.393
  246SOL    HW1 1637   4.960   2.679   3.323
  246SOL    HW2 1638   5.021   2.724   3.468
  247SOL     OW 1639   2.820   1.019   1.871
  247SOL    HW1 1640   2.868   1.074   1.803
  247SOL    HW2 1641   2.795   1.076   1.949
  248SOL     OW 1642   3.809   2.109   3.037
  248SOL    HW1 1643   3.720   2.142   3.068
  248SOL    HW2 1644   3.796   2.038   2.967
  249SOL     OW 1645   4.759   0.066   5.780
  249SOL    HW1 1646   4.767   0.150   5.726
  249SOL    HW2 1647   4.663   0.045   5.796
  250SOL     OW 1648   5.764   2.733   1.167
  250SOL    HW1 1649   5.822   2.790   1.226
  250SOL    HW2 1650   5.733   2.653   1.217
  251SOL     OW 1651   4.747   4.083   5.718
  251SOL    HW1 1652   4.800   4.000   5.733
  251SOL    HW2 1653   4.663   4.061   5.668
  252SOL     OW 1654   6.343   0.173   6.272
  252SOL    HW1 1655   6.323   0.222   6.357
  252SOL    HW2 1656   6.309   0.079   6.279
  253SOL     OW 1657   2.082   4.310   6.829
  253SOL    HW1 1658   2.127   4.305   6.918
  253SOL    HW2 1659   2.134   4.256   6.763
  254SOL     OW 1660   5.456   3.133   2.750
  254SOL    HW1 1661   5.359   3.123   2.731
  254SOL    HW2 1662   5.495   3.044   2.773
  255SOL     OW 1663   2.025   3.050   4.356
  255SOL    HW1 1664   2.039   3.149   4.359
  255SOL    HW2 1665   1.929   3.030   4.371
  256SOL     OW 1666   5.927   4.782   6.410
  256SOL    HW1 1667   5.935   4.761   6.313
  256SOL    HW2 1668   5.949   4.879   6.425
  257SOL     OW 1669   4.616   0.084   4.075
  257SOL    HW1 1670   4.538   0.070   4.136
  257SOL    HW2 1671   4.653   0.176   4.089
  258SOL     OW 1672   0.180   4.813   4.955
  258SOL    HW1 1673   0.127   4.762   5.023
  258SOL    HW2 1674   0.135   4.901   4.938
  259SOL     OW 1675   1.746   2.015   2.173
  259SOL    HW1 1676   1.825   1.977   2.124
  259SOL    HW2 1677   1.775   2.098   2.221
  260SOL     OW 1678   4.354   0.723   0.863
  260SOL    HW1 1679   4.396   0.634   0.846
  260SOL    HW2 1680   4.264   0.710   0.906
  261SOL     OW 1681   6.892   3.786   0.786
  261SOL    HW1 1682   6.896   3.879   0.747
  261SOL    HW2 1683   6.804   3.773   0.831
  262SOL     OW 1684   0.231   4.189   0.785
  262SOL    HW1 1685   0.274   4.131   0.854
  262SOL    HW2 1686   0.292   4.264   0.761
  263SOL     OW 1687   0.636   1.243   3.937
  263SOL    HW1 1688   0.543   1.268   3.913
  263SOL    HW2 1689   0.647   1.144   3.929
  264SOL     OW 1690   4.664   3.365   5.647
  264SOL    HW1 1691   4.621   3.287   5.601
  264SOL    HW2 1692   4.629   3.371   5.741
  265SOL     OW 1693   4.815   4.527   3.159
  265SOL    HW1 1694   4.725   4.485   3.156
  265SOL    HW2 1695   4.853   4.531   3.066
  266SOL     OW 1696   3.874   3.425   6.006
  266SOL    HW1 1697   3.880   3.364   6.084
  266SOL    HW2 1698   3.780   3.459   5.997
  267SOL     OW 1699   6.053   2.317   6.000
  267SOL    HW1 1700   6.135   2.272   6.033
  267SOL    HW2 1701   6.078   2.395   5.943
  268SOL     OW 1702   4.430   0.279   4.840
  268SOL    HW1 1703   4.382   0.191   4.839
  268SOL    HW2 1704   4.404   0.330   4.922
  269SOL     OW 1705   1.689   3.422   1.371
  269SOL    HW1 1706   1.658   3.482   1.297
  269SOL    HW2 1707   1.689   3.472   1.457
  270SOL     OW 1708   6.790   0.091   1.273
  270SOL    HW1 1709   6.753   0.047   1.355
  270SOL    HW2 1710   6.802   0.022   1.201
  271SOL     OW 1711   3.105   1.261   0.718
  271SOL    HW1 1712   3.027   1.295   0.770
  271SOL    HW2 1713   3.084   1.264   0.620
  272SOL     OW 1714   3.226   5.113   4.127
  272SOL    HW1 1715   3.161   5.102   4.052
  272SOL    HW2 1716   3.319   5.115   4.091
  273SOL     OW 1717   2.391   5.223   4.763
  273SOL    HW1 1718   2.472   5.170   4.790
  273SOL    HW2 1719   2.413   5.279   4.683
  274SOL     OW 1720   4.740   2.738   3.945
  274SOL    HW1 1721   4.661   2.677   3.932
  274SOL    HW2 1722   4.811   2.691   3.998
  275SOL     OW 1723   5.781   5.444   5.872
  275SOL    HW1 1724   5.877   5.424   5.888
  275SOL    HW2 1725   5.751   5.517   5.933
  276SOL     OW 1726   0.323   5.484   3.103
  276SOL    HW1 1727   0.338   5.400   3.155
  276SOL    HW2 1728   0.407   5.510   3.056
  277SOL     OW 1729   2.480   3.170   0.823
  277SOL    HW1 1730   2.442   3.252   0.781
  277SOL    HW2 1731   2.407   3.114   0.860
  278SOL     OW 1732   0.324   5.308   1.936
  278SOL    HW1 1733   0.397   5.320   2.003
  278SOL    HW2 1734   0.251   5.252   1.976
  279SOL     OW 1735   0.190   3.209   4.186
  279SOL    HW1 1736   0.288   3.221   4.169
  279SOL    HW2 1737   0.139   3.257   4.115
  280SOL     OW 1738   1.957   6.839   3.118
  280SOL    HW1 1739   1.953   6.758   3.176
  280SOL    HW2 1740   2.029   6.901   3.151
  281SOL     OW 1741   3.601   4.943   2.145
  281SOL    HW1 1742   3.525   5.004   2.165
  281SOL    HW2 1743   3.575   4.881   2.070
  282SOL     OW 1744   4.195   1.856   5.378
  282SOL    HW1 1745   4.155   1.945   5.357
  282SOL    HW2 1746   4.143   1.812   5.450
  283SOL     OW 1747   6.428   1.380   6.041
  283SOL    HW1 1748   6.423   1.367   6.140
  283SOL    HW2 1749   6.450   1.293   5.997
  284SOL     OW 1750   0.315   4.225   4.849
  284SOL    HW1 1751   0.270   4.303   4.892
  284SOL    HW2 1752   0.291   4.222   4.752
  285SOL     OW 1753   5.619   5.270   6.062
  285SOL    HW1 1754   5.650   5.190   6.011
  285SOL    HW2 1755   5.552   5.321   6.006
  286SOL     OW 1756   3.401   4.756   5.675
  286SOL    HW1 1757   3.346   4.674   5.690
  286SOL    HW2 1758   3.348   4.823   5.623
  287SOL     OW 1759   0.399   4.609   6.878
  287SOL    HW1 1760   0.473   4.630   6.941
  287SOL    HW2 1761   0.437   4.573   6.792
  288SOL     OW 1762   4.471   2.298   0.177
  288SOL    HW1 1763   4.394   2.358   0.201
  288SOL    HW2 1764   4.557   2.348   0.190
  289SOL     OW 1765   0.153   5.395   5.455
  289SOL    HW1 1766   0.137   5.468   5.521
  289SOL    HW2 1767   0.182   5.312   5.503
  290SOL     OW 1768   4.577   1.548   3.724
  290SOL    HW1 1769   4.604   1.476   3.660
  290SOL    HW2 1770   4.616   1.529   3.814
  291SOL     OW 1771   2.872   1.450   5.294
  291SOL    HW1 1772   2.958   1.481   5.254
  291SOL    HW2 1773   2.820   1.400   5.226
  292SOL     OW 1774   2.802   1.736   2.648
  292SOL    HW1 1775   2.871   1.664   2.660
  292SOL    HW2 1776   2.739   1.710   2.575
  293SOL     OW 1777   5.079   5.045   1.825
  293SOL    HW1 1778   5.161   4.998   1.860
  293SOL    HW2 1779   5.009   4.977   1.804
  294SOL     OW 1780   6.472   5.360   6.206
  294SOL    HW1 1781   6.539   5.297   6.244
  294SOL    HW2 1782   6.386   5.352   6.257
  295SOL     OW 1783   3.370   1.414   4.772
  295SOL    HW1 1784   3.368   1.510   4.744
  295SOL    HW2 1785   3.277   1.384   4.796
  296SOL     OW 1786   5.912   1.932   2.186
  296SOL    HW1 1787   5.958   1.855   2.231
  296SOL    HW2 1788   5.976   2.008   2.177
  297SOL     OW 1789   2.915   4.809   2.704
  297SOL    HW1 1790   2.954   4.835   2.615
  297SOL    HW2 1791   2.987   4.774   2.763
  298SOL     OW 1792   3.164   6.238   0.684
  298SOL    HW1 1793   3.194   6.225   0.778
  298SOL    HW2 1794   3.180   6.333   0.657
  299SOL     OW 1795   4.263   2.833   6.652
  299SOL    HW1 1796   4.302   2.848   6.561
  299SOL    HW2 1797   4.224   2.918   6.686
  300SOL     OW 1798   5.145   0.854   1.578
  300SOL    HW1 1799   5.116   0.793   1.652
  300SOL    HW2 1800   5.073   0.859   1.509
  301SOL     OW 1801   5.587   2.808   0.978
  301SOL    HW1 1802   5.652   2.755   1.033
  301SOL    HW2 1803   5.561   2.890   1.029
  302SOL     OW 1804   0.039   0.902   3.888
  302SOL    HW1 1805   0.013   0.851   3.970
  302SOL    HW2 1806   0.139   0.898   3.877
  303SOL     OW 1807   6.544   6.725   2.185
  303SOL    HW1 1808   6.591   6.806   2.150
  303SOL    HW2 1809   6.594   6.689   2.263
  304SOL     OW 1810   1.544   6.705   5.609
  304SOL    HW1 1811   1.561   6.803   5.594
  304SOL    HW2 1812   1.560   6.655   5.524
  305SOL     OW 1813   1.282   3.097   0.452
  305SOL    HW1 1814   1.338   3.148   0.518
  305SOL    HW2 1815   1.203   3.152   0.426
  306SOL     OW 1816   1.671   0.781   3.637
  306SOL    HW1 1817   1.738   0.713   3.607
  306SOL    HW2 1818   1.698   0.871   3.604
  307SOL     OW 1819   5.076   5.595   0.534
  307SOL    HW1 1820   5.157   5.653   0.531
  307SOL    HW2 1821   4.995   5.653   0.549
  308SOL     OW 1822   5.480   3.444   4.482
  308SOL    HW1 1823   5.407   3.510   4.496
  308SOL    HW2 1824   5.448   3.353   4.508
  309SOL     OW 1825   2.127   5.787   0.328
  309SOL    HW1 1826   2.211   5.810   0.278
  309SOL    HW2 1827   2.050   5.786   0.264
  310SOL     OW 1828   5.353   6.531   5.583
  310SOL    HW1 1829   5.294   6.602   5.545
  310SOL    HW2 1830   5.354   6.452   5.522
  311SOL     OW 1831   4.220   4.903   2.395
  311SOL    HW1 1832   4.128   4.865   2.385
  311SOL    HW2 1833   4.283   4.857   2.332
  312SOL     OW 1834   4.151   1.301   4.692
  312SOL    HW1 1835   4.115   1.209   4.674
  312SOL    HW2 1836   4.248   1.304   4.668
  313SOL     OW 1837   3.036   3.745   2.536
  313SOL    HW1 1838   2.991   3.690   2.606
  313SOL    HW2 1839   3.129   3.712   2.521
  314SOL     OW 1840   2.444   4.786   6.580
  314SOL    HW1 1841   2.389   4.867   6.601
  314SOL    HW2 1842   2.471   4.742   6.665
  315SOL     OW 1843   0.976   3.055   3.918
  315SOL    HW1 1844   0.907   2.985   3.939
  315SOL    HW2 1845   1.049   3.014   3.863
  316SOL     OW 1846   2.969   1.069   4.229
  316SOL    HW1 1847   2.877   1.103   4.244
  316SOL    HW2 1848   2.985   1.059   4.130
  317SOL     OW 1849   6.911   1.404   0.842
  317SOL    HW1 1850   6.917   1.503   0.855
  317SOL    HW2 1851   6.849   1.383   0.766
  318SOL     OW 1852   0.708   5.496   6.472
  318SOL    HW1 1853   0.761   5.417   6.443
  318SOL    HW2 1854   0.611   5.479   6.454
  319SOL     OW 1855   6.216   1.368   3.236
  319SOL    HW1 1856   6.185   1.456   3.272
  319SOL    HW2 1857   6.313   1.373   3.213
  320SOL     OW 1858   6.651   2.130   1.489
  320SOL    HW1 1859   6.614   2.042   1.459
  320SOL    HW2 1860   6.670   2.126   1.587
  321SOL     OW 1861   3.498   1.667   6.870
  321SOL    HW1 1862   3.537   1.578   6.891
  321SOL    HW2 1863   3.568   1.738   6.879
  322SOL     OW 1864   3.262   2.911   4.107
  322SOL    HW1 1865   3.245   3.003   4.073
  322SOL    HW2 1866   3.234   2.844   4.038
  323SOL     OW 1867   1.131   2.708   6.650
  323SOL    HW1 1868   1.043   2.756   6.649
  323SOL    HW2 1869   1.153   2.679   6.556
  324SOL     OW 1870   2.731   0.926   4.535
  324SOL    HW1 1871   2.754   0.968   4.448
  324SOL    HW2 1872   2.713   0.997   4.603
  325SOL     OW 1873   0.288   2.665   1.989
  325SOL    HW1 1874   0.325   2.664   1.896
  325SOL    HW2 1875   0.212   2.600   1.996
  326SOL     OW 1876   1.125   5.098   6.352
  326SOL    HW1 1877   1.077   5.096   6.264
  326SOL    HW2 1878   1.182   5.016   6.361
  327SOL     OW 1879   1.301   4.288   3.307
  327SOL    HW1 1880   1.241   4.280   3.386
  327SOL    HW2 1881   1.247   4.306   3.225
  328SOL     OW 1882   1.446   5.880   1.654
  328SOL    HW1 1883   1.467   5.920   1.744
  328SOL    HW2 1884   1.442   5.780   1.663
  329SOL     OW 1885   4.109   3.401   4.493
  329SOL    HW1 1886   4.050   3.471   4.454
  329SOL    HW2 1887   4.203   3.416   4.463
  330SOL     OW 1888   3.618   6.624   1.408
  330SOL    HW1 1889   3.602   6.704   1.466
  330SOL    HW2 1890   3.557   6.628   1.328
  331SOL     OW 1891   3.435   5.579   0.409
  331SOL    HW1 1892   3.515   5.522   0.429
  331SOL    HW2 1893   3.374   5.579   0.488
  332SOL     OW 1894   4.623   1.962   5.097
  332SOL    HW1 1895   4.608   1.873   5.138
  332SOL    HW2 1896   4.636   1.952   4.998
  333SOL     OW 1897   3.090   0.402   6.071
  333SOL    HW1 1898   3.149   0.452   6.007
  333SOL    HW2 1899   3.050   0.466   6.136
  334SOL     OW 1900   3.709   0.572   1.556
  334SOL    HW1 1901   3.624   0.540   1.512
  334SOL    HW2 1902   3.694   0.583   1.654
  335SOL     OW 1903   4.325   0.053   5.416
  335SOL    HW1 1904   4.243   0.003   5.388
  335SOL    HW2 1905   4.345   0.124   5.348
  336SOL     OW 1906   1.936   1.305   3.438
  336SOL    HW1 1907   1.883   1.341   3.515
  336SOL    HW2 1908   2.011   1.249   3.473
  337SOL     OW 1909   0.646   2.622   0.051
  337SOL    HW1 1910   0.549   2.597   0.046
  337SOL    HW2 1911   0.673   2.628   0.147
  338SOL     OW 1912   3.196   2.516   1.364
  338SOL    HW1 1913   3.245   2.506   1.451
  338SOL    HW2 1914   3.097   2.516   1.382
  339SOL     OW 1915   3.917   5.779   3.924
  339SOL    HW1 1916   3.957   5.805   4.012
  339SOL    HW2 1917   3.987   5.781   3.853
  340SOL     OW 1918   4.976   4.273   5.169
  340SOL    HW1 1919   4.915   4.206   5.126
  340SOL    HW2 1920   5.014   4.235   5.253
  341SOL     OW 1921   6.600   0.451   4.570
  341SOL    HW1 1922   6.550   0.535   4.552
  341SOL    HW2 1923   6.553   0.398   4.641
  342SOL     OW 1924   6.194   3.886   6.852
  342SOL    HW1 1925   6.150   3.819   6.911
  342SOL    HW2 1926   6.276   3.846   6.811
  343SOL     OW 1927   1.498   5.510   0.560
  343SOL    HW1 1928   1.570   5.488   0.626
  343SOL    HW2 1929   1.467   5.426   0.516
  344SOL     OW 1930   1.316   3.663   1.967
  344SOL    HW1 1931   1.346   3.691   1.875
  344SOL    HW2 1932   1.377   3.591   2.001
  345SOL     OW 1933   4.123   1.580   3.168
  345SOL    HW1 1934   4.136   1.661   3.224
  345SOL    HW2 1935   4.043   1.529   3.200
  346SOL     OW 1936   2.095   0.767   2.690
  346SOL    HW1 1937   2.022   0.803   2.748
  346SOL    HW2 1938   2.084   0.668   2.680
  347SOL     OW 1939   2.882   5.846   6.335
  347SOL    HW1 1940   2.978   5.822   6.352
  347SOL    HW2 1941   2.824   5.800   6.402
  348SOL     OW 1942   5.300   4.260   2.593
  348SOL    HW1 1943   5.297   4.326   2.668
  348SOL    HW2 1944   5.377   4.198   2.606
  349SOL     OW 1945   6.574   5.379   0.869
  349SOL    HW1 1946   6.659   5.330   0.888
  349SOL    HW2 1947   6.496   5.321   0.897
  350SOL     OW 1948   3.342   3.305   0.983
  350SOL    HW1 1949   3.352   3.386   0.925
  350SOL    HW2 1950   3.266   3.319   1.046
  351SOL     OW 1951   1.967   2.838   1.497
  351SOL    HW1 1952   1.885   2.823   1.441
  351SOL    HW2 1953   2.029   2.900   1.450
  352SOL     OW 1954   2.924   0.830   4.922
  352SOL    HW1 1955   2.830   0.803   4.902
  352SOL    HW2 1956   2.965   0.763   4.984
  353SOL     OW 1957   1.942   0.163   0.882
  353SOL    HW1 1958   1.894   0.087   0.925
  353SOL    HW2 1959   1.963   0.141   0.787
  354SOL     OW 1960   3.807   2.811   0.601
  354SOL    HW1 1961   3.781   2.714   0.604
  354SOL    HW2 1962   3.828   2.837   0.506
  355SOL     OW 1963   0.963   3.436   2.319
  355SOL    HW1 1964   0.963   3.521   2.266
  355SOL    HW2 1965   0.884   3.381   2.293
  356SOL     OW 1966   3.043   0.147   5.996
  356SOL    HW1 1967   3.047   0.232   6.048
  356SOL    HW2 1968   3.098   0.077   6.042
  357SOL     OW 1969   6.548   6.156   5.962
  357SOL    HW1 1970   6.540   6.079   6.026
  357SOL    HW2 1971   6.460   6.171   5.917
  358SOL     OW 1972   3.948   6.743   0.590
  358SOL    HW1 1973   3.955   6.755   0.491
  358SOL    HW2 1974   3.876   6.803   0.626
  359SOL     OW 1975   1.746   2.692   2.165
  359SOL    HW1 1976   1.748   2.719   2.261
  359SOL    HW2 1977   1.827   2.727   2.118
  360SOL     OW 1978   0.773   5.105   6.160
  360SOL    HW1 1979   0.713   5.065   6.229
  360SOL    HW2 1980   0.767   5.205   6.165
  361SOL     OW 1981   5.897   5.796   3.002
  361SOL    HW1 1982   5.989   5.833   2.989
  361SOL    HW2 1983   5.902   5.698   3.021
  362SOL     OW 1984   3.735   3.610   1.128
  362SOL    HW1 1985   3.776   3.684   1.182
  362SOL    HW2 1986   3.788   3.526   1.143
  363SOL     OW 1987   5.335   4.331   3.447
  363SOL    HW1 1988   5.430   4.358   3.436
  363SOL    HW2 1989   5.294   4.316   3.358
  364SOL     OW 1990   6.979   5.154   6.618
  364SOL    HW1 1991   0.007   5.134   6.705
  364SOL    HW2 1992   0.011   5.110   6.543
  365SOL     OW 1993   6.256   6.151   2.323
  365SOL    HW1 1994   6.317   6.133   2.400
  365SOL    HW2 1995   6.168   6.185   2.357
  366SOL     OW 1996   5.994   0.771   6.304
  366SOL    HW1 1997   5.905   0.731   6.325
  366SOL    HW2 1998   6.056   0.700   6.270
  367SOL     OW 1999   5.484   3.042   1.079
  367SOL    HW1 2000   5.472   3.137   1.048
  367SOL    HW2 2001   5.401   3.014   1.129
  368SOL     OW 2002   0.100   4.045   4.969
  368SOL    HW1 2003   0.146   4.132   4.988
  368SOL    HW2 2004   0.158   3.989   4.910
  369SOL     OW 2005   6.458   5.050   2.208
  369SOL    HW1 2006   6.534   5.079   2.151
  369SOL    HW2 2007   6.446   4.951   2.200
  370SOL     OW 2008   2.589   1.459   5.856
  370SOL    HW1 2009   2.491   1.457   5.833
  370SOL    HW2 2010   2.631   1.541   5.816
  371SOL     OW 2011   2.344   3.580   6.000
  371SOL    HW1 2012   2.249   3.549   6.013
  371SOL    HW2 2013   2.352   3.626   5.912
  372SOL     OW 2014   0.915   6.438   6.046
  372SOL    HW1 2015   0.853   6.445   6.124
  372SOL    HW2 2016   0.900   6.516   5.985
  373SOL     OW 2017   6.336   6.613   4.768
  373SOL    HW1 2018   6.255   6.633   4.823
  373SOL    HW2 2019   6.318   6.633   4.672
  374SOL     OW 2020   2.619   1.814   3.746
  374SOL    HW1 2021   2.566   1.899   3.751
  374SOL    HW2 2022   2.651   1.789   3.837
  375SOL     OW 2023   1.049   4.077   4.021
  375SOL    HW1 2024   1.074   4.005   3.956
  375SOL    HW2 2025   0.968   4.126   3.988
  376SOL     OW 2026   2.626   1.640   5.209
  376SOL    HW1 2027   2.633   1.726   5.258
  376SOL    HW2 2028   2.611   1.565   5.275
  377SOL     OW 2029   1.414   1.915   1.545
  377SOL    HW1 2030   1.501   1.956   1.520
  377SOL    HW2 2031   1.370   1.878   1.463
  378SOL     OW 2032   3.761   2.357   5.961
  378SOL    HW1 2033   3.735   2.446   5.998
  378SOL    HW2 2034   3.680   2.297   5.960
  379SOL     OW 2035   5.888   4.420   0.957
  379SOL    HW1 2036   5.962   4.411   1.023
  379SOL    HW2 2037   5.906   4.499   0.897
  380SOL     OW 2038   2.662   1.452   1.319
  380SOL    HW1 2039   2.588   1.424   1.259
  380SOL    HW2 2040   2.675   1.383   1.390
  381SOL     OW 2041   1.661   3.457   2.447
  381SOL    HW1 2042   1.669   3.551   2.480
  381SOL    HW2 2043   1.595   3.407   2.503
  382SOL     OW 2044   6.214   0.172   6.577
  382SOL    HW1 2045   6.285   0.197   6.643
  382SOL    HW2 2046   6.212   0.073   6.565
  383SOL     OW 2047   4.464   3.857   5.769
  383SOL    HW1 2048   4.539   3.791   5.762
  383SOL    HW2 2049   4.482   3.933   5.707
  384SOL     OW 2050   6.869   5.926   4.568
  384SOL    HW1 2051   6.884   5.903   4.471
  384SOL    HW2 2052   6.783   5.884   4.598
  385SOL     OW 2053   4.067   5.719   5.236
  385SOL    HW1 2054   3.996   5.664   5.280
  385SOL    HW2 2055   4.134   5.659   5.194
  386SOL     OW 2056   2.348   6.823   5.406
  386SOL    HW1 2057   2.438   6.819   5.451
  386SOL    HW2 2058   2.360   6.848   5.310
  387SOL     OW 2059   1.059   0.031   3.688
  387SOL    HW1 2060   0.988   0.023   3.618
  387SOL    HW2 2061   1.021   0.004   3.777
  388SOL     OW 2062   1.682   1.802   4.261
  388SOL    HW1 2063   1.756   1.802   4.329
  388SOL    HW2 2064   1.683   1.715   4.212
  389SOL     OW 2065   3.830   4.637   0.987
  389SOL    HW1 2066   3.914   4.592   0.955
  389SOL    HW2 2067   3.852   4.697   1.064
  390SOL     OW 2068   3.699   1.290   0.108
  390SOL    HW1 2069   3.757   1.367   0.081
  390SOL    HW2 2070   3.616   1.324   0.151
  391SOL     OW 2071   2.751   3.858   5.683
  391SOL    HW1 2072   2.710   3.776   5.641
  391SOL    HW2 2073   2.825   3.891   5.625
  392SOL     OW 2074   1.983   4.281   0.664
  392SOL    HW1 2075   1.995   4.380   0.674
  392SOL    HW2 2076   2.032   4.249   0.583
  393SOL     OW 2077   1.346   4.423   6.343
  393SOL    HW1 2078   1.315   4.343   6.292
  393SOL    HW2 2079   1.442   4.412   6.366
  394SOL     OW 2080   6.685   2.527   0.926
  394SOL    HW1 2081   6.613   2.462   0.948
  394SOL    HW2 2082   6.663   2.573   0.840
  395SOL     OW 2083   4.916   4.737   2.904
  395SOL    HW1 2084   5.012   4.761   2.917
  395SOL    HW2 2085   4.910   4.646   2.864
  396SOL     OW 2086   2.968   3.756   2.068
  396SOL    HW1 2087   3.031   3.758   1.991
  396SOL    HW2 2088   2.900   3.684   2.055
  397SOL     OW 2089   5.542   1.878   5.959
  397SOL    HW1 2090   5.642   1.877   5.950
  397SOL    HW2 2091   5.502   1.803   5.906
  398SOL     OW 2092   1.296   0.034   3.608
  398SOL    HW1 2093   1.207   0.053   3.648
  398SOL    HW2 2094   1.367   0.046   3.678
  399SOL     OW 2095   5.570   6.365   3.775
  399SOL    HW1 2096   5.470   6.362   3.777
  399SOL    HW2 2097   5.606   6.302   3.843
  400SOL     OW 2098   6.116   6.691   5.216
  400SOL    HW1 2099   6.060   6.738   5.148
  400SOL    HW2 2100   6.193   6.645   5.171
  401SOL     OW 2101   5.304   6.968   6.441
  401SOL    HW1 2102   5.220   6.952   6.389
  401SOL    HW2 2103   5.290   0.025   6.506
  402SOL     OW 2104   6.298   0.475   3.739
  402SOL    HW1 2105   6.307   0.568   3.777
  402SOL    HW2 2106   6.380   0.422   3.762
  403SOL     OW 2107   3.712   1.263   5.115
  403SOL    HW1 2108   3.635   1.293   5.060
  403SOL    HW2 2109   3.788   1.327   5.103
  404SOL     OW 2110   1.648   4.610   3.729
  404SOL    HW1 2111   1.610   4.670   3.800
  404SOL    HW2 2112   1.701   4.537   3.773
  405SOL     OW 2113   2.029   3.029   2.731
  405SOL    HW1 2114   1.935   3.060   2.716
  405SOL    HW2 2115   2.076   3.023   2.643
  406SOL     OW 2116   0.379   4.509   4.639
  406SOL    HW1 2117   0.364   4.489   4.736
  406SOL    HW2 2118   0.428   4.433   4.596
  407SOL     OW 2119   0.884   1.710   5.401
  407SOL    HW1 2120   0.956   1.689   5.334
  407SOL    HW2 2121   0.834   1.791   5.372
  408SOL     OW 2122   2.928   2.047   2.995
  408SOL    HW1 2123   2.996   1.994   2.944
  408SOL    HW2 2124   2.837   2.011   2.975
  409SOL     OW 2125   5.920   3.923   2.433
  409SOL    HW1 2126   6.007   3.919   2.483
  409SOL    HW2 2127   5.845   3.899   2.495
  410SOL     OW 2128   1.093   1.640   0.919
  410SOL    HW1 2129   1.118   1.682   1.007
  410SOL    HW2 2130   1.112   1.704   0.845
  411SOL     OW 2131   6.776   0.703   1.333
  411SOL    HW1 2132   6.718   0.776   1.297
  411SOL    HW2 2133   6.752   0.683   1.428
  412SOL     OW 2134   3.531   5.649   3.301
  412SOL    HW1 2135   3.479   5.575   3.258
  412SOL    HW2 2136   3.587   5.695   3.231
  413SOL     OW 2137   5.996   4.097   2.026
  413SOL    HW1 2138   6.095   4.084   2.025
  413SOL    HW2 2139   5.963   4.109   1.933
  414SOL     OW 2140   3.933   5.797   3.307
  414SOL    HW1 2141   4.005   5.866   3.301
  414SOL    HW2 2142   3.972   5.707   3.284
  415SOL     OW 2143   0.102   0.291   6.649
  415SOL    HW1 2144   0.098   0.384   6.611
  415SOL    HW2 2145   0.035   0.283   6.723
  416SOL     OW 2146   4.762   5.954   4.680
  416SOL    HW1 2147   4.672   5.987   4.710
  416SOL    HW2 2148   4.822   6.032   4.662
  417SOL     OW 2149   2.253   6.719   5.699
  417SOL    HW1 2150   2.234   6.643   5.637
  417SOL    HW2 2151   2.336   6.766   5.670
  418SOL     OW 2152   3.620   6.405   6.703
  418SOL    HW1 2153   3.542   6.353   6.738
  418SOL    HW2 2154   3.645   6.370   6.613
  419SOL     OW 2155   1.606   6.419   3.023
  419SOL    HW1 2156   1.526   6.361   3.038
  419SOL    HW2 2157   1.688   6.373   3.056
  420SOL     OW 2158   6.056   1.302   0.057
  420SOL    HW1 2159   6.138   1.353   0.084
  420SOL    HW2 2160   6.026   1.332   6.984
  421SOL     OW 2161   6.212   4.127   5.244
  421SOL    HW1 2162   6.151   4.165   5.314
  421SOL    HW2 2163   6.211   4.186   5.164
  422SOL     OW 2164   5.191   3.593   1.578
  422SOL    HW1 2165   5.211   3.535   1.499
  422SOL    HW2 2166   5.182   3.536   1.660
  423SOL     OW 2167   1.102   2.280   6.613
  423SOL    HW1 2168   1.072   2.342   6.685
  423SOL    HW2 2169   1.113   2.331   6.528
  424SOL     OW 2170   1.834   5.045   2.088
  424SOL    HW1 2171   1.879   4.962   2.054
  424SOL    HW2 2172   1.746   5.058   2.043
  425SOL     OW 2173   4.855   1.780   3.764
  425SOL    HW1 2174   4.943   1.734   3.776
  425SOL    HW2 2175   4.792   1.719   3.716
  426SOL     OW 2176   2.934   2.164   4.330
  426SOL    HW1 2177   2.886   2.138   4.414
  426SOL    HW2 2178   3.031   2.178   4.350
  427SOL     OW 2179   6.338   6.868   3.934
  427SOL    HW1 2180   6.399   6.947   3.926
  427SOL    HW2 2181   6.392   6.786   3.950
  428SOL     OW 2182   3.925   6.950   3.273
  428SOL    HW1 2183   3.972   0.013   3.310
  428SOL    HW2 2184   3.829   6.951   3.301
  429SOL     OW 2185   0.621   4.606   3.007
  429SOL    HW1 2186   0.654   4.605   2.913
  429SOL    HW2 2187   0.540   4.663   3.014
  430SOL     OW 2188   1.409   6.176   4.161
  430SOL    HW1 2189   1.336   6.245   4.162
  430SOL    HW2 2190   1.409   6.126   4.248
  431SOL     OW 2191   2.998   0.381   1.378
  431SOL    HW1 2192   3.091   0.346   1.370
  431SOL    HW2 2193   2.996   0.456   1.444
  432SOL     OW 2194   6.507   1.938   1.111
  432SOL    HW1 2195   6.516   2.034   1.087
  432SOL    HW2 2196   6.427   1.899   1.065
  433SOL     OW 2197   2.507   6.465   5.685
  433SOL    HW1 2198   2.584   6.528   5.700
  433SOL    HW2 2199   2.506   6.436   5.590
  434SOL     OW 2200   4.216   5.657   3.262
  434SOL    HW1 2201   4.208   5.756   3.251
  434SOL    HW2 2202   4.131   5.613   3.231
  435SOL     OW 2203   4.134   1.827   6.125
  435SOL    HW1 2204   4.164   1.840   6.220
  435SOL    HW2 2205   4.204   1.776   6.075
  436SOL     OW 2206   3.008   5.340   1.886
  436SOL    HW1 2207   2.934   5.286   1.845
  436SOL    HW2 2208   3.075   5.279   1.928
  437SOL     OW 2209   0.611   1.103   6.374
  437SOL    HW1 2210   0.641   1.092   6.469
  437SOL    HW2 2211   0.595   1.200   6.356
  438SOL     OW 2212   1.841   3.552   4.232
  438SOL    HW1 2213   1.809   3.551   4.137
  438SOL    HW2 2214   1.936   3.583   4.235
  439SOL     OW 2215   5.979   6.200   2.737
  439SOL    HW1 2216   5.938   6.217   2.826
  439SOL    HW2 2217   6.048   6.128   2.745
  440SOL     OW 2218   3.010   1.999   5.892
  440SOL    HW1 2219   2.943   2.057   5.938
  440SOL    HW2 2220   2.996   2.004   5.793
  441SOL     OW 2221   0.219   3.714   3.193
  441SOL    HW1 2222   0.164   3.662   3.126
  441SOL    HW2 2223   0.308   3.670   3.204
  442SOL     OW 2224   4.298   5.976   5.667
  442SOL    HW1 2225   4.262   5.909   5.602
  442SOL    HW2 2226   4.389   6.005   5.638
  443SOL     OW 2227   5.759   4.137   4.672
  443SOL    HW1 2228   5.817   4.088   4.737
  443SOL    HW2 2229   5.809   4.153   4.587
  444SOL     OW 2230   5.198   0.048   6.045
  444SOL    HW1 2231   5.129   0.105   6.090
  444SOL    HW2 2232   5.162   6.973   6.034
  445SOL     OW 2233   2.024   5.857   3.349
  445SOL    HW1 2234   2.027   5.767   3.304
  445SOL    HW2 2235   2.110   5.873   3.396
  446SOL     OW 2236   4.110   5.172   2.690
  446SOL    HW1 2237   4.112   5.170   2.590
  446SOL    HW2 2238   4.048   5.244   2.721
  447SOL     OW 2239   6.740   3.755   5.680
  447SOL    HW1 2240   6.744   3.673   5.622
  447SOL    HW2 2241   6.721   3.727   5.774
  448SOL     OW 2242   2.458   0.663   2.755
  448SOL    HW1 2243   2.397   0.629   2.826
  448SOL    HW2 2244   2.415   0.652   2.666
  449SOL     OW 2245   3.005   1.034   3.962
  449SOL    HW1 2246   3.070   1.089   3.910
  449SOL    HW2 2247   2.999   0.942   3.922
  450SOL     OW 2248   1.541   4.568   3.458
  450SOL    HW1 2249   1.598   4.571   3.540
  450SOL    HW2 2250   1.577   4.631   3.390
  451SOL     OW 2251   1.838   2.175   4.571
  451SOL    HW1 2252   1.782   2.157   4.652
  451SOL    HW2 2253   1.870   2.088   4.532
  452SOL     OW 2254   4.505   6.587   1.300
  452SOL    HW1 2255   4.583   6.645   1.278
  452SOL    HW2 2256   4.532   6.491   1.292
  453SOL     OW 2257   3.825   0.249   6.903
  453SOL    HW1 2258   3.780   0.188   6.968
  453SOL    HW2 2259   3.889   0.197   6.847
  454SOL     OW 2260   6.964   3.474   6.381
  454SOL    HW1 2261   6.889   3.491   6.444
  454SOL    HW2 2262   0.031   3.512   6.419
  455SOL     OW 2263   4.985   2.807   4.947
  455SOL    HW1 2264   4.897   2.846   4.919
  455SOL    HW2 2265   4.972   2.711   4.972
  456SOL     OW 2266   1.234   0.183   4.656
  456SOL    HW1 2267   1.299   0.255   4.680
  456SOL    HW2 2268   1.244   0.107   4.721
  457SOL     OW 2269   2.011   4.212   4.239
  457SOL    HW1 2270   1.977   4.281   4.303
  457SOL    HW2 2271   1.969   4.124   4.258
  458SOL     OW 2272   2.785   6.337   2.985
  458SOL    HW1 2273   2.756   6.373   3.074
  458SOL    HW2 2274   2.775   6.409   2.916
  459SOL     OW 2275   1.720   6.963   5.903
  459SOL    HW1 2276   1.740   6.904   5.824
  459SOL    HW2 2277   1.707   0.039   5.872
  460SOL     OW 2278   1.470   6.952   4.614
  460SOL    HW1 2279   1.495   6.897   4.534
  460SOL    HW2 2280   1.535   0.010   4.624
  461SOL     OW 2281   6.720   5.145   5.758
  461SOL    HW1 2282   6.741   5.226   5.703
  461SOL    HW2 2283   6.631   5.155   5.801
  462SOL     OW 2284   3.863   3.240   6.210
  462SOL    HW1 2285   3.783   3.266   6.265
  462SOL    HW2 2286   3.928   3.191   6.268
  463SOL     OW 2287   6.933   0.111   3.956
  463SOL    HW1 2288   6.898   0.023   3.987
  463SOL    HW2 2289   0.016   0.107   3.950
  464SOL     OW 2290   2.737   0.626   5.858
  464SOL    HW1 2291   2.830   0.605   5.826
  464SOL    HW2 2292   2.740   0.646   5.956
  465SOL     OW 2293   0.433   2.358   0.028
  465SOL    HW1 2294   0.400   2.291   0.095
  465SOL    HW2 2295   0.383   2.444   0.040
  466SOL     OW 2296   2.810   6.737   4.250
  466SOL    HW1 2297   2.847   6.782   4.169
  466SOL    HW2 2298   2.791   6.641   4.229
  467SOL     OW 2299   1.480   1.461   2.078
  467SOL    HW1 2300   1.405   1.526   2.081
  467SOL    HW2 2301   1.483   1.408   2.163
  468SOL     OW 2302   3.382   5.540   5.113
  468SOL    HW1 2303   3.314   5.527   5.186
  468SOL    HW2 2304   3.414   5.451   5.082
  469SOL     OW 2305   2.883   3.565   6.132
  469SOL    HW1 2306   2.926   3.495   6.075
  469SOL    HW2 2307   2.876   3.651   6.081
  470SOL     OW 2308   4.017   5.954   1.174
  470SOL    HW1 2309   4.080   5.877   1.173
  470SOL    HW2 2310   4.066   6.038   1.197
  471SOL     OW 2311   2.429   2.692   3.830
  471SOL    HW1 2312   2.490   2.626   3.875
  471SOL    HW2 2313   2.382   2.746   3.899
  472SOL     OW 2314   5.628   4.410   6.669
  472SOL    HW1 2315   5.679   4.481   6.621
  472SOL    HW2 2316   5.553   4.378   6.611
  473SOL     OW 2317   1.514   1.877   2.196
  473SOL    HW1 2318   1.604   1.917   2.180
  473SOL    HW2 2319   1.475   1.849   2.109
  474SOL     OW 2320   5.343   5.517   4.794
  474SOL    HW1 2321   5.293   5.547   4.875
  474SOL    HW2 2322   5.438   5.498   4.819
  475SOL     OW 2323   6.223   2.811   0.723
  475SOL    HW1 2324   6.298   2.822   0.787
  475SOL    HW2 2325   6.230   2.721   0.679
  476SOL     OW 2326   6.944   3.856   1.941
  476SOL    HW1 2327   6.981   3.947   1.926
  476SOL    HW2 2328   6.880   3.858   2.018
  477SOL     OW 2329   2.920   5.883   3.362
  477SOL    HW1 2330   2.870   5.925   3.437
  477SOL    HW2 2331   2.928   5.948   3.286
  478SOL     OW 2332   3.821   5.614   2.901
  478SOL    HW1 2333   3.792   5.620   2.806
  478SOL    HW2 2334   3.890   5.541   2.911
  479SOL     OW 2335   3.892   3.240   5.009
  479SOL    HW1 2336   3.915   3.239   4.911
  479SOL    HW2 2337   3.964   3.288   5.059
  480SOL     OW 2338   2.892   0.563   1.132
  480SOL    HW1 2339   2.963   0.493   1.129
  480SOL    HW2 2340   2.831   0.552   1.053
  481SOL     OW 2341   0.965   6.767   2.065
  481SOL    HW1 2342   0.969   6.690   2.129
  481SOL    HW2 2343   0.928   6.736   1.977
  482SOL     OW 2344   4.766   5.115   1.971
  482SOL    HW1 2345   4.682   5.153   2.010
  482SOL    HW2 2346   4.744   5.034   1.917
  483SOL     OW 2347   6.760   2.328   2.768
  483SOL    HW1 2348   6.801   2.416   2.793
  483SOL    HW2 2349   6.754   2.270   2.849
  484SOL     OW 2350   1.389   3.860   4.544
  484SOL    HW1 2351   1.486   3.835   4.541
  484SOL    HW2 2352   1.381   3.959   4.558
  485SOL     OW 2353   4.815   4.609   2.430
  485SOL    HW1 2354   4.767   4.522   2.424
  485SOL    HW2 2355   4.884   4.604   2.502
  486SOL     OW 2356   5.900   1.920   0.089
  486SOL    HW1 2357   5.989   1.954   0.059
  486SOL    HW2 2358   5.888   1.941   0.186
  487SOL     OW 2359   0.440   0.496   3.530
  487SOL    HW1 2360   0.449   0.589   3.565
  487SOL    HW2 2361   0.488   0.433   3.591
  488SOL     OW 2362   0.796   0.150   2.288
  488SOL    HW1 2363   0.699   0.127   2.297
  488SOL    HW2 2364   0.850   0.066   2.296
  489SOL     OW 2365   5.168   6.224   5.810
  489SOL    HW1 2366   5.176   6.289   5.735
  489SOL    HW2 2367   5.072   6.199   5.822
  490SOL     OW 2368   2.166   6.268   3.814
  490SOL    HW1 2369   2.242   6.241   3.756
  490SOL    HW2 2370   2.199   6.322   3.891
  491SOL     OW 2371   1.374   3.071   1.247
  491SOL    HW1 2372   1.405   2.997   1.188
  491SOL    HW2 2373   1.452   3.126   1.276
  492SOL     OW 2374   1.544   1.018   5.694
  492SOL    HW1 2375   1.456   0.975   5.716
  492SOL    HW2 2376   1.573   1.075   5.772
  493SOL     OW 2377   2.984   6.710   5.709
  493SOL    HW1 2378   3.006   6.722   5.612
  493SOL    HW2 2379   2.989   6.798   5.755
  494SOL     OW 2380   1.347   6.853   6.570
  494SOL    HW1 2381   1.345   6.919   6.646
  494SOL    HW2 2382   1.415   6.882   6.503
  495SOL     OW 2383   3.694   5.810   3.782
  495SOL    HW1 2384   3.768   5.805   3.849
  495SOL    HW2 2385   3.731   5.838   3.693
  496SOL     OW 2386   5.703   2.950   1.920
  496SOL    HW1 2387   5.702   2.857   1.883
  496SOL    HW2 2388   5.618   2.967   1.968
  497SOL     OW 2389   3.068   1.142   4.692
  497SOL    HW1 2390   3.144   1.078   4.704
  497SOL    HW2 2391   3.064   1.172   4.597
  498SOL     OW 2392   0.939   4.681   2.639
  498SOL    HW1 2393   1.024   4.670   2.588
  498SOL    HW2 2394   0.960   4.704   2.734
  499SOL     OW 2395   1.867   5.447   4.631
  499SOL    HW1 2396   1.925   5.509   4.577
  499SOL    HW2 2397   1.773   5.450   4.596
  500SOL     OW 2398   5.962   2.496   0.136
  500SOL    HW1 2399   5.925   2.556   0.208
  500SOL    HW2 2400   5.995   2.551   0.060
  501SOL     OW 2401   3.797   6.598   0.974
  501SOL    HW1 2402   3.734   6.637   0.907
  501SOL    HW2 2403   3.748   6.575   1.058
  502SOL     OW 2404   0.848   4.672   5.970
  502SOL    HW1 2405   0.803   4.738   5.910
  502SOL    HW2 2406   0.947   4.675   5.955
  503SOL     OW 2407   1.257   4.545   6.117
  503SOL    HW1 2408   1.273   4.497   6.203
  503SOL    HW2 2409   1.335   4.604   6.096
  504SOL     OW 2410   1.049   5.719   2.312
  504SOL    HW1 2411   1.050   5.637   2.370
  504SOL    HW2 2412   1.109   5.704   2.233
  505SOL     OW 2413   4.123   6.412   4.906
  505SOL    HW1 2414   4.125   6.322   4.864
  505SOL    HW2 2415   4.040   6.461   4.877
  506SOL     OW 2416   3.499   5.889   2.543
  506SOL    HW1 2417   3.406   5.868   2.575
  506SOL    HW2 2418   3.565   5.866   2.614
  507SOL     OW 2419   2.972   6.392   3.255
  507SOL    HW1 2420   3.064   6.433   3.255
  507SOL    HW2 2421   2.966   6.326   3.330
  508SOL     OW 2422   7.005   3.592   2.224
  508SOL    HW1 2423   6.931   3.563   2.164
  508SOL    HW2 2424   0.036   3.512   2.260
  509SOL     OW 2425   3.364   1.350   1.072
  509SOL    HW1 2426   3.266   1.333   1.082
  509SOL    HW2 2427   3.415   1.269   1.100
  510SOL     OW 2428   6.501   4.411   5.979
  510SOL    HW1 2429   6.544   4.492   5.940
  510SOL    HW2 2430   6.533   4.330   5.930
  511SOL     OW 2431   0.728   2.381   6.567
  511SOL    HW1 2432   0.639   2.383   6.520
  511SOL    HW2 2433   0.720   2.328   6.651
  512SOL     OW 2434   6.810   2.597   6.845
  512SOL    HW1 2435   6.865   2.545   6.910
  512SOL    HW2 2436   6.866   2.621   6.765
  513SOL     OW 2437   5.403   6.796   3.549
  513SOL    HW1 2438   5.310   6.806   3.515
  513SOL    HW2 2439   5.463   6.859   3.500
  514SOL     OW 2440   6.535   0.782   4.338
  514SOL    HW1 2441   6.621   0.731   4.347
  514SOL    HW2 2442   6.508   0.816   4.428
  515SOL     OW 2443   1.954   0.883   0.178
  515SOL    HW1 2444   1.878   0.858   0.118
  515SOL    HW2 2445   1.958   0.819   0.254
  516SOL     OW 2446   2.873   4.829   1.954
  516SOL    HW1 2447   2.845   4.733   1.950
  516SOL    HW2 2448   2.795   4.888   1.931
  517SOL     OW 2449   3.322   4.902   1.957
  517SOL    HW1 2450   3.406   4.849   1.967
  517SOL    HW2 2451   3.318   4.941   1.865
  518SOL     OW 2452   2.320   2.203   3.554
  518SOL    HW1 2453   2.348   2.299   3.564
  518SOL    HW2 2454   2.221   2.198   3.549
  519SOL     OW 2455   0.464   6.549   3.210
  519SOL    HW1 2456   0.498   6.635   3.249
  519SOL    HW2 2457   0.526   6.475   3.236
  520SOL     OW 2458   6.376   3.764   6.712
  520SOL    HW1 2459   6.343   3.819   6.635
  520SOL    HW2 2460   6.431   3.688   6.677
  521SOL     OW 2461   6.289   6.052   5.474
  521SOL    HW1 2462   6.287   6.037   5.375
  521SOL    HW2 2463   6.383   6.047   5.507
  522SOL     OW 2464   4.075   3.619   3.352
  522SOL    HW1 2465   4.166   3.631   3.390
  522SOL    HW2 2466   4.009   3.671   3.406
  523SOL     OW 2467   0.063   6.052   1.412
  523SOL    HW1 2468   0.008   6.114   1.467
  523SOL    HW2 2469   0.111   6.103   1.341
  524SOL     OW 2470   1.343   2.523   3.044
  524SOL    HW1 2471   1.295   2.610   3.044
  524SOL    HW2 2472   1.397   2.514   3.128
  525SOL     OW 2473   1.745   4.363   5.844
  525SOL    HW1 2474   1.811   4.350   5.918
  525SOL    HW2 2475   1.746   4.283   5.784
  526SOL     OW 2476   3.641   6.723   3.804
  526SOL    HW1 2477   3.566   6.773   3.846
  526SOL    HW2 2478   3.648   6.750   3.708
  527SOL     OW 2479   6.725   2.863   0.654
  527SOL    HW1 2480   6.785   2.829   0.726
  527SOL    HW2 2481   6.683   2.949   0.684
  528SOL     OW 2482   1.707   2.456   3.621
  528SOL    HW1 2483   1.616   2.426   3.594
  528SOL    HW2 2484   1.767   2.456   3.541
  529SOL     OW 2485   1.603   6.647   4.963
  529SOL    HW1 2486   1.565   6.666   5.054
  529SOL    HW2 2487   1.682   6.707   4.947
  530SOL     OW 2488   4.067   3.607   3.024
  530SOL    HW1 2489   4.112   3.689   2.990
  530SOL    HW2 2490   4.086   3.597   3.122
  531SOL     OW 2491   0.858   1.284   2.926
  531SOL    HW1 2492   0.807   1.198   2.920
  531SOL    HW2 2493   0.862   1.314   3.021
  532SOL     OW 2494   1.116   2.499   0.425
  532SOL    HW1 2495   1.213   2.523   0.432
  532SOL    HW2 2496   1.078   2.538   0.341
  533SOL     OW 2497   4.211   0.000   3.292
  533SOL    HW1 2498   4.147   6.968   3.233
  533SOL    HW2 2499   4.237   0.086   3.248
  534SOL     OW 2500   5.823   5.909   2.720
  534SOL    HW1 2501   5.880   5.901   2.802
  534SOL    HW2 2502   5.816   6.005   2.694
  535SOL     OW 2503   6.574   4.213   3.365
  535SOL    HW1 2504   6.642   4.140   3.370
  535SOL    HW2 2505   6.615   4.292   3.318
  536SOL     OW 2506   6.540   4.836   2.666
  536SOL    HW1 2507   6.555   4.934   2.660
  536SOL    HW2 2508   6.462   4.818   2.725
  537SOL     OW 2509   3.115   6.925   4.768
  537SOL    HW1 2510   3.113   6.957   4.862
  537SOL    HW2 2511   3.139   6.828   4.766
  538SOL     OW 2512   0.585   4.478   4.076
  538SOL    HW1 2513   0.498   4.472   4.028
  538SOL    HW2 2514   0.660   4.485   4.010
  539SOL     OW 2515   1.999   4.626   1.686
  539SOL    HW1 2516   2.010   4.638   1.785
  539SOL    HW2 2517   1.953   4.706   1.648
  540SOL     OW 2518   1.240   1.510   2.801
  540SOL    HW1 2519   1.181   1.430   2.797
  540SOL    HW2 2520   1.302   1.511   2.723
  541SOL     OW 2521   5.805   5.066   4.355
  541SOL    HW1 2522   5.773   5.121   4.278
  541SOL    HW2 2523   5.728   5.039   4.412
  542SOL     OW 2524   4.487   6.446   6.610
  542SOL    HW1 2525   4.554   6.392   6.661
  542SOL    HW2 2526   4.395   6.416   6.632
  543SOL     OW 2527   6.297   3.607   4.130
  543SOL    HW1 2528   6.345   3.582   4.215
  543SOL    HW2 2529   6.208   3.563   4.128
  544SOL     OW 2530   1.076   4.597   6.794
  544SOL    HW1 2531   1.018   4.635   6.866
  544SOL    HW2 2532   1.100   4.669   6.729
  545SOL     OW 2533   3.464   0.806   1.075
  545SOL    HW1 2534   3.538   0.760   1.125
  545SOL    HW2 2535   3.409   0.738   1.027
  546SOL     OW 2536   1.277   3.738   0.896
  546SOL    HW1 2537   1.275   3.647   0.938
  546SOL    HW2 2538   1.319   3.732   0.806
  547SOL     OW 2539   3.931   1.703   0.177
  547SOL    HW1 2540   3.870   1.759   0.122
  547SOL    HW2 2541   3.981   1.761   0.241
  548SOL     OW 2542   3.193   3.098   1.786
  548SOL    HW1 2543   3.265   3.099   1.717
  548SOL    HW2 2544   3.233   3.104   1.877
  549SOL     OW 2545   5.274   2.305   2.101
  549SOL    HW1 2546   5.276   2.394   2.056
  549SOL    HW2 2547   5.262   2.233   2.032
  550SOL     OW 2548   1.357   5.486   3.571
  550SOL    HW1 2549   1.428   5.546   3.607
  550SOL    HW2 2550   1.267   5.522   3.596
  551SOL     OW 2551   0.511   0.109   1.832
  551SOL    HW1 2552   0.524   0.204   1.805
  551SOL    HW2 2553   0.592   0.077   1.881
  552SOL     OW 2554   5.999   4.506   6.823
  552SOL    HW1 2555   5.975   4.414   6.794
  552SOL    HW2 2556   6.077   4.539   6.769
  553SOL     OW 2557   2.653   6.912   4.417
  553SOL    HW1 2558   2.708   6.845   4.366
  553SOL    HW2 2559   2.560   6.878   4.425
  554SOL     OW 2560   5.712   0.157   0.055
  554SOL    HW1 2561   5.780   0.145   7.000
  554SOL    HW2 2562   5.638   0.216   0.021
  555SOL     OW 2563   3.547   5.047   4.951
  555SOL    HW1 2564   3.514   5.011   4.864
  555SOL    HW2 2565   3.646   5.058   4.947
  556SOL     OW 2566   5.029   1.530   3.863
  556SOL    HW1 2567   4.969   1.522   3.783
  556SOL    HW2 2568   4.973   1.544   3.945
  557SOL     OW 2569   6.839   5.384   0.576
  557SOL    HW1 2570   6.908   5.372   0.647
  557SOL    HW2 2571   6.836   5.479   0.546
  558SOL     OW 2572   3.036   3.224   3.354
  558SOL    HW1 2573   3.011   3.249   3.448
  558SOL    HW2 2574   3.098   3.145   3.357
  559SOL     OW 2575   0.373   5.853   6.209
  559SOL    HW1 2576   0.290   5.800   6.190
  559SOL    HW2 2577   0.393   5.912   6.130
  560SOL     OW 2578   6.204   3.781   3.564
  560SOL    HW1 2579   6.215   3.879   3.546
  560SOL    HW2 2580   6.109   3.763   3.592
  561SOL     OW 2581   0.663   2.325   1.368
  561SOL    HW1 2582   0.607   2.340   1.286
  561SOL    HW2 2583   0.752   2.369   1.357
  562SOL     OW 2584   4.666   7.007   6.524
  562SOL    HW1 2585   4.619   0.078   6.522
  562SOL    HW2 2586   4.695   6.987   6.617
  563SOL     OW 2587   2.855   0.399   3.714
  563SOL    HW1 2588   2.848   0.361   3.806
  563SOL    HW2 2589   2.950   0.392   3.682
  564SOL     OW 2590   1.245   2.629   0.145
  564SOL    HW1 2591   1.150   2.605   0.163
  564SOL    HW2 2592   1.261   2.724   0.170
  565SOL     OW 2593   3.459   3.711   4.629
  565SOL    HW1 2594   3.424   3.794   4.586
  565SOL    HW2 2595   3.548   3.688   4.590
  566SOL     OW 2596   0.383   4.534   3.883
  566SOL    HW1 2597   0.412   4.588   3.804
  566SOL    HW2 2598   0.328   4.456   3.853
  567SOL     OW 2599   2.601   2.775   1.681
  567SOL    HW1 2600   2.663   2.849   1.655
  567SOL    HW2 2601   2.654   2.696   1.710
  568SOL     OW 2602   4.941   0.200   0.106
  568SOL    HW1 2603   4.933   0.107   0.142
  568SOL    HW2 2604   4.920   0.200   0.008
  569SOL     OW 2605   1.632   2.796   0.047
  569SOL    HW1 2606   1.623   2.697   0.039
  569SOL    HW2 2607   1.589   2.841   6.986
  570SOL     OW 2608   3.827   6.709   6.474
  570SOL    HW1 2609   3.881   6.737   6.553
  570SOL    HW2 2610   3.735   6.685   6.504
  571SOL     OW 2611   3.326   5.188   2.584
  571SOL    HW1 2612   3.321   5.288   2.580
  571SOL    HW2 2613   3.308   5.149   2.494
  572SOL     OW 2614   2.789   4.666   5.614
  572SOL    HW1 2615   2.835   4.748   5.581
  572SOL    HW2 2616   2.809   4.588   5.554
  573SOL     OW 2617   5.226   1.300   5.868
  573SOL    HW1 2618   5.215   1.398   5.854
  573SOL    HW2 2619   5.323   1.277   5.867
  574SOL     OW 2620   3.723   1.583   4.997
  574SOL    HW1 2621   3.661   1.506   5.015
  574SOL    HW2 2622   3.790   1.556   4.927
  575SOL     OW 2623   5.184   3.928   1.355
  575SOL    HW1 2624   5.131   3.998   1.306
  575SOL    HW2 2625   5.123   3.855   1.384
  576SOL     OW 2626   1.591   2.296   3.086
  576SOL    HW1 2627   1.573   2.198   3.097
  576SOL    HW2 2628   1.515   2.349   3.124
  577SOL     OW 2629   1.112   1.254   2.815
  577SOL    HW1 2630   1.158   1.165   2.814
  577SOL    HW2 2631   1.039   1.253   2.883
  578SOL     OW 2632   6.744   5.255   4.442
  578SOL    HW1 2633   6.655   5.265   4.398
  578SOL    HW2 2634   6.787   5.345   4.451
  579SOL     OW 2635   1.764   3.318   3.998
  579SOL    HW1 2636   1.862   3.299   3.987
  579SOL    HW2 2637   1.740   3.399   3.945
  580SOL     OW 2638   4.751   5.306   5.547
  580SOL    HW1 2639   4.663   5.353   5.554
  580SOL    HW2 2640   4.748   5.239   5.473
  581SOL     OW 2641   1.725   2.579   1.493
  581SOL    HW1 2642   1.639   2.576   1.442
  581SOL    HW2 2643   1.713   2.636   1.574
  582SOL     OW 2644   4.701   5.998   2.295
  582SOL    HW1 2645   4.698   6.078   2.236
  582SOL    HW2 2646   4.614   5.948   2.287
  583SOL     OW 2647   2.852   6.046   5.211
  583SOL    HW1 2648   2.791   6.125   5.218
  583SOL    HW2 2649   2.892   6.044   5.120
  584SOL     OW 2650   2.513   5.483   6.589
  584SOL    HW1 2651   2.556   5.573   6.601
  584SOL    HW2 2652   2.418   5.495   6.562
  585SOL     OW 2653   4.690   1.668   6.430
  585SOL    HW1 2654   4.723   1.601   6.497
  585SOL    HW2 2655   4.738   1.655   6.343
  586SOL     OW 2656   3.501   0.342   6.556
  586SOL    HW1 2657   3.585   0.393   6.576
  586SOL    HW2 2658   3.463   0.374   6.469
  587SOL     OW 2659   4.537   2.065   4.096
  587SOL    HW1 2660   4.453   2.063   4.042
  587SOL    HW2 2661   4.604   2.003   4.056
  588SOL     OW 2662   2.693   5.202   1.424
  588SOL    HW1 2663   2.643   5.289   1.415
  588SOL    HW2 2664   2.628   5.129   1.448
  589SOL     OW 2665   3.407   4.570   1.609
  589SOL    HW1 2666   3.314   4.572   1.644
  589SOL    HW2 2667   3.470   4.608   1.677
  590SOL     OW 2668   5.221   2.564   2.001
  590SOL    HW1 2669   5.134   2.603   1.970
  590SOL    HW2 2670   5.297   2.613   1.958
  591SOL     OW 2671   3.330   5.611   3.621
  591SOL    HW1 2672   3.391   5.537   3.648
  591SOL    HW2 2673   3.377   5.699   3.633
  592SOL     OW 2674   3.758   1.183   1.194
  592SOL    HW1 2675   3.765   1.116   1.120
  592SOL    HW2 2676   3.813   1.263   1.172
  593SOL     OW 2677   4.014   2.197   4.326
  593SOL    HW1 2678   3.986   2.102   4.306
  593SOL    HW2 2679   3.996   2.216   4.422
  594SOL     OW 2680   6.446   1.335   0.096
  594SOL    HW1 2681   6.530   1.347   0.043
  594SOL    HW2 2682   6.464   1.358   0.192
  595SOL     OW 2683   5.359   0.934   3.605
  595SOL    HW1 2684   5.292   1.008   3.605
  595SOL    HW2 2685   5.391   0.917   3.699
  596SOL     OW 2686   1.032   5.503   3.541
  596SOL    HW1 2687   1.078   5.443   3.606
  596SOL    HW2 2688   0.937   5.474   3.529
  597SOL     OW 2689   2.123   0.116   0.092
  597SOL    HW1 2690   2.080   0.034   0.053
  597SOL    HW2 2691   2.222   0.106   0.090
  598SOL     OW 2692   4.012   3.908   5.291
  598SOL    HW1 2693   4.100   3.886   5.250
  598SOL    HW2 2694   4.023   3.920   5.390
  599SOL     OW 2695   2.786   6.462   2.072
  599SOL    HW1 2696   2.693   6.461   2.111
  599SOL    HW2 2697   2.789   6.527   1.996
  600SOL     OW 2698   6.249   1.519   0.105
  600SOL    HW1 2699   6.263   1.581   0.029
  600SOL    HW2 2700   6.321   1.449   0.105
  601SOL     OW 2701   1.371   0.408   4.717
  601SOL    HW1 2702   1.290   0.442   4.764
  601SOL    HW2 2703   1.431   0.484   4.694
  602SOL     OW 2704   1.373   1.266   6.163
  602SOL    HW1 2705   1.380   1.169   6.185
  602SOL    HW2 2706   1.278   1.296   6.173
  603SOL     OW 2707   2.945   2.583   5.386
  603SOL    HW1 2708   3.034   2.540   5.399
  603SOL    HW2 2709   2.942   2.668   5.438
  604SOL     OW 2710   1.205   2.102   1.704
  604SOL    HW1 2711   1.244   2.034   1.642
  604SOL    HW2 2712   1.215   2.070   1.798
  605SOL     OW 2713   6.851   5.520   0.186
  605SOL    HW1 2714   6.782   5.591   0.199
  605SOL    HW2 2715   6.827   5.464   0.107
  606SOL     OW 2716   4.978   6.455   6.584
  606SOL    HW1 2717   5.013   6.548   6.574
  606SOL    HW2 2718   4.886   6.450   6.545
  607SOL     OW 2719   6.162   5.394   5.097
  607SOL    HW1 2720   6.234   5.326   5.104
  607SOL    HW2 2721   6.124   5.393   5.004
  608SOL     OW 2722   4.086   6.272   6.856
  608SOL    HW1 2723   4.035   6.356   6.875
  608SOL    HW2 2724   4.142   6.248   6.936
  609SOL     OW 2725   3.757   2.853   2.301
  609SOL    HW1 2726   3.805   2.771   2.270
  609SOL    HW2 2727   3.750   2.852   2.401
  610SOL     OW 2728   5.722   4.075   2.304
  610SOL    HW1 2729   5.769   4.061   2.390
  610SOL    HW2 2730   5.747   4.164   2.265
  611SOL     OW 2731   4.346   6.834   2.074
  611SOL    HW1 2732   4.349   6.887   2.158
  611SOL    HW2 2733   4.438   6.827   2.035
  612SOL     OW 2734   3.694   6.347   4.704
  612SOL    HW1 2735   3.713   6.341   4.802
  612SOL    HW2 2736   3.632   6.273   4.678
  613SOL     OW 2737   4.443   6.278   5.179
  613SOL    HW1 2738   4.498   6.353   5.214
  613SOL    HW2 2739   4.351   6.311   5.158
  614SOL     OW 2740   5.188   5.735   0.183
  614SOL    HW1 2741   5.206   5.637   0.171
  614SOL    HW2 2742   5.089   5.751   0.186
  615SOL     OW 2743   6.457   2.161   1.919
  615SOL    HW1 2744   6.539   2.190   1.968
  615SOL    HW2 2745   6.412   2.088   1.971
  616SOL     OW 2746   0.678   2.896   3.372
  616SOL    HW1 2747   0.637   2.826   3.430
  616SOL    HW2 2748   0.681   2.983   3.422
  617SOL     OW 2749   0.477   4.570   5.886
  617SOL    HW1 2750   0.493   4.661   5.848
  617SOL    HW2 2751   0.560   4.539   5.933
  618SOL     OW 2752   6.564   2.651   0.686
  618SOL    HW1 2753   6.614   2.720   0.633
  618SOL    HW2 2754   6.556   2.568   0.632
  619SOL     OW 2755   4.304   0.957   0.276
  619SOL    HW1 2756   4.248   0.932   0.355
  619SOL    HW2 2757   4.395   0.919   0.287
  620SOL     OW 2758   4.044   2.681   1.228
  620SOL    HW1 2759   4.107   2.750   1.264
  620SOL    HW2 2760   3.995   2.718   1.149
  621SOL     OW 2761   2.146   6.740   0.180
  621SOL    HW1 2762   2.169   6.654   0.133
  621SOL    HW2 2763   2.092   6.797   0.119
  622SOL     OW 2764   0.996   0.202   6.282
  622SOL    HW1 2765   0.983   0.269   6.208
  622SOL    HW2 2766   1.082   0.220   6.328
  623SOL     OW 2767   0.885   5.825   5.202
  623SOL    HW1 2768   0.869   5.746   5.143
  623SOL    HW2 2769   0.910   5.904   5.145
  624SOL     OW 2770   6.942   2.889   1.139
  624SOL    HW1 2771   6.985   2.843   1.217
  624SOL    HW2 2772   6.933   2.986   1.159
  625SOL     OW 2773   1.842   1.693   1.630
  625SOL    HW1 2774   1.880   1.726   1.717
  625SOL    HW2 2775   1.744   1.676   1.640
  626SOL     OW 2776   2.036   5.968   3.617
  626SOL    HW1 2777   2.110   5.967   3.551
  626SOL    HW2 2778   1.949   5.952   3.570
  627SOL     OW 2779   5.207   6.475   0.059
  627SOL    HW1 2780   5.277   6.429   0.005
  627SOL    HW2 2781   5.140   6.518   7.015
  628SOL     OW 2782   6.012   6.072   6.287
  628SOL    HW1 2783   6.034   6.035   6.196
  628SOL    HW2 2784   5.918   6.106   6.286
  629SOL     OW 2785   6.875   6.403   6.991
  629SOL    HW1 2786   6.895   6.426   6.895
  629SOL    HW2 2787   6.960   6.403   0.026
  630SOL     OW 2788   6.763   1.935   2.242
  630SOL    HW1 2789   6.789   1.839   2.230
  630SOL    HW2 2790   6.832   1.994   2.199
  631SOL     OW 2791   3.314   6.826   5.502
  631SOL    HW1 2792   3.351   6.807   5.411
  631SOL    HW2 2793   3.328   6.747   5.561
  632SOL     OW 2794   2.543   1.096   0.870
  632SOL    HW1 2795   2.571   1.160   0.798
  632SOL    HW2 2796   2.544   1.003   0.833
  633SOL     OW 2797   4.492   4.227   0.582
  633SOL    HW1 2798   4.491   4.141   0.530
  633SOL    HW2 2799   4.586   4.249   0.608
  634SOL     OW 2800   4.255   4.644   1.122
  634SOL    HW1 2801   4.280   4.709   1.051
  634SOL    HW2 2802   4.179   4.587   1.091
  635SOL     OW 2803   4.858   5.026   0.694
  635SOL    HW1 2804   4.769   4.986   0.670
  635SOL    HW2 2805   4.925   4.954   0.708
  636SOL     OW 2806   4.384   5.285   6.574
  636SOL    HW1 2807   4.325   5.230   6.516
  636SOL    HW2 2808   4.346   5.289   6.666
  637SOL     OW 2809   6.402   4.162   3.006
  637SOL    HW1 2810   6.440   4.146   2.915
  637SOL    HW2 2811   6.437   4.249   3.042
  638SOL     OW 2812   5.156   2.196   3.237
  638SOL    HW1 2813   5.157   2.258   3.316
  638SOL    HW2 2814   5.075   2.214   3.182
  639SOL     OW 2815   4.893   3.710   2.573
  639SOL    HW1 2816   4.883   3.615   2.600
  639SOL    HW2 2817   4.892   3.769   2.654
  640SOL     OW 2818   0.140   5.146   4.277
  640SOL    HW1 2819   0.177   5.101   4.358
  640SOL    HW2 2820   0.043   5.164   4.291
  641SOL     OW 2821   6.615   5.811   4.548
  641SOL    HW1 2822   6.604   5.807   4.449
  641SOL    HW2 2823   6.537   5.860   4.588
  642SOL     OW 2824   0.075   3.176   4.677
  642SOL    HW1 2825   0.006   3.197   4.607
  642SOL    HW2 2826   0.056   3.087   4.717
  643SOL     OW 2827   4.989   5.593   4.914
  643SOL    HW1 2828   5.002   5.673   4.856
  643SOL    HW2 2829   5.030   5.513   4.870
  644SOL     OW 2830   1.356   5.543   4.267
  644SOL    HW1 2831   1.342   5.445   4.252
  644SOL    HW2 2832   1.374   5.588   4.179
  645SOL     OW 2833   4.254   1.629   4.059
  645SOL    HW1 2834   4.211   1.566   3.994
  645SOL    HW2 2835   4.346   1.598   4.080
  646SOL     OW 2836   2.989   1.278   4.434
  646SOL    HW1 2837   3.019   1.358   4.383
  646SOL    HW2 2838   2.982   1.200   4.371
  647SOL     OW 2839   5.572   2.104   4.816
  647SOL    HW1 2840   5.567   2.190   4.767
  647SOL    HW2 2841   5.512   2.108   4.897
  648SOL     OW 2842   0.041   3.572   4.103
  648SOL    HW1 2843   7.002   3.491   4.091
  648SOL    HW2 2844   0.003   3.647   4.048
  649SOL     OW 2845   3.296   3.700   1.035
  649SOL    HW1 2846   3.312   3.738   1.126
  649SOL    HW2 2847   3.214   3.642   1.037
  650SOL     OW 2848   6.132   4.747   0.840
  650SOL    HW1 2849   6.138   4.821   0.907
  650SOL    HW2 2850   6.220   4.736   0.794
  651SOL     OW 2851   6.377   6.426   5.952
  651SOL    HW1 2852   6.391   6.521   5.924
  651SOL    HW2 2853   6.389   6.366   5.873
  652SOL     OW 2854   5.088   6.170   3.367
  652SOL    HW1 2855   5.047   6.097   3.312
  652SOL    HW2 2856   5.017   6.219   3.416
  653SOL     OW 2857   2.756   5.624   4.933
  653SOL    HW1 2858   2.685   5.577   4.880
  653SOL    HW2 2859   2.846   5.600   4.895
  654SOL     OW 2860   0.249   4.213   6.230
  654SOL    HW1 2861   0.231   4.130   6.284
  654SOL    HW2 2862   0.249   4.191   6.133
  655SOL     OW 2863   0.655   6.077   2.188
  655SOL    HW1 2864   0.711   5.997   2.210
  655SOL    HW2 2865   0.558   6.056   2.205
  656SOL     OW 2866   1.910   5.542   1.818
  656SOL    HW1 2867   1.918   5.578   1.725
  656SOL    HW2 2868   1.879   5.447   1.814
  657SOL     OW 2869   1.419   2.507   1.282
  657SOL    HW1 2870   1.425   2.409   1.301
  657SOL    HW2 2871   1.495   2.535   1.224
  658SOL     OW 2872   2.999   3.795   6.506
  658SOL    HW1 2873   3.004   3.712   6.449
  658SOL    HW2 2874   2.934   3.858   6.465
  659SOL     OW 2875   2.398   6.268   6.033
  659SOL    HW1 2876   2.430   6.174   6.049
  659SOL    HW2 2877   2.355   6.274   5.943
  660SOL     OW 2878   5.073   4.590   2.575
  660SOL    HW1 2879   5.086   4.561   2.670
  660SOL    HW2 2880   5.128   4.671   2.557
  661SOL     OW 2881   4.124   5.210   3.075
  661SOL    HW1 2882   4.217   5.230   3.105
  661SOL    HW2 2883   4.090   5.129   3.124
  662SOL     OW 2884   4.305   0.131   5.682
  662SOL    HW1 2885   4.303   0.077   5.598
  662SOL    HW2 2886   4.213   0.161   5.705
  663SOL     OW 2887   2.464   3.789   6.115
  663SOL    HW1 2888   2.415   3.703   6.099
  663SOL    HW2 2889   2.466   3.842   6.031
  664SOL     OW 2890   6.962   5.309   6.106
  664SOL    HW1 2891   0.028   5.260   6.082
  664SOL    HW2 2892   6.984   5.404   6.128
  665SOL     OW 2893   5.108   5.063   1.446
  665SOL    HW1 2894   5.057   4.986   1.406
  665SOL    HW2 2895   5.086   5.070   1.543
  666SOL     OW 2896   5.070   1.890   2.691
  666SOL    HW1 2897   4.979   1.915   2.656
  666SOL    HW2 2898   5.139   1.912   2.622
  667SOL     OW 2899   1.061   4.704   3.475
  667SOL    HW1 2900   1.003   4.623   3.470
  667SOL    HW2 2901   1.140   4.685   3.534
  668SOL     OW 2902   5.239   6.754   6.119
  668SOL    HW1 2903   5.317   6.768   6.180
  668SOL    HW2 2904   5.263   6.785   6.027
  669SOL     OW 2905   4.237   0.699   2.917
  669SOL    HW1 2906   4.311   0.708   2.983
  669SOL    HW2 2907   4.168   0.636   2.952
  670SOL     OW 2908   3.412   2.495   1.040
  670SOL    HW1 2909   3.498   2.444   1.043
  670SOL    HW2 2910   3.341   2.445   1.089
  671SOL     OW 2911   1.436   6.459   0.505
  671SOL    HW1 2912   1.341   6.439   0.529
  671SOL    HW2 2913   1.439   6.508   0.418
  672SOL     OW 2914   1.105   5.222   2.143
  672SOL    HW1 2915   1.043   5.257   2.213
  672SOL    HW2 2916   1.053   5.191   2.064
  673SOL     OW 2917   0.041   6.688   1.677
  673SOL    HW1 2918   0.040   6.781   1.639
  673SOL    HW2 2919   7.001   6.685   1.759
  674SOL     OW 2920   1.125   1.599   5.265
  674SOL    HW1 2921   1.138   1.675   5.201
  674SOL    HW2 2922   1.213   1.558   5.287
  675SOL     OW 2923   0.818   0.808   3.368
  675SOL    HW1 2924   0.840   0.758   3.452
  675SOL    HW2 2925   0.739   0.868   3.386
  676SOL     OW 2926   3.120   6.063   2.479
  676SOL    HW1 2927   3.058   6.126   2.432
  676SOL    HW2 2928   3.195   6.038   2.417
  677SOL     OW 2929   5.670   2.306   0.617
  677SOL    HW1 2930   5.615   2.232   0.655
  677SOL    HW2 2931   5.718   2.274   0.536
  678SOL     OW 2932   1.949   0.611   5.481
  678SOL    HW1 2933   2.009   0.579   5.408
  678SOL    HW2 2934   1.858   0.571   5.470
  679SOL     OW 2935   4.304   1.879   3.538
  679SOL    HW1 2936   4.402   1.899   3.544
  679SOL    HW2 2937   4.256   1.921   3.615
  680SOL     OW 2938   5.668   5.741   5.805
  680SOL    HW1 2939   5.675   5.756   5.904
  680SOL    HW2 2940   5.652   5.829   5.759
  681SOL     OW 2941   5.522   4.702   1.838
  681SOL    HW1 2942   5.527   4.674   1.742
  681SOL    HW2 2943   5.566   4.791   1.848
  682SOL     OW 2944   0.198   1.471   0.925
  682SOL    HW1 2945   0.205   1.570   0.937
  682SOL    HW2 2946   0.105   1.447   0.897
  683SOL     OW 2947   4.888   3.400   0.377
  683SOL    HW1 2948   4.842   3.312   0.394
  683SOL    HW2 2949   4.984   3.383   0.354
  684SOL     OW 2950   6.985   1.149   0.330
  684SOL    HW1 2951   6.983   1.073   0.394
  684SOL    HW2 2952   6.919   1.219   0.358
  685SOL     OW 2953   3.676   0.982   3.196
  685SOL    HW1 2954   3.711   0.890   3.183
  685SOL    HW2 2955   3.633   0.989   3.286
  686SOL     OW 2956   4.910   3.071   3.559
  686SOL    HW1 2957   5.000   3.037   3.585
  686SOL    HW2 2958   4.847   3.063   3.636
  687SOL     OW 2959   0.273   2.107   4.189
  687SOL    HW1 2960   0.252   2.165   4.111
  687SOL    HW2 2961   0.352   2.049   4.168
  688SOL     OW 2962   0.529   1.561   0.279
  688SOL    HW1 2963   0.589   1.564   0.199
  688SOL    HW2 2964   0.534   1.470   0.320
  689SOL     OW 2965   6.836   4.789   6.375
  689SOL    HW1 2966   6.742   4.761   6.395
  689SOL    HW2 2967   6.888   4.710   6.341
  690SOL     OW 2968   0.454   3.997   2.601
  690SOL    HW1 2969   0.530   3.940   2.633
  690SOL    HW2 2970   0.413   4.044   2.679
  691SOL     OW 2971   2.486   6.852   0.450
  691SOL    HW1 2972   2.498   6.949   0.430
  691SOL    HW2 2973   2.576   6.811   0.467
  692SOL     OW 2974   3.295   0.300   4.068
  692SOL    HW1 2975   3.237   0.265   4.141
  692SOL    HW2 2976   3.367   0.234   4.047
  693SOL     OW 2977   5.643   0.628   3.709
  693SOL    HW1 2978   5.602   0.654   3.622
  693SOL    HW2 2979   5.735   0.667   3.716
  694SOL     OW 2980   4.585   6.239   3.402
  694SOL    HW1 2981   4.598   6.203   3.494
  694SOL    HW2 2982   4.671   6.236   3.352
  695SOL     OW 2983   4.294   0.083   3.823
  695SOL    HW1 2984   4.384   0.089   3.780
  695SOL    HW2 2985   4.303   0.036   3.911
  696SOL     OW 2986   4.595   4.832   2.558
  696SOL    HW1 2987   4.650   4.838   2.475
  696SOL    HW2 2988   4.527   4.906   2.559
  697SOL     OW 2989   1.854   3.585   3.731
  697SOL    HW1 2990   1.855   3.653   3.657
  697SOL    HW2 2991   1.879   3.495   3.695
  698SOL     OW 2992   4.953   6.790   0.935
  698SOL    HW1 2993   4.997   6.750   0.854
  698SOL    HW2 2994   4.856   6.768   0.935
  699SOL     OW 2995   1.821   3.723   6.270
  699SOL    HW1 2996   1.824   3.814   6.228
  699SOL    HW2 2997   1.752   3.721   6.341
  700SOL     OW 2998   2.599   0.264   2.460
  700SOL    HW1 2999   2.510   0.220   2.475
  700SOL    HW2 3000   2.670   0.194   2.456
  701SOL     OW 3001   6.382   3.959   5.941
  701SOL    HW1 3002   6.376   4.050   5.982
  701SOL    HW2 3003   6.461   3.955   5.880
  702SOL     OW 3004   1.496   6.191   4.727
  702SOL    HW1 3005   1.489   6.284   4.764
  702SOL    HW2 3006   1.459   6.126   4.794
  703SOL     OW 3007   3.502   3.833   6.676
  703SOL    HW1 3008   3.411   3.809   6.643
  703SOL    HW2 3009   3.555   3.750   6.693
  704SOL     OW 3010   1.673   2.571   0.342
  704SOL    HW1 3011   1.600   2.580   0.274
  704SOL    HW2 3012   1.746   2.513   0.306
  705SOL     OW 3013   5.976   5.276   2.687
  705SOL    HW1 3014   6.019   5.363   2.713
  705SOL    HW2 3015   5.926   5.288   2.601
  706SOL     OW 3016   4.675   1.915   4.833
  706SOL    HW1 3017   4.706   1.832   4.788
  706SOL    HW2 3018   4.596   1.953   4.784
  707SOL     OW 3019   4.463   5.595   2.356
  707SOL    HW1 3020   4.379   5.575   2.304
  707SOL    HW2 3021   4.538   5.540   2.320
  708SOL     OW 3022   4.053   7.014   2.298
  708SOL    HW1 3023   4.109   0.079   2.289
  708SOL    HW2 3024   3.968   0.019   2.345
  709SOL     OW 3025   0.182   5.932   1.082
  709SOL    HW1 3026   0.264   5.928   1.026
  709SOL    HW2 3027   0.179   6.018   1.132
  710SOL     OW 3028   3.713   2.610   1.123
  710SOL    HW1 3029   3.703   2.666   1.206
  710SOL    HW2 3030   3.672   2.520   1.139
  711SOL     OW 3031   0.017   3.131   5.808
  711SOL    HW1 3032   0.045   3.136   5.904
  711SOL    HW2 3033   0.089   3.085   5.755
  712SOL     OW 3034   4.512   2.626   0.975
  712SOL    HW1 3035   4.455   2.707   0.990
  712SOL    HW2 3036   4.581   2.621   1.048
  713SOL     OW 3037   4.168   2.266   5.664
  713SOL    HW1 3038   4.226   2.345   5.644
  713SOL    HW2 3039   4.194   2.227   5.752
  714SOL     OW 3040   0.294   4.704   3.514
  714SOL    HW1 3041   0.252   4.719   3.604
  714SOL    HW2 3042   0.240   4.751   3.445
  715SOL     OW 3043   5.167   5.994   6.848
  715SOL    HW1 3044   5.206   6.086   6.837
  715SOL    HW2 3045   5.172   5.967   6.944
  716SOL     OW 3046   0.733   0.548   2.024
  716SOL    HW1 3047   0.762   0.583   1.935
  716SOL    HW2 3048   0.800   0.576   2.094
  717SOL     OW 3049   6.548   4.018   4.396
  717SOL    HW1 3050   6.493   3.965   4.332
  717SOL    HW2 3051   6.555   3.969   4.483
  718SOL     OW 3052   4.383   2.954   6.121
  718SOL    HW1 3053   4.297   2.945   6.072
  718SOL    HW2 3054   4.458   2.961   6.056
  719SOL     OW 3055   6.311   0.980   2.517
  719SOL    HW1 3056   6.248   1.011   2.447
  719SOL    HW2 3057   6.260   0.937   2.592
  720SOL     OW 3058   2.354   0.490   6.268
  720SOL    HW1 3059   2.439   0.502   6.216
  720SOL    HW2 3060   2.303   0.576   6.268
  721SOL     OW 3061   2.444   1.945   3.257
  721SOL    HW1 3062   2.473   1.904   3.171
  721SOL    HW2 3063   2.469   1.885   3.333
  722SOL     OW 3064   3.033   0.270   5.525
  722SOL    HW1 3065   2.988   0.304   5.442
  722SOL    HW2 3066   2.964   0.255   5.596
  723SOL     OW 3067   1.067   4.409   3.583
  723SOL    HW1 3068   1.045   4.316   3.613
  723SOL    HW2 3069   1.166   4.423   3.591
  724SOL     OW 3070   1.206   2.514   4.017
  724SOL    HW1 3071   1.223   2.608   4.045
  724SOL    HW2 3072   1.108   2.501   4.001
  725SOL     OW 3073   2.357   5.911   1.517
  725SOL    HW1 3074   2.448   5.885   1.483
  725SOL    HW2 3075   2.306   5.957   1.445
  726SOL     OW 3076   3.502   5.105   1.456
  726SOL    HW1 3077   3.514   5.201   1.434
  726SOL    HW2 3078   3.474   5.095   1.551
  727SOL     OW 3079   6.084   4.905   5.769
  727SOL    HW1 3080   6.161   4.889   5.831
  727SOL    HW2 3081   5.999   4.873   5.812
  728SOL     OW 3082   6.640   3.072   4.174
  728SOL    HW1 3083   6.640   3.004   4.100
  728SOL    HW2 3084   6.570   3.048   4.241
  729SOL     OW 3085   0.496   1.794   1.695
  729SOL    HW1 3086   0.436   1.746   1.759
  729SOL    HW2 3087   0.546   1.865   1.743
  730SOL     OW 3088   5.753   0.074   4.402
  730SOL    HW1 3089   5.842   0.029   4.397
  730SOL    HW2 3090   5.694   0.040   4.328
  731SOL     OW 3091   4.823   4.505   6.209
  731SOL    HW1 3092   4.775   4.470   6.289
  731SOL    HW2 3093   4.919   4.523   6.234
  732SOL     OW 3094   5.879   3.358   1.684
  732SOL    HW1 3095   5.811   3.429   1.704
  732SOL    HW2 3096   5.910   3.317   1.770
  733SOL     OW 3097   5.172   6.732   4.905
  733SOL    HW1 3098   5.193   6.634   4.910
  733SOL    HW2 3099   5.237   6.782   4.961
  734SOL     OW 3100   6.722   5.132   2.793
  734SOL    HW1 3101   6.648   5.168   2.851
  734SOL    HW2 3102   6.685   5.108   2.703
  735SOL     OW 3103   4.633   1.663   0.056
  735SOL    HW1 3104   4.675   1.588   0.107
  735SOL    HW2 3105   4.542   1.682   0.092
  736SOL     OW 3106   6.758   1.890   3.511
  736SOL    HW1 3107   6.701   1.839   3.576
  736SOL    HW2 3108   6.853   1.859   3.518
  737SOL     OW 3109   5.265   1.641   4.826
  737SOL    HW1 3110   5.260   1.728   4.875
  737SOL    HW2 3111   5.278   1.658   4.729
  738SOL     OW 3112   2.331   3.825   1.084
  738SOL    HW1 3113   2.243   3.858   1.051
  738SOL    HW2 3114   2.322   3.730   1.113
  739SOL     OW 3115   4.733   1.097   3.684
  739SOL    HW1 3116   4.825   1.062   3.665
  739SOL    HW2 3117   4.665   1.033   3.647
  740SOL     OW 3118   6.433   1.260   1.418
  740SOL    HW1 3119   6.532   1.253   1.401
  740SOL    HW2 3120   6.403   1.181   1.470
  741SOL     OW 3121   1.551   0.537   3.199
  741SOL    HW1 3122   1.571   0.461   3.261
  741SOL    HW2 3123   1.637   0.580   3.170
  742SOL     OW 3124   3.110   6.679   1.816
  742SOL    HW1 3125   3.120   6.618   1.895
  742SOL    HW2 3126   3.130   6.773   1.844
  743SOL     OW 3127   0.706   4.793   3.683
  743SOL    HW1 3128   0.739   4.699   3.674
  743SOL    HW2 3129   0.782   4.853   3.707
  744SOL     OW 3130   5.470   0.136   0.631
  744SOL    HW1 3131   5.548   0.087   0.593
  744SOL    HW2 3132   5.500   0.225   0.666
  745SOL     OW 3133   1.915   5.189   4.372
  745SOL    HW1 3134   1.870   5.257   4.430
  745SOL    HW2 3135   1.877   5.193   4.280
  746SOL     OW 3136   6.627   4.202   6.961
  746SOL    HW1 3137   6.717   4.197   7.002
  746SOL    HW2 3138   6.557   4.189   0.014
  747SOL     OW 3139   3.652   6.491   4.219
  747SOL    HW1 3140   3.672   6.585   4.247
  747SOL    HW2 3141   3.719   6.429   4.260
  748SOL     OW 3142   4.016   4.746   1.940
  748SOL    HW1 3143   4.105   4.704   1.919
  748SOL    HW2 3144   4.009   4.762   2.039
  749SOL     OW 3145   5.772   3.703   4.647
  749SOL    HW1 3146   5.720   3.776   4.690
  749SOL    HW2 3147   5.735   3.684   4.556
  750SOL     OW 3148   2.592   2.072   1.542
  750SOL    HW1 3149   2.601   2.170   1.559
  750SOL    HW2 3150   2.642   2.021   1.611
  751SOL     OW 3151   4.282   1.607   6.937
  751SOL    HW1 3152   4.286   1.706   6.932
  751SOL    HW2 3153   4.320   1.568   6.852
  752SOL     OW 3154   3.593   0.937   1.852
  752SOL    HW1 3155   3.560   0.920   1.946
  752SOL    HW2 3156   3.568   1.029   1.824
  753SOL     OW 3157   1.629   3.557   5.602
  753SOL    HW1 3158   1.578   3.633   5.562
  753SOL    HW2 3159   1.584   3.528   5.687
  754SOL     OW 3160   4.636   2.176   5.243
  754SOL    HW1 3161   4.627   2.102   5.176
  754SOL    HW2 3162   4.548   2.222   5.254
  755SOL     OW 3163   1.306   4.718   4.752
  755SOL    HW1 3164   1.297   4.635   4.699
  755SOL    HW2 3165   1.390   4.766   4.726
  756SOL     OW 3166   2.980   6.244   6.810
  756SOL    HW1 3167   2.952   6.209   6.721
  756SOL    HW2 3168   2.910   6.306   6.846
  757SOL     OW 3169   0.653   0.414   4.055
  757SOL    HW1 3170   0.696   0.500   4.079
  757SOL    HW2 3171   0.678   0.389   3.961
  758SOL     OW 3172   3.113   0.061   2.878
  758SOL    HW1 3173   3.068   0.075   2.789
  758SOL    HW2 3174   3.055   0.096   2.951
  759SOL     OW 3175   0.310   2.372   1.976
  759SOL    HW1 3176   0.327   2.378   1.878
  759SOL    HW2 3177   0.218   2.408   1.996
  760SOL     OW 3178   6.314   0.049   4.174
  760SOL    HW1 3179   6.271   0.093   4.095
  760SOL    HW2 3180   6.293   0.102   4.256
  761SOL     OW 3181   5.428   4.147   6.229
  761SOL    HW1 3182   5.401   4.070   6.287
  761SOL    HW2 3183   5.489   4.114   6.156
  762SOL     OW 3184   2.410   6.700   5.078
  762SOL    HW1 3185   2.472   6.680   5.154
  762SOL    HW2 3186   2.377   6.614   5.039
  763SOL     OW 3187   4.353   5.211   6.237
  763SOL    HW1 3188   4.289   5.252   6.172
  763SOL    HW2 3189   4.328   5.115   6.251
  764SOL     OW 3190   5.550   0.786   4.946
  764SOL    HW1 3191   5.463   0.755   4.984
  764SOL    HW2 3192   5.592   0.851   5.009
  765SOL     OW 3193   1.523   5.246   1.415
  765SOL    HW1 3194   1.431   5.235   1.451
  765SOL    HW2 3195   1.565   5.327   1.454
  766SOL     OW 3196   2.654   2.499   6.171
  766SOL    HW1 3197   2.723   2.437   6.210
  766SOL    HW2 3198   2.564   2.456   6.177
  767SOL     OW 3199   6.611   5.927   2.610
  767SOL    HW1 3200   6.680   5.997   2.592
  767SOL    HW2 3201   6.653   5.852   2.661
  768SOL     OW 3202   2.687   6.089   2.529
  768SOL    HW1 3203   2.716   6.126   2.617
  768SOL    HW2 3204   2.664   5.992   2.539
  769SOL     OW 3205   2.234   1.295   5.636
  769SOL    HW1 3206   2.271   1.303   5.543
  769SOL    HW2 3207   2.280   1.220   5.683
  770SOL     OW 3208   1.576   4.367   3.212
  770SOL    HW1 3209   1.480   4.361   3.237
  770SOL    HW2 3210   1.630   4.393   3.293
  771SOL     OW 3211   1.161   4.616   2.496
  771SOL    HW1 3212   1.195   4.575   2.412
  771SOL    HW2 3213   1.221   4.691   2.523
  772SOL     OW 3214   6.004   5.041   6.741
  772SOL    HW1 3215   6.065   5.004   6.811
  772SOL    HW2 3216   5.951   4.967   6.700
  773SOL     OW 3217   0.307   4.264   3.777
  773SOL    HW1 3218   0.383   4.217   3.732
  773SOL    HW2 3219   0.316   4.255   3.876
  774SOL     OW 3220   1.735   1.575   1.250
  774SOL    HW1 3221   1.788   1.634   1.311
  774SOL    HW2 3222   1.758   1.479   1.270
  775SOL     OW 3223   1.881   2.503   3.835
  775SOL    HW1 3224   1.967   2.549   3.812
  775SOL    HW2 3225   1.814   2.520   3.763
  776SOL     OW 3226   1.053   0.801   5.449
  776SOL    HW1 3227   1.116   0.877   5.466
  776SOL    HW2 3228   1.104   0.714   5.453
  777SOL     OW 3229   1.953   4.310   2.067
  777SOL    HW1 3230   1.969   4.321   1.969
  777SOL    HW2 3231   1.887   4.237   2.082
  778SOL     OW 3232   2.393   1.285   2.333
  778SOL    HW1 3233   2.398   1.185   2.335
  778SOL    HW2 3234   2.326   1.316   2.401
  779SOL     OW 3235   6.760   2.288   2.505
  779SOL    HW1 3236   6.764   2.300   2.604
  779SOL    HW2 3237   6.743   2.377   2.462
  780SOL     OW 3238   0.463   3.303   4.103
  780SOL    HW1 3239   0.488   3.302   4.200
  780SOL    HW2 3240   0.545   3.297   4.047
  781SOL     OW 3241   6.048   6.825   0.236
  781SOL    HW1 3242   6.098   6.824   0.323
  781SOL    HW2 3243   5.951   6.843   0.253
  782SOL     OW 3244   1.579   3.695   6.471
  782SOL    HW1 3245   1.480   3.706   6.483
  782SOL    HW2 3246   1.623   3.694   6.560
  783SOL     OW 3247   4.942   4.837   2.062
  783SOL    HW1 3248   4.858   4.802   2.105
  783SOL    HW2 3249   5.019   4.780   2.091
  784SOL     OW 3250   4.506   4.953   0.348
  784SOL    HW1 3251   4.452   4.927   0.268
  784SOL    HW2 3252   4.599   4.975   0.321
  785SOL     OW 3253   0.456   2.100   3.484
  785SOL    HW1 3254   0.495   2.077   3.573
  785SOL    HW2 3255   0.528   2.137   3.425
  786SOL     OW 3256   0.769   0.293   3.534
  786SOL    HW1 3257   0.685   0.307   3.483
  786SOL    HW2 3258   0.831   0.370   3.521
  787SOL     OW 3259   1.454   0.256   6.870
  787SOL    HW1 3260   1.492   0.270   6.779
  787SOL    HW2 3261   1.492   0.324   6.933
  788SOL     OW 3262   3.862   1.590   0.495
  788SOL    HW1 3263   3.817   1.668   0.452
  788SOL    HW2 3264   3.803   1.510   0.490
  789SOL     OW 3265   3.991   4.217   1.320
  789SOL    HW1 3266   3.905   4.230   1.369
  789SOL    HW2 3267   4.016   4.120   1.322
  790SOL     OW 3268   1.734   1.706   2.901
  790SOL    HW1 3269   1.637   1.685   2.891
  790SOL    HW2 3270   1.782   1.681   2.817
  791SOL     OW 3271   1.840   5.670   4.470
  791SOL    HW1 3272   1.873   5.662   4.376
  791SOL    HW2 3273   1.743   5.691   4.469
  792SOL     OW 3274   0.575   1.232   1.174
  792SOL    HW1 3275   0.638   1.256   1.100
  792SOL    HW2 3276   0.486   1.274   1.157
  793SOL     OW 3277   4.921   5.004   3.794
  793SOL    HW1 3278   4.881   5.020   3.704
  793SOL    HW2 3279   4.960   5.089   3.829
  794SOL     OW 3280   2.920   4.052   6.147
  794SOL    HW1 3281   2.886   4.135   6.102
  794SOL    HW2 3282   2.914   3.975   6.084
  795SOL     OW 3283   3.527   6.807   4.582
  795SOL    HW1 3284   3.579   6.723   4.589
  795SOL    HW2 3285   3.434   6.787   4.552
  796SOL     OW 3286   0.483   2.548   5.839
  796SOL    HW1 3287   0.408   2.493   5.802
  796SOL    HW2 3288   0.568   2.525   5.791
  797SOL     OW 3289   5.642   2.056   1.251
  797SOL    HW1 3290   5.716   2.060   1.319
  797SOL    HW2 3291   5.622   1.961   1.229
  798SOL     OW 3292   3.242   6.280   2.083
  798SOL    HW1 3293   3.237   6.364   2.029
  798SOL    HW2 3294   3.152   6.259   2.120
  799SOL     OW 3295   7.015   0.323   6.364
  799SOL    HW1 3296   6.968   0.405   6.332
  799SOL    HW2 3297   0.092   0.346   6.389
  800SOL     OW 3298   5.231   1.586   2.973
  800SOL    HW1 3299   5.197   1.538   3.054
  800SOL    HW2 3300   5.206   1.683   2.978
  801SOL     OW 3301   2.256   4.641   4.536
  801SOL    HW1 3302   2.197   4.660   4.457
  801SOL    HW2 3303   2.220   4.562   4.585
  802SOL     OW 3304   2.921   1.498   0.766
  802SOL    HW1 3305   2.859   1.507   0.845
  802SOL    HW2 3306   3.010   1.537   0.789
  803SOL     OW 3307   0.955   6.946   6.224
  803SOL    HW1 3308   1.006   6.896   6.294
  803SOL    HW2 3309   0.959   0.027   6.243
  804SOL     OW 3310   5.912   6.361   0.236
  804SOL    HW1 3311   5.992   6.376   0.295
  804SOL    HW2 3312   5.940   6.368   0.141
  805SOL     OW 3313   3.175   0.777   3.683
  805SOL    HW1 3314   3.081   0.744   3.679
  805SOL    HW2 3315   3.202   0.810   3.592
  806SOL     OW 3316   5.565   1.261   4.461
  806SOL    HW1 3317   5.627   1.321   4.512
  806SOL    HW2 3318   5.476   1.306   4.451
  807SOL     OW 3319   1.378   1.065   5.176
  807SOL    HW1 3320   1.462   1.105   5.138
  807SOL    HW2 3321   1.301   1.087   5.115
  808SOL     OW 3322   4.280   3.938   6.278
  808SOL    HW1 3323   4.332   3.871   6.225
  808SOL    HW2 3324   4.344   4.005   6.317
  809SOL     OW 3325   0.555   4.959   1.305
  809SOL    HW1 3326   0.505   5.014   1.237
  809SOL    HW2 3327   0.538   4.862   1.288
  810SOL     OW 3328   3.360   4.080   1.192
  810SOL    HW1 3329   3.330   3.997   1.240
  810SOL    HW2 3330   3.378   4.057   1.096
  811SOL     OW 3331   5.179   5.853   5.517
  811SOL    HW1 3332   5.273   5.834   5.546
  811SOL    HW2 3333   5.152   5.788   5.446
  812SOL     OW 3334   6.810   0.532   2.435
  812SOL    HW1 3335   6.854   0.496   2.518
  812SOL    HW2 3336   6.734   0.473   2.409
  813SOL     OW 3337   4.001   0.252   4.233
  813SOL    HW1 3338   3.935   0.180   4.252
  813SOL    HW2 3339   3.981   0.332   4.289
  814SOL     OW 3340   5.858   6.236   3.001
  814SOL    HW1 3341   5.841   6.201   3.093
  814SOL    HW2 3342   5.811   6.323   2.990
  815SOL     OW 3343   6.850   3.468   3.702
  815SOL    HW1 3344   6.768   3.458   3.646
  815SOL    HW2 3345   6.914   3.395   3.680
  816SOL     OW 3346   6.157   5.858   0.326
  816SOL    HW1 3347   6.169   5.844   0.228
  816SOL    HW2 3348   6.130   5.773   0.369
  817SOL     OW 3349   2.048   5.587   1.581
  817SOL    HW1 3350   2.106   5.610   1.503
  817SOL    HW2 3351   2.031   5.669   1.636
  818SOL     OW 3352   5.707   2.544   3.060
  818SOL    HW1 3353   5.733   2.485   3.136
  818SOL    HW2 3354   5.651   2.492   2.996
  819SOL     OW 3355   5.869   2.960   2.476
  819SOL    HW1 3356   5.936   2.888   2.492
  819SOL    HW2 3357   5.780   2.919   2.456
  820SOL     OW 3358   3.440   2.120   4.939
  820SOL    HW1 3359   3.366   2.140   5.003
  820SOL    HW2 3360   3.498   2.200   4.929
  821SOL     OW 3361   6.931   4.053   0.492
  821SOL    HW1 3362   6.987   4.067   0.573
  821SOL    HW2 3363   6.985   4.074   0.410
  822SOL     OW 3364   0.524   3.502   3.477
  822SOL    HW1 3365   0.444   3.532   3.529
  822SOL    HW2 3366   0.598   3.479   3.540
  823SOL     OW 3367   5.389   3.939   6.415
  823SOL    HW1 3368   5.462   3.898   6.360
  823SOL    HW2 3369   5.329   3.867   6.450
  824SOL     OW 3370   4.640   1.435   6.046
  824SOL    HW1 3371   4.606   1.446   6.140
  824SOL    HW2 3372   4.739   1.425   6.048
  825SOL     OW 3373   0.061   4.910   1.548
  825SOL    HW1 3374   6.985   4.933   1.575
  825SOL    HW2 3375   0.119   4.990   1.561
  826SOL     OW 3376   4.026   2.266   6.080
  826SOL    HW1 3377   3.928   2.281   6.066
  826SOL    HW2 3378   4.054   2.183   6.032
  827SOL     OW 3379   2.887   4.481   5.417
  827SOL    HW1 3380   2.912   4.494   5.321
  827SOL    HW2 3381   2.963   4.439   5.466
  828SOL     OW 3382   5.207   6.231   6.661
  828SOL    HW1 3383   5.267   6.221   6.583
  828SOL    HW2 3384   5.115   6.197   6.638
  829SOL     OW 3385   3.864   3.665   2.454
  829SOL    HW1 3386   3.775   3.653   2.498
  829SOL    HW2 3387   3.868   3.755   2.410
  830SOL     OW 3388   5.976   5.064   6.412
  830SOL    HW1 3389   5.913   5.099   6.343
  830SOL    HW2 3390   5.978   5.126   6.490
  831SOL     OW 3391   6.311   0.507   0.106
  831SOL    HW1 3392   6.300   0.605   0.121
  831SOL    HW2 3393   6.402   0.478   0.134
  832SOL     OW 3394   4.314   1.129   2.753
  832SOL    HW1 3395   4.282   1.173   2.669
  832SOL    HW2 3396   4.251   1.056   2.778
  833SOL     OW 3397   1.069   3.496   6.736
  833SOL    HW1 3398   1.005   3.572   6.726
  833SOL    HW2 3399   1.149   3.526   6.788
  834SOL     OW 3400   4.129   4.055   0.907
  834SOL    HW1 3401   4.221   4.089   0.889
  834SOL    HW2 3402   4.061   4.118   0.869
  835SOL     OW 3403   3.207   0.042   5.575
  835SOL    HW1 3404   3.240   6.978   5.526
  835SOL    HW2 3405   3.259   0.052   5.660
  836SOL     OW 3406   3.897   6.784   5.237
  836SOL    HW1 3407   3.801   6.809   5.233
  836SOL    HW2 3408   3.907   6.686   5.217
  837SOL     OW 3409   5.829   7.001   0.749
  837SOL    HW1 3410   5.814   6.957   0.660
  837SOL    HW2 3411   5.877   0.070   0.735
  838SOL     OW 3412   2.090   1.041   4.422
  838SOL    HW1 3413   2.034   1.108   4.374
  838SOL    HW2 3414   2.117   1.078   4.511
  839SOL     OW 3415   1.309   1.839   1.953
  839SOL    HW1 3416   1.279   1.765   2.013
  839SOL    HW2 3417   1.319   1.804   1.860
  840SOL     OW 3418   6.655   5.508   6.903
  840SOL    HW1 3419   6.571   5.516   6.958
  840SOL    HW2 3420   6.700   5.421   6.924
  841SOL     OW 3421   2.972   5.413   6.307
  841SOL    HW1 3422   3.022   5.330   6.331
  841SOL    HW2 3423   2.901   5.391   6.240
  842SOL     OW 3424   3.651   0.336   4.697
  842SOL    HW1 3425   3.557   0.364   4.712
  842SOL    HW2 3426   3.709   0.417   4.687
  843SOL     OW 3427   1.241   1.274   1.094
  843SOL    HW1 3428   1.284   1.317   1.173
  843SOL    HW2 3429   1.169   1.212   1.125
  844SOL     OW 3430   5.734   0.004   0.470
  844SOL    HW1 3431   5.683   0.077   0.425
  844SOL    HW2 3432   5.669   6.953   0.505
  845SOL     OW 3433   4.897   4.090   4.169
  845SOL    HW1 3434   4.847   4.145   4.235
  845SOL    HW2 3435   4.874   4.120   4.076
  846SOL     OW 3436   2.248   1.504   6.052
  846SOL    HW1 3437   2.271   1.509   5.955
  846SOL    HW2 3438   2.234   1.597   6.088
  847SOL     OW 3439   1.574   3.584   1.180
  847SOL    HW1 3440   1.596   3.680   1.162
  847SOL    HW2 3441   1.510   3.551   1.110
  848SOL     OW 3442   6.688   0.355   5.748
  848SOL    HW1 3443   6.727   0.291   5.814
  848SOL    HW2 3444   6.736   0.345   5.661
  849SOL     OW 3445   6.584   3.980   5.747
  849SOL    HW1 3446   6.643   4.051   5.708
  849SOL    HW2 3447   6.594   3.896   5.694
  850SOL     OW 3448   4.585   1.407   3.992
  850SOL    HW1 3449   4.540   1.466   4.059
  850SOL    HW2 3450   4.555   1.312   4.005
  851SOL     OW 3451   6.686   2.948   1.962
  851SOL    HW1 3452   6.600   2.939   2.011
  851SOL    HW2 3453   6.667   2.965   1.865
  852SOL     OW 3454   1.321   3.591   0.176
  852SOL    HW1 3455   1.267   3.612   0.258
  852SOL    HW2 3456   1.416   3.617   0.191
  853SOL     OW 3457   0.913   4.639   0.755
  853SOL    HW1 3458   0.898   4.569   0.824
  853SOL    HW2 3459   0.876   4.726   0.787
  854SOL     OW 3460   5.620   5.163   0.969
  854SOL    HW1 3461   5.668   5.227   0.909
  854SOL    HW2 3462   5.613   5.074   0.924
  855SOL     OW 3463   0.012   6.966   1.619
  855SOL    HW1 3464   6.975   0.032   1.625
  855SOL    HW2 3465   0.108   6.987   1.637
  856SOL     OW 3466   1.415   2.075   6.275
  856SOL    HW1 3467   1.345   2.041   6.337
  856SOL    HW2 3468   1.482   2.129   6.325
  857SOL     OW 3469   6.375   5.039   1.855
  857SOL    HW1 3470   6.323   5.069   1.936
  857SOL    HW2 3471   6.438   5.111   1.827
  858SOL     OW 3472   3.254   3.772   1.298
  858SOL    HW1 3473   3.175   3.745   1.353
  858SOL    HW2 3474   3.338   3.746   1.345
  859SOL     OW 3475   5.555   0.042   4.617
  859SOL    HW1 3476   5.564   6.961   4.610
  859SOL    HW2 3477   5.600   0.086   4.540
  860SOL     OW 3478   6.299   2.589   1.088
  860SOL    HW1 3479   6.338   2.648   1.017
  860SOL    HW2 3480   6.204   2.570   1.067
  861SOL     OW 3481   2.779   5.428   3.939
  861SOL    HW1 3482   2.847   5.376   3.991
  861SOL    HW2 3483   2.819   5.515   3.910
  862SOL     OW 3484   1.275   3.417   4.450
  862SOL    HW1 3485   1.212   3.400   4.526
  862SOL    HW2 3486   1.274   3.514   4.426
  863SOL     OW 3487   5.747   1.568   0.609
  863SOL    HW1 3488   5.808   1.594   0.535
  863SOL    HW2 3489   5.766   1.625   0.690
  864SOL     OW 3490   4.250   5.775   3.940
  864SOL    HW1 3491   4.274   5.852   3.880
  864SOL    HW2 3492   4.220   5.697   3.885
  865SOL     OW 3493   1.720   6.289   5.769
  865SOL    HW1 3494   1.686   6.262   5.678
  865SOL    HW2 3495   1.704   6.387   5.783
  866SOL     OW 3496   1.905   1.735   1.371
  866SOL    HW1 3497   1.999   1.769   1.368
  866SOL    HW2 3498   1.877   1.722   1.466
  867SOL     OW 3499   5.045   3.688   0.431
  867SOL    HW1 3500   5.048   3.738   0.518
  867SOL    HW2 3501   4.952   3.655   0.414
  868SOL     OW 3502   6.166   1.257   0.465
  868SOL    HW1 3503   6.070   1.249   0.492
  868SOL    HW2 3504   6.193   1.354   0.465
  869SOL     OW 3505   0.699   4.258   2.633
  869SOL    HW1 3506   0.629   4.239   2.702
  869SOL    HW2 3507   0.668   4.333   2.574
  870SOL     OW 3508   3.881   3.532   0.138
  870SOL    HW1 3509   3.789   3.568   0.126
  870SOL    HW2 3510   3.879   3.456   0.203
  871SOL     OW 3511   5.216   2.089   2.862
  871SOL    HW1 3512   5.153   2.011   2.858
  871SOL    HW2 3513   5.176   2.167   2.813
  872SOL     OW 3514   5.233   3.464   3.942
  872SOL    HW1 3515   5.269   3.482   4.033
  872SOL    HW2 3516   5.228   3.550   3.890
  873SOL     OW 3517   5.907   6.574   4.729
  873SOL    HW1 3518   5.878   6.491   4.778
  873SOL    HW2 3519   5.880   6.567   4.633
  874SOL     OW 3520   0.886   3.681   5.655
  874SOL    HW1 3521   0.956   3.751   5.664
  874SOL    HW2 3522   0.797   3.724   5.640
  875SOL     OW 3523   5.223   3.876   0.916
  875SOL    HW1 3524   5.167   3.796   0.934
  875SOL    HW2 3525   5.170   3.943   0.865
  876SOL     OW 3526   1.125   4.297   1.980
  876SOL    HW1 3527   1.046   4.339   1.935
  876SOL    HW2 3528   1.164   4.362   2.045
  877SOL     OW 3529   3.903   4.482   6.046
  877SOL    HW1 3530   3.832   4.476   6.117
  877SOL    HW2 3531   3.907   4.575   6.010
  878SOL     OW 3532   3.588   5.718   5.140
  878SOL    HW1 3533   3.504   5.664   5.148
  878SOL    HW2 3534   3.666   5.662   5.166
  879SOL     OW 3535   3.820   1.816   0.722
  879SOL    HW1 3536   3.908   1.863   0.735
  879SOL    HW2 3537   3.814   1.783   0.628
  880SOL     OW 3538   2.970   3.499   4.065
  880SOL    HW1 3539   2.945   3.538   4.154
  880SOL    HW2 3540   3.051   3.545   4.030
  881SOL     OW 3541   5.771   3.733   5.491
  881SOL    HW1 3542   5.854   3.718   5.545
  881SOL    HW2 3543   5.752   3.652   5.436
  882SOL     OW 3544   1.113   2.674   4.422
  882SOL    HW1 3545   1.185   2.610   4.447
  882SOL    HW2 3546   1.107   2.746   4.491
  883SOL     OW 3547   3.474   0.515   0.526
  883SOL    HW1 3548   3.388   0.494   0.480
  883SOL    HW2 3549   3.497   0.441   0.589
  884SOL     OW 3550   0.015   4.249   0.295
  884SOL    HW1 3551   0.078   4.325   0.311
  884SOL    HW2 3552   6.945   4.267   0.341
  885SOL     OW 3553   4.575   6.503   5.467
  885SOL    HW1 3554   4.607   6.472   5.377
  885SOL    HW2 3555   4.480   6.532   5.460
  886SOL     OW 3556   4.158   1.303   1.142
  886SOL    HW1 3557   4.245   1.261   1.116
  886SOL    HW2 3558   4.097   1.307   1.062
  887SOL     OW 3559   3.760   5.391   3.760
  887SOL    HW1 3560   3.835   5.334   3.793
  887SOL    HW2 3561   3.785   5.431   3.672
  888SOL     OW 3562   0.084   6.603   2.816
  888SOL    HW1 3563   0.142   6.678   2.849
  888SOL    HW2 3564   0.031   6.566   2.891
  889SOL     OW 3565   0.290   1.174   6.158
  889SOL    HW1 3566   0.364   1.193   6.222
  889SOL    HW2 3567   0.234   1.099   6.194
  890SOL     OW 3568   2.240   4.642   2.180
  890SOL    HW1 3569   2.206   4.549   2.192
  890SOL    HW2 3570   2.266   4.655   2.084
  891SOL     OW 3571   6.689   3.883   0.543
  891SOL    HW1 3572   6.782   3.920   0.536
  891SOL    HW2 3573   6.671   3.821   0.467
  892SOL     OW 3574   3.485   3.681   5.192
  892SOL    HW1 3575   3.454   3.712   5.102
  892SOL    HW2 3576   3.575   3.721   5.212
  893SOL     OW 3577   1.558   0.399   2.904
  893SOL    HW1 3578   1.480   0.379   2.845
  893SOL    HW2 3579   1.531   0.388   3.000
  894SOL     OW 3580   1.009   3.011   2.983
  894SOL    HW1 3581   0.975   3.014   3.077
  894SOL    HW2 3582   1.080   2.941   2.976
  895SOL     OW 3583   1.439   5.103   3.659
  895SOL    HW1 3584   1.467   5.183   3.713
  895SOL    HW2 3585   1.380   5.133   3.584
  896SOL     OW 3586   6.429   5.742   1.513
  896SOL    HW1 3587   6.418   5.839   1.536
  896SOL    HW2 3588   6.512   5.730   1.458
  897SOL     OW 3589   4.388   0.094   6.886
  897SOL    HW1 3590   4.326   0.167   6.913
  897SOL    HW2 3591   4.417   0.109   6.791
  898SOL     OW 3592   3.693   5.709   2.209
  898SOL    HW1 3593   3.721   5.734   2.116
  898SOL    HW2 3594   3.599   5.739   2.225
  899SOL     OW 3595   0.511   5.751   0.148
  899SOL    HW1 3596   0.500   5.682   0.077
  899SOL    HW2 3597   0.571   5.715   0.220
  900SOL     OW 3598   4.779   6.137   6.619
  900SOL    HW1 3599   4.705   6.114   6.556
  900SOL    HW2 3600   4.840   6.058   6.629
  901SOL     OW 3601   0.946   0.763   4.602
  901SOL    HW1 3602   0.975   0.735   4.694
  901SOL    HW2 3603   0.997   0.710   4.534
  902SOL     OW 3604   1.351   2.617   0.943
  902SOL    HW1 3605   1.292   2.671   1.003
  902SOL    HW2 3606   1.358   2.524   0.978
  903SOL     OW 3607   0.013   3.053   6.666
  903SOL    HW1 3608   0.004   2.972   6.723
  903SOL    HW2 3609   0.011   3.135   6.724
  904SOL     OW 3610   2.314   2.841   2.571
  904SOL    HW1 3611   2.379   2.815   2.643
  904SOL    HW2 3612   2.269   2.758   2.536
  905SOL     OW 3613   5.076   4.608   6.226
  905SOL    HW1 3614   5.117   4.610   6.135
  905SOL    HW2 3615   5.094   4.695   6.272
  906SOL     OW 3616   1.156   2.689   6.341
  906SOL    HW1 3617   1.188   2.783   6.328
  906SOL    HW2 3618   1.211   2.627   6.285
  907SOL     OW 3619   4.964   2.360   1.900
  907SOL    HW1 3620   4.943   2.375   1.996
  907SOL    HW2 3621   4.993   2.446   1.858
  908SOL     OW 3622   2.454   4.846   2.818
  908SOL    HW1 3623   2.368   4.854   2.768
  908SOL    HW2 3624   2.449   4.897   2.903
  909SOL     OW 3625   3.452   5.796   2.282
  909SOL    HW1 3626   3.433   5.876   2.224
  909SOL    HW2 3627   3.456   5.824   2.378
  910SOL     OW 3628   3.084   0.649   0.956
  910SOL    HW1 3629   3.026   0.716   0.912
  910SOL    HW2 3630   3.041   0.618   1.041
  911SOL     OW 3631   0.628   5.768   6.865
  911SOL    HW1 3632   0.672   5.763   6.954
  911SOL    HW2 3633   0.694   5.743   6.793
  912SOL     OW 3634   4.712   0.534   3.596
  912SOL    HW1 3635   4.783   0.517   3.529
  912SOL    HW2 3636   4.691   0.449   3.644
  913SOL     OW 3637   2.162   1.114   3.956
  913SOL    HW1 3638   2.210   1.072   4.033
  913SOL    HW2 3639   2.200   1.081   3.870
  914SOL     OW 3640   2.715   6.015   5.529
  914SOL    HW1 3641   2.792   5.951   5.525
  914SOL    HW2 3642   2.741   6.102   5.486
  915SOL     OW 3643   0.419   3.098   0.588
  915SOL    HW1 3644   0.341   3.038   0.605
  915SOL    HW2 3645   0.503   3.043   0.581
  916SOL     OW 3646   2.144   3.007   2.475
  916SOL    HW1 3647   2.087   2.963   2.405
  916SOL    HW2 3648   2.213   2.942   2.507
  917SOL     OW 3649   6.182   0.841   2.704
  917SOL    HW1 3650   6.180   0.759   2.647
  917SOL    HW2 3651   6.193   0.815   2.800
  918SOL     OW 3652   3.222   0.275   0.849
  918SOL    HW1 3653   3.313   0.290   0.886
  918SOL    HW2 3654   3.160   0.248   0.923
  919SOL     OW 3655   6.827   6.563   3.416
  919SOL    HW1 3656   6.869   6.648   3.383
  919SOL    HW2 3657   6.745   6.583   3.468
  920SOL     OW 3658   2.392   4.731   2.416
  920SOL    HW1 3659   2.343   4.673   2.352
  920SOL    HW2 3660   2.487   4.703   2.422
  921SOL     OW 3661   4.227   4.816   3.063
  921SOL    HW1 3662   4.272   4.902   3.043
  921SOL    HW2 3663   4.131   4.822   3.038
  922SOL     OW 3664   3.087   3.358   5.306
  922SOL    HW1 3665   3.167   3.315   5.346
  922SOL    HW2 3666   3.095   3.357   5.206
  923SOL     OW 3667   2.911   4.131   5.842
  923SOL    HW1 3668   2.874   4.085   5.762
  923SOL    HW2 3669   3.011   4.124   5.842
  924SOL     OW 3670   5.655   2.856   3.121
  924SOL    HW1 3671   5.592   2.896   3.055
  924SOL    HW2 3672   5.665   2.758   3.102
  925SOL     OW 3673   6.986   1.811   6.947
  925SOL    HW1 3674   6.894   1.838   6.921
  925SOL    HW2 3675   6.981   1.738   7.016
  926SOL     OW 3676   6.100   1.465   0.988
  926SOL    HW1 3677   6.126   1.371   1.011
  926SOL    HW2 3678   6.140   1.528   1.054
  927SOL     OW 3679   5.848   4.320   2.931
  927SOL    HW1 3680   5.886   4.250   2.871
  927SOL    HW2 3681   5.831   4.281   3.022
  928SOL     OW 3682   1.113   6.521   0.467
  928SOL    HW1 3683   1.079   6.534   0.560
  928SOL    HW2 3684   1.079   6.595   0.409
  929SOL     OW 3685   0.302   0.166   1.217
  929SOL    HW1 3686   0.290   0.211   1.128
  929SOL    HW2 3687   0.351   0.228   1.278
  930SOL     OW 3688   5.479   5.973   3.721
  930SOL    HW1 3689   5.427   5.892   3.748
  930SOL    HW2 3690   5.417   6.040   3.681
  931SOL     OW 3691   5.816   1.791   4.016
  931SOL    HW1 3692   5.886   1.754   4.078
  931SOL    HW2 3693   5.725   1.772   4.052
  932SOL     OW 3694   2.940   6.869   3.631
  932SOL    HW1 3695   3.033   6.906   3.643
  932SOL    HW2 3696   2.943   6.789   3.572
  933SOL     OW 3697   1.944   5.600   3.514
  933SOL    HW1 3698   2.043   5.608   3.524
  933SOL    HW2 3699   1.921   5.592   3.417
  934SOL     OW 3700   1.454   0.143   6.164
  934SOL    HW1 3701   1.517   0.200   6.112
  934SOL    HW2 3702   1.402   0.085   6.101
  935SOL     OW 3703   4.775   4.208   3.922
  935SOL    HW1 3704   4.831   4.129   3.897
  935SOL    HW2 3705   4.694   4.211   3.863
  936SOL     OW 3706   0.834   0.616   6.218
  936SOL    HW1 3707   0.850   0.614   6.316
  936SOL    HW2 3708   0.740   0.590   6.198
  937SOL     OW 3709   5.520   1.517   5.007
  937SOL    HW1 3710   5.486   1.461   5.083
  937SOL    HW2 3711   5.472   1.605   5.007
  938SOL     OW 3712   6.739   5.283   6.257
  938SOL    HW1 3713   6.800   5.293   6.179
  938SOL    HW2 3714   6.791   5.299   6.341
  939SOL     OW 3715   6.631   6.769   5.335
  939SOL    HW1 3716   6.664   6.824   5.412
  939SOL    HW2 3717   6.567   6.700   5.368
  940SOL     OW 3718   1.134   3.399   1.550
  940SOL    HW1 3719   1.043   3.371   1.519
  940SOL    HW2 3720   1.142   3.382   1.649
  941SOL     OW 3721   5.144   1.289   6.154
  941SOL    HW1 3722   5.160   1.260   6.060
  941SOL    HW2 3723   5.180   1.220   6.217
  942SOL     OW 3724   4.919   6.829   2.728
  942SOL    HW1 3725   4.826   6.798   2.747
  942SOL    HW2 3726   4.984   6.756   2.749
  943SOL     OW 3727   2.130   3.771   3.869
  943SOL    HW1 3728   2.041   3.802   3.835
  943SOL    HW2 3729   2.135   3.671   3.863
  944SOL     OW 3730   0.573   4.976   6.384
  944SOL    HW1 3731   0.489   4.963   6.437
  944SOL    HW2 3732   0.642   4.910   6.415
  945SOL     OW 3733   6.768   4.085   5.578
  945SOL    HW1 3734   6.854   4.037   5.596
  945SOL    HW2 3735   6.715   4.034   5.511
  946SOL     OW 3736   4.827   3.035   5.865
  946SOL    HW1 3737   4.781   3.109   5.816
  946SOL    HW2 3738   4.758   2.971   5.900
  947SOL     OW 3739   3.751   2.891   3.577
  947SOL    HW1 3740   3.791   2.915   3.666
  947SOL    HW2 3741   3.823   2.894   3.507
  948SOL     OW 3742   3.605   0.638   2.888
  948SOL    HW1 3743   3.554   0.721   2.867
  948SOL    HW2 3744   3.540   0.562   2.899
  949SOL     OW 3745   1.123   6.020   6.325
  949SOL    HW1 3746   1.141   6.027   6.227
  949SOL    HW2 3747   1.094   5.927   6.347
  950SOL     OW 3748   5.172   5.363   1.777
  950SOL    HW1 3749   5.133   5.284   1.824
  950SOL    HW2 3750   5.141   5.363   1.682
  951SOL     OW 3751   2.118   0.828   4.138
  951SOL    HW1 3752   2.194   0.789   4.086
  951SOL    HW2 3753   2.139   0.924   4.161
  952SOL     OW 3754   4.584   1.932   2.959
  952SOL    HW1 3755   4.507   1.877   2.927
  952SOL    HW2 3756   4.550   2.008   3.015
  953SOL     OW 3757   5.377   5.058   3.973
  953SOL    HW1 3758   5.421   5.021   3.892
  953SOL    HW2 3759   5.298   5.001   3.998
  954SOL     OW 3760   3.867   5.547   1.401
  954SOL    HW1 3761   3.952   5.601   1.398
  954SOL    HW2 3762   3.834   5.544   1.495
  955SOL     OW 3763   0.395   3.397   2.408
  955SOL    HW1 3764   0.340   3.322   2.444
  955SOL    HW2 3765   0.473   3.413   2.468
  956SOL     OW 3766   6.560   1.034   2.445
  956SOL    HW1 3767   6.470   1.005   2.479
  956SOL    HW2 3768   6.618   0.954   2.429
  957SOL     OW 3769   5.982   3.683   4.843
  957SOL    HW1 3770   5.925   3.680   4.761
  957SOL    HW2 3771   5.924   3.689   4.924
  958SOL     OW 3772   4.195   1.850   1.839
  958SOL    HW1 3773   4.114   1.901   1.869
  958SOL    HW2 3774   4.275   1.884   1.887
  959SOL     OW 3775   4.639   6.055   2.917
  959SOL    HW1 3776   4.556   6.095   2.878
  959SOL    HW2 3777   4.690   6.008   2.845
  960SOL     OW 3778   0.887   6.398   1.853
  960SOL    HW1 3779   0.877   6.483   1.904
  960SOL    HW2 3780   0.975   6.398   1.806
  961SOL     OW 3781   4.752   6.491   3.595
  961SOL    HW1 3782   4.825   6.557   3.614
  961SOL    HW2 3783   4.691   6.528   3.525
  962SOL     OW 3784   0.209   1.572   5.455
  962SOL    HW1 3785   0.219   1.490   5.512
  962SOL    HW2 3786   0.199   1.545   5.359
  963SOL     OW 3787   5.980   1.915   6.445
  963SOL    HW1 3788   5.935   1.973   6.377
  963SOL    HW2 3789   6.024   1.838   6.399
  964SOL     OW 3790   5.276   4.597   0.436
  964SOL    HW1 3791   5.242   4.539   0.362
  964SOL    HW2 3792   5.370   4.625   0.416
  965SOL     OW 3793   5.229   2.141   1.657
  965SOL    HW1 3794   5.140   2.099   1.669
  965SOL    HW2 3795   5.257   2.133   1.561
  966SOL     OW 3796   5.782   2.242   2.688
  966SOL    HW1 3797   5.705   2.296   2.722
  966SOL    HW2 3798   5.836   2.209   2.766
  967SOL     OW 3799   2.443   4.648   0.686
  967SOL    HW1 3800   2.481   4.689   0.602
  967SOL    HW2 3801   2.386   4.715   0.733
  968SOL     OW 3802   3.704   0.391   1.952
  968SOL    HW1 3803   3.696   0.489   1.934
  968SOL    HW2 3804   3.647   0.366   2.030
  969SOL     OW 3805   2.545   5.819   6.161
  969SOL    HW1 3806   2.532   5.733   6.210
  969SOL    HW2 3807   2.543   5.802   6.063
  970SOL     OW 3808   5.385   1.039   6.372
  970SOL    HW1 3809   5.353   1.027   6.278
  970SOL    HW2 3810   5.344   1.122   6.410
  971SOL     OW 3811   6.914   2.576   2.780
  971SOL    HW1 3812   6.990   2.597   2.719
  971SOL    HW2 3813   6.948   2.534   2.864
  972SOL     OW 3814   5.428   3.163   1.948
  972SOL    HW1 3815   5.427   3.065   1.969
  972SOL    HW2 3816   5.361   3.210   2.006
  973SOL     OW 3817   0.214   5.365   6.419
  973SOL    HW1 3818   0.127   5.326   6.386
  973SOL    HW2 3819   0.196   5.426   6.496
  974SOL     OW 3820   5.406   5.938   1.969
  974SOL    HW1 3821   5.338   6.011   1.967
  974SOL    HW2 3822   5.458   5.942   2.055
  975SOL     OW 3823   1.521   0.405   6.268
  975SOL    HW1 3824   1.479   0.435   6.354
  975SOL    HW2 3825   1.449   0.377   6.204
  976SOL     OW 3826   6.795   3.433   2.438
  976SOL    HW1 3827   6.829   3.350   2.393
  976SOL    HW2 3828   6.851   3.511   2.412
  977SOL     OW 3829   0.905   6.914   2.327
  977SOL    HW1 3830   0.957   6.871   2.252
  977SOL    HW2 3831   0.879   6.844   2.393
  978SOL     OW 3832   5.121   2.967   5.896
  978SOL    HW1 3833   5.171   2.917   5.825
  978SOL    HW2 3834   5.029   2.988   5.863
  979SOL     OW 3835   0.091   2.059   0.653
  979SOL    HW1 3836   0.018   2.119   0.687
  979SOL    HW2 3837   0.166   2.057   0.719
  980SOL     OW 3838   4.604   2.578   3.402
  980SOL    HW1 3839   4.523   2.526   3.430
  980SOL    HW2 3840   4.650   2.613   3.483
  981SOL     OW 3841   0.374   1.522   4.677
  981SOL    HW1 3842   0.340   1.432   4.652
  981SOL    HW2 3843   0.451   1.512   4.741
  982SOL     OW 3844   2.364   1.867   4.930
  982SOL    HW1 3845   2.334   1.835   4.840
  982SOL    HW2 3846   2.285   1.885   4.988
  983SOL     OW 3847   6.607   3.245   3.926
  983SOL    HW1 3848   6.584   3.268   3.832
  983SOL    HW2 3849   6.591   3.148   3.942
  984SOL     OW 3850   2.887   2.101   4.641
  984SOL    HW1 3851   2.943   2.137   4.715
  984SOL    HW2 3852   2.811   2.049   4.679
  985SOL     OW 3853   5.890   3.537   5.099
  985SOL    HW1 3854   5.826   3.483   5.153
  985SOL    HW2 3855   5.982   3.528   5.138
  986SOL     OW 3856   5.902   5.081   1.016
  986SOL    HW1 3857   5.807   5.086   0.985
  986SOL    HW2 3858   5.921   4.990   1.052
  987SOL     OW 3859   4.792   6.557   2.474
  987SOL    HW1 3860   4.738   6.596   2.400
  987SOL    HW2 3861   4.887   6.587   2.466
  988SOL     OW 3862   3.778   3.343   1.622
  988SOL    HW1 3863   3.843   3.419   1.630
  988SOL    HW2 3864   3.818   3.261   1.662
  989SOL     OW 3865   5.997   1.565   6.318
  989SOL    HW1 3866   5.920   1.549   6.381
  989SOL    HW2 3867   5.962   1.586   6.227
  990SOL     OW 3868   4.480   1.081   2.227
  990SOL    HW1 3869   4.568   1.033   2.227
  990SOL    HW2 3870   4.496   1.179   2.238
  991SOL     OW 3871   0.763   3.638   4.581
  991SOL    HW1 3872   0.798   3.596   4.497
  991SOL    HW2 3873   0.750   3.736   4.566
  992SOL     OW 3874   0.111   3.031   1.525
  992SOL    HW1 3875   0.139   3.012   1.619
  992SOL    HW2 3876   0.115   3.129   1.507
  993SOL     OW 3877   0.311   4.905   0.867
  993SOL    HW1 3878   0.241   4.952   0.813
  993SOL    HW2 3879   0.361   4.972   0.922
  994SOL     OW 3880   4.353   5.340   0.892
  994SOL    HW1 3881   4.391   5.308   0.979
  994SOL    HW2 3882   4.389   5.283   0.818
  995SOL     OW 3883   3.742   2.861   5.505
  995SOL    HW1 3884   3.653   2.907   5.497
  995SOL    HW2 3885   3.806   2.901   5.439
  996SOL     OW 3886   3.869   4.948   4.680
  996SOL    HW1 3887   3.818   4.863   4.679
  996SOL    HW2 3888   3.963   4.932   4.647
  997SOL     OW 3889   1.109   0.330   3.602
  997SOL    HW1 3890   1.202   0.312   3.571
  997SOL    HW2 3891   1.053   0.249   3.586
  998SOL     OW 3892   5.347   0.343   4.958
  998SOL    HW1 3893   5.267   0.305   4.912
  998SOL    HW2 3894   5.430   0.303   4.919
  999SOL     OW 3895   5.172   4.387   3.016
  999SOL    HW1 3896   5.087   4.426   2.979
  999SOL    HW2 3897   5.246   4.400   2.951
 1000SOL     OW 3898   2.620   1.118   1.200
 1000SOL    HW1 3899   2.563   1.096   1.121
 1000SOL    HW2 3900   2.562   1.156   1.272
 1001SOL     OW 3901   5.121   5.506   0.805
 1001SOL    HW1 3902   5.091   5.546   0.718
 1001SOL    HW2 3903   5.060   5.432   0.831
 1002SOL     OW 3904   6.047   1.616   1.505
 1002SOL    HW1 3905   6.112   1.557   1.458
 1002SOL    HW2 3906   5.960   1.618   1.455
 1003SOL     OW 3907   2.014   6.421   2.409
 1003SOL    HW1 3908   2.012   6.489   2.482
 1003SOL    HW2 3909   1.948   6.446   2.338
 1004SOL     OW 3910   0.217   0.844   1.961
 1004SOL    HW1 3911   0.171   0.837   1.873
 1004SOL    HW2 3912   0.313   0.819   1.951
 1005SOL     OW 3913   2.233   3.021   3.987
 1005SOL    HW1 3914   2.228   3.005   3.889
 1005SOL    HW2 3915   2.281   2.946   4.031
 1006SOL     OW 3916   1.177   4.318   1.300
 1006SOL    HW1 3917   1.122   4.236   1.318
 1006SOL    HW2 3918   1.216   4.311   1.208
 1007SOL     OW 3919   4.544   0.439   5.207
 1007SOL    HW1 3920   4.562   0.451   5.109
 1007SOL    HW2 3921   4.556   0.343   5.232
 1008SOL     OW 3922   1.095   3.264   5.800
 1008SOL    HW1 3923   1.062   3.352   5.834
 1008SOL    HW2 3924   1.052   3.243   5.712
 1009SOL     OW 3925   0.777   5.119   5.106
 1009SOL    HW1 3926   0.679   5.122   5.122
 1009SOL    HW2 3927   0.819   5.204   5.140
 1010SOL     OW 3928   3.642   1.896   6.898
 1010SOL    HW1 3929   3.741   1.894   6.914
 1010SOL    HW2 3930   3.594   1.909   6.985
 1011SOL     OW 3931   1.623   4.779   2.500
 1011SOL    HW1 3932   1.722   4.787   2.489
 1011SOL    HW2 3933   1.594   4.830   2.581
 1012SOL     OW 3934   6.680   6.927   2.092
 1012SOL    HW1 3935   6.739   6.903   2.169
 1012SOL    HW2 3936   6.736   6.967   2.019
 1013SOL     OW 3937   1.509   1.213   5.863
 1013SOL    HW1 3938   1.499   1.218   5.962
 1013SOL    HW2 3939   1.430   1.256   5.819
 1014SOL     OW 3940   6.412   4.936   5.649
 1014SOL    HW1 3941   6.476   4.968   5.579
 1014SOL    HW2 3942   6.338   4.884   5.604
 1015SOL     OW 3943   2.650   6.653   6.009
 1015SOL    HW1 3944   2.572   6.698   6.054
 1015SOL    HW2 3945   2.665   6.563   6.050
 1016SOL     OW 3946   4.371   3.507   6.904
 1016SOL    HW1 3947   4.464   3.502   6.868
 1016SOL    HW2 3948   4.338   3.601   6.896
 1017SOL     OW 3949   4.190   2.911   1.286
 1017SOL    HW1 3950   4.171   3.009   1.285
 1017SOL    HW2 3951   4.233   2.886   1.373
 1018SOL     OW 3952   0.452   4.541   4.298
 1018SOL    HW1 3953   0.502   4.521   4.382
 1018SOL    HW2 3954   0.513   4.534   4.220
 1019SOL     OW 3955   6.896   6.716   0.921
 1019SOL    HW1 3956   6.985   6.733   0.880
 1019SOL    HW2 3957   6.875   6.618   0.917
 1020SOL     OW 3958   6.459   1.083   1.129
 1020SOL    HW1 3959   6.460   1.182   1.110
 1020SOL    HW2 3960   6.486   1.033   1.047
 1021SOL     OW 3961   5.733   6.962   1.369
 1021SOL    HW1 3962   5.676   7.013   1.433
 1021SOL    HW2 3963   5.725   7.001   1.278
 1022SOL     OW 3964   3.478   4.286   5.310
 1022SOL    HW1 3965   3.381   4.295   5.290
 1022SOL    HW2 3966   3.529   4.282   5.223
 1023SOL     OW 3967   0.558   0.299   3.376
 1023SOL    HW1 3968   0.586   0.319   3.281
 1023SOL    HW2 3969   0.511   0.379   3.413
 1024SOL     OW 3970   0.507   2.670   4.269
 1024SOL    HW1 3971   0.548   2.733   4.203
 1024SOL    HW2 3972   0.566   2.665   4.350
 1025SOL     OW 3973   3.645   3.715   1.659
 1025SOL    HW1 3974   3.673   3.725   1.755
 1025SOL    HW2 3975   3.700   3.644   1.616
 1026SOL     OW 3976   2.327   2.232   1.313
 1026SOL    HW1 3977   2.260   2.302   1.338
 1026SOL    HW2 3978   2.411   2.275   1.280
 1027SOL     OW 3979   3.154   6.114   1.833
 1027SOL    HW1 3980   3.227   6.147   1.893
 1027SOL    HW2 3981   3.181   6.125   1.738
 1028SOL     OW 3982   2.352   6.412   1.462
 1028SOL    HW1 3983   2.270   6.406   1.519
 1028SOL    HW2 3984   2.381   6.507   1.455
 1029SOL     OW 3985   1.747   0.266   6.306
 1029SOL    HW1 3986   1.652   0.288   6.284
 1029SOL    HW2 3987   1.762   0.168   6.297
 1030SOL     OW 3988   3.224   2.771   1.770
 1030SOL    HW1 3989   3.286   2.735   1.700
 1030SOL    HW2 3990   3.251   2.864   1.794
 1031SOL     OW 3991   4.730   3.904   1.555
 1031SOL    HW1 3992   4.685   3.943   1.635
 1031SOL    HW2 3993   4.811   3.957   1.532
 1032SOL     OW 3994   2.583   2.001   5.817
 1032SOL    HW1 3995   2.503   2.009   5.875
 1032SOL    HW2 3996   2.563   2.039   5.727
 1033SOL     OW 3997   1.370   6.495   2.088
 1033SOL    HW1 3998   1.466   6.523   2.099
 1033SOL    HW2 3999   1.314   6.576   2.069
 1034SOL     OW 4000   0.379   5.248   4.648
 1034SOL    HW1 4001   0.325   5.219   4.727
 1034SOL    HW2 4002   0.476   5.231   4.666
 1035SOL     OW 4003   0.218   1.479   5.175
 1035SOL    HW1 4004   0.265   1.567   5.167
 1035SOL    HW2 4005   0.270   1.409   5.125
 1036SOL     OW 4006   3.936   0.068   1.817
 1036SOL    HW1 4007   3.922   0.026   1.907
 1036SOL    HW2 4008   4.030   0.052   1.787
 1037SOL     OW 4009   1.748   1.074   1.775
 1037SOL    HW1 4010   1.651   1.073   1.801
 1037SOL    HW2 4011   1.755   1.083   1.675
 1038SOL     OW 4012   2.054   1.242   5.156
 1038SOL    HW1 4013   1.964   1.276   5.128
 1038SOL    HW2 4014   2.046   1.192   5.242
 1039SOL     OW 4015   3.537   3.733   4.253
 1039SOL    HW1 4016   3.549   3.821   4.300
 1039SOL    HW2 4017   3.440   3.715   4.240
 1040SOL     OW 4018   4.570   1.040   2.666
 1040SOL    HW1 4019   4.597   0.959   2.718
 1040SOL    HW2 4020   4.474   1.061   2.684
 1041SOL     OW 4021   7.006   6.471   3.680
 1041SOL    HW1 4022   6.967   6.481   3.589
 1041SOL    HW2 4023   6.984   6.552   3.735
 1042SOL     OW 4024   4.448   5.277   2.053
 1042SOL    HW1 4025   4.455   5.375   2.033
 1042SOL    HW2 4026   4.379   5.235   1.993
 1043SOL     OW 4027   3.200   2.121   4.387
 1043SOL    HW1 4028   3.194   2.021   4.387
 1043SOL    HW2 4029   3.212   2.154   4.481
 1044SOL     OW 4030   5.723   5.585   2.684
 1044SOL    HW1 4031   5.673   5.671   2.695
 1044SOL    HW2 4032   5.791   5.596   2.611
 1045SOL     OW 4033   4.142   0.115   2.620
 1045SOL    HW1 4034   4.143   0.124   2.719
 1045SOL    HW2 4035   4.211   0.175   2.580
 1046SOL     OW 4036   1.560   0.601   0.515
 1046SOL    HW1 4037   1.550   0.503   0.499
 1046SOL    HW2 4038   1.544   0.650   0.430
 1047SOL     OW 4039   1.753   0.515   3.700
 1047SOL    HW1 4040   1.782   0.530   3.605
 1047SOL    HW2 4041   1.685   0.441   3.703
 1048SOL     OW 4042   4.321   6.252   3.493
 1048SOL    HW1 4043   4.405   6.290   3.455
 1048SOL    HW2 4044   4.336   6.156   3.516
 1049SOL     OW 4045   6.426   6.602   3.940
 1049SOL    HW1 4046   6.509   6.599   3.996
 1049SOL    HW2 4047   6.418   6.516   3.889
 1050SOL     OW 4048   4.133   4.894   1.061
 1050SOL    HW1 4049   4.080   4.824   1.109
 1050SOL    HW2 4050   4.082   4.979   1.059
 1051SOL     OW 4051   1.098   5.692   0.443
 1051SOL    HW1 4052   1.194   5.698   0.414
 1051SOL    HW2 4053   1.093   5.700   0.542
 1052SOL     OW 4054   4.115   0.618   4.992
 1052SOL    HW1 4055   4.097   0.579   4.902
 1052SOL    HW2 4056   4.118   0.717   4.986
 1053SOL     OW 4057   6.364   4.689   2.424
 1053SOL    HW1 4058   6.405   4.647   2.505
 1053SOL    HW2 4059   6.278   4.734   2.450
 1054SOL     OW 4060   3.424   3.592   0.192
 1054SOL    HW1 4061   3.376   3.570   0.107
 1054SOL    HW2 4062   3.500   3.655   0.172
 1055SOL     OW 4063   3.410   6.011   4.531
 1055SOL    HW1 4064   3.415   5.912   4.544
 1055SOL    HW2 4065   3.482   6.040   4.467
 1056SOL     OW 4066   2.449   4.373   6.648
 1056SOL    HW1 4067   2.368   4.366   6.589
 1056SOL    HW2 4068   2.529   4.336   6.599
 1057SOL     OW 4069   2.872   3.426   1.873
 1057SOL    HW1 4070   2.944   3.388   1.814
 1057SOL    HW2 4071   2.786   3.431   1.822
 1058SOL     OW 4072   4.735   2.476   3.713
 1058SOL    HW1 4073   4.723   2.566   3.671
 1058SOL    HW2 4074   4.660   2.457   3.776
 1059SOL     OW 4075   2.767   0.642   2.221
 1059SOL    HW1 4076   2.810   0.564   2.175
 1059SOL    HW2 4077   2.714   0.609   2.300
 1060SOL     OW 4078   0.001   4.822   4.193
 1060SOL    HW1 4079   6.982   4.907   4.232
 1060SOL    HW2 4080   0.004   4.830   4.093
 1061SOL     OW 4081   6.578   3.117   0.688
 1061SOL    HW1 4082   6.551   3.066   0.770
 1061SOL    HW2 4083   6.598   3.212   0.713
 1062SOL     OW 4084   5.310   4.767   5.721
 1062SOL    HW1 4085   5.374   4.701   5.760
 1062SOL    HW2 4086   5.339   4.789   5.628
 1063SOL     OW 4087   1.407   4.722   1.138
 1063SOL    HW1 4088   1.341   4.795   1.119
 1063SOL    HW2 4089   1.401   4.653   1.066
 1064SOL     OW 4090   1.327   3.962   2.804
 1064SOL    HW1 4091   1.354   3.926   2.715
 1064SOL    HW2 4092   1.405   3.961   2.866
 1065SOL     OW 4093   4.048   0.521   3.497
 1065SOL    HW1 4094   3.957   0.545   3.463
 1065SOL    HW2 4095   4.044   0.434   3.546
 1066SOL     OW 4096   4.788   6.531   2.957
 1066SOL    HW1 4097   4.887   6.515   2.968
 1066SOL    HW2 4098   4.760   6.607   3.016
 1067SOL     OW 4099   0.932   3.067   0.831
 1067SOL    HW1 4100   0.909   3.151   0.781
 1067SOL    HW2 4101   1.023   3.075   0.871
 1068SOL     OW 4102   6.497   5.085   2.971
 1068SOL    HW1 4103   6.399   5.071   2.955
 1068SOL    HW2 4104   6.533   5.008   3.023
 1069SOL     OW 4105   4.509   5.228   0.675
 1069SOL    HW1 4106   4.598   5.243   0.632
 1069SOL    HW2 4107   4.440   5.214   0.603
 1070SOL     OW 4108   6.861   0.931   2.135
 1070SOL    HW1 4109   6.942   0.989   2.126
 1070SOL    HW2 4110   6.853   0.873   2.054
 1071SOL     OW 4111   1.367   0.831   4.469
 1071SOL    HW1 4112   1.432   0.888   4.419
 1071SOL    HW2 4113   1.338   0.754   4.411
 1072SOL     OW 4114   1.961   1.232   1.054
 1072SOL    HW1 4115   1.993   1.326   1.037
 1072SOL    HW2 4116   2.020   1.168   1.004
 1073SOL     OW 4117   4.532   0.043   2.497
 1073SOL    HW1 4118   4.632   0.044   2.500
 1073SOL    HW2 4119   4.498   0.135   2.515
 1074SOL     OW 4120   2.239   5.269   1.171
 1074SOL    HW1 4121   2.296   5.348   1.192
 1074SOL    HW2 4122   2.147   5.283   1.208
 1075SOL     OW 4123   5.158   0.714   3.369
 1075SOL    HW1 4124   5.120   0.662   3.445
 1075SOL    HW2 4125   5.240   0.763   3.400
 1076SOL     OW 4126   0.149   2.170   5.582
 1076SOL    HW1 4127   0.079   2.214   5.527
 1076SOL    HW2 4128   0.240   2.194   5.548
 1077SOL     OW 4129   5.527   0.137   1.121
 1077SOL    HW1 4130   5.440   0.141   1.072
 1077SOL    HW2 4131   5.602   0.161   1.059
 1078SOL     OW 4132   0.851   0.734   2.543
 1078SOL    HW1 4133   0.798   0.671   2.485
 1078SOL    HW2 4134   0.861   0.694   2.634
 1079SOL     OW 4135   1.678   6.629   2.582
 1079SOL    HW1 4136   1.682   6.549   2.643
 1079SOL    HW2 4137   1.591   6.628   2.533
 1080SOL     OW 4138   2.028   5.066   3.393
 1080SOL    HW1 4139   2.062   5.156   3.364
 1080SOL    HW2 4140   2.005   5.012   3.312
 1081SOL     OW 4141   0.413   5.630   5.564
 1081SOL    HW1 4142   0.509   5.614   5.587
 1081SOL    HW2 4143   0.401   5.622   5.465
 1082SOL     OW 4144   5.418   2.176   4.394
 1082SOL    HW1 4145   5.340   2.117   4.412
 1082SOL    HW2 4146   5.492   2.153   4.457
 1083SOL     OW 4147   4.373   4.160   0.820
 1083SOL    HW1 4148   4.449   4.119   0.871
 1083SOL    HW2 4149   4.406   4.187   0.729
 1084SOL     OW 4150   6.008   6.367   6.992
 1084SOL    HW1 4151   6.070   6.299   6.952
 1084SOL    HW2 4152   5.968   6.423   6.920
 1085SOL     OW 4153   2.146   3.326   4.378
 1085SOL    HW1 4154   2.175   3.387   4.304
 1085SOL    HW2 4155   2.081   3.373   4.437
 1086SOL     OW 4156   0.876   5.351   0.486
 1086SOL    HW1 4157   0.930   5.267   0.488
 1086SOL    HW2 4158   0.909   5.410   0.413
 1087SOL     OW 4159   5.902   2.191   5.013
 1087SOL    HW1 4160   5.836   2.140   4.959
 1087SOL    HW2 4161   5.860   2.219   5.100
 1088SOL     OW 4162   0.627   3.799   2.681
 1088SOL    HW1 4163   0.579   3.714   2.700
 1088SOL    HW2 4164   0.717   3.779   2.642
 1089SOL     OW 4165   1.038   6.197   4.333
 1089SOL    HW1 4166   1.081   6.239   4.412
 1089SOL    HW2 4167   0.951   6.155   4.360
 1090SOL     OW 4168   2.759   2.322   3.339
 1090SOL    HW1 4169   2.846   2.344   3.384
 1090SOL    HW2 4170   2.720   2.240   3.380
 1091SOL     OW 4171   3.231   2.167   4.660
 1091SOL    HW1 4172   3.294   2.231   4.702
 1091SOL    HW2 4173   3.151   2.156   4.719
 1092SOL     OW 4174   1.308   4.228   1.044
 1092SOL    HW1 4175   1.341   4.147   0.995
 1092SOL    HW2 4176   1.220   4.256   1.007
 1093SOL     OW 4177   1.922   1.391   1.961
 1093SOL    HW1 4178   1.830   1.381   1.923
 1093SOL    HW2 4179   1.983   1.428   1.890
 1094SOL     OW 4180   0.350   6.862   2.568
 1094SOL    HW1 4181   0.364   6.932   2.637
 1094SOL    HW2 4182   0.418   6.790   2.579
 1095SOL     OW 4183   1.112   2.910   6.134
 1095SOL    HW1 4184   1.060   2.966   6.070
 1095SOL    HW2 4185   1.116   2.956   6.223
 1096SOL     OW 4186   3.653   4.376   1.727
 1096SOL    HW1 4187   3.625   4.463   1.767
 1096SOL    HW2 4188   3.574   4.314   1.726
 1097SOL     OW 4189   2.488   4.492   4.393
 1097SOL    HW1 4190   2.406   4.547   4.410
 1097SOL    HW2 4191   2.511   4.495   4.296
 1098SOL     OW 4192   4.573   3.796   6.569
 1098SOL    HW1 4193   4.544   3.827   6.659
 1098SOL    HW2 4194   4.661   3.838   6.545
 1099SOL     OW 4195   3.633   0.798   5.809
 1099SOL    HW1 4196   3.631   0.789   5.909
 1099SOL    HW2 4197   3.723   0.773   5.774
 1100SOL     OW 4198   3.973   1.944   4.375
 1100SOL    HW1 4199   4.000   1.873   4.310
 1100SOL    HW2 4200   3.899   1.910   4.433
 1101SOL     OW 4201   5.787   2.863   6.226
 1101SOL    HW1 4202   5.772   2.786   6.164
 1101SOL    HW2 4203   5.699   2.895   6.261
 1102SOL     OW 4204   0.901   7.004   4.383
 1102SOL    HW1 4205   0.950   0.015   4.300
 1102SOL    HW2 4206   0.961   7.016   4.462
 1103SOL     OW 4207   4.099   1.489   0.100
 1103SOL    HW1 4208   4.149   1.506   0.016
 1103SOL    HW2 4209   4.048   1.571   0.126
 1104SOL     OW 4210   2.094   3.439   5.991
 1104SOL    HW1 4211   2.169   3.402   5.935
 1104SOL    HW2 4212   2.039   3.363   6.026
 1105SOL     OW 4213   6.327   3.483   4.798
 1105SOL    HW1 4214   6.305   3.403   4.743
 1105SOL    HW2 4215   6.422   3.510   4.781
 1106SOL     OW 4216   6.882   2.283   1.445
 1106SOL    HW1 4217   6.935   2.223   1.504
 1106SOL    HW2 4218   6.788   2.250   1.439
 1107SOL     OW 4219   0.653   0.627   6.938
 1107SOL    HW1 4220   0.634   0.719   6.905
 1107SOL    HW2 4221   0.719   0.631   7.013
 1108SOL     OW 4222   3.441   0.025   5.147
 1108SOL    HW1 4223   3.515   6.976   5.159
 1108SOL    HW2 4224   3.476   0.108   5.104
 1109SOL     OW 4225   4.436   1.271   4.310
 1109SOL    HW1 4226   4.349   1.300   4.270
 1109SOL    HW2 4227   4.458   1.329   4.388
 1110SOL     OW 4228   3.410   1.978   3.317
 1110SOL    HW1 4229   3.392   1.889   3.274
 1110SOL    HW2 4230   3.508   1.999   3.309
 1111SOL     OW 4231   4.875   5.715   6.202
 1111SOL    HW1 4232   4.882   5.664   6.116
 1111SOL    HW2 4233   4.779   5.722   6.229
 1112SOL     OW 4234   4.969   0.798   2.436
 1112SOL    HW1 4235   5.038   0.863   2.404
 1112SOL    HW2 4236   4.920   0.837   2.514
 1113SOL     OW 4237   6.136   4.666   1.608
 1113SOL    HW1 4238   6.085   4.625   1.532
 1113SOL    HW2 4239   6.076   4.670   1.689
 1114SOL     OW 4240   3.697   1.838   5.856
 1114SOL    HW1 4241   3.685   1.755   5.800
 1114SOL    HW2 4242   3.745   1.907   5.802
 1115SOL     OW 4243   4.001   3.158   5.983
 1115SOL    HW1 4244   3.964   3.211   6.060
 1115SOL    HW2 4245   4.058   3.218   5.927
 1116SOL     OW 4246   4.890   0.040   6.106
 1116SOL    HW1 4247   4.917   6.983   6.045
 1116SOL    HW2 4248   4.795   0.027   6.135
 1117SOL     OW 4249   2.659   1.976   2.377
 1117SOL    HW1 4250   2.673   2.031   2.294
 1117SOL    HW2 4251   2.720   2.008   2.449
 1118SOL     OW 4252   2.867   4.313   0.236
 1118SOL    HW1 4253   2.793   4.252   0.266
 1118SOL    HW2 4254   2.829   4.387   0.180
 1119SOL     OW 4255   4.218   5.004   1.793
 1119SOL    HW1 4256   4.121   5.020   1.774
 1119SOL    HW2 4257   4.266   4.986   1.707
 1120SOL     OW 4258   6.275   6.171   0.261
 1120SOL    HW1 4259   6.236   6.258   0.292
 1120SOL    HW2 4260   6.227   6.095   0.304
 1121SOL     OW 4261   6.026   4.283   4.501
 1121SOL    HW1 4262   6.021   4.287   4.402
 1121SOL    HW2 4263   6.032   4.188   4.530
 1122SOL     OW 4264   5.579   2.587   0.841
 1122SOL    HW1 4265   5.668   2.565   0.803
 1122SOL    HW2 4266   5.581   2.679   0.881
 1123SOL     OW 4267   4.976   1.636   3.385
 1123SOL    HW1 4268   5.067   1.673   3.370
 1123SOL    HW2 4269   4.910   1.711   3.393
 1124SOL     OW 4270   0.014   3.457   5.227
 1124SOL    HW1 4271   0.053   3.409   5.305
 1124SOL    HW2 4272   0.004   3.394   5.151
 1125SOL     OW 4273   2.324   2.100   3.976
 1125SOL    HW1 4274   2.329   2.010   4.020
 1125SOL    HW2 4275   2.371   2.096   3.888
 1126SOL     OW 4276   5.330   4.877   0.446
 1126SOL    HW1 4277   5.272   4.801   0.419
 1126SOL    HW2 4278   5.283   4.964   0.429
 1127SOL     OW 4279   5.231   5.232   4.745
 1127SOL    HW1 4280   5.291   5.310   4.759
 1127SOL    HW2 4281   5.189   5.238   4.654
 1128SOL     OW 4282   5.835   1.958   5.359
 1128SOL    HW1 4283   5.775   1.898   5.306
 1128SOL    HW2 4284   5.870   1.909   5.439
 1129SOL     OW 4285   1.347   0.556   0.769
 1129SOL    HW1 4286   1.414   0.491   0.733
 1129SOL    HW2 4287   1.390   0.646   0.780
 1130SOL     OW 4288   2.946   5.085   0.706
 1130SOL    HW1 4289   2.905   5.115   0.793
 1130SOL    HW2 4290   2.937   4.986   0.698
 1131SOL     OW 4291   0.961   5.536   5.828
 1131SOL    HW1 4292   0.949   5.530   5.728
 1131SOL    HW2 4293   1.058   5.545   5.849
 1132SOL     OW 4294   5.386   6.806   2.196
 1132SOL    HW1 4295   5.409   6.757   2.279
 1132SOL    HW2 4296   5.289   6.796   2.177
 1133SOL     OW 4297   0.810   1.084   0.625
 1133SOL    HW1 4298   0.722   1.092   0.577
 1133SOL    HW2 4299   0.858   1.172   0.621
 1134SOL     OW 4300   5.465   0.565   2.482
 1134SOL    HW1 4301   5.368   0.589   2.474
 1134SOL    HW2 4302   5.514   0.598   2.401
 1135SOL     OW 4303   2.447   0.367   3.074
 1135SOL    HW1 4304   2.522   0.332   3.018
 1135SOL    HW2 4305   2.423   0.459   3.044
 1136SOL     OW 4306   4.439   4.702   2.935
 1136SOL    HW1 4307   4.415   4.666   2.845
 1136SOL    HW2 4308   4.355   4.729   2.983
 1137SOL     OW 4309   1.113   0.020   6.939
 1137SOL    HW1 4310   1.108   0.119   6.951
 1137SOL    HW2 4311   1.099   6.992   0.010
 1138SOL     OW 4312   6.708   0.646   5.680
 1138SOL    HW1 4313   6.781   0.581   5.700
 1138SOL    HW2 4314   6.741   0.716   5.617
 1139SOL     OW 4315   3.313   4.855   2.477
 1139SOL    HW1 4316   3.291   4.899   2.564
 1139SOL    HW2 4317   3.390   4.792   2.490
 1140SOL     OW 4318   2.891   0.750   1.795
 1140SOL    HW1 4319   2.868   0.831   1.849
 1140SOL    HW2 4320   2.969   0.704   1.836
 1141SOL     OW 4321   0.728   6.618   6.845
 1141SOL    HW1 4322   0.642   6.661   6.873
 1141SOL    HW2 4323   0.710   6.542   6.783
 1142SOL     OW 4324   3.296   6.679   4.234
 1142SOL    HW1 4325   3.245   6.762   4.258
 1142SOL    HW2 4326   3.277   6.607   4.300
 1143SOL     OW 4327   1.680   2.891   3.310
 1143SOL    HW1 4328   1.688   2.845   3.399
 1143SOL    HW2 4329   1.750   2.857   3.249
 1144SOL     OW 4330   6.259   4.810   4.241
 1144SOL    HW1 4331   6.174   4.851   4.273
 1144SOL    HW2 4332   6.250   4.710   4.241
 1145SOL     OW 4333   6.590   4.016   1.695
 1145SOL    HW1 4334   6.671   3.964   1.668
 1145SOL    HW2 4335   6.617   4.097   1.747
 1146SOL     OW 4336   6.998   0.495   2.972
 1146SOL    HW1 4337   7.007   0.531   3.065
 1146SOL    HW2 4338   6.984   0.396   2.976
 1147SOL     OW 4339   2.770   5.678   1.301
 1147SOL    HW1 4340   2.812   5.757   1.257
 1147SOL    HW2 4341   2.802   5.594   1.256
 1148SOL     OW 4342   4.499   5.826   0.541
 1148SOL    HW1 4343   4.532   5.874   0.460
 1148SOL    HW2 4344   4.464   5.736   0.515
 1149SOL     OW 4345   6.296   3.630   2.808
 1149SOL    HW1 4346   6.302   3.729   2.825
 1149SOL    HW2 4347   6.255   3.614   2.719
 1150SOL     OW 4348   1.656   3.457   0.406
 1150SOL    HW1 4349   1.633   3.371   0.451
 1150SOL    HW2 4350   1.623   3.534   0.462
 1151SOL     OW 4351   4.856   4.398   6.948
 1151SOL    HW1 4352   4.778   4.347   6.912
 1151SOL    HW2 4353   4.939   4.344   6.936
 1152SOL     OW 4354   5.374   5.157   6.587
 1152SOL    HW1 4355   5.394   5.078   6.645
 1152SOL    HW2 4356   5.431   5.153   6.505
 1153SOL     OW 4357   1.181   0.350   1.951
 1153SOL    HW1 4358   1.237   0.279   1.908
 1153SOL    HW2 4359   1.090   0.349   1.911
 1154SOL     OW 4360   6.786   4.128   1.255
 1154SOL    HW1 4361   6.884   4.141   1.271
 1154SOL    HW2 4362   6.769   4.115   1.158
 1155SOL     OW 4363   2.345   4.967   6.121
 1155SOL    HW1 4364   2.317   4.874   6.145
 1155SOL    HW2 4365   2.265   5.019   6.090
 1156SOL     OW 4366   4.705   1.610   4.867
 1156SOL    HW1 4367   4.744   1.593   4.957
 1156SOL    HW2 4368   4.613   1.648   4.877
 1157SOL     OW 4369   5.091   1.976   5.928
 1157SOL    HW1 4370   5.015   1.916   5.903
 1157SOL    HW2 4371   5.057   2.051   5.985
 1158SOL     OW 4372   0.023   5.145   5.519
 1158SOL    HW1 4373   0.009   5.058   5.473
 1158SOL    HW2 4374   0.116   5.149   5.555
 1159SOL     OW 4375   6.578   6.618   3.535
 1159SOL    HW1 4376   6.553   6.714   3.529
 1159SOL    HW2 4377   6.506   6.561   3.495
 1160SOL     OW 4378   5.044   4.710   1.035
 1160SOL    HW1 4379   5.131   4.664   1.050
 1160SOL    HW2 4380   5.050   4.805   1.068
 1161SOL     OW 4381   6.044   6.561   5.658
 1161SOL    HW1 4382   6.125   6.614   5.682
 1161SOL    HW2 4383   6.051   6.469   5.696
 1162SOL     OW 4384   3.787   2.249   6.770
 1162SOL    HW1 4385   3.737   2.327   6.733
 1162SOL    HW2 4386   3.765   2.167   6.717
 1163SOL     OW 4387   0.003   3.950   1.450
 1163SOL    HW1 4388   0.095   3.919   1.474
 1163SOL    HW2 4389   0.009   4.029   1.388
 1164SOL     OW 4390   6.235   3.336   4.404
 1164SOL    HW1 4391   6.231   3.309   4.308
 1164SOL    HW2 4392   6.200   3.262   4.461
 1165SOL     OW 4393   3.620   4.990   3.641
 1165SOL    HW1 4394   3.668   5.029   3.719
 1165SOL    HW2 4395   3.531   4.956   3.672
 1166SOL     OW 4396   4.030   0.051   0.112
 1166SOL    HW1 4397   4.083   0.065   0.028
 1166SOL    HW2 4398   4.012   6.971   0.123
 1167SOL     OW 4399   4.670   6.317   6.795
 1167SOL    HW1 4400   4.704   6.245   6.734
 1167SOL    HW2 4401   4.731   6.324   6.875
 1168SOL     OW 4402   4.966   2.542   2.769
 1168SOL    HW1 4403   5.021   2.572   2.848
 1168SOL    HW2 4404   4.880   2.592   2.768
 1169SOL     OW 4405   4.557   2.867   5.901
 1169SOL    HW1 4406   4.607   2.795   5.950
 1169SOL    HW2 4407   4.500   2.826   5.831
 1170SOL     OW 4408   5.211   0.128   3.218
 1170SOL    HW1 4409   5.204   0.040   3.169
 1170SOL    HW2 4410   5.292   0.177   3.185
 1171SOL     OW 4411   2.428   6.510   0.067
 1171SOL    HW1 4412   2.466   6.418   0.056
 1171SOL    HW2 4413   2.497   6.577   0.041
 1172SOL     OW 4414   3.175   4.294   1.564
 1172SOL    HW1 4415   3.091   4.300   1.617
 1172SOL    HW2 4416   3.197   4.198   1.546
 1173SOL     OW 4417   2.875   0.715   0.364
 1173SOL    HW1 4418   2.890   0.667   0.450
 1173SOL    HW2 4419   2.928   0.800   0.363
 1174SOL     OW 4420   2.652   4.791   1.325
 1174SOL    HW1 4421   2.709   4.817   1.403
 1174SOL    HW2 4422   2.580   4.728   1.356
 1175SOL     OW 4423   4.409   4.419   6.798
 1175SOL    HW1 4424   4.480   4.391   6.733
 1175SOL    HW2 4425   4.360   4.498   6.761
 1176SOL     OW 4426   5.995   4.007   6.715
 1176SOL    HW1 4427   6.072   3.955   6.752
 1176SOL    HW2 4428   5.949   3.953   6.645
 1177SOL     OW 4429   0.521   3.355   5.203
 1177SOL    HW1 4430   0.468   3.379   5.284
 1177SOL    HW2 4431   0.461   3.311   5.136
 1178SOL     OW 4432   3.445   4.392   0.712
 1178SOL    HW1 4433   3.376   4.451   0.754
 1178SOL    HW2 4434   3.411   4.360   0.623
 1179SOL     OW 4435   2.372   5.936   0.889
 1179SOL    HW1 4436   2.324   5.885   0.817
 1179SOL    HW2 4437   2.336   6.029   0.893
 1180SOL     OW 4438   2.418   6.226   4.472
 1180SOL    HW1 4439   2.412   6.190   4.379
 1180SOL    HW2 4440   2.439   6.151   4.535
 1181SOL     OW 4441   6.745   4.325   6.518
 1181SOL    HW1 4442   6.704   4.276   6.595
 1181SOL    HW2 4443   6.717   4.421   6.521
 1182SOL     OW 4444   3.781   5.341   3.128
 1182SOL    HW1 4445   3.754   5.335   3.032
 1182SOL    HW2 4446   3.700   5.328   3.186
 1183SOL     OW 4447   3.178   5.000   1.602
 1183SOL    HW1 4448   3.093   4.996   1.654
 1183SOL    HW2 4449   3.191   5.094   1.568
 1184SOL     OW 4450   6.837   1.059   5.087
 1184SOL    HW1 4451   6.815   0.972   5.044
 1184SOL    HW2 4452   6.912   1.103   5.037
 1185SOL     OW 4453   1.409   0.667   0.042
 1185SOL    HW1 4454   1.376   0.721   6.982
 1185SOL    HW2 4455   1.345   0.593   0.061
 1186SOL     OW 4456   5.084   6.021   5.211
 1186SOL    HW1 4457   5.166   5.998   5.264
 1186SOL    HW2 4458   5.036   6.097   5.256
 1187SOL     OW 4459   5.375   6.825   5.123
 1187SOL    HW1 4460   5.285   6.863   5.145
 1187SOL    HW2 4461   5.435   6.897   5.090
 1188SOL     OW 4462   2.367   5.334   6.363
 1188SOL    HW1 4463   2.438   5.265   6.380
 1188SOL    HW2 4464   2.282   5.304   6.407
 1189SOL     OW 4465   6.627   1.600   1.524
 1189SOL    HW1 4466   6.645   1.650   1.609
 1189SOL    HW2 4467   6.683   1.517   1.521
 1190SOL     OW 4468   3.091   5.552   2.985
 1190SOL    HW1 4469   3.074   5.548   3.083
 1190SOL    HW2 4470   3.040   5.628   2.945
 1191SOL     OW 4471   3.871   6.034   4.215
 1191SOL    HW1 4472   3.933   6.055   4.139
 1191SOL    HW2 4473   3.916   5.970   4.277
 1192SOL     OW 4474   5.335   5.386   3.365
 1192SOL    HW1 4475   5.322   5.287   3.371
 1192SOL    HW2 4476   5.246   5.430   3.346
 1193SOL     OW 4477   6.791   1.781   5.575
 1193SOL    HW1 4478   6.817   1.722   5.651
 1193SOL    HW2 4479   6.711   1.835   5.600
 1194SOL     OW 4480   6.686   1.056   1.691
 1194SOL    HW1 4481   6.775   1.035   1.652
 1194SOL    HW2 4482   6.698   1.092   1.784
 1195SOL     OW 4483   0.341   3.354   0.648
 1195SOL    HW1 4484   0.394   3.410   0.584
 1195SOL    HW2 4485   0.355   3.258   0.626
 1196SOL     OW 4486   6.728   4.910   3.593
 1196SOL    HW1 4487   6.629   4.900   3.593
 1196SOL    HW2 4488   6.753   4.998   3.635
 1197SOL     OW 4489   4.621   6.110   3.658
 1197SOL    HW1 4490   4.608   6.170   3.737
 1197SOL    HW2 4491   4.719   6.091   3.646
 1198SOL     OW 4492   1.698   3.671   1.814
 1198SOL    HW1 4493   1.602   3.659   1.791
 1198SOL    HW2 4494   1.754   3.614   1.754
 1199SOL     OW 4495   3.423   4.077   2.719
 1199SOL    HW1 4496   3.507   4.073   2.664
 1199SOL    HW2 4497   3.347   4.042   2.665
 1200SOL     OW 4498   3.074   3.876   4.583
 1200SOL    HW1 4499   3.037   3.933   4.656
 1200SOL    HW2 4500   3.014   3.797   4.568
 1201SOL     OW 4501   0.302   1.607   3.919
 1201SOL    HW1 4502   0.391   1.613   3.966
 1201SOL    HW2 4503   0.248   1.534   3.961
 1202SOL     OW 4504   0.421   6.173   5.585
 1202SOL    HW1 4505   0.337   6.222   5.559
 1202SOL    HW2 4506   0.474   6.229   5.647
 1203SOL     OW 4507   0.777   5.522   0.725
 1203SOL    HW1 4508   0.690   5.505   0.770
 1203SOL    HW2 4509   0.798   5.447   0.662
 1204SOL     OW 4510   4.405   1.384   1.479
 1204SOL    HW1 4511   4.418   1.288   1.455
 1204SOL    HW2 4512   4.354   1.430   1.407
 1205SOL     OW 4513   3.773   3.898   0.576
 1205SOL    HW1 4514   3.850   3.862   0.630
 1205SOL    HW2 4515   3.798   3.987   0.539
 1206SOL     OW 4516   1.858   2.813   5.490
 1206SOL    HW1 4517   1.956   2.827   5.476
 1206SOL    HW2 4518   1.808   2.892   5.456
 1207SOL     OW 4519   1.007   0.452   0.973
 1207SOL    HW1 4520   1.055   0.488   0.893
 1207SOL    HW2 4521   0.908   0.461   0.958
 1208SOL     OW 4522   3.330   3.143   1.525
 1208SOL    HW1 4523   3.351   3.240   1.538
 1208SOL    HW2 4524   3.400   3.101   1.468
 1209SOL     OW 4525   5.240   0.679   3.951
 1209SOL    HW1 4526   5.213   0.668   4.047
 1209SOL    HW2 4527   5.313   0.615   3.928
 1210SOL     OW 4528   3.996   6.439   3.697
 1210SOL    HW1 4529   3.912   6.474   3.739
 1210SOL    HW2 4530   3.979   6.417   3.601
 1211SOL     OW 4531   1.210   2.788   3.016
 1211SOL    HW1 4532   1.257   2.769   2.930
 1211SOL    HW2 4533   1.257   2.862   3.064
 1212SOL     OW 4534   6.325   0.162   5.922
 1212SOL    HW1 4535   6.372   0.169   6.010
 1212SOL    HW2 4536   6.242   0.108   5.932
 1213SOL     OW 4537   5.889   2.588   1.491
 1213SOL    HW1 4538   5.796   2.616   1.515
 1213SOL    HW2 4539   5.886   2.509   1.431
 1214SOL     OW 4540   1.034   2.936   0.247
 1214SOL    HW1 4541   1.072   3.011   0.191
 1214SOL    HW2 4542   1.013   2.858   0.188
 1215SOL     OW 4543   0.813   4.879   3.111
 1215SOL    HW1 4544   0.890   4.856   3.171
 1215SOL    HW2 4545   0.728   4.842   3.149
 1216SOL     OW 4546   5.376   1.332   0.503
 1216SOL    HW1 4547   5.326   1.253   0.466
 1216SOL    HW2 4548   5.355   1.413   0.449
 1217SOL     OW 4549   2.819   4.667   0.924
 1217SOL    HW1 4550   2.897   4.604   0.929
 1217SOL    HW2 4551   2.734   4.618   0.943
 1218SOL     OW 4552   1.448   3.108   5.083
 1218SOL    HW1 4553   1.528   3.162   5.056
 1218SOL    HW2 4554   1.412   3.060   5.004
 1219SOL     OW 4555   6.064   5.777   1.765
 1219SOL    HW1 4556   6.119   5.706   1.721
 1219SOL    HW2 4557   6.122   5.836   1.820
 1220SOL     OW 4558   0.732   4.540   2.297
 1220SOL    HW1 4559   0.828   4.561   2.277
 1220SOL    HW2 4560   0.690   4.494   2.219
 1221SOL     OW 4561   4.310   3.279   6.385
 1221SOL    HW1 4562   4.308   3.376   6.411
 1221SOL    HW2 4563   4.352   3.225   6.457
 1222SOL     OW 4564   6.840   1.411   6.611
 1222SOL    HW1 4565   6.872   1.505   6.599
 1222SOL    HW2 4566   6.816   1.373   6.522
 1223SOL     OW 4567   4.161   1.486   0.769
 1223SOL    HW1 4568   4.178   1.568   0.825
 1223SOL    HW2 4569   4.132   1.514   0.678
 1224SOL     OW 4570   3.174   5.973   0.107
 1224SOL    HW1 4571   3.164   5.881   0.071
 1224SOL    HW2 4572   3.090   6.000   0.154
 1225SOL     OW 4573   3.252   2.709   6.837
 1225SOL    HW1 4574   3.303   2.623   6.839
 1225SOL    HW2 4575   3.241   2.740   6.743
 1226SOL     OW 4576   3.088   6.721   1.299
 1226SOL    HW1 4577   3.013   6.725   1.366
 1226SOL    HW2 4578   3.172   6.692   1.345
 1227SOL     OW 4579   4.924   4.588   5.804
 1227SOL    HW1 4580   4.978   4.631   5.732
 1227SOL    HW2 4581   4.984   4.560   5.879
 1228SOL     OW 4582   2.803   2.261   6.229
 1228SOL    HW1 4583   2.898   2.240   6.252
 1228SOL    HW2 4584   2.795   2.276   6.131
 1229SOL     OW 4585   3.116   5.718   6.371
 1229SOL    HW1 4586   3.132   5.683   6.279
 1229SOL    HW2 4587   3.202   5.715   6.423
 1230SOL     OW 4588   4.983   6.301   2.038
 1230SOL    HW1 4589   5.057   6.236   2.050
 1230SOL    HW2 4590   5.020   6.390   2.010
 1231SOL     OW 4591   1.854   2.175   5.737
 1231SOL    HW1 4592   1.934   2.117   5.729
 1231SOL    HW2 4593   1.803   2.151   5.820
 1232SOL     OW 4594   0.097   1.814   5.506
 1232SOL    HW1 4595   7.017   1.795   5.519
 1232SOL    HW2 4596   0.145   1.728   5.486
 1233SOL     OW 4597   0.958   5.371   5.270
 1233SOL    HW1 4598   1.000   5.306   5.333
 1233SOL    HW2 4599   0.877   5.411   5.314
 1234SOL     OW 4600   6.501   2.824   6.133
 1234SOL    HW1 4601   6.565   2.898   6.113
 1234SOL    HW2 4602   6.408   2.857   6.124
 1235SOL     OW 4603   6.130   5.960   2.749
 1235SOL    HW1 4604   6.135   5.941   2.847
 1235SOL    HW2 4605   6.139   5.875   2.698
 1236SOL     OW 4606   4.553   0.781   0.288
 1236SOL    HW1 4607   4.603   0.774   0.202
 1236SOL    HW2 4608   4.611   0.825   0.357
 1237SOL     OW 4609   2.030   4.750   5.829
 1237SOL    HW1 4610   2.088   4.669   5.817
 1237SOL    HW2 4611   1.940   4.733   5.788
 1238SOL     OW 4612   1.279   0.763   6.807
 1238SOL    HW1 4613   1.330   0.806   6.732
 1238SOL    HW2 4614   1.212   0.699   6.769
 1239SOL     OW 4615   6.459   6.871   6.642
 1239SOL    HW1 4616   6.516   6.930   6.699
 1239SOL    HW2 4617   6.512   6.792   6.611
 1240SOL     OW 4618   5.234   5.987   0.518
 1240SOL    HW1 4619   5.212   6.022   0.608
 1240SOL    HW2 4620   5.156   6.000   0.457
 1241SOL     OW 4621   5.408   3.744   4.210
 1241SOL    HW1 4622   5.355   3.821   4.176
 1241SOL    HW2 4623   5.353   3.661   4.206
 1242SOL     OW 4624   0.754   3.823   1.223
 1242SOL    HW1 4625   0.774   3.904   1.279
 1242SOL    HW2 4626   0.793   3.742   1.266
 1243SOL     OW 4627   0.575   0.401   5.183
 1243SOL    HW1 4628   0.619   0.438   5.101
 1243SOL    HW2 4629   0.492   0.352   5.157
 1244SOL     OW 4630   6.064   6.435   4.195
 1244SOL    HW1 4631   6.101   6.499   4.128
 1244SOL    HW2 4632   6.042   6.483   4.279
 1245SOL     OW 4633   5.840   4.192   0.821
 1245SOL    HW1 4634   5.929   4.147   0.812
 1245SOL    HW2 4635   5.847   4.267   0.887
 1246SOL     OW 4636   2.722   0.179   1.091
 1246SOL    HW1 4637   2.745   0.238   1.168
 1246SOL    HW2 4638   2.658   0.227   1.030
 1247SOL     OW 4639   0.359   6.744   6.500
 1247SOL    HW1 4640   0.423   6.803   6.449
 1247SOL    HW2 4641   0.284   6.800   6.535
 1248SOL     OW 4642   1.986   0.394   5.051
 1248SOL    HW1 4643   1.901   0.426   5.010
 1248SOL    HW2 4644   1.998   0.297   5.032
 1249SOL     OW 4645   6.598   2.081   2.404
 1249SOL    HW1 4646   6.639   2.172   2.402
 1249SOL    HW2 4647   6.662   2.016   2.363
 1250SOL     OW 4648   6.278   5.684   3.802
 1250SOL    HW1 4649   6.358   5.712   3.748
 1250SOL    HW2 4650   6.225   5.765   3.828
 1251SOL     OW 4651   2.379   0.724   3.354
 1251SOL    HW1 4652   2.424   0.745   3.441
 1251SOL    HW2 4653   2.368   0.808   3.301
 1252SOL     OW 4654   4.713   3.311   5.997
 1252SOL    HW1 4655   4.769   3.237   6.035
 1252SOL    HW2 4656   4.619   3.302   6.029
 1253SOL     OW 4657   2.898   6.018   2.074
 1253SOL    HW1 4658   2.822   5.957   2.054
 1253SOL    HW2 4659   2.973   6.000   2.011
 1254SOL     OW 4660   1.066   2.798   2.590
 1254SOL    HW1 4661   1.152   2.786   2.640
 1254SOL    HW2 4662   1.080   2.773   2.494
 1255SOL     OW 4663   5.511   1.608   6.465
 1255SOL    HW1 4664   5.454   1.573   6.390
 1255SOL    HW2 4665   5.458   1.606   6.550
 1256SOL     OW 4666   6.662   6.642   2.651
 1256SOL    HW1 4667   6.734   6.688   2.599
 1256SOL    HW2 4668   6.637   6.699   2.729
 1257SOL     OW 4669   6.728   5.926   4.903
 1257SOL    HW1 4670   6.805   5.862   4.914
 1257SOL    HW2 4671   6.647   5.875   4.875
 1258SOL     OW 4672   1.655   4.748   3.253
 1258SOL    HW1 4673   1.634   4.831   3.305
 1258SOL    HW2 4674   1.697   4.773   3.166
 1259SOL     OW 4675   3.696   0.685   3.994
 1259SOL    HW1 4676   3.622   0.625   3.966
 1259SOL    HW2 4677   3.659   0.775   4.017
 1260SOL     OW 4678   2.275   2.184   0.141
 1260SOL    HW1 4679   2.311   2.120   0.073
 1260SOL    HW2 4680   2.332   2.266   0.143
 1261SOL     OW 4681   0.055   6.226   6.804
 1261SOL    HW1 4682   0.140   6.198   6.759
 1261SOL    HW2 4683   0.040   6.324   6.789
 1262SOL     OW 4684   5.643   4.542   1.331
 1262SOL    HW1 4685   5.545   4.528   1.319
 1262SOL    HW2 4686   5.686   4.457   1.362
 1263SOL     OW 4687   6.832   2.465   1.849
 1263SOL    HW1 4688   6.814   2.550   1.899
 1263SOL    HW2 4689   6.845   2.485   1.752
 1264SOL     OW 4690   0.503   4.390   1.365
 1264SOL    HW1 4691   0.517   4.365   1.270
 1264SOL    HW2 4692   0.415   4.354   1.396
 1265SOL     OW 4693   5.455   5.213   4.438
 1265SOL    HW1 4694   5.358   5.234   4.425
 1265SOL    HW2 4695   5.466   5.114   4.449
 1266SOL     OW 4696   0.562   1.624   3.988
 1266SOL    HW1 4697   0.644   1.655   3.941
 1266SOL    HW2 4698   0.586   1.548   4.049
 1267SOL     OW 4699   4.677   0.023   1.049
 1267SOL    HW1 4700   4.721   0.018   1.139
 1267SOL    HW2 4701   4.663   6.948   1.013
 1268SOL     OW 4702   2.883   2.412   0.525
 1268SOL    HW1 4703   2.969   2.372   0.557
 1268SOL    HW2 4704   2.871   2.392   0.428
 1269SOL     OW 4705   5.762   4.309   5.090
 1269SOL    HW1 4706   5.683   4.316   5.029
 1269SOL    HW2 4707   5.829   4.247   5.051
 1270SOL     OW 4708   1.260   3.061   3.450
 1270SOL    HW1 4709   1.200   3.051   3.529
 1270SOL    HW2 4710   1.355   3.069   3.480
 1271SOL     OW 4711   2.487   2.078   3.737
 1271SOL    HW1 4712   2.539   2.163   3.729
 1271SOL    HW2 4713   2.428   2.067   3.657
 1272SOL     OW 4714   5.715   4.608   6.847
 1272SOL    HW1 4715   5.815   4.609   6.845
 1272SOL    HW2 4716   5.682   4.517   6.823
 1273SOL     OW 4717   0.458   2.936   0.114
 1273SOL    HW1 4718   0.443   2.860   0.177
 1273SOL    HW2 4719   0.527   2.998   0.152
 1274SOL     OW 4720   6.732   4.577   1.629
 1274SOL    HW1 4721   6.731   4.507   1.557
 1274SOL    HW2 4722   6.647   4.573   1.681
 1275SOL     OW 4723   3.614   1.588   4.322
 1275SOL    HW1 4724   3.623   1.649   4.400
 1275SOL    HW2 4725   3.620   1.641   4.237
 1276SOL     OW 4726   6.441   5.975   5.193
 1276SOL    HW1 4727   6.510   5.949   5.260
 1276SOL    HW2 4728   6.478   5.965   5.101
 1277SOL     OW 4729   1.256   5.516   5.869
 1277SOL    HW1 4730   1.262   5.532   5.770
 1277SOL    HW2 4731   1.308   5.587   5.917
 1278SOL     OW 4732   0.857   6.760   4.700
 1278SOL    HW1 4733   0.853   6.739   4.798
 1278SOL    HW2 4734   0.844   6.675   4.648
 1279SOL     OW 4735   1.942   5.224   0.361
 1279SOL    HW1 4736   2.000   5.143   0.351
 1279SOL    HW2 4737   1.978   5.297   0.304
 1280SOL     OW 4738   3.850   6.308   4.261
 1280SOL    HW1 4739   3.864   6.344   4.169
 1280SOL    HW2 4740   3.861   6.209   4.260
 1281SOL     OW 4741   2.088   6.206   3.165
 1281SOL    HW1 4742   2.081   6.192   3.264
 1281SOL    HW2 4743   2.182   6.190   3.136
 1282SOL     OW 4744   6.694   2.531   0.314
 1282SOL    HW1 4745   6.756   2.589   0.368
 1282SOL    HW2 4746   6.747   2.471   0.255
 1283SOL     OW 4747   6.964   3.384   5.684
 1283SOL    HW1 4748   6.974   3.447   5.761
 1283SOL    HW2 4749   6.946   3.292   5.719
 1284SOL     OW 4750   5.035   2.303   1.218
 1284SOL    HW1 4751   5.005   2.377   1.157
 1284SOL    HW2 4752   5.065   2.342   1.305
 1285SOL     OW 4753   4.341   1.742   5.976
 1285SOL    HW1 4754   4.344   1.813   5.906
 1285SOL    HW2 4755   4.360   1.653   5.935
 1286SOL     OW 4756   4.105   3.855   1.858
 1286SOL    HW1 4757   4.088   3.848   1.956
 1286SOL    HW2 4758   4.148   3.771   1.825
 1287SOL     OW 4759   5.938   5.087   4.972
 1287SOL    HW1 4760   5.948   5.145   4.891
 1287SOL    HW2 4761   6.026   5.044   4.993
 1288SOL     OW 4762   3.881   3.179   0.013
 1288SOL    HW1 4763   3.911   3.126   0.093
 1288SOL    HW2 4764   3.944   3.162   6.955
 1289SOL     OW 4765   6.463   6.811   1.305
 1289SOL    HW1 4766   6.364   6.799   1.294
 1289SOL    HW2 4767   6.506   6.814   1.215
 1290SOL     OW 4768   0.812   6.573   0.107
 1290SOL    HW1 4769   0.818   6.473   0.118
 1290SOL    HW2 4770   0.785   6.594   0.013
 1291SOL     OW 4771   0.254   4.163   4.586
 1291SOL    HW1 4772   0.155   4.152   4.576
 1291SOL    HW2 4773   0.301   4.112   4.514
 1292SOL     OW 4774   0.615   5.715   2.400
 1292SOL    HW1 4775   0.613   5.771   2.483
 1292SOL    HW2 4776   0.645   5.770   2.323
 1293SOL     OW 4777   0.905   1.748   0.158
 1293SOL    HW1 4778   0.984   1.716   0.105
 1293SOL    HW2 4779   0.879   1.677   0.224
 1294SOL     OW 4780   0.472   3.802   6.467
 1294SOL    HW1 4781   0.434   3.841   6.383
 1294SOL    HW2 4782   0.443   3.857   6.545
 1295SOL     OW 4783   0.441   3.733   1.501
 1295SOL    HW1 4784   0.498   3.815   1.513
 1295SOL    HW2 4785   0.486   3.655   1.543
 1296SOL     OW 4786   4.119   6.406   5.562
 1296SOL    HW1 4787   4.165   6.388   5.649
 1296SOL    HW2 4788   4.085   6.320   5.523
 1297SOL     OW 4789   6.860   0.325   1.358
 1297SOL    HW1 4790   6.866   0.339   1.457
 1297SOL    HW2 4791   6.820   0.235   1.340
 1298SOL     OW 4792   5.587   5.392   3.324
 1298SOL    HW1 4793   5.627   5.358   3.409
 1298SOL    HW2 4794   5.493   5.422   3.341
 1299SOL     OW 4795   2.098   3.244   3.132
 1299SOL    HW1 4796   2.109   3.334   3.090
 1299SOL    HW2 4797   2.001   3.221   3.138
 1300SOL     OW 4798   2.053   3.141   0.835
 1300SOL    HW1 4799   2.134   3.084   0.836
 1300SOL    HW2 4800   2.071   3.226   0.885
 1301SOL     OW 4801   0.068   6.805   1.248
 1301SOL    HW1 4802   0.054   6.870   1.174
 1301SOL    HW2 4803   0.162   6.810   1.280
 1302SOL     OW 4804   4.174   0.446   5.926
 1302SOL    HW1 4805   4.239   0.442   6.002
 1302SOL    HW2 4806   4.155   0.354   5.893
 1303SOL     OW 4807   3.828   2.101   1.509
 1303SOL    HW1 4808   3.748   2.040   1.504
 1303SOL    HW2 4809   3.831   2.144   1.599
 1304SOL     OW 4810   2.362   0.737   0.018
 1304SOL    HW1 4811   2.446   0.692   7.004
 1304SOL    HW2 4812   2.283   0.695   6.990
 1305SOL     OW 4813   5.447   3.457   1.361
 1305SOL    HW1 4814   5.489   3.505   1.438
 1305SOL    HW2 4815   5.431   3.362   1.387
 1306SOL     OW 4816   1.012   5.678   3.827
 1306SOL    HW1 4817   0.970   5.754   3.877
 1306SOL    HW2 4818   0.952   5.598   3.833
 1307SOL     OW 4819   1.646   3.840   4.058
 1307SOL    HW1 4820   1.659   3.939   4.063
 1307SOL    HW2 4821   1.587   3.810   4.133
 1308SOL     OW 4822   6.335   0.433   5.057
 1308SOL    HW1 4823   6.284   0.515   5.083
 1308SOL    HW2 4824   6.385   0.398   5.136
 1309SOL     OW 4825   5.953   5.060   5.306
 1309SOL    HW1 4826   5.946   5.149   5.262
 1309SOL    HW2 4827   5.995   5.070   5.396
 1310SOL     OW 4828   6.334   4.187   4.096
 1310SOL    HW1 4829   6.337   4.087   4.095
 1310SOL    HW2 4830   6.426   4.224   4.090
 1311SOL     OW 4831   0.556   5.922   5.547
 1311SOL    HW1 4832   0.590   5.891   5.635
 1311SOL    HW2 4833   0.506   6.008   5.559
 1312SOL     OW 4834   1.023   6.674   6.732
 1312SOL    HW1 4835   1.025   6.774   6.728
 1312SOL    HW2 4836   0.931   6.643   6.754
 1313SOL     OW 4837   0.662   4.872   2.877
 1313SOL    HW1 4838   0.715   4.852   2.959
 1313SOL    HW2 4839   0.720   4.917   2.809
 1314SOL     OW 4840   4.494   1.144   5.348
 1314SOL    HW1 4841   4.566   1.131   5.417
 1314SOL    HW2 4842   4.405   1.126   5.389
 1315SOL     OW 4843   0.262   1.641   2.702
 1315SOL    HW1 4844   0.175   1.690   2.706
 1315SOL    HW2 4845   0.305   1.642   2.793
 1316SOL     OW 4846   2.996   6.571   6.239
 1316SOL    HW1 4847   3.064   6.546   6.171
 1316SOL    HW2 4848   2.957   6.660   6.216
 1317SOL     OW 4849   1.998   4.280   6.017
 1317SOL    HW1 4850   2.006   4.344   6.094
 1317SOL    HW2 4851   2.030   4.325   5.934
 1318SOL     OW 4852   0.856   2.124   1.056
 1318SOL    HW1 4853   0.914   2.089   0.983
 1318SOL    HW2 4854   0.882   2.083   1.143
 1319SOL     OW 4855   6.633   6.531   6.980
 1319SOL    HW1 4856   6.721   6.484   6.993
 1319SOL    HW2 4857   6.587   6.539   0.050
 1320SOL     OW 4858   3.896   4.762   6.815
 1320SOL    HW1 4859   3.823   4.801   6.759
 1320SOL    HW2 4860   3.861   4.681   6.863
 1321SOL     OW 4861   5.583   2.306   6.284
 1321SOL    HW1 4862   5.668   2.310   6.230
 1321SOL    HW2 4863   5.591   2.368   6.362
 1322SOL     OW 4864   3.443   1.341   3.445
 1322SOL    HW1 4865   3.479   1.356   3.353
 1322SOL    HW2 4866   3.470   1.417   3.503
 1323SOL     OW 4867   4.498   0.157   6.374
 1323SOL    HW1 4868   4.520   0.217   6.297
 1323SOL    HW2 4869   4.474   0.066   6.340
 1324SOL     OW 4870   0.554   3.666   6.780
 1324SOL    HW1 4871   0.591   3.754   6.750
 1324SOL    HW2 4872   0.479   3.682   6.844
 1325SOL     OW 4873   2.598   7.006   3.868
 1325SOL    HW1 4874   2.550   6.953   3.938
 1325SOL    HW2 4875   2.540   0.065   3.839
 1326SOL     OW 4876   4.848   3.623   5.454
 1326SOL    HW1 4877   4.827   3.547   5.515
 1326SOL    HW2 4878   4.887   3.698   5.506
 1327SOL     OW 4879   0.974   5.909   1.478
 1327SOL    HW1 4880   0.980   6.005   1.508
 1327SOL    HW2 4881   1.067   5.873   1.466
 1328SOL     OW 4882   2.170   3.287   1.456
 1328SOL    HW1 4883   2.241   3.352   1.482
 1328SOL    HW2 4884   2.084   3.336   1.439
 1329SOL     OW 4885   0.702   2.203   2.004
 1329SOL    HW1 4886   0.682   2.291   2.048
 1329SOL    HW2 4887   0.666   2.203   1.911
 1330SOL     OW 4888   0.844   0.902   2.141
 1330SOL    HW1 4889   0.755   0.911   2.098
 1330SOL    HW2 4890   0.916   0.911   2.072
 1331SOL     OW 4891   4.929   3.394   2.938
 1331SOL    HW1 4892   5.013   3.340   2.932
 1331SOL    HW2 4893   4.877   3.385   2.853
 1332SOL     OW 4894   2.687   6.990   6.897
 1332SOL    HW1 4895   2.662   0.069   6.893
 1332SOL    HW2 4896   2.740   6.965   6.816
 1333SOL     OW 4897   3.356   3.152   3.987
 1333SOL    HW1 4898   3.316   3.104   3.909
 1333SOL    HW2 4899   3.451   3.177   3.965
 1334SOL     OW 4900   6.074   1.733   4.131
 1334SOL    HW1 4901   6.078   1.634   4.133
 1334SOL    HW2 4902   6.142   1.771   4.193
 1335SOL     OW 4903   2.338   1.740   2.537
 1335SOL    HW1 4904   2.326   1.839   2.550
 1335SOL    HW2 4905   2.254   1.701   2.501
 1336SOL     OW 4906   2.393   2.455   5.390
 1336SOL    HW1 4907   2.306   2.405   5.386
 1336SOL    HW2 4908   2.410   2.499   5.302
 1337SOL     OW 4909   1.731   2.168   4.132
 1337SOL    HW1 4910   1.753   2.197   4.039
 1337SOL    HW2 4911   1.801   2.105   4.164
 1338SOL     OW 4912   5.602   2.373   5.176
 1338SOL    HW1 4913   5.557   2.428   5.247
 1338SOL    HW2 4914   5.653   2.434   5.115
 1339SOL     OW 4915   6.387   2.436   6.827
 1339SOL    HW1 4916   6.361   2.531   6.843
 1339SOL    HW2 4917   6.460   2.432   6.759
 1340SOL     OW 4918   6.139   2.267   3.158
 1340SOL    HW1 4919   6.211   2.317   3.111
 1340SOL    HW2 4920   6.101   2.198   3.097
 1341SOL     OW 4921   5.452   6.721   6.603
 1341SOL    HW1 4922   5.452   6.816   6.634
 1341SOL    HW2 4923   5.529   6.706   6.541
 1342SOL     OW 4924   3.050   6.053   5.826
 1342SOL    HW1 4925   3.026   6.051   5.924
 1342SOL    HW2 4926   3.147   6.031   5.815
 1343SOL     OW 4927   5.451   5.650   2.369
 1343SOL    HW1 4928   5.356   5.635   2.340
 1343SOL    HW2 4929   5.453   5.669   2.467
 1344SOL     OW 4930   0.085   5.819   4.708
 1344SOL    HW1 4931   0.138   5.895   4.746
 1344SOL    HW2 4932   7.013   5.853   4.678
 1345SOL     OW 4933   1.259   6.862   3.428
 1345SOL    HW1 4934   1.320   6.841   3.351
 1345SOL    HW2 4935   1.295   6.940   3.478
 1346SOL     OW 4936   0.963   5.118   4.547
 1346SOL    HW1 4937   1.048   5.136   4.596
 1346SOL    HW2 4938   0.885   5.145   4.604
 1347SOL     OW 4939   0.254   6.688   5.658
 1347SOL    HW1 4940   0.192   6.766   5.661
 1347SOL    HW2 4941   0.347   6.719   5.682
 1348SOL     OW 4942   5.877   6.203   3.710
 1348SOL    HW1 4943   5.852   6.300   3.714
 1348SOL    HW2 4944   5.813   6.154   3.652
 1349SOL     OW 4945   4.575   2.560   5.634
 1349SOL    HW1 4946   4.669   2.589   5.614
 1349SOL    HW2 4947   4.528   2.632   5.684
 1350SOL     OW 4948   5.746   5.261   5.456
 1350SOL    HW1 4949   5.764   5.325   5.531
 1350SOL    HW2 4950   5.820   5.266   5.389
 1351SOL     OW 4951   5.724   1.968   2.871
 1351SOL    HW1 4952   5.781   1.891   2.841
 1351SOL    HW2 4953   5.628   1.947   2.851
 1352SOL     OW 4954   6.997   6.278   2.608
 1352SOL    HW1 4955   6.914   6.310   2.654
 1352SOL    HW2 4956   0.024   6.355   2.562
 1353SOL     OW 4957   6.925   2.211   0.786
 1353SOL    HW1 4958   6.841   2.215   0.732
 1353SOL    HW2 4959   6.940   2.299   0.831
 1354SOL     OW 4960   0.988   4.208   1.707
 1354SOL    HW1 4961   1.022   4.302   1.701
 1354SOL    HW2 4962   1.063   4.145   1.687
 1355SOL     OW 4963   6.004   2.701   3.870
 1355SOL    HW1 4964   6.035   2.651   3.789
 1355SOL    HW2 4965   5.904   2.710   3.867
 1356SOL     OW 4966   3.625   3.348   2.539
 1356SOL    HW1 4967   3.640   3.354   2.441
 1356SOL    HW2 4968   3.692   3.287   2.580
 1357SOL     OW 4969   0.590   3.264   6.191
 1357SOL    HW1 4970   0.581   3.227   6.284
 1357SOL    HW2 4971   0.607   3.363   6.197
 1358SOL     OW 4972   4.091   6.637   6.185
 1358SOL    HW1 4973   4.186   6.660   6.164
 1358SOL    HW2 4974   4.088   6.574   6.262
 1359SOL     OW 4975   5.972   5.068   2.317
 1359SOL    HW1 4976   6.066   5.080   2.351
 1359SOL    HW2 4977   5.913   5.039   2.392
 1360SOL     OW 4978   2.981   3.233   0.073
 1360SOL    HW1 4979   2.884   3.229   0.098
 1360SOL    HW2 4980   3.032   3.280   0.144
 1361SOL     OW 4981   6.594   5.392   5.741
 1361SOL    HW1 4982   6.529   5.438   5.801
 1361SOL    HW2 4983   6.566   5.404   5.646
 1362SOL     OW 4984   3.097   3.892   3.380
 1362SOL    HW1 4985   3.123   3.978   3.337
 1362SOL    HW2 4986   3.134   3.816   3.328
 1363SOL     OW 4987   0.048   5.141   3.082
 1363SOL    HW1 4988   0.142   5.117   3.058
 1363SOL    HW2 4989   0.030   5.236   3.055
 1364SOL     OW 4990   6.434   3.815   1.208
 1364SOL    HW1 4991   6.475   3.830   1.298
 1364SOL    HW2 4992   6.423   3.903   1.161
 1365SOL     OW 4993   0.439   3.565   6.328
 1365SOL    HW1 4994   0.410   3.486   6.383
 1365SOL    HW2 4995   0.460   3.642   6.389
 1366SOL     OW 4996   0.880   4.908   6.906
 1366SOL    HW1 4997   0.906   4.996   6.868
 1366SOL    HW2 4998   0.805   4.869   6.852
 1367SOL     OW 4999   1.943   0.398   3.222
 1367SOL    HW1 5000   2.042   0.391   3.238
 1367SOL    HW2 5001   1.928   0.434   3.130
 1368SOL     OW 5002   5.652   0.576   3.138
 1368SOL    HW1 5003   5.644   0.672   3.163
 1368SOL    HW2 5004   5.682   0.568   3.044
 1369SOL     OW 5005   2.437   6.706   1.420
 1369SOL    HW1 5006   2.442   6.753   1.508
 1369SOL    HW2 5007   2.485   6.760   1.351
 1370SOL     OW 5008   3.817   0.762   0.829
 1370SOL    HW1 5009   3.847   0.675   0.868
 1370SOL    HW2 5010   3.866   0.779   0.743
 1371SOL     OW 5011   6.012   2.000   4.294
 1371SOL    HW1 5012   5.991   2.021   4.199
 1371SOL    HW2 5013   6.095   1.945   4.300
 1372SOL     OW 5014   1.456   3.029   0.153
 1372SOL    HW1 5015   1.362   3.005   0.130
 1372SOL    HW2 5016   1.515   2.949   0.143
 1373SOL     OW 5017   5.742   3.112   0.523
 1373SOL    HW1 5018   5.726   3.070   0.612
 1373SOL    HW2 5019   5.821   3.069   0.479
 1374SOL     OW 5020   5.009   2.100   0.172
 1374SOL    HW1 5021   4.944   2.039   0.217
 1374SOL    HW2 5022   5.082   2.046   0.131
 1375SOL     OW 5023   0.050   3.785   6.308
 1375SOL    HW1 5024   6.970   3.796   6.289
 1375SOL    HW2 5025   0.092   3.728   6.237
 1376SOL     OW 5026   4.619   4.325   4.600
 1376SOL    HW1 5027   4.599   4.313   4.698
 1376SOL    HW2 5028   4.687   4.257   4.572
 1377SOL     OW 5029   6.486   4.095   6.347
 1377SOL    HW1 5030   6.544   4.168   6.382
 1377SOL    HW2 5031   6.412   4.134   6.292
 1378SOL     OW 5032   6.135   0.918   4.507
 1378SOL    HW1 5033   6.210   0.856   4.481
 1378SOL    HW2 5034   6.128   0.921   4.607
 1379SOL     OW 5035   3.236   6.769   2.776
 1379SOL    HW1 5036   3.139   6.749   2.789
 1379SOL    HW2 5037   3.287   6.683   2.771
 1380SOL     OW 5038   0.216   0.250   2.701
 1380SOL    HW1 5039   0.253   0.293   2.783
 1380SOL    HW2 5040   0.291   0.204   2.652
 1381SOL     OW 5041   6.023   2.053   0.326
 1381SOL    HW1 5042   6.080   2.110   0.267
 1381SOL    HW2 5043   6.080   1.990   0.378
 1382SOL     OW 5044   4.682   4.609   0.653
 1382SOL    HW1 5045   4.619   4.554   0.598
 1382SOL    HW2 5046   4.766   4.625   0.602
 1383SOL     OW 5047   1.120   0.266   1.515
 1383SOL    HW1 5048   1.202   0.219   1.481
 1383SOL    HW2 5049   1.067   0.202   1.572
 1384SOL     OW 5050   4.052   0.478   2.249
 1384SOL    HW1 5051   4.082   0.571   2.267
 1384SOL    HW2 5052   4.037   0.429   2.335
 1385SOL     OW 5053   1.063   3.588   3.478
 1385SOL    HW1 5054   0.981   3.644   3.468
 1385SOL    HW2 5055   1.052   3.526   3.555
 1386SOL     OW 5056   2.808   1.404   4.639
 1386SOL    HW1 5057   2.876   1.386   4.568
 1386SOL    HW2 5058   2.853   1.427   4.725
 1387SOL     OW 5059   4.121   6.480   2.569
 1387SOL    HW1 5060   4.182   6.483   2.648
 1387SOL    HW2 5061   4.158   6.539   2.497
 1388SOL     OW 5062   0.183   6.503   3.230
 1388SOL    HW1 5063   0.280   6.528   3.232
 1388SOL    HW2 5064   0.158   6.478   3.136
 1389SOL     OW 5065   0.352   1.037   4.035
 1389SOL    HW1 5066   0.417   1.108   4.061
 1389SOL    HW2 5067   0.291   1.017   4.112
 1390SOL     OW 5068   4.763   2.363   6.173
 1390SOL    HW1 5069   4.856   2.389   6.202
 1390SOL    HW2 5070   4.700   2.374   6.250
 1391SOL     OW 5071   6.453   0.769   5.063
 1391SOL    HW1 5072   6.399   0.850   5.082
 1391SOL    HW2 5073   6.402   0.687   5.090
 1392SOL     OW 5074   5.418   6.224   6.444
 1392SOL    HW1 5075   5.397   6.240   6.348
 1392SOL    HW2 5076   5.440   6.310   6.489
 1393SOL     OW 5077   6.237   3.855   6.215
 1393SOL    HW1 5078   6.238   3.763   6.176
 1393SOL    HW2 5079   6.247   3.922   6.142
 1394SOL     OW 5080   4.253   6.473   3.639
 1394SOL    HW1 5081   4.282   6.392   3.588
 1394SOL    HW2 5082   4.161   6.459   3.674
 1395SOL     OW 5083   1.373   4.031   3.766
 1395SOL    HW1 5084   1.445   3.962   3.778
 1395SOL    HW2 5085   1.404   4.100   3.701
 1396SOL     OW 5086   1.455   0.379   3.959
 1396SOL    HW1 5087   1.439   0.466   3.912
 1396SOL    HW2 5088   1.376   0.356   4.015
 1397SOL     OW 5089   0.538   5.961   4.359
 1397SOL    HW1 5090   0.519   5.910   4.444
 1397SOL    HW2 5091   0.453   6.001   4.325
 1398SOL     OW 5092   1.189   1.548   6.438
 1398SOL    HW1 5093   1.180   1.509   6.346
 1398SOL    HW2 5094   1.181   1.476   6.506
 1399SOL     OW 5095   4.267   0.579   0.126
 1399SOL    HW1 5096   4.301   0.567   0.220
 1399SOL    HW2 5097   4.171   0.551   0.122
 1400SOL     OW 5098   6.885   2.039   4.421
 1400SOL    HW1 5099   6.885   1.939   4.432
 1400SOL    HW2 5100   6.794   2.069   4.392
 1401SOL     OW 5101   6.109   6.453   4.484
 1401SOL    HW1 5102   6.009   6.458   4.482
 1401SOL    HW2 5103   6.148   6.543   4.465
 1402SOL     OW 5104   5.703   3.919   6.789
 1402SOL    HW1 5105   5.801   3.940   6.785
 1402SOL    HW2 5106   5.657   3.960   6.710
 1403SOL     OW 5107   2.137   2.025   1.056
 1403SOL    HW1 5108   2.116   1.930   1.080
 1403SOL    HW2 5109   2.145   2.079   1.140
 1404SOL     OW 5110   5.786   6.931   0.205
 1404SOL    HW1 5111   5.756   7.007   0.147
 1404SOL    HW2 5112   5.747   6.941   0.296
 1405SOL     OW 5113   2.860   3.310   0.392
 1405SOL    HW1 5114   2.763   3.284   0.387
 1405SOL    HW2 5115   2.878   3.384   0.328
 1406SOL     OW 5116   2.307   4.836   0.833
 1406SOL    HW1 5117   2.219   4.867   0.870
 1406SOL    HW2 5118   2.374   4.909   0.842
 1407SOL     OW 5119   1.782   3.764   3.511
 1407SOL    HW1 5120   1.767   3.727   3.420
 1407SOL    HW2 5121   1.695   3.770   3.559
 1408SOL     OW 5122   5.294   6.707   6.828
 1408SOL    HW1 5123   5.338   6.696   6.739
 1408SOL    HW2 5124   5.363   6.707   6.900
 1409SOL     OW 5125   0.090   0.974   4.917
 1409SOL    HW1 5126   0.110   0.922   4.834
 1409SOL    HW2 5127   0.074   0.910   4.993
 1410SOL     OW 5128   3.404   4.096   0.282
 1410SOL    HW1 5129   3.357   4.014   0.315
 1410SOL    HW2 5130   3.358   4.130   0.200
 1411SOL     OW 5131   3.639   6.107   6.249
 1411SOL    HW1 5132   3.671   6.124   6.156
 1411SOL    HW2 5133   3.713   6.069   6.304
 1412SOL     OW 5134   0.535   4.235   1.792
 1412SOL    HW1 5135   0.593   4.280   1.723
 1412SOL    HW2 5136   0.518   4.299   1.867
 1413SOL     OW 5137   1.456   1.800   4.417
 1413SOL    HW1 5138   1.550   1.833   4.411
 1413SOL    HW2 5139   1.431   1.757   4.330
 1414SOL     OW 5140   1.772   2.424   2.088
 1414SOL    HW1 5141   1.800   2.444   1.994
 1414SOL    HW2 5142   1.758   2.509   2.138
 1415SOL     OW 5143   3.190   1.806   4.143
 1415SOL    HW1 5144   3.289   1.813   4.153
 1415SOL    HW2 5145   3.164   1.824   4.048
 1416SOL     OW 5146   3.812   0.741   4.464
 1416SOL    HW1 5147   3.856   0.816   4.515
 1416SOL    HW2 5148   3.800   0.769   4.369
 1417SOL     OW 5149   3.322   2.785   6.171
 1417SOL    HW1 5150   3.277   2.699   6.147
 1417SOL    HW2 5151   3.254   2.852   6.202
 1418SOL     OW 5152   3.042   3.492   6.856
 1418SOL    HW1 5153   2.963   3.550   6.836
 1418SOL    HW2 5154   3.011   3.406   6.896
 1419SOL     OW 5155   2.203   5.464   4.258
 1419SOL    HW1 5156   2.182   5.386   4.317
 1419SOL    HW2 5157   2.120   5.515   4.238
 1420SOL     OW 5158   3.391   5.463   2.623
 1420SOL    HW1 5159   3.401   5.545   2.679
 1420SOL    HW2 5160   3.469   5.456   2.560
 1421SOL     OW 5161   1.105   3.929   3.807
 1421SOL    HW1 5162   1.137   3.852   3.861
 1421SOL    HW2 5163   1.183   3.986   3.779
 1422SOL     OW 5164   3.473   4.423   5.943
 1422SOL    HW1 5165   3.498   4.448   5.850
 1422SOL    HW2 5166   3.390   4.472   5.970
 1423SOL     OW 5167   3.517   1.391   4.999
 1423SOL    HW1 5168   3.468   1.384   4.913
 1423SOL    HW2 5169   3.452   1.399   5.074
 1424SOL     OW 5170   6.414   3.600   6.938
 1424SOL    HW1 5171   6.387   3.656   6.859
 1424SOL    HW2 5172   6.422   3.505   6.910
 1425SOL     OW 5173   2.227   5.765   5.282
 1425SOL    HW1 5174   2.281   5.709   5.345
 1425SOL    HW2 5175   2.284   5.840   5.248
 1426SOL     OW 5176   1.942   1.554   6.365
 1426SOL    HW1 5177   1.864   1.508   6.407
 1426SOL    HW2 5178   1.912   1.640   6.323
 1427SOL     OW 5179   0.143   0.430   3.937
 1427SOL    HW1 5180   0.142   0.452   4.034
 1427SOL    HW2 5181   0.061   0.466   3.893
 1428SOL     OW 5182   0.110   1.786   2.063
 1428SOL    HW1 5183   0.103   1.728   2.145
 1428SOL    HW2 5184   0.117   1.881   2.091
 1429SOL     OW 5185   6.031   1.397   6.816
 1429SOL    HW1 5186   5.933   1.390   6.796
 1429SOL    HW2 5187   6.076   1.311   6.792
 1430SOL     OW 5188   2.141   3.850   4.135
 1430SOL    HW1 5189   2.161   3.839   4.037
 1430SOL    HW2 5190   2.194   3.927   4.171
 1431SOL     OW 5191   2.487   2.548   6.512
 1431SOL    HW1 5192   2.473   2.565   6.414
 1431SOL    HW2 5193   2.399   2.552   6.559
 1432SOL     OW 5194   2.124   1.141   1.577
 1432SOL    HW1 5195   2.116   1.233   1.540
 1432SOL    HW2 5196   2.067   1.079   1.523
 1433SOL     OW 5197   4.202   6.712   4.223
 1433SOL    HW1 5198   4.291   6.757   4.231
 1433SOL    HW2 5199   4.151   6.723   4.308
 1434SOL     OW 5200   6.803   1.214   6.371
 1434SOL    HW1 5201   6.775   1.164   6.290
 1434SOL    HW2 5202   6.895   1.184   6.399
 1435SOL     OW 5203   6.678   0.990   3.643
 1435SOL    HW1 5204   6.632   0.902   3.653
 1435SOL    HW2 5205   6.630   1.045   3.575
 1436SOL     OW 5206   5.917   4.109   0.206
 1436SOL    HW1 5207   5.917   4.153   0.296
 1436SOL    HW2 5208   5.921   4.179   0.135
 1437SOL     OW 5209   3.211   0.585   5.607
 1437SOL    HW1 5210   3.183   0.561   5.514
 1437SOL    HW2 5211   3.276   0.661   5.604
 1438SOL     OW 5212   2.956   0.549   1.603
 1438SOL    HW1 5213   2.927   0.632   1.650
 1438SOL    HW2 5214   3.053   0.534   1.620
 1439SOL     OW 5215   0.736   5.174   0.909
 1439SOL    HW1 5216   0.722   5.238   0.985
 1439SOL    HW2 5217   0.834   5.168   0.888
 1440SOL     OW 5218   3.692   3.388   5.119
 1440SOL    HW1 5219   3.750   3.442   5.181
 1440SOL    HW2 5220   3.744   3.309   5.086
 1441SOL     OW 5221   6.677   3.686   4.171
 1441SOL    HW1 5222   6.642   3.759   4.113
 1441SOL    HW2 5223   6.642   3.598   4.140
 1442SOL     OW 5224   6.727   4.523   0.465
 1442SOL    HW1 5225   6.712   4.526   0.366
 1442SOL    HW2 5226   6.665   4.456   0.506
 1443SOL     OW 5227   0.911   2.258   4.633
 1443SOL    HW1 5228   0.874   2.180   4.582
 1443SOL    HW2 5229   0.941   2.228   4.724
 1444SOL     OW 5230   4.430   6.400   1.782
 1444SOL    HW1 5231   4.376   6.424   1.702
 1444SOL    HW2 5232   4.382   6.429   1.865
 1445SOL     OW 5233   0.374   2.523   2.386
 1445SOL    HW1 5234   0.374   2.430   2.349
 1445SOL    HW2 5235   0.452   2.574   2.350
 1446SOL     OW 5236   4.853   2.197   6.483
 1446SOL    HW1 5237   4.928   2.254   6.449
 1446SOL    HW2 5238   4.866   2.179   6.580
 1447SOL     OW 5239   6.542   6.856   4.667
 1447SOL    HW1 5240   6.453   6.888   4.699
 1447SOL    HW2 5241   6.614   6.910   4.711
 1448SOL     OW 5242   6.522   2.444   0.536
 1448SOL    HW1 5243   6.587   2.392   0.591
 1448SOL    HW2 5244   6.569   2.482   0.456
 1449SOL     OW 5245   6.264   0.379   6.860
 1449SOL    HW1 5246   6.291   0.435   6.938
 1449SOL    HW2 5247   6.165   0.360   6.864
 1450SOL     OW 5248   0.457   2.277   2.259
 1450SOL    HW1 5249   0.413   2.319   2.180
 1450SOL    HW2 5250   0.444   2.178   2.256
 1451SOL     OW 5251   3.442   0.608   2.192
 1451SOL    HW1 5252   3.393   0.670   2.253
 1451SOL    HW2 5253   3.531   0.647   2.169
 1452SOL     OW 5254   4.867   2.251   4.464
 1452SOL    HW1 5255   4.871   2.342   4.422
 1452SOL    HW2 5256   4.926   2.249   4.544
 1453SOL     OW 5257   6.820   3.622   5.293
 1453SOL    HW1 5258   6.901   3.567   5.275
 1453SOL    HW2 5259   6.774   3.644   5.207
 1454SOL     OW 5260   6.312   2.704   2.430
 1454SOL    HW1 5261   6.353   2.636   2.492
 1454SOL    HW2 5262   6.373   2.783   2.422
 1455SOL     OW 5263   1.828   0.226   1.753
 1455SOL    HW1 5264   1.870   0.170   1.681
 1455SOL    HW2 5265   1.868   0.317   1.752
 1456SOL     OW 5266   6.145   0.161   5.205
 1456SOL    HW1 5267   6.069   0.096   5.197
 1456SOL    HW2 5268   6.138   0.230   5.133
 1457SOL     OW 5269   1.570   0.072   1.766
 1457SOL    HW1 5270   1.657   0.121   1.760
 1457SOL    HW2 5271   1.547   0.058   1.863
 1458SOL     OW 5272   5.231   6.253   3.995
 1458SOL    HW1 5273   5.306   6.316   4.016
 1458SOL    HW2 5274   5.229   6.181   4.065
 1459SOL     OW 5275   2.867   4.578   6.364
 1459SOL    HW1 5276   2.956   4.607   6.398
 1459SOL    HW2 5277   2.848   4.623   6.277
 1460SOL     OW 5278   0.434   5.516   6.030
 1460SOL    HW1 5279   0.396   5.583   5.966
 1460SOL    HW2 5280   0.446   5.428   5.983
 1461SOL     OW 5281   0.506   4.820   3.852
 1461SOL    HW1 5282   0.562   4.850   3.774
 1461SOL    HW2 5283   0.560   4.827   3.936
 1462SOL     OW 5284   6.727   1.075   6.144
 1462SOL    HW1 5285   6.805   1.099   6.088
 1462SOL    HW2 5286   6.700   0.980   6.127
 1463SOL     OW 5287   0.241   5.884   6.444
 1463SOL    HW1 5288   0.282   5.831   6.369
 1463SOL    HW2 5289   0.299   5.878   6.525
 1464SOL     OW 5290   6.497   6.721   0.815
 1464SOL    HW1 5291   6.519   6.737   0.719
 1464SOL    HW2 5292   6.487   6.623   0.832
 1465SOL     OW 5293   1.275   1.874   2.718
 1465SOL    HW1 5294   1.263   1.969   2.747
 1465SOL    HW2 5295   1.323   1.823   2.789
 1466SOL     OW 5296   1.262   0.662   2.788
 1466SOL    HW1 5297   1.213   0.610   2.718
 1466SOL    HW2 5298   1.198   0.690   2.859
 1467SOL     OW 5299   2.435   1.409   2.088
 1467SOL    HW1 5300   2.533   1.428   2.075
 1467SOL    HW2 5301   2.421   1.373   2.180
 1468SOL     OW 5302   5.046   5.543   2.687
 1468SOL    HW1 5303   5.017   5.447   2.685
 1468SOL    HW2 5304   5.027   5.585   2.599
 1469SOL     OW 5305   1.093   0.469   2.677
 1469SOL    HW1 5306   1.015   0.526   2.701
 1469SOL    HW2 5307   1.074   0.374   2.700
 1470SOL     OW 5308   1.393   1.092   2.863
 1470SOL    HW1 5309   1.423   1.180   2.828
 1470SOL    HW2 5310   1.324   1.053   2.800
 1471SOL     OW 5311   0.595   0.684   0.871
 1471SOL    HW1 5312   0.662   0.756   0.849
 1471SOL    HW2 5313   0.508   0.706   0.828
 1472SOL     OW 5314   4.452   5.455   4.900
 1472SOL    HW1 5315   4.542   5.500   4.894
 1472SOL    HW2 5316   4.410   5.453   4.810
 1473SOL     OW 5317   5.775   5.832   3.745
 1473SOL    HW1 5318   5.768   5.758   3.678
 1473SOL    HW2 5319   5.714   5.907   3.718
 1474SOL     OW 5320   6.534   5.845   3.951
 1474SOL    HW1 5321   6.555   5.877   3.858
 1474SOL    HW2 5322   6.438   5.867   3.972
 1475SOL     OW 5323   6.383   0.069   1.383
 1475SOL    HW1 5324   6.322   0.145   1.363
 1475SOL    HW2 5325   6.382   0.004   1.308
 1476SOL     OW 5326   1.543   1.447   1.115
 1476SOL    HW1 5327   1.615   1.495   1.165
 1476SOL    HW2 5328   1.462   1.438   1.174
 1477SOL     OW 5329   2.002   0.388   6.822
 1477SOL    HW1 5330   1.981   0.402   6.725
 1477SOL    HW2 5331   2.076   0.321   6.831
 1478SOL     OW 5332   5.245   4.166   0.387
 1478SOL    HW1 5333   5.264   4.264   0.379
 1478SOL    HW2 5334   5.286   4.117   0.310
 1479SOL     OW 5335   1.646   3.521   6.957
 1479SOL    HW1 5336   1.624   3.494   6.863
 1479SOL    HW2 5337   1.711   3.457   6.996
 1480SOL     OW 5338   2.530   0.009   6.454
 1480SOL    HW1 5339   2.484   7.008   6.540
 1480SOL    HW2 5340   2.511   0.103   6.426
 1481SOL     OW 5341   0.218   2.207   5.259
 1481SOL    HW1 5342   0.275   2.277   5.303
 1481SOL    HW2 5343   0.227   2.215   5.160
 1482SOL     OW 5344   5.324   2.323   1.156
 1482SOL    HW1 5345   5.368   2.333   1.067
 1482SOL    HW2 5346   5.226   2.341   1.147
 1483SOL     OW 5347   6.737   2.580   6.220
 1483SOL    HW1 5348   6.816   2.641   6.218
 1483SOL    HW2 5349   6.764   2.489   6.190
 1484SOL     OW 5350   5.898   4.545   4.129
 1484SOL    HW1 5351   5.997   4.556   4.134
 1484SOL    HW2 5352   5.853   4.633   4.148
 1485SOL     OW 5353   3.825   2.000   2.493
 1485SOL    HW1 5354   3.816   1.918   2.437
 1485SOL    HW2 5355   3.824   1.976   2.590
 1486SOL     OW 5356   4.680   2.651   2.868
 1486SOL    HW1 5357   4.646   2.605   2.786
 1486SOL    HW2 5358   4.621   2.631   2.946
 1487SOL     OW 5359   6.612   2.720   7.001
 1487SOL    HW1 5360   6.649   2.760   0.067
 1487SOL    HW2 5361   6.686   2.690   6.942
 1488SOL     OW 5362   6.081   2.056   2.997
 1488SOL    HW1 5363   6.001   2.028   3.050
 1488SOL    HW2 5364   6.052   2.119   2.924
 1489SOL     OW 5365   4.216   5.432   4.081
 1489SOL    HW1 5366   4.127   5.455   4.119
 1489SOL    HW2 5367   4.230   5.484   3.997
 1490SOL     OW 5368   1.555   2.863   1.420
 1490SOL    HW1 5369   1.469   2.848   1.468
 1490SOL    HW2 5370   1.628   2.880   1.486
 1491SOL     OW 5371   6.193   3.596   3.875
 1491SOL    HW1 5372   6.144   3.680   3.854
 1491SOL    HW2 5373   6.279   3.618   3.920
 1492SOL     OW 5374   5.708   1.965   2.035
 1492SOL    HW1 5375   5.790   1.926   2.076
 1492SOL    HW2 5376   5.638   1.895   2.027
 1493SOL     OW 5377   5.203   0.092   3.967
 1493SOL    HW1 5378   5.137   0.128   4.033
 1493SOL    HW2 5379   5.256   0.167   3.928
 1494SOL     OW 5380   4.380   2.597   6.196
 1494SOL    HW1 5381   4.323   2.653   6.256
 1494SOL    HW2 5382   4.464   2.646   6.173
 1495SOL     OW 5383   0.303   2.930   4.461
 1495SOL    HW1 5384   0.281   2.856   4.524
 1495SOL    HW2 5385   0.379   2.903   4.403
 1496SOL     OW 5386   1.026   1.377   2.555
 1496SOL    HW1 5387   1.051   1.469   2.586
 1496SOL    HW2 5388   1.031   1.314   2.632
 1497SOL     OW 5389   0.513   3.584   2.813
 1497SOL    HW1 5390   0.532   3.508   2.875
 1497SOL    HW2 5391   0.420   3.616   2.827
 1498SOL     OW 5392   1.624   4.473   6.300
 1498SOL    HW1 5393   1.639   4.471   6.201
 1498SOL    HW2 5394   1.597   4.565   6.328
 1499SOL     OW 5395   1.352   3.608   5.456
 1499SOL    HW1 5396   1.386   3.582   5.366
 1499SOL    HW2 5397   1.272   3.552   5.479
 1500SOL     OW 5398   5.773   6.746   6.769
 1500SOL    HW1 5399   5.709   6.817   6.797
 1500SOL    HW2 5400   5.771   6.734   6.670
 1501SOL     OW 5401   4.574   1.386   6.721
 1501SOL    HW1 5402   4.656   1.435   6.691
 1501SOL    HW2 5403   4.572   1.382   6.821
 1502SOL     OW 5404   5.845   6.909   1.098
 1502SOL    HW1 5405   5.814   6.838   1.035
 1502SOL    HW2 5406   5.821   6.999   1.062
 1503SOL     OW 5407   2.678   1.174   2.363
 1503SOL    HW1 5408   2.581   1.180   2.339
 1503SOL    HW2 5409   2.731   1.152   2.281
 1504SOL     OW 5410   1.277   1.528   4.752
 1504SOL    HW1 5411   1.183   1.525   4.786
 1504SOL    HW2 5412   1.276   1.520   4.652
 1505SOL     OW 5413   5.782   0.975   6.618
 1505SOL    HW1 5414   5.760   0.981   6.520
 1505SOL    HW2 5415   5.882   0.970   6.630
 1506SOL     OW 5416   2.176   5.495   1.940
 1506SOL    HW1 5417   2.102   5.498   1.872
 1506SOL    HW2 5418   2.165   5.413   1.997
 1507SOL     OW 5419   1.133   2.201   5.648
 1507SOL    HW1 5420   1.134   2.300   5.657
 1507SOL    HW2 5421   1.215   2.171   5.599
 1508SOL     OW 5422   6.157   0.734   1.517
 1508SOL    HW1 5423   6.240   0.775   1.556
 1508SOL    HW2 5424   6.100   0.698   1.591
 1509SOL     OW 5425   4.143   2.581   6.602
 1509SOL    HW1 5426   4.173   2.498   6.649
 1509SOL    HW2 5427   4.215   2.649   6.606
 1510SOL     OW 5428   5.663   2.444   3.796
 1510SOL    HW1 5429   5.673   2.386   3.714
 1510SOL    HW2 5430   5.660   2.540   3.769
 1511SOL     OW 5431   3.189   2.678   0.909
 1511SOL    HW1 5432   3.142   2.598   0.946
 1511SOL    HW2 5433   3.194   2.749   0.979
 1512SOL     OW 5434   6.989   6.727   2.156
 1512SOL    HW1 5435   0.058   6.778   2.152
 1512SOL    HW2 5436   6.918   6.786   2.197
 1513SOL     OW 5437   4.058   0.300   3.963
 1513SOL    HW1 5438   4.052   0.262   4.055
 1513SOL    HW2 5439   4.042   0.399   3.967
 1514SOL     OW 5440   5.524   2.961   5.326
 1514SOL    HW1 5441   5.553   2.947   5.231
 1514SOL    HW2 5442   5.425   2.948   5.333
 1515SOL     OW 5443   6.489   3.301   5.421
 1515SOL    HW1 5444   6.575   3.251   5.435
 1515SOL    HW2 5445   6.425   3.279   5.495
 1516SOL     OW 5446   0.709   0.434   0.981
 1516SOL    HW1 5447   0.712   0.458   1.078
 1516SOL    HW2 5448   0.669   0.509   0.929
 1517SOL     OW 5449   4.162   5.940   3.276
 1517SOL    HW1 5450   4.138   6.027   3.234
 1517SOL    HW2 5451   4.231   5.955   3.347
 1518SOL     OW 5452   0.708   3.003   0.196
 1518SOL    HW1 5453   0.667   3.086   0.233
 1518SOL    HW2 5454   0.777   2.968   0.259
 1519SOL     OW 5455   6.873   4.558   2.413
 1519SOL    HW1 5456   6.838   4.636   2.465
 1519SOL    HW2 5457   6.833   4.559   2.321
 1520SOL     OW 5458   1.267   2.889   2.170
 1520SOL    HW1 5459   1.227   2.799   2.189
 1520SOL    HW2 5460   1.293   2.933   2.256
 1521SOL     OW 5461   2.935   3.780   6.885
 1521SOL    HW1 5462   2.848   3.753   6.843
 1521SOL    HW2 5463   2.921   3.796   6.983
 1522SOL     OW 5464   6.666   1.272   4.828
 1522SOL    HW1 5465   6.756   1.298   4.863
 1522SOL    HW2 5466   6.595   1.313   4.885
 1523SOL     OW 5467   5.034   3.983   0.488
 1523SOL    HW1 5468   5.109   4.039   0.454
 1523SOL    HW2 5469   4.947   4.018   0.452
 1524SOL     OW 5470   1.213   2.117   1.977
 1524SOL    HW1 5471   1.229   2.172   2.059
 1524SOL    HW2 5472   1.260   2.030   1.986
 1525SOL     OW 5473   6.043   2.198   6.900
 1525SOL    HW1 5474   6.011   2.119   6.847
 1525SOL    HW2 5475   6.075   2.270   6.838
 1526SOL     OW 5476   1.575   0.552   6.747
 1526SOL    HW1 5477   1.635   0.489   6.797
 1526SOL    HW2 5478   1.588   0.645   6.782
 1527SOL     OW 5479   3.506   0.512   5.692
 1527SOL    HW1 5480   3.572   0.546   5.758
 1527SOL    HW2 5481   3.477   0.586   5.631
 1528SOL     OW 5482   5.100   5.578   2.302
 1528SOL    HW1 5483   5.012   5.621   2.285
 1528SOL    HW2 5484   5.164   5.603   2.230
 1529SOL     OW 5485   4.007   1.090   0.110
 1529SOL    HW1 5486   4.072   1.034   0.163
 1529SOL    HW2 5487   3.977   1.167   0.166
 1530SOL     OW 5488   2.613   0.527   1.850
 1530SOL    HW1 5489   2.642   0.431   1.843
 1530SOL    HW2 5490   2.694   0.586   1.854
 1531SOL     OW 5491   5.777   1.610   4.494
 1531SOL    HW1 5492   5.733   1.543   4.554
 1531SOL    HW2 5493   5.864   1.639   4.535
 1532SOL     OW 5494   2.587   3.035   6.029
 1532SOL    HW1 5495   2.504   3.034   6.084
 1532SOL    HW2 5496   2.625   2.943   6.024
 1533SOL     OW 5497   0.177   3.560   6.499
 1533SOL    HW1 5498   0.144   3.630   6.563
 1533SOL    HW2 5499   0.253   3.510   6.541
 1534SOL     OW 5500   1.263   4.616   6.540
 1534SOL    HW1 5501   1.252   4.534   6.484
 1534SOL    HW2 5502   1.352   4.657   6.521
 1535SOL     OW 5503   5.199   6.063   4.195
 1535SOL    HW1 5504   5.296   6.050   4.216
 1535SOL    HW2 5505   5.145   6.001   4.251
 1536SOL     OW 5506   4.293   4.503   5.671
 1536SOL    HW1 5507   4.255   4.595   5.661
 1536SOL    HW2 5508   4.353   4.500   5.751
 1537SOL     OW 5509   4.011   5.878   2.320
 1537SOL    HW1 5510   3.925   5.881   2.371
 1537SOL    HW2 5511   3.996   5.915   2.228
 1538SOL     OW 5512   3.178   5.673   6.078
 1538SOL    HW1 5513   3.143   5.583   6.103
 1538SOL    HW2 5514   3.205   5.672   5.982
 1539SOL     OW 5515   4.178   4.510   1.391
 1539SOL    HW1 5516   4.270   4.549   1.382
 1539SOL    HW2 5517   4.126   4.527   1.307
 1540SOL     OW 5518   0.872   0.546   5.415
 1540SOL    HW1 5519   0.854   0.459   5.368
 1540SOL    HW2 5520   0.811   0.617   5.379
 1541SOL     OW 5521   3.494   3.165   1.820
 1541SOL    HW1 5522   3.425   3.238   1.821
 1541SOL    HW2 5523   3.524   3.146   1.913
 1542SOL     OW 5524   0.109   5.635   1.601
 1542SOL    HW1 5525   0.161   5.599   1.678
 1542SOL    HW2 5526   0.164   5.703   1.552
 1543SOL     OW 5527   3.002   3.150   3.938
 1543SOL    HW1 5528   2.958   3.221   3.883
 1543SOL    HW2 5529   3.009   3.181   4.033
 1544SOL     OW 5530   3.006   3.881   2.293
 1544SOL    HW1 5531   2.981   3.848   2.384
 1544SOL    HW2 5532   2.973   3.818   2.224
 1545SOL     OW 5533   5.414   1.120   4.858
 1545SOL    HW1 5534   5.377   1.203   4.818
 1545SOL    HW2 5535   5.408   1.045   4.792
 1546SOL     OW 5536   5.517   0.614   5.956
 1546SOL    HW1 5537   5.516   0.561   6.041
 1546SOL    HW2 5538   5.588   0.684   5.962
 1547SOL     OW 5539   2.666   4.901   2.608
 1547SOL    HW1 5540   2.607   4.910   2.689
 1547SOL    HW2 5541   2.757   4.873   2.637
 1548SOL     OW 5542   5.289   3.212   5.949
 1548SOL    HW1 5543   5.300   3.261   5.863
 1548SOL    HW2 5544   5.198   3.172   5.953
 1549SOL     OW 5545   5.089   1.489   2.477
 1549SOL    HW1 5546   5.090   1.544   2.560
 1549SOL    HW2 5547   5.045   1.540   2.403
 1550SOL     OW 5548   3.317   6.003   5.806
 1550SOL    HW1 5549   3.353   5.927   5.752
 1550SOL    HW2 5550   3.349   5.995   5.900
 1551SOL     OW 5551   2.372   3.045   0.541
 1551SOL    HW1 5552   2.457   2.998   0.565
 1551SOL    HW2 5553   2.302   2.977   0.518
 1552SOL     OW 5554   0.229   0.221   1.579
 1552SOL    HW1 5555   0.206   0.274   1.497
 1552SOL    HW2 5556   0.172   0.252   1.655
 1553SOL     OW 5557   6.318   1.960   6.403
 1553SOL    HW1 5558   6.313   1.875   6.455
 1553SOL    HW2 5559   6.283   1.945   6.311
 1554SOL     OW 5560   3.352   2.077   2.344
 1554SOL    HW1 5561   3.284   2.131   2.393
 1554SOL    HW2 5562   3.440   2.082   2.392
 1555SOL     OW 5563   4.812   2.342   5.898
 1555SOL    HW1 5564   4.742   2.318   5.830
 1555SOL    HW2 5565   4.767   2.378   5.980
 1556SOL     OW 5566   3.749   0.993   0.277
 1556SOL    HW1 5567   3.825   0.965   0.336
 1556SOL    HW2 5568   3.773   1.078   0.231
 1557SOL     OW 5569   2.916   1.675   0.317
 1557SOL    HW1 5570   2.920   1.581   0.283
 1557SOL    HW2 5571   3.008   1.705   0.343
 1558SOL     OW 5572   5.725   2.165   4.121
 1558SOL    HW1 5573   5.747   2.156   4.218
 1558SOL    HW2 5574   5.758   2.254   4.088
 1559SOL     OW 5575   0.133   2.647   0.902
 1559SOL    HW1 5576   0.158   2.736   0.939
 1559SOL    HW2 5577   0.210   2.609   0.851
 1560SOL     OW 5578   2.726   1.296   6.586
 1560SOL    HW1 5579   2.699   1.363   6.516
 1560SOL    HW2 5580   2.740   1.343   6.673
 1561SOL     OW 5581   5.464   5.973   3.046
 1561SOL    HW1 5582   5.394   5.953   2.977
 1561SOL    HW2 5583   5.515   5.890   3.066
 1562SOL     OW 5584   3.752   6.397   1.536
 1562SOL    HW1 5585   3.689   6.459   1.488
 1562SOL    HW2 5586   3.847   6.422   1.513
 1563SOL     OW 5587   2.216   2.098   5.910
 1563SOL    HW1 5588   2.159   2.072   5.833
 1563SOL    HW2 5589   2.159   2.125   5.988
 1564SOL     OW 5590   1.399   2.469   2.754
 1564SOL    HW1 5591   1.386   2.473   2.854
 1564SOL    HW2 5592   1.342   2.396   2.717
 1565SOL     OW 5593   4.018   5.333   4.483
 1565SOL    HW1 5594   4.022   5.426   4.447
 1565SOL    HW2 5595   3.944   5.283   4.439
 1566SOL     OW 5596   6.689   5.472   4.817
 1566SOL    HW1 5597   6.783   5.443   4.802
 1566SOL    HW2 5598   6.631   5.391   4.829
 1567SOL     OW 5599   6.455   5.932   0.359
 1567SOL    HW1 5600   6.509   5.871   0.416
 1567SOL    HW2 5601   6.415   5.881   0.283
 1568SOL     OW 5602   2.328   6.428   2.638
 1568SOL    HW1 5603   2.412   6.442   2.585
 1568SOL    HW2 5604   2.268   6.365   2.589
 1569SOL     OW 5605   3.900   6.438   3.416
 1569SOL    HW1 5606   3.935   6.526   3.384
 1569SOL    HW2 5607   3.800   6.439   3.418
 1570SOL     OW 5608   1.365   6.834   0.507
 1570SOL    HW1 5609   1.362   6.762   0.576
 1570SOL    HW2 5610   1.371   6.794   0.416
 1571SOL     OW 5611   6.837   1.761   3.090
 1571SOL    HW1 5612   6.786   1.781   3.174
 1571SOL    HW2 5613   6.772   1.747   3.015
 1572SOL     OW 5614   2.084   5.668   1.158
 1572SOL    HW1 5615   1.998   5.718   1.172
 1572SOL    HW2 5616   2.139   5.675   1.241
 1573SOL     OW 5617   6.169   5.349   1.770
 1573SOL    HW1 5618   6.079   5.393   1.765
 1573SOL    HW2 5619   6.180   5.287   1.692
 1574SOL     OW 5620   6.624   2.376   3.254
 1574SOL    HW1 5621   6.708   2.322   3.249
 1574SOL    HW2 5622   6.647   2.468   3.286
 1575SOL     OW 5623   2.541   1.143   1.836
 1575SOL    HW1 5624   2.612   1.081   1.870
 1575SOL    HW2 5625   2.549   1.231   1.881
 1576SOL     OW 5626   0.686   0.131   3.865
 1576SOL    HW1 5627   0.718   0.038   3.848
 1576SOL    HW2 5628   0.763   0.189   3.889
 1577SOL     OW 5629   2.205   0.830   5.761
 1577SOL    HW1 5630   2.262   0.754   5.791
 1577SOL    HW2 5631   2.264   0.905   5.730
 1578SOL     OW 5632   5.066   1.741   5.579
 1578SOL    HW1 5633   4.983   1.686   5.591
 1578SOL    HW2 5634   5.040   1.837   5.563
 1579SOL     OW 5635   6.869   1.447   2.385
 1579SOL    HW1 5636   6.927   1.443   2.467
 1579SOL    HW2 5637   6.803   1.372   2.387
 1580SOL     OW 5638   3.444   4.085   4.090
 1580SOL    HW1 5639   3.379   4.092   4.014
 1580SOL    HW2 5640   3.494   3.999   4.084
 1581SOL     OW 5641   6.652   4.658   5.565
 1581SOL    HW1 5642   6.752   4.664   5.555
 1581SOL    HW2 5643   6.610   4.744   5.538
 1582SOL     OW 5644   2.849   6.013   4.934
 1582SOL    HW1 5645   2.872   5.948   4.862
 1582SOL    HW2 5646   2.758   5.992   4.971
 1583SOL     OW 5647   0.298   5.853   3.566
 1583SOL    HW1 5648   0.202   5.835   3.545
 1583SOL    HW2 5649   0.334   5.780   3.624
 1584SOL     OW 5650   0.510   5.206   5.461
 1584SOL    HW1 5651   0.603   5.196   5.497
 1584SOL    HW2 5652   0.496   5.144   5.385
 1585SOL     OW 5653   4.286   2.328   2.746
 1585SOL    HW1 5654   4.196   2.310   2.707
 1585SOL    HW2 5655   4.343   2.246   2.738
 1586SOL     OW 5656   2.950   5.112   2.488
 1586SOL    HW1 5657   2.895   5.169   2.427
 1586SOL    HW2 5658   2.967   5.023   2.445
 1587SOL     OW 5659   2.540   5.570   5.243
 1587SOL    HW1 5660   2.517   5.520   5.160
 1587SOL    HW2 5661   2.623   5.623   5.228
 1588SOL     OW 5662   4.453   1.150   1.715
 1588SOL    HW1 5663   4.494   1.110   1.797
 1588SOL    HW2 5664   4.472   1.248   1.712
 1589SOL     OW 5665   0.291   3.157   2.488
 1589SOL    HW1 5666   0.290   3.127   2.583
 1589SOL    HW2 5667   0.329   3.085   2.430
 1590SOL     OW 5668   4.966   0.605   3.859
 1590SOL    HW1 5669   5.044   0.666   3.845
 1590SOL    HW2 5670   4.911   0.637   3.936
 1591SOL     OW 5671   7.017   5.751   1.218
 1591SOL    HW1 5672   0.092   5.743   1.181
 1591SOL    HW2 5673   6.974   5.834   1.182
 1592SOL     OW 5674   2.112   4.090   6.637
 1592SOL    HW1 5675   2.169   4.113   6.558
 1592SOL    HW2 5676   2.097   3.992   6.641
 1593SOL     OW 5677   0.878   0.024   5.225
 1593SOL    HW1 5678   0.924   0.017   5.136
 1593SOL    HW2 5679   0.876   6.951   5.268
 1594SOL     OW 5680   0.416   5.901   2.017
 1594SOL    HW1 5681   0.392   5.986   1.970
 1594SOL    HW2 5682   0.459   5.838   1.953
 1595SOL     OW 5683   0.846   4.892   0.779
 1595SOL    HW1 5684   0.846   4.910   0.681
 1595SOL    HW2 5685   0.895   4.965   0.827
 1596SOL     OW 5686   6.623   3.542   3.526
 1596SOL    HW1 5687   6.530   3.552   3.562
 1596SOL    HW2 5688   6.645   3.619   3.467
 1597SOL     OW 5689   1.386   6.195   1.041
 1597SOL    HW1 5690   1.314   6.134   1.074
 1597SOL    HW2 5691   1.471   6.143   1.031
 1598SOL     OW 5692   0.750   4.358   6.242
 1598SOL    HW1 5693   0.655   4.371   6.270
 1598SOL    HW2 5694   0.811   4.377   6.319
 1599SOL     OW 5695   5.389   5.420   5.225
 1599SOL    HW1 5696   5.483   5.415   5.192
 1599SOL    HW2 5697   5.333   5.350   5.179
 1600SOL     OW 5698   2.745   1.639   3.246
 1600SOL    HW1 5699   2.755   1.640   3.345
 1600SOL    HW2 5700   2.675   1.706   3.219
 1601SOL     OW 5701   6.539   0.075   3.911
 1601SOL    HW1 5702   6.483   0.106   3.834
 1601SOL    HW2 5703   6.554   0.151   3.974
 1602SOL     OW 5704   4.382   4.582   4.006
 1602SOL    HW1 5705   4.303   4.574   3.945
 1602SOL    HW2 5706   4.364   4.652   4.075
 1603SOL     OW 5707   2.444   5.862   3.021
 1603SOL    HW1 5708   2.456   5.815   3.108
 1603SOL    HW2 5709   2.531   5.902   2.993
 1604SOL     OW 5710   4.860   4.666   1.483
 1604SOL    HW1 5711   4.798   4.718   1.424
 1604SOL    HW2 5712   4.920   4.728   1.532
 1605SOL     OW 5713   6.692   5.371   2.207
 1605SOL    HW1 5714   6.709   5.452   2.151
 1605SOL    HW2 5715   6.705   5.288   2.151
 1606SOL     OW 5716   4.169   6.072   5.884
 1606SOL    HW1 5717   4.227   6.062   5.803
 1606SOL    HW2 5718   4.219   6.040   5.964
 1607SOL     OW 5719   3.720   6.906   0.654
 1607SOL    HW1 5720   3.719   6.956   0.568
 1607SOL    HW2 5721   3.700   6.968   0.729
 1608SOL     OW 5722   0.067   1.093   3.368
 1608SOL    HW1 5723   0.008   1.050   3.436
 1608SOL    HW2 5724   0.048   1.191   3.364
 1609SOL     OW 5725   3.663   6.962   0.381
 1609SOL    HW1 5726   3.647   6.865   0.365
 1609SOL    HW2 5727   3.703   7.003   0.298
 1610SOL     OW 5728   5.844   5.802   0.341
 1610SOL    HW1 5729   5.914   5.730   0.344
 1610SOL    HW2 5730   5.887   5.889   0.318
 1611SOL     OW 5731   2.688   2.937   0.247
 1611SOL    HW1 5732   2.758   2.987   0.297
 1611SOL    HW2 5733   2.624   2.895   0.312
 1612SOL     OW 5734   3.098   6.822   0.655
 1612SOL    HW1 5735   3.167   6.834   0.727
 1612SOL    HW2 5736   3.086   6.724   0.637
 1613SOL     OW 5737   1.866   5.321   2.162
 1613SOL    HW1 5738   1.961   5.305   2.135
 1613SOL    HW2 5739   1.813   5.237   2.147
 1614SOL     OW 5740   5.541   1.907   6.224
 1614SOL    HW1 5741   5.452   1.941   6.256
 1614SOL    HW2 5742   5.531   1.873   6.130
 1615SOL     OW 5743   6.481   5.795   6.870
 1615SOL    HW1 5744   6.393   5.760   6.839
 1615SOL    HW2 5745   6.523   5.728   6.932
 1616SOL     OW 5746   3.481   0.989   4.529
 1616SOL    HW1 5747   3.424   0.975   4.448
 1616SOL    HW2 5748   3.540   1.069   4.516
 1617SOL     OW 5749   5.413   6.210   3.168
 1617SOL    HW1 5750   5.426   6.222   3.267
 1617SOL    HW2 5751   5.443   6.118   3.142
 1618SOL     OW 5752   1.851   6.595   3.269
 1618SOL    HW1 5753   1.796   6.576   3.350
 1618SOL    HW2 5754   1.860   6.511   3.215
 1619SOL     OW 5755   0.495   4.682   1.292
 1619SOL    HW1 5756   0.541   4.690   1.203
 1619SOL    HW2 5757   0.479   4.585   1.312
 1620SOL     OW 5758   2.921   4.805   1.498
 1620SOL    HW1 5759   2.952   4.856   1.579
 1620SOL    HW2 5760   3.001   4.778   1.444
 1621SOL     OW 5761   6.039   0.571   0.921
 1621SOL    HW1 5762   5.964   0.623   0.963
 1621SOL    HW2 5763   6.085   0.628   0.853
 1622SOL     OW 5764   0.697   3.412   5.599
 1622SOL    HW1 5765   0.737   3.466   5.526
 1622SOL    HW2 5766   0.640   3.339   5.560
 1623SOL     OW 5767   0.504   2.918   5.043
 1623SOL    HW1 5768   0.527   2.906   5.140
 1623SOL    HW2 5769   0.476   2.830   5.004
 1624SOL     OW 5770   4.008   0.926   5.126
 1624SOL    HW1 5771   3.915   0.940   5.091
 1624SOL    HW2 5772   4.057   1.013   5.126
 1625SOL     OW 5773   1.313   4.724   0.264
 1625SOL    HW1 5774   1.351   4.740   0.172
 1625SOL    HW2 5775   1.304   4.811   0.312
 1626SOL     OW 5776   3.755   1.019   0.931
 1626SOL    HW1 5777   3.800   0.934   0.903
 1626SOL    HW2 5778   3.660   1.018   0.898
 1627SOL     OW 5779   5.720   3.127   3.703
 1627SOL    HW1 5780   5.697   3.187   3.626
 1627SOL    HW2 5781   5.686   3.166   3.788
 1628SOL     OW 5782   4.273   5.122   0.114
 1628SOL    HW1 5783   4.322   5.056   0.058
 1628SOL    HW2 5784   4.176   5.118   0.093
 1629SOL     OW 5785   2.530   1.048   3.727
 1629SOL    HW1 5786   2.608   1.103   3.757
 1629SOL    HW2 5787   2.552   1.002   3.641
 1630SOL     OW 5788   0.428   4.952   6.124
 1630SOL    HW1 5789   0.459   5.042   6.094
 1630SOL    HW2 5790   0.486   4.921   6.200
 1631SOL     OW 5791   0.976   2.628   0.154
 1631SOL    HW1 5792   0.897   2.639   0.215
 1631SOL    HW2 5793   0.944   2.627   0.059
 1632SOL     OW 5794   5.301   2.407   1.655
 1632SOL    HW1 5795   5.307   2.307   1.661
 1632SOL    HW2 5796   5.246   2.432   1.576
 1633SOL     OW 5797   4.912   3.773   4.617
 1633SOL    HW1 5798   4.881   3.789   4.523
 1633SOL    HW2 5799   4.997   3.823   4.633
 1634SOL     OW 5800   4.797   5.821   4.112
 1634SOL    HW1 5801   4.831   5.807   4.205
 1634SOL    HW2 5802   4.709   5.774   4.102
 1635SOL     OW 5803   0.702   5.091   0.072
 1635SOL    HW1 5804   0.654   5.011   0.037
 1635SOL    HW2 5805   0.669   5.113   0.164
 1636SOL     OW 5806   3.062   5.089   1.052
 1636SOL    HW1 5807   3.100   5.173   1.015
 1636SOL    HW2 5808   3.136   5.031   1.085
 1637SOL     OW 5809   6.831   0.302   3.806
 1637SOL    HW1 5810   6.872   0.373   3.864
 1637SOL    HW2 5811   6.855   0.212   3.843
 1638SOL     OW 5812   0.610   3.358   2.984
 1638SOL    HW1 5813   0.664   3.418   3.043
 1638SOL    HW2 5814   0.667   3.283   2.950
 1639SOL     OW 5815   5.679   5.279   1.218
 1639SOL    HW1 5816   5.729   5.212   1.273
 1639SOL    HW2 5817   5.645   5.235   1.134
 1640SOL     OW 5818   5.539   0.383   6.929
 1640SOL    HW1 5819   5.498   0.409   7.017
 1640SOL    HW2 5820   5.469   0.384   6.858
 1641SOL     OW 5821   5.361   2.033   3.146
 1641SOL    HW1 5822   5.334   1.995   3.057
 1641SOL    HW2 5823   5.285   2.088   3.182
 1642SOL     OW 5824   6.706   3.348   0.107
 1642SOL    HW1 5825   6.644   3.310   0.038
 1642SOL    HW2 5826   6.688   3.305   0.196
 1643SOL     OW 5827   2.772   4.725   3.945
 1643SOL    HW1 5828   2.758   4.809   3.997
 1643SOL    HW2 5829   2.684   4.688   3.916
 1644SOL     OW 5830   5.668   4.295   6.919
 1644SOL    HW1 5831   5.632   4.218   6.972
 1644SOL    HW2 5832   5.610   4.310   6.838
 1645SOL     OW 5833   2.239   5.506   6.033
 1645SOL    HW1 5834   2.268   5.574   5.966
 1645SOL    HW2 5835   2.319   5.460   6.070
 1646SOL     OW 5836   2.396   6.708   0.833
 1646SOL    HW1 5837   2.376   6.794   0.786
 1646SOL    HW2 5838   2.336   6.700   0.913
 1647SOL     OW 5839   6.293   2.949   4.099
 1647SOL    HW1 5840   6.273   2.892   4.179
 1647SOL    HW2 5841   6.224   3.021   4.092
 1648SOL     OW 5842   4.908   5.801   0.189
 1648SOL    HW1 5843   4.860   5.717   0.215
 1648SOL    HW2 5844   4.846   5.861   0.138
 1649SOL     OW 5845   3.460   1.795   4.049
 1649SOL    HW1 5846   3.448   1.890   4.023
 1649SOL    HW2 5847   3.554   1.766   4.029
 1650SOL     OW 5848   0.559   5.903   4.840
 1650SOL    HW1 5849   0.556   5.809   4.874
 1650SOL    HW2 5850   0.527   5.965   4.912
 1651SOL     OW 5851   0.424   2.069   2.019
 1651SOL    HW1 5852   0.459   2.043   2.109
 1651SOL    HW2 5853   0.492   2.050   1.949
 1652SOL     OW 5854   1.641   2.751   2.569
 1652SOL    HW1 5855   1.569   2.804   2.614
 1652SOL    HW2 5856   1.694   2.811   2.509
 1653SOL     OW 5857   0.645   6.598   0.339
 1653SOL    HW1 5858   0.687   6.591   0.429
 1653SOL    HW2 5859   0.716   6.608   0.270
 1654SOL     OW 5860   7.001   3.387   1.650
 1654SOL    HW1 5861   6.915   3.373   1.700
 1654SOL    HW2 5862   0.040   3.453   1.700
 1655SOL     OW 5863   0.481   2.205   4.359
 1655SOL    HW1 5864   0.390   2.185   4.321
 1655SOL    HW2 5865   0.522   2.282   4.310
 1656SOL     OW 5866   2.308   5.266   3.170
 1656SOL    HW1 5867   2.253   5.331   3.118
 1656SOL    HW2 5868   2.305   5.176   3.126
 1657SOL     OW 5869   5.725   1.374   3.847
 1657SOL    HW1 5870   5.656   1.304   3.832
 1657SOL    HW2 5871   5.773   1.393   3.761
 1658SOL     OW 5872   6.053   1.155   1.370
 1658SOL    HW1 5873   5.972   1.180   1.316
 1658SOL    HW2 5874   6.025   1.105   1.451
 1659SOL     OW 5875   3.053   0.369   6.918
 1659SOL    HW1 5876   3.053   0.325   7.008
 1659SOL    HW2 5877   2.968   0.347   6.870
 1660SOL     OW 5878   1.913   6.031   2.483
 1660SOL    HW1 5879   1.956   5.949   2.520
 1660SOL    HW2 5880   1.957   6.054   2.395
 1661SOL     OW 5881   1.994   6.443   1.592
 1661SOL    HW1 5882   1.937   6.415   1.515
 1661SOL    HW2 5883   1.937   6.491   1.659
 1662SOL     OW 5884   0.213   1.405   4.072
 1662SOL    HW1 5885   0.132   1.350   4.048
 1662SOL    HW2 5886   0.245   1.378   4.162
 1663SOL     OW 5887   4.448   5.494   3.219
 1663SOL    HW1 5888   4.372   5.560   3.216
 1663SOL    HW2 5889   4.419   5.409   3.174
 1664SOL     OW 5890   2.647   5.857   5.297
 1664SOL    HW1 5891   2.688   5.943   5.330
 1664SOL    HW2 5892   2.720   5.793   5.273
 1665SOL     OW 5893   6.495   3.056   2.549
 1665SOL    HW1 5894   6.542   3.073   2.636
 1665SOL    HW2 5895   6.407   3.013   2.567
 1666SOL     OW 5896   5.321   1.507   6.917
 1666SOL    HW1 5897   5.251   1.551   6.974
 1666SOL    HW2 5898   5.324   1.409   6.937
 1667SOL     OW 5899   6.928   6.567   1.245
 1667SOL    HW1 5900   6.982   6.651   1.246
 1667SOL    HW2 5901   6.891   6.553   1.153
 1668SOL     OW 5902   4.872   5.499   3.936
 1668SOL    HW1 5903   4.778   5.532   3.924
 1668SOL    HW2 5904   4.882   5.461   4.029
 1669SOL     OW 5905   6.921   4.671   5.783
 1669SOL    HW1 5906   6.941   4.685   5.686
 1669SOL    HW2 5907   6.888   4.757   5.822
 1670SOL     OW 5908   6.871   4.477   5.245
 1670SOL    HW1 5909   6.882   4.398   5.183
 1670SOL    HW2 5910   6.785   4.467   5.296
 1671SOL     OW 5911   5.432   1.615   3.280
 1671SOL    HW1 5912   5.411   1.519   3.263
 1671SOL    HW2 5913   5.485   1.652   3.203
 1672SOL     OW 5914   2.102   3.574   1.124
 1672SOL    HW1 5915   2.190   3.571   1.172
 1672SOL    HW2 5916   2.107   3.518   1.042
 1673SOL     OW 5917   1.404   1.808   5.217
 1673SOL    HW1 5918   1.349   1.841   5.140
 1673SOL    HW2 5919   1.455   1.727   5.189
 1674SOL     OW 5920   1.002   3.055   2.262
 1674SOL    HW1 5921   0.960   3.105   2.185
 1674SOL    HW2 5922   0.988   2.957   2.249
 1675SOL     OW 5923   4.860   6.970   0.146
 1675SOL    HW1 5924   4.782   0.012   0.124
 1675SOL    HW2 5925   4.833   6.874   0.136
 1676SOL     OW 5926   2.056   2.072   1.349
 1676SOL    HW1 5927   2.154   2.069   1.329
 1676SOL    HW2 5928   2.038   2.029   1.437
 1677SOL     OW 5929   3.817   3.319   4.018
 1677SOL    HW1 5930   3.800   3.415   4.041
 1677SOL    HW2 5931   3.792   3.262   4.096
 1678SOL     OW 5932   6.845   4.524   2.913
 1678SOL    HW1 5933   6.853   4.476   2.826
 1678SOL    HW2 5934   6.907   4.484   2.980
 1679SOL     OW 5935   2.882   1.722   4.362
 1679SOL    HW1 5936   2.789   1.700   4.390
 1679SOL    HW2 5937   2.930   1.766   4.437
 1680SOL     OW 5938   0.546   3.174   5.539
 1680SOL    HW1 5939   0.478   3.233   5.496
 1680SOL    HW2 5940   0.509   3.136   5.624
 1681SOL     OW 5941   0.529   4.913   6.964
 1681SOL    HW1 5942   0.568   4.865   6.885
 1681SOL    HW2 5943   0.463   4.854   7.010
 1682SOL     OW 5944   1.658   0.743   5.598
 1682SOL    HW1 5945   1.654   0.842   5.595
 1682SOL    HW2 5946   1.598   0.704   5.529
 1683SOL     OW 5947   6.074   5.606   2.379
 1683SOL    HW1 5948   6.103   5.655   2.297
 1683SOL    HW2 5949   6.016   5.529   2.353
 1684SOL     OW 5950   0.799   5.808   2.175
 1684SOL    HW1 5951   0.796   5.740   2.102
 1684SOL    HW2 5952   0.873   5.787   2.239
 1685SOL     OW 5953   1.495   1.225   5.511
 1685SOL    HW1 5954   1.511   1.145   5.568
 1685SOL    HW2 5955   1.457   1.299   5.568
 1686SOL     OW 5956   2.507   6.470   4.460
 1686SOL    HW1 5957   2.475   6.376   4.459
 1686SOL    HW2 5958   2.605   6.472   4.481
 1687SOL     OW 5959   1.443   2.930   1.939
 1687SOL    HW1 5960   1.503   3.010   1.943
 1687SOL    HW2 5961   1.384   2.929   2.020
 1688SOL     OW 5962   2.306   1.774   3.556
 1688SOL    HW1 5963   2.298   1.799   3.653
 1688SOL    HW2 5964   2.402   1.784   3.527
 1689SOL     OW 5965   6.474   0.480   2.955
 1689SOL    HW1 5966   6.516   0.417   3.021
 1689SOL    HW2 5967   6.409   0.539   3.002
 1690SOL     OW 5968   1.419   2.578   4.476
 1690SOL    HW1 5969   1.511   2.545   4.496
 1690SOL    HW2 5970   1.361   2.571   4.557
 1691SOL     OW 5971   5.159   2.957   3.597
 1691SOL    HW1 5972   5.231   3.011   3.642
 1691SOL    HW2 5973   5.147   2.871   3.646
 1692SOL     OW 5974   4.990   6.205   1.007
 1692SOL    HW1 5975   4.953   6.257   1.083
 1692SOL    HW2 5976   5.082   6.173   1.029
 1693SOL     OW 5977   6.426   2.238   3.076
 1693SOL    HW1 5978   6.479   2.284   3.148
 1693SOL    HW2 5979   6.428   2.139   3.092
 1694SOL     OW 5980   6.009   1.885   3.452
 1694SOL    HW1 5981   6.025   1.947   3.529
 1694SOL    HW2 5982   6.096   1.867   3.406
 1695SOL     OW 5983   4.120   0.651   6.243
 1695SOL    HW1 5984   4.200   0.644   6.302
 1695SOL    HW2 5985   4.043   0.687   6.296
 1696SOL     OW 5986   4.132   6.088   1.596
 1696SOL    HW1 5987   4.083   6.091   1.509
 1696SOL    HW2 5988   4.128   6.177   1.640
 1697SOL     OW 5989   6.720   1.381   0.621
 1697SOL    HW1 5990   6.752   1.395   0.527
 1697SOL    HW2 5991   6.677   1.291   0.628
 1698SOL     OW 5992   3.282   6.927   0.467
 1698SOL    HW1 5993   3.312   0.003   0.488
 1698SOL    HW2 5994   3.211   6.899   0.532
 1699SOL     OW 5995   2.464   1.407   6.834
 1699SOL    HW1 5996   2.414   1.409   6.748
 1699SOL    HW2 5997   2.562   1.420   6.816
 1700SOL     OW 5998   6.242   4.563   3.853
 1700SOL    HW1 5999   6.315   4.495   3.858
 1700SOL    HW2 6000   6.279   4.653   3.878
 1701SOL     OW 6001   5.667   5.558   6.114
 1701SOL    HW1 6002   5.625   5.467   6.112
 1701SOL    HW2 6003   5.598   5.626   6.140
 1702SOL     OW 6004   6.372   1.294   0.864
 1702SOL    HW1 6005   6.415   1.377   0.901
 1702SOL    HW2 6006   6.442   1.225   0.845
 1703SOL     OW 6007   3.534   1.720   0.209
 1703SOL    HW1 6008   3.510   1.797   0.150
 1703SOL    HW2 6009   3.609   1.668   0.168
 1704SOL     OW 6010   0.835   2.231   0.236
 1704SOL    HW1 6011   0.898   2.251   0.311
 1704SOL    HW2 6012   0.885   2.187   0.161
 1705SOL     OW 6013   3.093   2.139   1.997
 1705SOL    HW1 6014   3.060   2.049   2.027
 1705SOL    HW2 6015   3.016   2.199   1.979
 1706SOL     OW 6016   4.828   1.315   1.712
 1706SOL    HW1 6017   4.911   1.277   1.672
 1706SOL    HW2 6018   4.757   1.321   1.642
 1707SOL     OW 6019   4.058   1.849   2.836
 1707SOL    HW1 6020   4.093   1.797   2.759
 1707SOL    HW2 6021   4.110   1.826   2.919
 1708SOL     OW 6022   5.123   5.793   1.866
 1708SOL    HW1 6023   5.176   5.710   1.850
 1708SOL    HW2 6024   5.091   5.794   1.961
 1709SOL     OW 6025   3.324   6.374   2.938
 1709SOL    HW1 6026   3.401   6.434   2.960
 1709SOL    HW2 6027   3.358   6.281   2.924
 1710SOL     OW 6028   4.652   4.928   3.285
 1710SOL    HW1 6029   4.676   4.844   3.334
 1710SOL    HW2 6030   4.674   4.917   3.188
 1711SOL     OW 6031   1.987   4.937   4.511
 1711SOL    HW1 6032   1.950   5.007   4.450
 1711SOL    HW2 6033   2.049   4.980   4.577
 1712SOL     OW 6034   6.720   2.710   4.287
 1712SOL    HW1 6035   6.710   2.611   4.300
 1712SOL    HW2 6036   6.815   2.731   4.265
 1713SOL     OW 6037   4.495   2.462   1.982
 1713SOL    HW1 6038   4.563   2.395   1.953
 1713SOL    HW2 6039   4.506   2.481   2.080
 1714SOL     OW 6040   3.442   1.613   6.108
 1714SOL    HW1 6041   3.400   1.571   6.027
 1714SOL    HW2 6042   3.379   1.608   6.185
 1715SOL     OW 6043   2.265   5.924   3.473
 1715SOL    HW1 6044   2.341   5.897   3.532
 1715SOL    HW2 6045   2.295   5.994   3.409
 1716SOL     OW 6046   3.578   0.183   3.472
 1716SOL    HW1 6047   3.595   0.091   3.438
 1716SOL    HW2 6048   3.663   0.236   3.471
 1717SOL     OW 6049   3.143   5.755   4.916
 1717SOL    HW1 6050   3.173   5.668   4.877
 1717SOL    HW2 6051   3.103   5.812   4.844
 1718SOL     OW 6052   3.180   0.970   2.017
 1718SOL    HW1 6053   3.137   0.899   2.071
 1718SOL    HW2 6054   3.118   1.048   2.009
 1719SOL     OW 6055   2.276   3.016   0.894
 1719SOL    HW1 6056   2.341   2.941   0.881
 1719SOL    HW2 6057   2.229   3.005   0.982
 1720SOL     OW 6058   6.956   3.315   6.791
 1720SOL    HW1 6059   6.966   3.285   6.885
 1720SOL    HW2 6060   0.023   3.358   6.759
 1721SOL     OW 6061   1.732   6.577   1.468
 1721SOL    HW1 6062   1.695   6.526   1.390
 1721SOL    HW2 6063   1.804   6.639   1.436
 1722SOL     OW 6064   2.925   1.619   3.878
 1722SOL    HW1 6065   3.010   1.672   3.873
 1722SOL    HW2 6066   2.847   1.680   3.870
 1723SOL     OW 6067   6.115   2.258   0.163
 1723SOL    HW1 6068   6.109   2.222   0.070
 1723SOL    HW2 6069   6.057   2.339   0.171
 1724SOL     OW 6070   0.751   2.927   2.159
 1724SOL    HW1 6071   0.807   2.872   2.220
 1724SOL    HW2 6072   0.664   2.881   2.142
 1725SOL     OW 6073   1.698   5.060   5.985
 1725SOL    HW1 6074   1.724   5.115   5.906
 1725SOL    HW2 6075   1.600   5.038   5.980
 1726SOL     OW 6076   5.975   4.140   5.044
 1726SOL    HW1 6077   6.061   4.191   5.048
 1726SOL    HW2 6078   5.968   4.080   5.124
 1727SOL     OW 6079   3.793   2.994   3.837
 1727SOL    HW1 6080   3.734   3.037   3.905
 1727SOL    HW2 6081   3.875   3.049   3.824
 1728SOL     OW 6082   5.945   5.337   5.270
 1728SOL    HW1 6083   6.021   5.345   5.205
 1728SOL    HW2 6084   5.961   5.396   5.348
 1729SOL     OW 6085   2.118   3.899   2.718
 1729SOL    HW1 6086   2.078   3.989   2.700
 1729SOL    HW2 6087   2.131   3.851   2.632
 1730SOL     OW 6088   2.322   0.443   5.434
 1730SOL    HW1 6089   2.331   0.486   5.524
 1730SOL    HW2 6090   2.247   0.485   5.384
 1731SOL     OW 6091   0.612   4.075   3.949
 1731SOL    HW1 6092   0.578   4.129   4.026
 1731SOL    HW2 6093   0.665   4.133   3.888
 1732SOL     OW 6094   2.537   5.020   5.929
 1732SOL    HW1 6095   2.519   4.963   5.849
 1732SOL    HW2 6096   2.467   5.003   5.998
 1733SOL     OW 6097   1.837   4.056   1.249
 1733SOL    HW1 6098   1.894   4.121   1.200
 1733SOL    HW2 6099   1.843   3.966   1.206
 1734SOL     OW 6100   4.354   2.828   1.043
 1734SOL    HW1 6101   4.271   2.841   1.097
 1734SOL    HW2 6102   4.400   2.916   1.030
 1735SOL     OW 6103   4.652   5.385   6.483
 1735SOL    HW1 6104   4.656   5.339   6.394
 1735SOL    HW2 6105   4.567   5.359   6.529
 1736SOL     OW 6106   3.559   3.792   0.961
 1736SOL    HW1 6107   3.590   3.722   1.025
 1736SOL    HW2 6108   3.490   3.753   0.900
 1737SOL     OW 6109   4.489   0.779   4.664
 1737SOL    HW1 6110   4.446   0.693   4.694
 1737SOL    HW2 6111   4.587   0.777   4.686
 1738SOL     OW 6112   2.197   2.521   4.624
 1738SOL    HW1 6113   2.135   2.580   4.573
 1738SOL    HW2 6114   2.258   2.577   4.681
 1739SOL     OW 6115   6.929   2.090   5.045
 1739SOL    HW1 6116   6.969   2.035   5.118
 1739SOL    HW2 6117   6.844   2.046   5.013
 1740SOL     OW 6118   6.685   2.373   4.920
 1740SOL    HW1 6119   6.774   2.329   4.907
 1740SOL    HW2 6120   6.626   2.315   4.977
 1741SOL     OW 6121   2.440   0.535   4.743
 1741SOL    HW1 6122   2.453   0.535   4.842
 1741SOL    HW2 6123   2.376   0.463   4.717
 1742SOL     OW 6124   5.771   0.487   5.366
 1742SOL    HW1 6125   5.748   0.584   5.375
 1742SOL    HW2 6126   5.822   0.458   5.446
 1743SOL     OW 6127   0.678   1.770   2.130
 1743SOL    HW1 6128   0.728   1.684   2.122
 1743SOL    HW2 6129   0.736   1.845   2.098
 1744SOL     OW 6130   6.374   3.569   3.611
 1744SOL    HW1 6131   6.320   3.644   3.574
 1744SOL    HW2 6132   6.319   3.515   3.674
 1745SOL     OW 6133   5.306   5.740   2.618
 1745SOL    HW1 6134   5.230   5.795   2.655
 1745SOL    HW2 6135   5.393   5.776   2.654
 1746SOL     OW 6136   1.291   4.216   4.062
 1746SOL    HW1 6137   1.207   4.164   4.046
 1746SOL    HW2 6138   1.361   4.188   3.996
 1747SOL     OW 6139   4.550   1.661   2.635
 1747SOL    HW1 6140   4.572   1.563   2.630
 1747SOL    HW2 6141   4.527   1.685   2.730
 1748SOL     OW 6142   0.165   1.906   4.543
 1748SOL    HW1 6143   0.256   1.874   4.569
 1748SOL    HW2 6144   0.107   1.829   4.520
 1749SOL     OW 6145   2.524   6.784   5.632
 1749SOL    HW1 6146   2.546   6.879   5.610
 1749SOL    HW2 6147   2.595   6.746   5.691
 1750SOL     OW 6148   5.297   6.416   3.600
 1750SOL    HW1 6149   5.242   6.438   3.519
 1750SOL    HW2 6150   5.236   6.394   3.676
 1751SOL     OW 6151   4.926   1.983   4.594
 1751SOL    HW1 6152   4.870   2.030   4.526
 1751SOL    HW2 6153   4.872   1.908   4.635
 1752SOL     OW 6154   6.165   0.904   1.962
 1752SOL    HW1 6155   6.097   0.933   1.895
 1752SOL    HW2 6156   6.229   0.979   1.979
 1753SOL     OW 6157   6.692   0.720   1.597
 1753SOL    HW1 6158   6.593   0.722   1.610
 1753SOL    HW2 6159   6.737   0.746   1.682
 1754SOL     OW 6160   1.483   4.763   6.505
 1754SOL    HW1 6161   1.573   4.751   6.462
 1754SOL    HW2 6162   1.426   4.822   6.447
 1755SOL     OW 6163   0.185   5.318   0.297
 1755SOL    HW1 6164   0.226   5.383   0.233
 1755SOL    HW2 6165   0.143   5.243   0.246
 1756SOL     OW 6166   4.079   5.510   5.521
 1756SOL    HW1 6167   4.089   5.411   5.521
 1756SOL    HW2 6168   3.986   5.535   5.549
 1757SOL     OW 6169   3.174   5.184   4.933
 1757SOL    HW1 6170   3.121   5.100   4.943
 1757SOL    HW2 6171   3.174   5.211   4.837
 1758SOL     OW 6172   1.903   1.363   4.479
 1758SOL    HW1 6173   2.001   1.369   4.460
 1758SOL    HW2 6174   1.888   1.305   4.559
 1759SOL     OW 6175   3.005   6.248   5.666
 1759SOL    HW1 6176   3.027   6.170   5.724
 1759SOL    HW2 6177   3.038   6.332   5.709
 1760SOL     OW 6178   5.874   0.781   3.664
 1760SOL    HW1 6179   5.919   0.761   3.577
 1760SOL    HW2 6180   5.838   0.875   3.662
 1761SOL     OW 6181   0.432   1.182   1.699
 1761SOL    HW1 6182   0.430   1.232   1.786
 1761SOL    HW2 6183   0.525   1.148   1.683
 1762SOL     OW 6184   0.354   1.430   4.372
 1762SOL    HW1 6185   0.329   1.362   4.441
 1762SOL    HW2 6186   0.287   1.504   4.372
 1763SOL     OW 6187   0.731   4.446   4.453
 1763SOL    HW1 6188   0.818   4.458   4.501
 1763SOL    HW2 6189   0.714   4.526   4.396
 1764SOL     OW 6190   2.092   3.055   1.958
 1764SOL    HW1 6191   2.159   3.085   1.890
 1764SOL    HW2 6192   2.103   3.108   2.042
 1765SOL     OW 6193   3.698   0.670   1.830
 1765SOL    HW1 6194   3.670   0.762   1.857
 1765SOL    HW2 6195   3.789   0.650   1.867
 1766SOL     OW 6196   5.704   4.790   3.768
 1766SOL    HW1 6197   5.790   4.804   3.817
 1766SOL    HW2 6198   5.679   4.693   3.770
 1767SOL     OW 6199   0.800   4.066   3.000
 1767SOL    HW1 6200   0.783   4.048   2.904
 1767SOL    HW2 6201   0.780   4.163   3.020
 1768SOL     OW 6202   3.200   0.671   6.915
 1768SOL    HW1 6203   3.174   0.599   6.850
 1768SOL    HW2 6204   3.299   0.671   6.927
 1769SOL     OW 6205   5.283   1.197   0.130
 1769SOL    HW1 6206   5.362   1.151   0.170
 1769SOL    HW2 6207   5.258   1.276   0.185
 1770SOL     OW 6208   6.484   4.926   4.961
 1770SOL    HW1 6209   6.507   4.990   4.888
 1770SOL    HW2 6210   6.386   4.910   4.962
 1771SOL     OW 6211   1.295   4.928   0.412
 1771SOL    HW1 6212   1.214   4.954   0.464
 1771SOL    HW2 6213   1.357   4.875   0.469
 1772SOL     OW 6214   3.725   5.863   3.480
 1772SOL    HW1 6215   3.796   5.849   3.411
 1772SOL    HW2 6216   3.650   5.798   3.464
 1773SOL     OW 6217   2.601   2.441   5.810
 1773SOL    HW1 6218   2.511   2.398   5.801
 1773SOL    HW2 6219   2.610   2.512   5.740
 1774SOL     OW 6220   5.339   6.339   1.847
 1774SOL    HW1 6221   5.253   6.350   1.796
 1774SOL    HW2 6222   5.406   6.293   1.790
 1775SOL     OW 6223   1.458   5.289   5.917
 1775SOL    HW1 6224   1.442   5.194   5.943
 1775SOL    HW2 6225   1.378   5.325   5.869
 1776SOL     OW 6226   5.110   0.795   6.411
 1776SOL    HW1 6227   5.015   0.763   6.412
 1776SOL    HW2 6228   5.110   0.895   6.404
 1777SOL     OW 6229   2.889   6.873   6.714
 1777SOL    HW1 6230   2.899   6.781   6.675
 1777SOL    HW2 6231   2.975   6.900   6.757
 1778SOL     OW 6232   4.913   1.959   4.124
 1778SOL    HW1 6233   4.898   2.054   4.153
 1778SOL    HW2 6234   4.999   1.953   4.074
 1779SOL     OW 6235   5.491   1.209   5.461
 1779SOL    HW1 6236   5.522   1.150   5.536
 1779SOL    HW2 6237   5.391   1.212   5.461
 1780SOL     OW 6238   1.812   3.928   5.640
 1780SOL    HW1 6239   1.874   3.918   5.562
 1780SOL    HW2 6240   1.855   3.892   5.723
 1781SOL     OW 6241   5.856   6.157   4.655
 1781SOL    HW1 6242   5.856   6.148   4.556
 1781SOL    HW2 6243   5.778   6.107   4.693
 1782SOL     OW 6244   2.438   0.930   2.692
 1782SOL    HW1 6245   2.425   0.858   2.760
 1782SOL    HW2 6246   2.355   0.940   2.638
 1783SOL     OW 6247   2.985   3.222   6.432
 1783SOL    HW1 6248   2.947   3.198   6.343
 1783SOL    HW2 6249   3.071   3.271   6.420
 1784SOL     OW 6250   2.413   1.422   1.194
 1784SOL    HW1 6251   2.447   1.494   1.133
 1784SOL    HW2 6252   2.369   1.350   1.140
 1785SOL     OW 6253   6.008   6.432   3.883
 1785SOL    HW1 6254   6.048   6.342   3.865
 1785SOL    HW2 6255   5.960   6.465   3.801
 1786SOL     OW 6256   1.946   4.455   0.090
 1786SOL    HW1 6257   2.024   4.394   0.104
 1786SOL    HW2 6258   1.945   4.486   7.012
 1787SOL     OW 6259   2.825   1.951   6.231
 1787SOL    HW1 6260   2.787   2.018   6.167
 1787SOL    HW2 6261   2.925   1.953   6.226
 1788SOL     OW 6262   4.624   4.191   6.836
 1788SOL    HW1 6263   4.634   4.238   6.748
 1788SOL    HW2 6264   4.530   4.202   6.868
 1789SOL     OW 6265   5.724   3.295   2.015
 1789SOL    HW1 6266   5.730   3.378   1.959
 1789SOL    HW2 6267   5.639   3.247   1.994
 1790SOL     OW 6268   2.653   1.162   4.673
 1790SOL    HW1 6269   2.703   1.231   4.621
 1790SOL    HW2 6270   2.620   1.202   4.759
 1791SOL     OW 6271   6.376   1.722   3.417
 1791SOL    HW1 6272   6.457   1.670   3.389
 1791SOL    HW2 6273   6.307   1.716   3.345
 1792SOL     OW 6274   6.746   1.755   4.013
 1792SOL    HW1 6275   6.822   1.690   4.015
 1792SOL    HW2 6276   6.782   1.848   4.023
 1793SOL     OW 6277   6.441   2.017   4.157
 1793SOL    HW1 6278   6.431   2.111   4.190
 1793SOL    HW2 6279   6.456   2.018   4.058
 1794SOL     OW 6280   5.246   6.415   4.937
 1794SOL    HW1 6281   5.282   6.418   5.031
 1794SOL    HW2 6282   5.164   6.358   4.936
 1795SOL     OW 6283   0.003   4.993   2.413
 1795SOL    HW1 6284   0.056   4.982   2.329
 1795SOL    HW2 6285   6.954   5.067   2.402
 1796SOL     OW 6286   2.900   1.720   5.558
 1796SOL    HW1 6287   2.879   1.735   5.655
 1796SOL    HW2 6288   2.917   1.622   5.543
 1797SOL     OW 6289   0.928   0.174   5.495
 1797SOL    HW1 6290   0.863   0.207   5.427
 1797SOL    HW2 6291   0.979   0.097   5.457
 1798SOL     OW 6292   3.704   3.166   5.307
 1798SOL    HW1 6293   3.646   3.153   5.227
 1798SOL    HW2 6294   3.772   3.093   5.311
 1799SOL     OW 6295   4.716   2.687   6.364
 1799SOL    HW1 6296   4.768   2.698   6.449
 1799SOL    HW2 6297   4.703   2.776   6.321
 1800SOL     OW 6298   5.126   5.070   3.485
 1800SOL    HW1 6299   5.144   5.119   3.570
 1800SOL    HW2 6300   5.210   5.063   3.432
 1801SOL     OW 6301   1.237   1.638   2.385
 1801SOL    HW1 6302   1.313   1.621   2.447
 1801SOL    HW2 6303   1.151   1.636   2.436
 1802SOL     OW 6304   6.694   6.326   3.773
 1802SOL    HW1 6305   6.597   6.350   3.768
 1802SOL    HW2 6306   6.731   6.357   3.860
 1803SOL     OW 6307   0.229   0.353   2.017
 1803SOL    HW1 6308   0.188   0.263   2.027
 1803SOL    HW2 6309   0.305   0.363   2.082
 1804SOL     OW 6310   4.075   3.428   5.144
 1804SOL    HW1 6311   4.084   3.490   5.066
 1804SOL    HW2 6312   4.023   3.472   5.217
 1805SOL     OW 6313   0.285   5.218   5.601
 1805SOL    HW1 6314   0.289   5.274   5.683
 1805SOL    HW2 6315   0.369   5.228   5.549
 1806SOL     OW 6316   0.598   2.354   1.738
 1806SOL    HW1 6317   0.643   2.438   1.767
 1806SOL    HW2 6318   0.509   2.376   1.698
 1807SOL     OW 6319   6.238   2.593   6.569
 1807SOL    HW1 6320   6.194   2.675   6.606
 1807SOL    HW2 6321   6.302   2.620   6.497
 1808SOL     OW 6322   6.036   4.010   4.556
 1808SOL    HW1 6323   6.020   3.988   4.652
 1808SOL    HW2 6324   5.995   3.940   4.498
 1809SOL     OW 6325   2.886   2.104   5.323
 1809SOL    HW1 6326   2.810   2.152   5.367
 1809SOL    HW2 6327   2.971   2.151   5.342
 1810SOL     OW 6328   0.752   0.528   4.731
 1810SOL    HW1 6329   0.780   0.541   4.826
 1810SOL    HW2 6330   0.790   0.442   4.696
 1811SOL     OW 6331   5.152   4.428   2.317
 1811SOL    HW1 6332   5.160   4.479   2.402
 1811SOL    HW2 6333   5.243   4.403   2.283
 1812SOL     OW 6334   4.210   6.408   6.626
 1812SOL    HW1 6335   4.148   6.479   6.592
 1812SOL    HW2 6336   4.162   6.350   6.691
 1813SOL     OW 6337   5.296   5.157   2.359
 1813SOL    HW1 6338   5.240   5.211   2.421
 1813SOL    HW2 6339   5.389   5.152   2.393
 1814SOL     OW 6340   5.836   0.410   0.771
 1814SOL    HW1 6341   5.877   0.485   0.823
 1814SOL    HW2 6342   5.884   0.324   0.792
 1815SOL     OW 6343   6.052   0.195   2.829
 1815SOL    HW1 6344   5.953   0.181   2.823
 1815SOL    HW2 6345   6.083   0.175   2.922
 1816SOL     OW 6346   3.290   4.951   6.488
 1816SOL    HW1 6347   3.272   4.868   6.540
 1816SOL    HW2 6348   3.317   4.927   6.395
 1817SOL     OW 6349   3.420   0.809   3.097
 1817SOL    HW1 6350   3.386   0.853   3.014
 1817SOL    HW2 6351   3.441   0.878   3.166
 1818SOL     OW 6352   1.392   0.084   0.470
 1818SOL    HW1 6353   1.399   7.006   0.500
 1818SOL    HW2 6354   1.297   0.114   0.474
 1819SOL     OW 6355   1.475   5.446   2.115
 1819SOL    HW1 6356   1.541   5.518   2.136
 1819SOL    HW2 6357   1.475   5.378   2.188
 1820SOL     OW 6358   3.184   0.428   2.289
 1820SOL    HW1 6359   3.212   0.489   2.363
 1820SOL    HW2 6360   3.243   0.444   2.209
 1821SOL     OW 6361   2.647   0.818   2.006
 1821SOL    HW1 6362   2.721   0.871   1.965
 1821SOL    HW2 6363   2.684   0.735   2.048
 1822SOL     OW 6364   1.192   3.243   1.154
 1822SOL    HW1 6365   1.277   3.214   1.197
 1822SOL    HW2 6366   1.161   3.173   1.090
 1823SOL     OW 6367   2.965   6.075   3.125
 1823SOL    HW1 6368   3.039   6.032   3.074
 1823SOL    HW2 6369   2.978   6.174   3.125
 1824SOL     OW 6370   4.042   4.150   0.017
 1824SOL    HW1 6371   3.980   4.102   6.972
 1824SOL    HW2 6372   4.128   4.170   6.987
 1825SOL     OW 6373   0.446   3.006   4.172
 1825SOL    HW1 6374   0.376   2.947   4.131
 1825SOL    HW2 6375   0.537   2.968   4.154
 1826SOL     OW 6376   2.834   0.726   1.363
 1826SOL    HW1 6377   2.735   0.712   1.366
 1826SOL    HW2 6378   2.872   0.681   1.283
 1827SOL     OW 6379   5.936   5.426   0.827
 1827SOL    HW1 6380   5.855   5.379   0.791
 1827SOL    HW2 6381   6.007   5.359   0.847
 1828SOL     OW 6382   1.591   2.495   6.737
 1828SOL    HW1 6383   1.602   2.400   6.767
 1828SOL    HW2 6384   1.532   2.544   6.801
 1829SOL     OW 6385   3.272   6.726   3.410
 1829SOL    HW1 6386   3.301   6.736   3.505
 1829SOL    HW2 6387   3.292   6.809   3.360
 1830SOL     OW 6388   5.692   6.317   4.309
 1830SOL    HW1 6389   5.744   6.233   4.320
 1830SOL    HW2 6390   5.728   6.369   4.231
 1831SOL     OW 6391   5.213   6.157   2.899
 1831SOL    HW1 6392   5.212   6.247   2.941
 1831SOL    HW2 6393   5.171   6.090   2.961
 1832SOL     OW 6394   3.821   2.021   0.499
 1832SOL    HW1 6395   3.763   2.074   0.437
 1832SOL    HW2 6396   3.851   2.078   0.575
 1833SOL     OW 6397   5.324   0.481   1.303
 1833SOL    HW1 6398   5.376   0.398   1.284
 1833SOL    HW2 6399   5.387   0.554   1.330
 1834SOL     OW 6400   2.296   4.133   1.114
 1834SOL    HW1 6401   2.245   4.060   1.069
 1834SOL    HW2 6402   2.390   4.103   1.130
 1835SOL     OW 6403   0.904   4.632   1.568
 1835SOL    HW1 6404   0.975   4.577   1.612
 1835SOL    HW2 6405   0.894   4.603   1.473
 1836SOL     OW 6406   5.449   2.401   1.891
 1836SOL    HW1 6407   5.493   2.312   1.885
 1836SOL    HW2 6408   5.414   2.429   1.801
 1837SOL     OW 6409   1.613   6.793   6.132
 1837SOL    HW1 6410   1.695   6.836   6.094
 1837SOL    HW2 6411   1.630   6.766   6.227
 1838SOL     OW 6412   5.739   0.684   6.293
 1838SOL    HW1 6413   5.672   0.745   6.336
 1838SOL    HW2 6414   5.703   0.591   6.290
 1839SOL     OW 6415   6.658   0.984   5.623
 1839SOL    HW1 6416   6.728   1.008   5.690
 1839SOL    HW2 6417   6.642   1.061   5.561
 1840SOL     OW 6418   3.897   0.087   2.528
 1840SOL    HW1 6419   3.841   0.026   2.584
 1840SOL    HW2 6420   3.983   0.106   2.577
 1841SOL     OW 6421   2.032   0.203   2.987
 1841SOL    HW1 6422   2.060   0.124   3.042
 1841SOL    HW2 6423   1.959   0.176   2.924
 1842SOL     OW 6424   0.956   5.695   1.320
 1842SOL    HW1 6425   1.024   5.677   1.249
 1842SOL    HW2 6426   0.943   5.793   1.330
 1843SOL     OW 6427   5.582   0.280   4.178
 1843SOL    HW1 6428   5.527   0.230   4.245
 1843SOL    HW2 6429   5.533   0.363   4.150
 1844SOL     OW 6430   3.942   0.598   5.202
 1844SOL    HW1 6431   3.997   0.666   5.250
 1844SOL    HW2 6432   3.980   0.582   5.111
 1845SOL     OW 6433   3.067   7.004   4.053
 1845SOL    HW1 6434   3.111   7.000   3.964
 1845SOL    HW2 6435   2.972   6.974   4.045
 1846SOL     OW 6436   4.085   0.813   3.277
 1846SOL    HW1 6437   4.004   0.822   3.335
 1846SOL    HW2 6438   4.156   0.875   3.309
 1847SOL     OW 6439   1.200   0.222   5.561
 1847SOL    HW1 6440   1.250   0.178   5.635
 1847SOL    HW2 6441   1.104   0.196   5.565
 1848SOL     OW 6442   1.910   6.380   3.739
 1848SOL    HW1 6443   1.991   6.327   3.762
 1848SOL    HW2 6444   1.849   6.325   3.682
 1849SOL     OW 6445   4.142   2.272   1.465
 1849SOL    HW1 6446   4.134   2.277   1.366
 1849SOL    HW2 6447   4.061   2.313   1.508
 1850SOL     OW 6448   5.915   2.045   2.524
 1850SOL    HW1 6449   5.949   2.118   2.465
 1850SOL    HW2 6450   5.865   2.086   2.601
 1851SOL     OW 6451   1.327   3.330   0.242
 1851SOL    HW1 6452   1.347   3.414   0.193
 1851SOL    HW2 6453   1.348   3.251   0.185
 1852SOL     OW 6454   0.450   4.820   2.685
 1852SOL    HW1 6455   0.525   4.823   2.752
 1852SOL    HW2 6456   0.488   4.817   2.593
 1853SOL     OW 6457   6.716   2.989   2.974
 1853SOL    HW1 6458   6.783   3.061   2.996
 1853SOL    HW2 6459   6.661   3.018   2.896
 1854SOL     OW 6460   1.534   4.879   2.729
 1854SOL    HW1 6461   1.449   4.921   2.762
 1854SOL    HW2 6462   1.551   4.794   2.780
 1855SOL     OW 6463   5.106   3.016   5.588
 1855SOL    HW1 6464   5.182   3.006   5.524
 1855SOL    HW2 6465   5.087   3.113   5.602
 1856SOL     OW 6466   4.120   3.083   6.285
 1856SOL    HW1 6467   4.200   3.138   6.311
 1856SOL    HW2 6468   4.140   3.030   6.203
 1857SOL     OW 6469   4.242   1.445   0.320
 1857SOL    HW1 6470   4.297   1.362   0.315
 1857SOL    HW2 6471   4.173   1.444   0.247
 1858SOL     OW 6472   5.164   2.391   3.453
 1858SOL    HW1 6473   5.215   2.402   3.538
 1858SOL    HW2 6474   5.113   2.475   3.433
 1859SOL     OW 6475   4.546   1.753   3.519
 1859SOL    HW1 6476   4.555   1.692   3.598
 1859SOL    HW2 6477   4.512   1.701   3.441
 1860SOL     OW 6478   0.055   1.352   5.631
 1860SOL    HW1 6479   0.019   1.260   5.616
 1860SOL    HW2 6480   0.084   1.362   5.726
 1861SOL     OW 6481   4.680   0.840   3.291
 1861SOL    HW1 6482   4.634   0.900   3.226
 1861SOL    HW2 6483   4.673   0.745   3.260
 1862SOL     OW 6484   1.727   6.522   6.799
 1862SOL    HW1 6485   1.730   6.445   6.863
 1862SOL    HW2 6486   1.634   6.531   6.763
 1863SOL     OW 6487   6.648   2.665   1.970
 1863SOL    HW1 6488   6.561   2.623   1.946
 1863SOL    HW2 6489   6.650   2.759   1.936
 1864SOL     OW 6490   3.700   5.713   4.535
 1864SOL    HW1 6491   3.786   5.731   4.582
 1864SOL    HW2 6492   3.682   5.786   4.469
 1865SOL     OW 6493   3.204   0.822   1.169
 1865SOL    HW1 6494   3.287   0.876   1.153
 1865SOL    HW2 6495   3.168   0.789   1.082
 1866SOL     OW 6496   6.365   5.153   3.779
 1866SOL    HW1 6497   6.400   5.075   3.831
 1866SOL    HW2 6498   6.368   5.235   3.837
 1867SOL     OW 6499   2.342   3.490   1.579
 1867SOL    HW1 6500   2.410   3.555   1.545
 1867SOL    HW2 6501   2.349   3.483   1.678
 1868SOL     OW 6502   5.150   3.429   6.501
 1868SOL    HW1 6503   5.182   3.335   6.489
 1868SOL    HW2 6504   5.181   3.485   6.425
 1869SOL     OW 6505   6.469   3.502   4.373
 1869SOL    HW1 6506   6.522   3.436   4.320
 1869SOL    HW2 6507   6.380   3.462   4.397
 1870SOL     OW 6508   1.099   3.021   5.094
 1870SOL    HW1 6509   1.050   3.106   5.115
 1870SOL    HW2 6510   1.098   2.961   5.173
 1871SOL     OW 6511   6.195   6.924   0.509
 1871SOL    HW1 6512   6.293   6.944   0.509
 1871SOL    HW2 6513   6.144   7.010   0.523
 1872SOL     OW 6514   4.426   2.059   0.053
 1872SOL    HW1 6515   4.408   2.156   0.065
 1872SOL    HW2 6516   4.498   2.030   0.116
 1873SOL     OW 6517   6.665   0.625   5.359
 1873SOL    HW1 6518   6.755   0.637   5.400
 1873SOL    HW2 6519   6.625   0.715   5.340
 1874SOL     OW 6520   0.871   1.243   6.403
 1874SOL    HW1 6521   0.830   1.254   6.493
 1874SOL    HW2 6522   0.962   1.202   6.412
 1875SOL     OW 6523   6.514   6.761   0.531
 1875SOL    HW1 6524   6.518   6.770   0.432
 1875SOL    HW2 6525   6.604   6.783   0.570
 1876SOL     OW 6526   4.515   6.056   6.502
 1876SOL    HW1 6527   4.415   6.068   6.502
 1876SOL    HW2 6528   4.537   5.961   6.525
 1877SOL     OW 6529   0.772   1.687   3.380
 1877SOL    HW1 6530   0.704   1.619   3.351
 1877SOL    HW2 6531   0.857   1.672   3.330
 1878SOL     OW 6532   0.285   4.215   4.054
 1878SOL    HW1 6533   0.257   4.128   4.094
 1878SOL    HW2 6534   0.271   4.289   4.120
 1879SOL     OW 6535   2.602   5.716   3.907
 1879SOL    HW1 6536   2.698   5.702   3.928
 1879SOL    HW2 6537   2.585   5.813   3.891
 1880SOL     OW 6538   0.416   2.270   3.153
 1880SOL    HW1 6539   0.411   2.331   3.073
 1880SOL    HW2 6540   0.392   2.177   3.125
 1881SOL     OW 6541   1.122   1.821   3.591
 1881SOL    HW1 6542   1.221   1.831   3.585
 1881SOL    HW2 6543   1.098   1.724   3.597
 1882SOL     OW 6544   0.910   5.114   6.730
 1882SOL    HW1 6545   0.969   5.188   6.699
 1882SOL    HW2 6546   0.814   5.137   6.713
 1883SOL     OW 6547   0.701   3.450   3.694
 1883SOL    HW1 6548   0.691   3.516   3.768
 1883SOL    HW2 6549   0.784   3.396   3.708
 1884SOL     OW 6550   5.827   2.079   0.891
 1884SOL    HW1 6551   5.856   2.001   0.947
 1884SOL    HW2 6552   5.808   2.047   0.798
 1885SOL     OW 6553   6.866   2.119   1.128
 1885SOL    HW1 6554   6.906   2.196   1.078
 1885SOL    HW2 6555   6.766   2.125   1.124
 1886SOL     OW 6556   1.950   2.132   0.188
 1886SOL    HW1 6557   2.012   2.179   0.251
 1886SOL    HW2 6558   1.924   2.043   0.227
 1887SOL     OW 6559   0.297   4.426   5.679
 1887SOL    HW1 6560   0.283   4.486   5.758
 1887SOL    HW2 6561   0.354   4.349   5.706
 1888SOL     OW 6562   2.097   1.957   6.361
 1888SOL    HW1 6563   2.170   1.890   6.370
 1888SOL    HW2 6564   2.063   1.981   6.452
 1889SOL     OW 6565   4.643   3.358   6.551
 1889SOL    HW1 6566   4.623   3.414   6.471
 1889SOL    HW2 6567   4.740   3.366   6.574
 1890SOL     OW 6568   1.461   5.923   5.763
 1890SOL    HW1 6569   1.430   6.018   5.754
 1890SOL    HW2 6570   1.509   5.896   5.680
 1891SOL     OW 6571   5.312   3.471   4.195
 1891SOL    HW1 6572   5.218   3.459   4.227
 1891SOL    HW2 6573   5.372   3.404   4.240
 1892SOL     OW 6574   3.472   6.783   1.016
 1892SOL    HW1 6575   3.507   6.744   0.931
 1892SOL    HW2 6576   3.476   6.714   1.089
 1893SOL     OW 6577   3.786   1.956   5.073
 1893SOL    HW1 6578   3.784   1.953   4.973
 1893SOL    HW2 6579   3.693   1.964   5.108
 1894SOL     OW 6580   4.226   3.876   1.460
 1894SOL    HW1 6581   4.240   3.919   1.549
 1894SOL    HW2 6582   4.252   3.780   1.465
 1895SOL     OW 6583   5.655   0.887   2.719
 1895SOL    HW1 6584   5.599   0.884   2.802
 1895SOL    HW2 6585   5.720   0.963   2.726
 1896SOL     OW 6586   0.034   0.721   3.608
 1896SOL    HW1 6587   0.024   0.798   3.671
 1896SOL    HW2 6588   0.032   0.754   3.514
 1897SOL     OW 6589   6.886   5.177   3.348
 1897SOL    HW1 6590   6.923   5.153   3.438
 1897SOL    HW2 6591   6.952   5.153   3.277
 1898SOL     OW 6592   3.077   5.688   1.840
 1898SOL    HW1 6593   3.064   5.591   1.857
 1898SOL    HW2 6594   3.060   5.739   1.925
 1899SOL     OW 6595   1.050   2.499   2.925
 1899SOL    HW1 6596   0.973   2.441   2.953
 1899SOL    HW2 6597   1.130   2.476   2.980
 1900SOL     OW 6598   0.925   0.379   5.661
 1900SOL    HW1 6599   0.894   0.450   5.597
 1900SOL    HW2 6600   0.933   0.292   5.612
 1901SOL     OW 6601   2.304   1.535   1.440
 1901SOL    HW1 6602   2.221   1.481   1.454
 1901SOL    HW2 6603   2.348   1.507   1.354
 1902SOL     OW 6604   2.537   2.121   4.722
 1902SOL    HW1 6605   2.449   2.147   4.761
 1902SOL    HW2 6606   2.570   2.195   4.663
 1903SOL     OW 6607   6.999   4.198   4.049
 1903SOL    HW1 6608   6.922   4.195   4.112
 1903SOL    HW2 6609   0.067   4.191   4.100
 1904SOL     OW 6610   6.333   0.152   3.679
 1904SOL    HW1 6611   6.285   0.064   3.682
 1904SOL    HW2 6612   6.395   0.153   3.600
 1905SOL     OW 6613   0.842   2.121   4.248
 1905SOL    HW1 6614   0.940   2.133   4.266
 1905SOL    HW2 6615   0.828   2.038   4.194
 1906SOL     OW 6616   2.710   6.950   5.301
 1906SOL    HW1 6617   2.694   6.939   5.203
 1906SOL    HW2 6618   2.803   6.982   5.317
 1907SOL     OW 6619   2.972   6.678   3.436
 1907SOL    HW1 6620   2.966   6.585   3.472
 1907SOL    HW2 6621   3.068   6.704   3.430
 1908SOL     OW 6622   4.593   0.517   4.958
 1908SOL    HW1 6623   4.667   0.490   4.897
 1908SOL    HW2 6624   4.590   0.617   4.965
 1909SOL     OW 6625   1.794   4.210   3.093
 1909SOL    HW1 6626   1.806   4.305   3.120
 1909SOL    HW2 6627   1.704   4.177   3.124
 1910SOL     OW 6628   6.387   2.231   0.167
 1910SOL    HW1 6629   6.439   2.316   0.161
 1910SOL    HW2 6630   6.290   2.252   0.178
 1911SOL     OW 6631   5.889   2.190   5.576
 1911SOL    HW1 6632   5.961   2.244   5.531
 1911SOL    HW2 6633   5.850   2.126   5.510
 1912SOL     OW 6634   3.996   6.745   1.834
 1912SOL    HW1 6635   4.080   6.755   1.781
 1912SOL    HW2 6636   3.994   6.815   1.906
 1913SOL     OW 6637   1.981   6.314   5.609
 1913SOL    HW1 6638   2.036   6.232   5.594
 1913SOL    HW2 6639   1.895   6.288   5.654
 1914SOL     OW 6640   3.007   2.690   6.960
 1914SOL    HW1 6641   2.985   2.780   6.999
 1914SOL    HW2 6642   3.101   2.692   6.925
 1915SOL     OW 6643   3.882   1.102   5.381
 1915SOL    HW1 6644   3.921   1.182   5.427
 1915SOL    HW2 6645   3.903   1.107   5.284
 1916SOL     OW 6646   3.063   5.661   0.898
 1916SOL    HW1 6647   3.041   5.758   0.887
 1916SOL    HW2 6648   3.126   5.650   0.975
 1917SOL     OW 6649   3.703   3.314   4.701
 1917SOL    HW1 6650   3.664   3.326   4.609
 1917SOL    HW2 6651   3.802   3.324   4.696
 1918SOL     OW 6652   6.701   0.158   6.722
 1918SOL    HW1 6653   6.606   0.183   6.706
 1918SOL    HW2 6654   6.756   0.183   6.642
 1919SOL     OW 6655   1.898   6.807   2.153
 1919SOL    HW1 6656   1.898   6.707   2.158
 1919SOL    HW2 6657   1.832   6.836   2.083
 1920SOL     OW 6658   0.723   5.097   3.518
 1920SOL    HW1 6659   0.814   5.109   3.478
 1920SOL    HW2 6660   0.654   5.125   3.452
 1921SOL     OW 6661   1.141   4.103   6.820
 1921SOL    HW1 6662   1.119   4.105   6.722
 1921SOL    HW2 6663   1.238   4.124   6.833
 1922SOL     OW 6664   3.767   4.267   1.128
 1922SOL    HW1 6665   3.742   4.267   1.031
 1922SOL    HW2 6666   3.842   4.202   1.143
 1923SOL     OW 6667   3.483   0.682   6.956
 1923SOL    HW1 6668   3.518   0.589   6.947
 1923SOL    HW2 6669   3.541   0.734   0.002
 1924SOL     OW 6670   5.896   5.447   2.140
 1924SOL    HW1 6671   5.803   5.430   2.172
 1924SOL    HW2 6672   5.904   5.417   2.044
 1925SOL     OW 6673   3.072   4.040   2.065
 1925SOL    HW1 6674   3.040   3.970   2.127
 1925SOL    HW2 6675   3.047   4.130   2.101
 1926SOL     OW 6676   0.974   7.006   3.949
 1926SOL    HW1 6677   0.888   6.962   3.976
 1926SOL    HW2 6678   1.031   0.004   4.029
 1927SOL     OW 6679   3.656   4.787   6.414
 1927SOL    HW1 6680   3.711   4.708   6.439
 1927SOL    HW2 6681   3.606   4.767   6.330
 1928SOL     OW 6682   6.912   3.429   6.115
 1928SOL    HW1 6683   6.898   3.450   6.212
 1928SOL    HW2 6684   6.901   3.512   6.061
 1929SOL     OW 6685   0.684   6.006   1.003
 1929SOL    HW1 6686   0.639   5.924   1.040
 1929SOL    HW2 6687   0.776   5.983   0.973
 1930SOL     OW 6688   4.032   3.757   0.110
 1930SOL    HW1 6689   3.979   3.673   0.117
 1930SOL    HW2 6690   4.014   3.801   0.022
 1931SOL     OW 6691   0.094   3.140   3.305
 1931SOL    HW1 6692   0.061   3.049   3.279
 1931SOL    HW2 6693   0.158   3.132   3.381
 1932SOL     OW 6694   4.950   4.206   2.299
 1932SOL    HW1 6695   5.012   4.128   2.311
 1932SOL    HW2 6696   5.002   4.286   2.269
 1933SOL     OW 6697   3.515   4.342   0.365
 1933SOL    HW1 6698   3.569   4.305   0.290
 1933SOL    HW2 6699   3.457   4.271   0.404
 1934SOL     OW 6700   0.154   0.536   4.612
 1934SOL    HW1 6701   0.249   0.565   4.620
 1934SOL    HW2 6702   0.107   0.552   4.698
 1935SOL     OW 6703   3.361   0.428   4.687
 1935SOL    HW1 6704   3.368   0.445   4.785
 1935SOL    HW2 6705   3.343   0.514   4.639
 1936SOL     OW 6706   6.355   3.868   4.097
 1936SOL    HW1 6707   6.432   3.847   4.037
 1936SOL    HW2 6708   6.305   3.784   4.117
 1937SOL     OW 6709   4.929   6.454   0.910
 1937SOL    HW1 6710   4.966   6.363   0.924
 1937SOL    HW2 6711   4.919   6.501   0.998
 1938SOL     OW 6712   3.865   1.492   2.123
 1938SOL    HW1 6713   3.935   1.440   2.074
 1938SOL    HW2 6714   3.887   1.495   2.220
 1939SOL     OW 6715   0.434   6.800   4.932
 1939SOL    HW1 6716   0.370   6.817   4.858
 1939SOL    HW2 6717   0.466   6.705   4.928
 1940SOL     OW 6718   4.737   5.039   6.497
 1940SOL    HW1 6719   4.644   5.005   6.507
 1940SOL    HW2 6720   4.799   4.962   6.482
 1941SOL     OW 6721   0.407   4.100   2.876
 1941SOL    HW1 6722   0.324   4.074   2.925
 1941SOL    HW2 6723   0.482   4.040   2.904
 1942SOL     OW 6724   5.758   0.741   2.487
 1942SOL    HW1 6725   5.809   0.656   2.499
 1942SOL    HW2 6726   5.733   0.778   2.576
 1943SOL     OW 6727   2.527   6.360   2.137
 1943SOL    HW1 6728   2.495   6.280   2.186
 1943SOL    HW2 6729   2.487   6.443   2.177
 1944SOL     OW 6730   5.525   2.145   6.834
 1944SOL    HW1 6731   5.465   2.080   6.786
 1944SOL    HW2 6732   5.498   2.150   6.930
 1945SOL     OW 6733   3.981   6.272   2.466
 1945SOL    HW1 6734   3.943   6.280   2.374
 1945SOL    HW2 6735   4.021   6.359   2.493
 1946SOL     OW 6736   5.638   0.821   1.128
 1946SOL    HW1 6737   5.631   0.918   1.153
 1946SOL    HW2 6738   5.564   0.797   1.065
 1947SOL     OW 6739   4.627   6.409   4.094
 1947SOL    HW1 6740   4.621   6.311   4.113
 1947SOL    HW2 6741   4.692   6.451   4.157
 1948SOL     OW 6742   6.172   5.922   3.910
 1948SOL    HW1 6743   6.204   5.974   3.831
 1948SOL    HW2 6744   6.072   5.919   3.910
 1949SOL     OW 6745   4.349   4.263   5.886
 1949SOL    HW1 6746   4.271   4.287   5.943
 1949SOL    HW2 6747   4.318   4.201   5.813
 1950SOL     OW 6748   3.546   4.982   1.221
 1950SOL    HW1 6749   3.607   5.054   1.189
 1950SOL    HW2 6750   3.493   5.015   1.299
 1951SOL     OW 6751   6.148   4.204   0.444
 1951SOL    HW1 6752   6.128   4.268   0.370
 1951SOL    HW2 6753   6.062   4.173   0.484
 1952SOL     OW 6754   3.887   1.953   6.988
 1952SOL    HW1 6755   3.968   1.947   6.929
 1952SOL    HW2 6756   3.894   2.036   0.027
 1953SOL     OW 6757   6.438   3.132   6.963
 1953SOL    HW1 6758   6.486   3.054   6.922
 1953SOL    HW2 6759   6.464   3.140   0.042
 1954SOL     OW 6760   5.750   1.012   3.990
 1954SOL    HW1 6761   5.680   1.061   3.937
 1954SOL    HW2 6762   5.837   1.016   3.942
 1955SOL     OW 6763   1.441   0.975   2.458
 1955SOL    HW1 6764   1.386   0.959   2.375
 1955SOL    HW2 6765   1.481   0.889   2.488
 1956SOL     OW 6766   5.386   0.065   2.165
 1956SOL    HW1 6767   5.290   0.041   2.179
 1956SOL    HW2 6768   5.444   0.003   2.217
 1957SOL     OW 6769   6.396   6.103   4.894
 1957SOL    HW1 6770   6.332   6.177   4.914
 1957SOL    HW2 6771   6.489   6.141   4.885
 1958SOL     OW 6772   5.630   2.831   2.400
 1958SOL    HW1 6773   5.550   2.891   2.409
 1958SOL    HW2 6774   5.600   2.741   2.369
 1959SOL     OW 6775   0.563   1.372   5.651
 1959SOL    HW1 6776   0.485   1.407   5.703
 1959SOL    HW2 6777   0.576   1.430   5.570
 1960SOL     OW 6778   0.050   4.173   1.313
 1960SOL    HW1 6779   0.138   4.179   1.265
 1960SOL    HW2 6780   0.061   4.206   1.407
 1961SOL     OW 6781   5.772   4.745   4.536
 1961SOL    HW1 6782   5.808   4.665   4.584
 1961SOL    HW2 6783   5.831   4.824   4.552
 1962SOL     OW 6784   2.530   6.772   3.601
 1962SOL    HW1 6785   2.531   6.870   3.617
 1962SOL    HW2 6786   2.453   6.749   3.542
 1963SOL     OW 6787   1.078   1.229   1.622
 1963SOL    HW1 6788   1.166   1.197   1.585
 1963SOL    HW2 6789   1.004   1.174   1.583
 1964SOL     OW 6790   4.739   3.292   1.399
 1964SOL    HW1 6791   4.719   3.365   1.464
 1964SOL    HW2 6792   4.682   3.212   1.419
 1965SOL     OW 6793   1.058   3.220   4.157
 1965SOL    HW1 6794   1.076   3.286   4.084
 1965SOL    HW2 6795   0.998   3.148   4.123
 1966SOL     OW 6796   6.889   6.141   6.382
 1966SOL    HW1 6797   6.862   6.082   6.306
 1966SOL    HW2 6798   6.837   6.227   6.378
 1967SOL     OW 6799   4.624   2.247   4.926
 1967SOL    HW1 6800   4.661   2.293   5.006
 1967SOL    HW2 6801   4.524   2.242   4.933
 1968SOL     OW 6802   3.554   6.483   0.551
 1968SOL    HW1 6803   3.484   6.485   0.480
 1968SOL    HW2 6804   3.559   6.391   0.591
 1969SOL     OW 6805   0.858   1.842   1.850
 1969SOL    HW1 6806   0.879   1.894   1.932
 1969SOL    HW2 6807   0.943   1.810   1.808
 1970SOL     OW 6808   2.251   0.196   6.174
 1970SOL    HW1 6809   2.224   0.284   6.134
 1970SOL    HW2 6810   2.313   0.214   6.252
 1971SOL     OW 6811   7.003   0.404   5.926
 1971SOL    HW1 6812   6.996   0.454   5.840
 1971SOL    HW2 6813   7.008   0.306   5.907
 1972SOL     OW 6814   5.545   2.878   2.832
 1972SOL    HW1 6815   5.621   2.826   2.795
 1972SOL    HW2 6816   5.461   2.825   2.824
 1973SOL     OW 6817   2.647   2.972   0.693
 1973SOL    HW1 6818   2.708   3.000   0.618
 1973SOL    HW2 6819   2.606   3.054   0.735
 1974SOL     OW 6820   6.020   6.166   4.176
 1974SOL    HW1 6821   6.032   6.265   4.184
 1974SOL    HW2 6822   5.953   6.147   4.103
 1975SOL     OW 6823   2.556   1.754   3.429
 1975SOL    HW1 6824   2.511   1.668   3.403
 1975SOL    HW2 6825   2.612   1.739   3.510
 1976SOL     OW 6826   0.241   5.700   0.485
 1976SOL    HW1 6827   0.152   5.655   0.481
 1976SOL    HW2 6828   0.237   5.787   0.436
 1977SOL     OW 6829   0.894   3.232   3.633
 1977SOL    HW1 6830   0.890   3.158   3.700
 1977SOL    HW2 6831   0.829   3.214   3.559
 1978SOL     OW 6832   0.589   0.948   3.393
 1978SOL    HW1 6833   0.514   0.948   3.327
 1978SOL    HW2 6834   0.598   1.040   3.432
 1979SOL     OW 6835   6.428   4.321   5.442
 1979SOL    HW1 6836   6.385   4.258   5.507
 1979SOL    HW2 6837   6.493   4.270   5.385
 1980SOL     OW 6838   2.935   1.062   6.026
 1980SOL    HW1 6839   2.950   1.005   5.945
 1980SOL    HW2 6840   2.866   1.131   6.006
 1981SOL     OW 6841   6.280   2.271   2.588
 1981SOL    HW1 6842   6.192   2.289   2.544
 1981SOL    HW2 6843   6.344   2.344   2.565
 1982SOL     OW 6844   0.351   3.691   5.464
 1982SOL    HW1 6845   0.351   3.699   5.364
 1982SOL    HW2 6846   0.356   3.782   5.505
 1983SOL     OW 6847   0.579   0.842   2.716
 1983SOL    HW1 6848   0.540   0.916   2.772
 1983SOL    HW2 6849   0.678   0.855   2.710
 1984SOL     OW 6850   6.403   2.078   4.587
 1984SOL    HW1 6851   6.460   1.999   4.611
 1984SOL    HW2 6852   6.318   2.075   4.639
 1985SOL     OW 6853   1.114   6.549   2.863
 1985SOL    HW1 6854   1.148   6.560   2.956
 1985SOL    HW2 6855   1.178   6.493   2.811
 1986SOL     OW 6856   1.549   0.432   0.018
 1986SOL    HW1 6857   1.521   0.527   0.003
 1986SOL    HW2 6858   1.499   0.394   0.095
 1987SOL     OW 6859   1.171   2.780   1.090
 1987SOL    HW1 6860   1.239   2.817   1.154
 1987SOL    HW2 6861   1.092   2.747   1.141
 1988SOL     OW 6862   5.641   4.718   1.077
 1988SOL    HW1 6863   5.573   4.766   1.133
 1988SOL    HW2 6864   5.679   4.642   1.129
 1989SOL     OW 6865   2.765   6.455   4.535
 1989SOL    HW1 6866   2.827   6.531   4.555
 1989SOL    HW2 6867   2.809   6.392   4.471
 1990SOL     OW 6868   3.283   6.120   0.345
 1990SOL    HW1 6869   3.329   6.086   0.427
 1990SOL    HW2 6870   3.247   6.043   0.292
 1991SOL     OW 6871   4.577   4.810   6.315
 1991SOL    HW1 6872   4.650   4.810   6.246
 1991SOL    HW2 6873   4.559   4.716   6.343
 1992SOL     OW 6874   0.578   0.519   6.692
 1992SOL    HW1 6875   0.609   0.563   6.777
 1992SOL    HW2 6876   0.501   0.459   6.713
 1993SOL     OW 6877   4.006   3.246   4.683
 1993SOL    HW1 6878   3.999   3.157   4.637
 1993SOL    HW2 6879   4.051   3.311   4.622
 1994SOL     OW 6880   1.199   1.376   0.253
 1994SOL    HW1 6881   1.103   1.353   0.239
 1994SOL    HW2 6882   1.209   1.429   0.337
 1995SOL     OW 6883   5.830   2.499   2.384
 1995SOL    HW1 6884   5.797   2.575   2.327
 1995SOL    HW2 6885   5.764   2.481   2.456
 1996SOL     OW 6886   2.149   3.628   0.522
 1996SOL    HW1 6887   2.083   3.610   0.595
 1996SOL    HW2 6888   2.175   3.725   0.524
 1997SOL     OW 6889   4.378   0.648   5.117
 1997SOL    HW1 6890   4.432   0.566   5.136
 1997SOL    HW2 6891   4.282   0.624   5.104
 1998SOL     OW 6892   3.377   3.985   6.327
 1998SOL    HW1 6893   3.432   3.923   6.271
 1998SOL    HW2 6894   3.337   3.934   6.404
 1999SOL     OW 6895   3.512   6.749   1.649
 1999SOL    HW1 6896   3.585   6.702   1.698
 1999SOL    HW2 6897   3.460   6.805   1.713
 2000SOL     OW 6898   4.235   2.105   5.073
 2000SOL    HW1 6899   4.309   2.040   5.056
 2000SOL    HW2 6900   4.197   2.136   4.985
 2001SOL     OW 6901   3.125   1.298   1.723
 2001SOL    HW1 6902   3.177   1.215   1.746
 2001SOL    HW2 6903   3.134   1.316   1.625
 2002SOL     OW 6904   0.816   4.725   5.572
 2002SOL    HW1 6905   0.800   4.630   5.597
 2002SOL    HW2 6906   0.809   4.783   5.653
 2003SOL     OW 6907   5.750   6.193   3.284
 2003SOL    HW1 6908   5.687   6.123   3.248
 2003SOL    HW2 6909   5.700   6.252   3.347
 2004SOL     OW 6910   4.395   1.147   5.092
 2004SOL    HW1 6911   4.442   1.145   5.180
 2004SOL    HW2 6912   4.400   1.057   5.049
 2005SOL     OW 6913   1.153   4.414   7.012
 2005SOL    HW1 6914   1.225   4.356   0.031
 2005SOL    HW2 6915   1.170   4.430   6.914
 2006SOL     OW 6916   5.121   5.021   4.266
 2006SOL    HW1 6917   5.174   4.971   4.197
 2006SOL    HW2 6918   5.081   4.956   4.330
 2007SOL     OW 6919   4.498   4.881   0.932
 2007SOL    HW1 6920   4.537   4.952   0.874
 2007SOL    HW2 6921   4.501   4.910   1.028
 2008SOL     OW 6922   1.513   5.060   3.056
 2008SOL    HW1 6923   1.462   5.010   3.125
 2008SOL    HW2 6924   1.596   5.009   3.032
 2009SOL     OW 6925   6.035   6.899   1.862
 2009SOL    HW1 6926   6.040   6.863   1.955
 2009SOL    HW2 6927   6.075   6.832   1.798
 2010SOL     OW 6928   2.191   1.779   0.597
 2010SOL    HW1 6929   2.252   1.808   0.523
 2010SOL    HW2 6930   2.225   1.815   0.684
 2011SOL     OW 6931   6.515   1.581   4.633
 2011SOL    HW1 6932   6.428   1.542   4.603
 2011SOL    HW2 6933   6.518   1.678   4.611
 2012SOL     OW 6934   1.693   2.722   1.725
 2012SOL    HW1 6935   1.744   2.690   1.805
 2012SOL    HW2 6936   1.595   2.707   1.740
 2013SOL     OW 6937   6.500   1.303   3.220
 2013SOL    HW1 6938   6.528   1.223   3.273
 2013SOL    HW2 6939   6.497   1.278   3.123
 2014SOL     OW 6940   1.955   5.012   2.689
 2014SOL    HW1 6941   1.920   4.946   2.622
 2014SOL    HW2 6942   2.041   5.050   2.656
 2015SOL     OW 6943   2.116   1.359   0.494
 2015SOL    HW1 6944   2.061   1.323   0.419
 2015SOL    HW2 6945   2.066   1.433   0.539
 2016SOL     OW 6946   0.769   5.649   4.975
 2016SOL    HW1 6947   0.796   5.565   5.021
 2016SOL    HW2 6948   0.781   5.638   4.876
 2017SOL     OW 6949   2.324   7.007   4.646
 2017SOL    HW1 6950   2.369   6.952   4.576
 2017SOL    HW2 6951   2.253   0.046   4.605
 2018SOL     OW 6952   5.917   6.929   5.857
 2018SOL    HW1 6953   5.892   6.832   5.855
 2018SOL    HW2 6954   5.839   6.984   5.826
 2019SOL     OW 6955   5.001   2.258   2.284
 2019SOL    HW1 6956   4.931   2.327   2.271
 2019SOL    HW2 6957   5.089   2.293   2.250
 2020SOL     OW 6958   0.412   6.026   5.053
 2020SOL    HW1 6959   0.333   5.965   5.056
 2020SOL    HW2 6960   0.413   6.083   5.135
 2021SOL     OW 6961   2.179   5.482   3.039
 2021SOL    HW1 6962   2.260   5.537   3.020
 2021SOL    HW2 6963   2.100   5.523   2.994
 2022SOL     OW 6964   1.920   3.532   3.235
 2022SOL    HW1 6965   1.830   3.576   3.234
 2022SOL    HW2 6966   1.960   3.533   3.144
 2023SOL     OW 6967   6.291   1.085   6.028
 2023SOL    HW1 6968   6.254   1.120   5.941
 2023SOL    HW2 6969   6.359   1.015   6.009
 2024SOL     OW 6970   0.150   6.978   3.116
 2024SOL    HW1 6971   0.069   6.938   3.072
 2024SOL    HW2 6972   0.122   0.040   3.170
 2025SOL     OW 6973   2.917   2.251   2.680
 2025SOL    HW1 6974   2.948   2.275   2.773
 2025SOL    HW2 6975   2.859   2.324   2.644
 2026SOL     OW 6976   0.751   3.009   6.483
 2026SOL    HW1 6977   0.775   3.030   6.388
 2026SOL    HW2 6978   0.675   3.067   6.512
 2027SOL     OW 6979   0.918   0.965   0.316
 2027SOL    HW1 6980   0.821   0.956   0.340
 2027SOL    HW2 6981   0.955   1.049   0.358
 2028SOL     OW 6982   3.096   1.278   6.140
 2028SOL    HW1 6983   3.070   1.367   6.103
 2028SOL    HW2 6984   3.034   1.208   6.106
 2029SOL     OW 6985   6.149   0.443   1.164
 2029SOL    HW1 6986   6.246   0.432   1.142
 2029SOL    HW2 6987   6.104   0.493   1.091
 2030SOL     OW 6988   2.313   0.581   2.951
 2030SOL    HW1 6989   2.250   0.615   3.020
 2030SOL    HW2 6990   2.275   0.498   2.910
 2031SOL     OW 6991   5.858   6.339   2.117
 2031SOL    HW1 6992   5.919   6.349   2.039
 2031SOL    HW2 6993   5.793   6.415   2.119
 2032SOL     OW 6994   5.092   6.530   1.870
 2032SOL    HW1 6995   5.023   6.523   1.798
 2032SOL    HW2 6996   5.181   6.547   1.829
 2033SOL     OW 6997   3.342   4.275   0.074
 2033SOL    HW1 6998   3.327   4.366   0.115
 2033SOL    HW2 6999   3.305   4.275   6.998
 2034SOL     OW 7000   3.231   6.644   4.891
 2034SOL    HW1 7001   3.159   6.609   4.951
 2034SOL    HW2 7002   3.213   6.616   4.797
 2035SOL     OW 7003   6.828   0.701   1.851
 2035SOL    HW1 7004   6.809   0.604   1.838
 2035SOL    HW2 7005   6.750   0.744   1.896
 2036SOL     OW 7006   0.887   5.112   2.968
 2036SOL    HW1 7007   0.930   5.105   2.878
 2036SOL    HW2 7008   0.875   5.020   3.006
 2037SOL     OW 7009   0.344   2.800   5.827
 2037SOL    HW1 7010   0.406   2.724   5.847
 2037SOL    HW2 7011   0.269   2.768   5.770
 2038SOL     OW 7012   1.361   2.167   6.601
 2038SOL    HW1 7013   1.432   2.173   6.671
 2038SOL    HW2 7014   1.277   2.208   6.636
 2039SOL     OW 7015   1.154   5.354   3.330
 2039SOL    HW1 7016   1.123   5.420   3.398
 2039SOL    HW2 7017   1.225   5.396   3.273
 2040SOL     OW 7018   3.868   2.973   5.093
 2040SOL    HW1 7019   3.824   2.928   5.015
 2040SOL    HW2 7020   3.864   3.072   5.080
 2041SOL     OW 7021   0.050   5.932   5.853
 2041SOL    HW1 7022   0.054   5.975   5.942
 2041SOL    HW2 7023   7.002   5.856   5.856
 2042SOL     OW 7024   5.158   4.527   6.787
 2042SOL    HW1 7025   5.124   4.435   6.767
 2042SOL    HW2 7026   5.195   4.529   6.880
 2043SOL     OW 7027   6.145   4.209   3.179
 2043SOL    HW1 7028   6.170   4.137   3.114
 2043SOL    HW2 7029   6.059   4.184   3.224
 2044SOL     OW 7030   5.321   6.517   1.305
 2044SOL    HW1 7031   5.373   6.558   1.229
 2044SOL    HW2 7032   5.373   6.525   1.389
 2045SOL     OW 7033   3.104   4.878   3.877
 2045SOL    HW1 7034   3.086   4.973   3.902
 2045SOL    HW2 7035   3.045   4.818   3.930
 2046SOL     OW 7036   6.862   1.514   3.834
 2046SOL    HW1 7037   6.942   1.573   3.850
 2046SOL    HW2 7038   6.892   1.425   3.802
 2047SOL     OW 7039   5.761   2.328   0.126
 2047SOL    HW1 7040   5.837   2.394   0.121
 2047SOL    HW2 7041   5.766   2.279   0.212
 2048SOL     OW 7042   1.319   6.115   0.357
 2048SOL    HW1 7043   1.254   6.073   0.420
 2048SOL    HW2 7044   1.270   6.176   0.294
 2049SOL     OW 7045   5.103   1.691   6.435
 2049SOL    HW1 7046   5.120   1.789   6.428
 2049SOL    HW2 7047   5.035   1.664   6.367
 2050SOL     OW 7048   0.387   2.792   2.802
 2050SOL    HW1 7049   0.471   2.753   2.765
 2050SOL    HW2 7050   0.334   2.720   2.846
 2051SOL     OW 7051   1.120   5.798   0.678
 2051SOL    HW1 7052   1.077   5.882   0.712
 2051SOL    HW2 7053   1.218   5.801   0.699
 2052SOL     OW 7054   0.888   4.053   0.971
 2052SOL    HW1 7055   0.932   3.965   0.991
 2052SOL    HW2 7056   0.789   4.042   0.973
 2053SOL     OW 7057   5.671   6.804   4.832
 2053SOL    HW1 7058   5.681   6.706   4.813
 2053SOL    HW2 7059   5.612   6.845   4.762
 2054SOL     OW 7060   3.891   3.366   2.005
 2054SOL    HW1 7061   3.891   3.270   2.033
 2054SOL    HW2 7062   3.798   3.396   1.986
 2055SOL     OW 7063   5.951   3.686   3.464
 2055SOL    HW1 7064   5.897   3.676   3.548
 2055SOL    HW2 7065   5.893   3.724   3.392
 2056SOL     OW 7066   2.286   7.009   2.749
 2056SOL    HW1 7067   2.275   7.002   2.848
 2056SOL    HW2 7068   2.275   6.919   2.708
 2057SOL     OW 7069   5.767   3.081   4.109
 2057SOL    HW1 7070   5.830   3.014   4.068
 2057SOL    HW2 7071   5.811   3.123   4.188
 2058SOL     OW 7072   0.606   1.893   3.164
 2058SOL    HW1 7073   0.589   1.880   3.261
 2058SOL    HW2 7074   0.611   1.804   3.118
 2059SOL     OW 7075   2.273   5.936   6.343
 2059SOL    HW1 7076   2.364   5.901   6.366
 2059SOL    HW2 7077   2.263   6.028   6.378
 2060SOL     OW 7078   6.366   4.713   0.696
 2060SOL    HW1 7079   6.340   4.747   0.606
 2060SOL    HW2 7080   6.429   4.635   0.685
 2061SOL     OW 7081   7.011   1.803   3.547
 2061SOL    HW1 7082   0.041   1.754   3.620
 2061SOL    HW2 7083   0.060   1.840   3.483
 2062SOL     OW 7084   6.076   0.337   3.639
 2062SOL    HW1 7085   6.145   0.404   3.667
 2062SOL    HW2 7086   6.111   0.245   3.655
 2063SOL     OW 7087   1.800   0.003   6.358
 2063SOL    HW1 7088   1.785   6.968   6.442
 2063SOL    HW2 7089   1.891   7.000   6.322
 2064SOL     OW 7090   0.560   2.632   5.430
 2064SOL    HW1 7091   0.595   2.590   5.514
 2064SOL    HW2 7092   0.512   2.564   5.376
 2065SOL     OW 7093   6.907   2.395   4.612
 2065SOL    HW1 7094   6.950   2.361   4.696
 2065SOL    HW2 7095   6.938   2.340   4.534
 2066SOL     OW 7096   0.958   4.876   3.682
 2066SOL    HW1 7097   0.948   4.822   3.598
 2066SOL    HW2 7098   1.056   4.885   3.703
 2067SOL     OW 7099   6.545   5.398   0.588
 2067SOL    HW1 7100   6.559   5.414   0.685
 2067SOL    HW2 7101   6.634   5.393   0.542
 2068SOL     OW 7102   1.824   1.393   5.082
 2068SOL    HW1 7103   1.835   1.442   4.996
 2068SOL    HW2 7104   1.857   1.450   5.158
 2069SOL     OW 7105   0.770   3.133   2.909
 2069SOL    HW1 7106   0.855   3.090   2.940
 2069SOL    HW2 7107   0.694   3.069   2.921
 2070SOL     OW 7108   1.511   1.123   1.892
 2070SOL    HW1 7109   1.424   1.167   1.871
 2070SOL    HW2 7110   1.513   1.100   1.990
 2071SOL     OW 7111   6.126   5.862   5.226
 2071SOL    HW1 7112   6.219   5.831   5.206
 2071SOL    HW2 7113   6.106   5.845   5.322
 2072SOL     OW 7114   4.251   6.639   3.414
 2072SOL    HW1 7115   4.345   6.667   3.396
 2072SOL    HW2 7116   4.236   6.635   3.513
 2073SOL     OW 7117   4.079   0.212   4.658
 2073SOL    HW1 7118   4.004   0.148   4.677
 2073SOL    HW2 7119   4.129   0.182   4.577
 2074SOL     OW 7120   1.714   2.855   0.423
 2074SOL    HW1 7121   1.761   2.920   0.363
 2074SOL    HW2 7122   1.688   2.774   0.371
 2075SOL     OW 7123   5.583   3.137   1.753
 2075SOL    HW1 7124   5.652   3.080   1.796
 2075SOL    HW2 7125   5.519   3.171   1.822
 2076SOL     OW 7126   5.502   0.227   6.467
 2076SOL    HW1 7127   5.425   0.174   6.432
 2076SOL    HW2 7128   5.554   0.265   6.390
 2077SOL     OW 7129   5.341   2.545   2.644
 2077SOL    HW1 7130   5.354   2.591   2.732
 2077SOL    HW2 7131   5.378   2.453   2.649
 2078SOL     OW 7132   1.233   5.559   5.607
 2078SOL    HW1 7133   1.149   5.587   5.559
 2078SOL    HW2 7134   1.308   5.621   5.582
 2079SOL     OW 7135   5.046   2.198   3.844
 2079SOL    HW1 7136   5.012   2.146   3.766
 2079SOL    HW2 7137   5.091   2.137   3.908
 2080SOL     OW 7138   1.734   0.257   5.255
 2080SOL    HW1 7139   1.767   0.341   5.298
 2080SOL    HW2 7140   1.796   0.182   5.276
 2081SOL     OW 7141   1.565   5.122   4.163
 2081SOL    HW1 7142   1.474   5.162   4.171
 2081SOL    HW2 7143   1.565   5.030   4.204
 2082SOL     OW 7144   0.309   6.841   3.304
 2082SOL    HW1 7145   0.404   6.815   3.287
 2082SOL    HW2 7146   0.287   6.924   3.253
 2083SOL     OW 7147   6.329   5.083   6.167
 2083SOL    HW1 7148   6.424   5.069   6.194
 2083SOL    HW2 7149   6.291   5.160   6.217
 2084SOL     OW 7150   1.623   3.390   3.626
 2084SOL    HW1 7151   1.721   3.369   3.621
 2084SOL    HW2 7152   1.592   3.426   3.539
 2085SOL     OW 7153   4.230   0.335   6.931
 2085SOL    HW1 7154   4.281   0.399   6.874
 2085SOL    HW2 7155   4.154   0.382   6.975
 2086SOL     OW 7156   4.156   6.767   5.544
 2086SOL    HW1 7157   4.123   6.845   5.490
 2086SOL    HW2 7158   4.180   6.692   5.484
 2087SOL     OW 7159   5.016   0.007   1.338
 2087SOL    HW1 7160   5.095   6.991   1.287
 2087SOL    HW2 7161   4.992   0.099   1.305
 2088SOL     OW 7162   1.750   5.865   0.339
 2088SOL    HW1 7163   1.751   5.790   0.272
 2088SOL    HW2 7164   1.787   5.832   0.425
 2089SOL     OW 7165   5.316   2.024   6.286
 2089SOL    HW1 7166   5.306   2.108   6.233
 2089SOL    HW2 7167   5.239   2.015   6.350
 2090SOL     OW 7168   3.656   2.920   6.088
 2090SOL    HW1 7169   3.752   2.909   6.060
 2090SOL    HW2 7170   3.599   2.934   6.007
 2091SOL     OW 7171   0.122   5.283   0.608
 2091SOL    HW1 7172   0.104   5.195   0.652
 2091SOL    HW2 7173   0.113   5.274   0.509
 2092SOL     OW 7174   5.558   4.037   0.010
 2092SOL    HW1 7175   5.528   3.973   0.081
 2092SOL    HW2 7176   5.623   3.992   6.968
 2093SOL     OW 7177   2.685   2.415   1.471
 2093SOL    HW1 7178   2.761   2.350   1.465
 2093SOL    HW2 7179   2.621   2.399   1.396
 2094SOL     OW 7180   6.051   1.601   1.792
 2094SOL    HW1 7181   6.060   1.591   1.693
 2094SOL    HW2 7182   6.009   1.518   1.830
 2095SOL     OW 7183   5.564   0.016   5.131
 2095SOL    HW1 7184   5.596   0.035   5.224
 2095SOL    HW2 7185   5.509   0.093   5.098
 2096SOL     OW 7186   4.892   3.882   2.796
 2096SOL    HW1 7187   4.941   3.963   2.828
 2096SOL    HW2 7188   4.872   3.822   2.874
 2097SOL     OW 7189   3.094   3.044   6.625
 2097SOL    HW1 7190   3.011   2.997   6.657
 2097SOL    HW2 7191   3.071   3.102   6.547
 2098SOL     OW 7192   3.830   5.863   1.827
 2098SOL    HW1 7193   3.758   5.809   1.871
 2098SOL    HW2 7194   3.805   5.960   1.829
 2099SOL     OW 7195   3.091   2.934   6.227
 2099SOL    HW1 7196   3.084   2.962   6.131
 2099SOL    HW2 7197   3.028   2.989   6.282
 2100SOL     OW 7198   4.625   2.436   6.397
 2100SOL    HW1 7199   4.635   2.535   6.382
 2100SOL    HW2 7200   4.662   2.412   6.486
 2101SOL     OW 7201   1.214   6.253   2.618
 2101SOL    HW1 7202   1.301   6.266   2.570
 2101SOL    HW2 7203   1.233   6.225   2.712
 2102SOL     OW 7204   6.308   4.806   2.822
 2102SOL    HW1 7205   6.308   4.787   2.920
 2102SOL    HW2 7206   6.214   4.811   2.788
 2103SOL     OW 7207   4.067   4.362   5.609
 2103SOL    HW1 7208   4.140   4.415   5.650
 2103SOL    HW2 7209   4.082   4.356   5.510
 2104SOL     OW 7210   2.308   4.406   1.137
 2104SOL    HW1 7211   2.300   4.307   1.146
 2104SOL    HW2 7212   2.299   4.432   1.041
 2105SOL     OW 7213   5.020   6.275   4.895
 2105SOL    HW1 7214   4.949   6.286   4.964
 2105SOL    HW2 7215   4.983   6.224   4.817
 2106SOL     OW 7216   4.880   4.409   1.429
 2106SOL    HW1 7217   4.868   4.506   1.446
 2106SOL    HW2 7218   4.802   4.358   1.466
 2107SOL     OW 7219   5.204   2.477   5.433
 2107SOL    HW1 7220   5.186   2.566   5.474
 2107SOL    HW2 7221   5.159   2.405   5.487
 2108SOL     OW 7222   6.236   5.661   4.999
 2108SOL    HW1 7223   6.244   5.567   5.032
 2108SOL    HW2 7224   6.143   5.695   5.015
 2109SOL     OW 7225   4.250   6.151   2.521
 2109SOL    HW1 7226   4.160   6.189   2.500
 2109SOL    HW2 7227   4.240   6.080   2.592
 2110SOL     OW 7228   2.354   1.434   0.388
 2110SOL    HW1 7229   2.267   1.405   0.428
 2110SOL    HW2 7230   2.421   1.449   0.460
 2111SOL     OW 7231   1.643   2.227   6.737
 2111SOL    HW1 7232   1.597   2.142   6.765
 2111SOL    HW2 7233   1.740   2.222   6.760
 2112SOL     OW 7234   5.489   3.842   0.759
 2112SOL    HW1 7235   5.493   3.879   0.852
 2112SOL    HW2 7236   5.583   3.831   0.724
 2113SOL     OW 7237   2.522   2.177   5.594
 2113SOL    HW1 7238   2.462   2.240   5.644
 2113SOL    HW2 7239   2.611   2.220   5.580
 2114SOL     OW 7240   1.483   1.767   6.732
 2114SOL    HW1 7241   1.394   1.761   6.686
 2114SOL    HW2 7242   1.556   1.761   6.664
 2115SOL     OW 7243   2.092   3.448   2.521
 2115SOL    HW1 7244   2.083   3.418   2.616
 2115SOL    HW2 7245   2.088   3.369   2.461
 2116SOL     OW 7246   0.559   5.413   3.450
 2116SOL    HW1 7247   0.507   5.406   3.534
 2116SOL    HW2 7248   0.498   5.436   3.374
 2117SOL     OW 7249   0.023   5.239   1.725
 2117SOL    HW1 7250   0.026   5.188   1.811
 2117SOL    HW2 7251   6.972   5.198   1.664
 2118SOL     OW 7252   6.183   3.528   2.546
 2118SOL    HW1 7253   6.266   3.471   2.549
 2118SOL    HW2 7254   6.108   3.474   2.508
 2119SOL     OW 7255   1.311   6.900   1.056
 2119SOL    HW1 7256   1.270   6.920   0.967
 2119SOL    HW2 7257   1.367   6.978   1.085
 2120SOL     OW 7258   6.739   5.180   4.059
 2120SOL    HW1 7259   6.830   5.182   4.018
 2120SOL    HW2 7260   6.747   5.154   4.156
 2121SOL     OW 7261   1.481   4.432   5.843
 2121SOL    HW1 7262   1.572   4.394   5.826
 2121SOL    HW2 7263   1.427   4.428   5.759
 2122SOL     OW 7264   5.731   3.788   5.899
 2122SOL    HW1 7265   5.743   3.694   5.868
 2122SOL    HW2 7266   5.763   3.797   5.993
 2123SOL     OW 7267   0.033   6.021   2.701
 2123SOL    HW1 7268   0.076   5.966   2.629
 2123SOL    HW2 7269   0.019   6.114   2.669
 2124SOL     OW 7270   3.182   1.922   1.158
 2124SOL    HW1 7271   3.184   1.835   1.108
 2124SOL    HW2 7272   3.226   1.910   1.247
 2125SOL     OW 7273   2.176   0.830   2.037
 2125SOL    HW1 7274   2.105   0.801   1.973
 2125SOL    HW2 7275   2.260   0.850   1.986
 2126SOL     OW 7276   3.576   1.845   6.083
 2126SOL    HW1 7277   3.519   1.764   6.091
 2126SOL    HW2 7278   3.628   1.842   5.998
 2127SOL     OW 7279   0.486   3.554   4.968
 2127SOL    HW1 7280   0.521   3.522   5.055
 2127SOL    HW2 7281   0.556   3.543   4.897
 2128SOL     OW 7282   6.497   3.283   3.673
 2128SOL    HW1 7283   6.506   3.380   3.648
 2128SOL    HW2 7284   6.433   3.239   3.609
 2129SOL     OW 7285   4.428   3.368   5.350
 2129SOL    HW1 7286   4.453   3.373   5.446
 2129SOL    HW2 7287   4.418   3.272   5.322
 2130SOL     OW 7288   3.429   0.841   2.791
 2130SOL    HW1 7289   3.343   0.802   2.758
 2130SOL    HW2 7290   3.439   0.933   2.753
 2131SOL     OW 7291   5.493   1.465   0.896
 2131SOL    HW1 7292   5.445   1.378   0.900
 2131SOL    HW2 7293   5.486   1.503   0.804
 2132SOL     OW 7294   3.427   0.328   1.835
 2132SOL    HW1 7295   3.442   0.420   1.800
 2132SOL    HW2 7296   3.510   0.274   1.823
 2133SOL     OW 7297   3.181   3.187   0.512
 2133SOL    HW1 7298   3.149   3.147   0.598
 2133SOL    HW2 7299   3.225   3.117   0.457
 2134SOL     OW 7300   6.957   1.498   5.983
 2134SOL    HW1 7301   0.019   1.555   6.004
 2134SOL    HW2 7302   6.886   1.513   6.052
 2135SOL     OW 7303   1.425   3.453   4.836
 2135SOL    HW1 7304   1.425   3.366   4.787
 2135SOL    HW2 7305   1.500   3.454   4.902
 2136SOL     OW 7306   1.392   3.680   3.722
 2136SOL    HW1 7307   1.487   3.710   3.730
 2136SOL    HW2 7308   1.354   3.711   3.635
 2137SOL     OW 7309   3.023   5.411   5.053
 2137SOL    HW1 7310   2.999   5.466   4.973
 2137SOL    HW2 7311   3.082   5.335   5.025
 2138SOL     OW 7312   6.549   0.487   2.706
 2138SOL    HW1 7313   6.597   0.574   2.699
 2138SOL    HW2 7314   6.526   0.469   2.802
 2139SOL     OW 7315   3.799   0.550   3.370
 2139SOL    HW1 7316   3.726   0.558   3.438
 2139SOL    HW2 7317   3.784   0.616   3.297
 2140SOL     OW 7318   3.996   6.657   4.073
 2140SOL    HW1 7319   4.074   6.668   4.136
 2140SOL    HW2 7320   3.976   6.560   4.062
 2141SOL     OW 7321   6.843   3.792   2.349
 2141SOL    HW1 7322   6.910   3.752   2.286
 2141SOL    HW2 7323   6.891   3.828   2.430
 2142SOL     OW 7324   1.856   2.126   2.912
 2142SOL    HW1 7325   1.769   2.100   2.953
 2142SOL    HW2 7326   1.882   2.217   2.945
 2143SOL     OW 7327   2.779   4.607   1.628
 2143SOL    HW1 7328   2.819   4.680   1.573
 2143SOL    HW2 7329   2.801   4.623   1.725
 2144SOL     OW 7330   1.317   5.248   4.190
 2144SOL    HW1 7331   1.277   5.168   4.236
 2144SOL    HW2 7332   1.271   5.262   4.102
 2145SOL     OW 7333   4.517   5.782   4.054
 2145SOL    HW1 7334   4.535   5.707   3.990
 2145SOL    HW2 7335   4.436   5.832   4.023
 2146SOL     OW 7336   2.654   3.652   1.607
 2146SOL    HW1 7337   2.740   3.684   1.647
 2146SOL    HW2 7338   2.671   3.619   1.514
 2147SOL     OW 7339   6.249   1.907   6.104
 2147SOL    HW1 7340   6.151   1.912   6.086
 2147SOL    HW2 7341   6.299   1.904   6.017
 2148SOL     OW 7342   5.853   2.884   5.517
 2148SOL    HW1 7343   5.866   2.883   5.417
 2148SOL    HW2 7344   5.872   2.975   5.552
 2149SOL     OW 7345   3.505   1.864   1.013
 2149SOL    HW1 7346   3.496   1.765   1.003
 2149SOL    HW2 7347   3.416   1.907   1.003
 2150SOL     OW 7348   2.583   1.700   2.430
 2150SOL    HW1 7349   2.500   1.699   2.486
 2150SOL    HW2 7350   2.612   1.795   2.416
 2151SOL     OW 7351   1.171   0.440   5.260
 2151SOL    HW1 7352   1.131   0.524   5.296
 2151SOL    HW2 7353   1.222   0.393   5.332
 2152SOL     OW 7354   3.486   5.893   1.750
 2152SOL    HW1 7355   3.454   5.984   1.722
 2152SOL    HW2 7356   3.423   5.823   1.717
 2153SOL     OW 7357   3.914   1.297   2.739
 2153SOL    HW1 7358   3.907   1.326   2.834
 2153SOL    HW2 7359   3.870   1.208   2.728
 2154SOL     OW 7360   5.034   0.497   4.987
 2154SOL    HW1 7361   5.010   0.575   4.930
 2154SOL    HW2 7362   5.075   0.425   4.930
 2155SOL     OW 7363   2.663   5.948   0.232
 2155SOL    HW1 7364   2.665   5.849   0.245
 2155SOL    HW2 7365   2.646   5.992   0.320
 2156SOL     OW 7366   1.824   1.823   5.078
 2156SOL    HW1 7367   1.850   1.821   4.981
 2156SOL    HW2 7368   1.895   1.778   5.132
 2157SOL     OW 7369   5.970   0.634   3.427
 2157SOL    HW1 7370   5.939   0.719   3.385
 2157SOL    HW2 7371   5.893   0.571   3.436
 2158SOL     OW 7372   3.738   5.942   1.236
 2158SOL    HW1 7373   3.829   5.935   1.195
 2158SOL    HW2 7374   3.744   5.925   1.334
 2159SOL     OW 7375   1.278   6.469   5.233
 2159SOL    HW1 7376   1.363   6.417   5.234
 2159SOL    HW2 7377   1.219   6.436   5.159
 2160SOL     OW 7378   4.088   3.977   0.239
 2160SOL    HW1 7379   4.061   4.030   0.159
 2160SOL    HW2 7380   4.073   3.880   0.221
 2161SOL     OW 7381   5.848   5.133   2.892
 2161SOL    HW1 7382   5.764   5.185   2.907
 2161SOL    HW2 7383   5.897   5.171   2.813
 2162SOL     OW 7384   2.153   1.112   1.885
 2162SOL    HW1 7385   2.095   1.088   1.807
 2162SOL    HW2 7386   2.099   1.107   1.969
 2163SOL     OW 7387   1.433   4.678   5.953
 2163SOL    HW1 7388   1.472   4.589   5.929
 2163SOL    HW2 7389   1.455   4.744   5.881
 2164SOL     OW 7390   1.434   2.438   0.222
 2164SOL    HW1 7391   1.377   2.495   0.163
 2164SOL    HW2 7392   1.423   2.466   0.317
 2165SOL     OW 7393   0.526   1.878   2.649
 2165SOL    HW1 7394   0.522   1.796   2.591
 2165SOL    HW2 7395   0.454   1.872   2.719
 2166SOL     OW 7396   1.808   2.366   5.492
 2166SOL    HW1 7397   1.746   2.443   5.507
 2166SOL    HW2 7398   1.790   2.295   5.559
 2167SOL     OW 7399   1.806   1.665   3.319
 2167SOL    HW1 7400   1.840   1.662   3.225
 2167SOL    HW2 7401   1.878   1.633   3.381
 2168SOL     OW 7402   0.717   2.066   3.903
 2168SOL    HW1 7403   0.733   1.971   3.877
 2168SOL    HW2 7404   0.677   2.071   3.994
 2169SOL     OW 7405   5.246   1.193   6.830
 2169SOL    HW1 7406   5.269   1.172   6.925
 2169SOL    HW2 7407   5.330   1.210   6.779
 2170SOL     OW 7408   6.392   4.581   5.705
 2170SOL    HW1 7409   6.482   4.537   5.699
 2170SOL    HW2 7410   6.404   4.679   5.719
 2171SOL     OW 7411   0.372   4.972   1.572
 2171SOL    HW1 7412   0.320   4.887   1.572
 2171SOL    HW2 7413   0.441   4.969   1.501
 2172SOL     OW 7414   2.062   2.254   0.387
 2172SOL    HW1 7415   2.135   2.322   0.380
 2172SOL    HW2 7416   2.054   2.223   0.481
 2173SOL     OW 7417   3.488   0.619   5.358
 2173SOL    HW1 7418   3.530   0.529   5.372
 2173SOL    HW2 7419   3.554   0.679   5.313
 2174SOL     OW 7420   5.460   6.339   4.777
 2174SOL    HW1 7421   5.377   6.386   4.805
 2174SOL    HW2 7422   5.500   6.290   4.855
 2175SOL     OW 7423   2.418   2.714   4.383
 2175SOL    HW1 7424   2.400   2.812   4.378
 2175SOL    HW2 7425   2.436   2.687   4.477
 2176SOL     OW 7426   6.448   2.086   0.829
 2176SOL    HW1 7427   6.410   2.010   0.883
 2176SOL    HW2 7428   6.431   2.069   0.732
 2177SOL     OW 7429   6.688   2.124   3.652
 2177SOL    HW1 7430   6.655   2.198   3.593
 2177SOL    HW2 7431   6.697   2.040   3.599
 2178SOL     OW 7432   1.999   2.266   0.982
 2178SOL    HW1 7433   1.955   2.273   1.072
 2178SOL    HW2 7434   2.084   2.214   0.991
 2179SOL     OW 7435   2.193   5.428   4.905
 2179SOL    HW1 7436   2.174   5.342   4.858
 2179SOL    HW2 7437   2.137   5.434   4.988
 2180SOL     OW 7438   1.774   2.339   1.651
 2180SOL    HW1 7439   1.813   2.396   1.723
 2180SOL    HW2 7440   1.738   2.398   1.578
 2181SOL     OW 7441   4.597   5.030   4.507
 2181SOL    HW1 7442   4.665   5.025   4.580
 2181SOL    HW2 7443   4.623   5.101   4.442
 2182SOL     OW 7444   1.472   3.452   3.854
 2182SOL    HW1 7445   1.526   3.413   3.779
 2182SOL    HW2 7446   1.431   3.539   3.825
 2183SOL     OW 7447   2.890   3.834   5.975
 2183SOL    HW1 7448   2.971   3.801   5.925
 2183SOL    HW2 7449   2.840   3.899   5.918
 2184SOL     OW 7450   4.224   1.874   6.368
 2184SOL    HW1 7451   4.203   1.817   6.448
 2184SOL    HW2 7452   4.243   1.967   6.398
 2185SOL     OW 7453   0.732   1.405   0.986
 2185SOL    HW1 7454   0.764   1.438   1.075
 2185SOL    HW2 7455   0.725   1.482   0.922
 2186SOL     OW 7456   0.533   5.752   1.796
 2186SOL    HW1 7457   0.630   5.738   1.815
 2186SOL    HW2 7458   0.523   5.801   1.709
 2187SOL     OW 7459   6.419   0.073   2.859
 2187SOL    HW1 7460   6.505   0.120   2.875
 2187SOL    HW2 7461   6.349   0.108   2.921
 2188SOL     OW 7462   6.948   6.221   5.013
 2188SOL    HW1 7463   6.923   6.208   4.917
 2188SOL    HW2 7464   0.030   6.211   5.023
 2189SOL     OW 7465   1.695   6.705   0.762
 2189SOL    HW1 7466   1.776   6.702   0.820
 2189SOL    HW2 7467   1.694   6.624   0.703
 2190SOL     OW 7468   0.232   3.001   1.785
 2190SOL    HW1 7469   0.286   3.037   1.861
 2190SOL    HW2 7470   0.158   2.944   1.821
 2191SOL     OW 7471   3.322   1.997   6.729
 2191SOL    HW1 7472   3.392   2.031   6.667
 2191SOL    HW2 7473   3.361   1.983   6.820
 2192SOL     OW 7474   4.289   1.128   2.438
 2192SOL    HW1 7475   4.361   1.131   2.369
 2192SOL    HW2 7476   4.229   1.207   2.427
 2193SOL     OW 7477   5.691   5.636   6.540
 2193SOL    HW1 7478   5.684   5.732   6.567
 2193SOL    HW2 7479   5.600   5.602   6.516
 2194SOL     OW 7480   2.887   4.115   5.548
 2194SOL    HW1 7481   2.834   4.111   5.463
 2194SOL    HW2 7482   2.984   4.108   5.528
 2195SOL     OW 7483   0.401   0.767   4.514
 2195SOL    HW1 7484   0.434   0.719   4.433
 2195SOL    HW2 7485   0.474   0.772   4.582
 2196SOL     OW 7486   2.995   6.704   5.426
 2196SOL    HW1 7487   2.958   6.796   5.416
 2196SOL    HW2 7488   3.075   6.693   5.367
 2197SOL     OW 7489   3.241   3.795   0.794
 2197SOL    HW1 7490   3.297   3.771   0.874
 2197SOL    HW2 7491   3.279   3.876   0.750
 2198SOL     OW 7492   5.615   1.381   0.081
 2198SOL    HW1 7493   5.641   1.313   0.013
 2198SOL    HW2 7494   5.522   1.361   0.113
 2199SOL     OW 7495   4.897   0.833   3.453
 2199SOL    HW1 7496   4.975   0.808   3.396
 2199SOL    HW2 7497   4.813   0.831   3.397
 2200SOL     OW 7498   2.658   1.214   5.633
 2200SOL    HW1 7499   2.567   1.198   5.670
 2200SOL    HW2 7500   2.656   1.206   5.534
 2201SOL     OW 7501   6.443   2.983   3.387
 2201SOL    HW1 7502   6.414   3.076   3.407
 2201SOL    HW2 7503   6.373   2.919   3.418
 2202SOL     OW 7504   2.818   5.446   2.119
 2202SOL    HW1 7505   2.828   5.406   2.028
 2202SOL    HW2 7506   2.729   5.492   2.126
 2203SOL     OW 7507   1.772   2.033   1.250
 2203SOL    HW1 7508   1.859   1.995   1.280
 2203SOL    HW2 7509   1.781   2.132   1.237
 2204SOL     OW 7510   3.611   0.826   1.396
 2204SOL    HW1 7511   3.649   0.777   1.318
 2204SOL    HW2 7512   3.668   0.905   1.417
 2205SOL     OW 7513   0.700   0.253   6.354
 2205SOL    HW1 7514   0.690   0.160   6.318
 2205SOL    HW2 7515   0.791   0.288   6.331
 2206SOL     OW 7516   3.205   4.428   6.402
 2206SOL    HW1 7517   3.270   4.504   6.396
 2206SOL    HW2 7518   3.151   4.437   6.485
 2207SOL     OW 7519   2.758   4.375   6.542
 2207SOL    HW1 7520   2.791   4.441   6.475
 2207SOL    HW2 7521   2.692   4.314   6.500
 2208SOL     OW 7522   1.745   6.220   3.182
 2208SOL    HW1 7523   1.803   6.294   3.148
 2208SOL    HW2 7524   1.792   6.172   3.256
 2209SOL     OW 7525   1.393   6.295   5.460
 2209SOL    HW1 7526   1.339   6.277   5.378
 2209SOL    HW2 7527   1.488   6.268   5.444
 2210SOL     OW 7528   6.217   4.539   4.251
 2210SOL    HW1 7529   6.142   4.569   4.310
 2210SOL    HW2 7530   6.197   4.448   4.216
 2211SOL     OW 7531   5.581   0.354   0.766
 2211SOL    HW1 7532   5.677   0.375   0.746
 2211SOL    HW2 7533   5.568   0.346   0.865
 2212SOL     OW 7534   1.503   5.941   6.964
 2212SOL    HW1 7535   1.572   5.915   6.897
 2212SOL    HW2 7536   1.548   5.977   0.028
 2213SOL     OW 7537   3.690   2.292   5.407
 2213SOL    HW1 7538   3.743   2.377   5.413
 2213SOL    HW2 7539   3.664   2.264   5.499
 2214SOL     OW 7540   3.539   3.089   5.087
 2214SOL    HW1 7541   3.586   3.025   5.027
 2214SOL    HW2 7542   3.450   3.111   5.048
 2215SOL     OW 7543   6.265   1.028   0.325
 2215SOL    HW1 7544   6.248   1.106   0.386
 2215SOL    HW2 7545   6.354   1.041   0.280
 2216SOL     OW 7546   1.825   0.627   6.019
 2216SOL    HW1 7547   1.924   0.621   6.030
 2216SOL    HW2 7548   1.782   0.639   6.108
 2217SOL     OW 7549   3.898   6.720   1.378
 2217SOL    HW1 7550   3.816   6.665   1.367
 2217SOL    HW2 7551   3.887   6.781   1.456
 2218SOL     OW 7552   0.299   6.146   7.015
 2218SOL    HW1 7553   0.322   6.134   6.919
 2218SOL    HW2 7554   0.331   6.068   0.051
 2219SOL     OW 7555   5.425   1.780   1.722
 2219SOL    HW1 7556   5.514   1.824   1.711
 2219SOL    HW2 7557   5.436   1.681   1.720
 2220SOL     OW 7558   1.539   0.600   4.603
 2220SOL    HW1 7559   1.607   0.553   4.546
 2220SOL    HW2 7560   1.493   0.671   4.549
 2221SOL     OW 7561   5.966   1.094   5.154
 2221SOL    HW1 7562   5.965   1.010   5.099
 2221SOL    HW2 7563   6.017   1.165   5.105
 2222SOL     OW 7564   4.932   0.586   0.463
 2222SOL    HW1 7565   4.993   0.597   0.385
 2222SOL    HW2 7566   4.972   0.523   0.529
 2223SOL     OW 7567   6.063   1.279   4.980
 2223SOL    HW1 7568   6.145   1.238   4.940
 2223SOL    HW2 7569   6.089   1.336   5.058
 2224SOL     OW 7570   0.882   3.822   0.346
 2224SOL    HW1 7571   0.866   3.882   0.425
 2224SOL    HW2 7572   0.794   3.799   0.304
 2225SOL     OW 7573   6.467   6.597   2.953
 2225SOL    HW1 7574   6.517   6.558   3.031
 2225SOL    HW2 7575   6.530   6.650   2.897
 2226SOL     OW 7576   3.767   4.992   0.940
 2226SOL    HW1 7577   3.749   5.044   0.856
 2226SOL    HW2 7578   3.784   4.896   0.917
 2227SOL     OW 7579   5.518   3.499   0.464
 2227SOL    HW1 7580   5.510   3.400   0.458
 2227SOL    HW2 7581   5.431   3.541   0.436
 2228SOL     OW 7582   2.829   5.012   0.976
 2228SOL    HW1 7583   2.843   4.922   0.935
 2228SOL    HW2 7584   2.917   5.048   1.008
 2229SOL     OW 7585   4.351   2.363   4.505
 2229SOL    HW1 7586   4.450   2.369   4.507
 2229SOL    HW2 7587   4.315   2.359   4.598
 2230SOL     OW 7588   5.943   5.817   6.815
 2230SOL    HW1 7589   5.886   5.744   6.853
 2230SOL    HW2 7590   5.886   5.881   6.765
 2231SOL     OW 7591   0.508   0.635   2.222
 2231SOL    HW1 7592   0.536   0.671   2.133
 2231SOL    HW2 7593   0.411   0.653   2.237
 2232SOL     OW 7594   0.007   2.999   5.043
 2232SOL    HW1 7595   7.005   3.096   5.025
 2232SOL    HW2 7596   0.086   2.992   5.104
 2233SOL     OW 7597   2.378   3.513   0.293
 2233SOL    HW1 7598   2.333   3.590   0.249
 2233SOL    HW2 7599   2.310   3.457   0.340
 2234SOL     OW 7600   3.836   1.758   1.674
 2234SOL    HW1 7601   3.779   1.676   1.671
 2234SOL    HW2 7602   3.805   1.818   1.747
 2235SOL     OW 7603   2.884   6.942   1.415
 2235SOL    HW1 7604   2.969   6.968   1.461
 2235SOL    HW2 7605   2.833   0.007   1.391
 2236SOL     OW 7606   1.669   4.726   6.072
 2236SOL    HW1 7607   1.711   4.788   6.005
 2236SOL    HW2 7608   1.570   4.724   6.058
 2237SOL     OW 7609   6.019   4.886   4.330
 2237SOL    HW1 7610   5.993   4.978   4.362
 2237SOL    HW2 7611   5.942   4.844   4.282
 2238SOL     OW 7612   5.319   4.600   1.013
 2238SOL    HW1 7613   5.369   4.669   1.065
 2238SOL    HW2 7614   5.347   4.603   0.917
 2239SOL     OW 7615   3.922   4.811   3.319
 2239SOL    HW1 7616   3.836   4.850   3.352
 2239SOL    HW2 7617   3.923   4.811   3.219
 2240SOL     OW 7618   5.356   5.550   4.056
 2240SOL    HW1 7619   5.413   5.617   4.104
 2240SOL    HW2 7620   5.293   5.598   3.995
 2241SOL     OW 7621   0.407   6.096   3.248
 2241SOL    HW1 7622   0.370   6.152   3.321
 2241SOL    HW2 7623   0.350   6.105   3.166
 2242SOL     OW 7624   4.819   2.297   2.849
 2242SOL    HW1 7625   4.848   2.386   2.814
 2242SOL    HW2 7626   4.813   2.232   2.773
 2243SOL     OW 7627   1.841   6.635   6.022
 2243SOL    HW1 7628   1.772   6.620   5.952
 2243SOL    HW2 7629   1.820   6.580   6.103
 2244SOL     OW 7630   1.803   6.547   1.758
 2244SOL    HW1 7631   1.752   6.573   1.676
 2244SOL    HW2 7632   1.756   6.471   1.804
 2245SOL     OW 7633   0.667   1.964   1.195
 2245SOL    HW1 7634   0.757   1.962   1.240
 2245SOL    HW2 7635   0.663   2.040   1.131
 2246SOL     OW 7636   1.035   2.302   5.187
 2246SOL    HW1 7637   1.063   2.230   5.249
 2246SOL    HW2 7638   0.936   2.296   5.170
 2247SOL     OW 7639   3.268   3.203   4.251
 2247SOL    HW1 7640   3.310   3.204   4.160
 2247SOL    HW2 7641   3.284   3.113   4.293
 2248SOL     OW 7642   5.022   3.924   5.397
 2248SOL    HW1 7643   5.025   3.872   5.482
 2248SOL    HW2 7644   5.094   3.891   5.335
 2249SOL     OW 7645   6.380   6.371   3.239
 2249SOL    HW1 7646   6.426   6.291   3.276
 2249SOL    HW2 7647   6.282   6.362   3.251
 2250SOL     OW 7648   4.431   3.599   6.482
 2250SOL    HW1 7649   4.480   3.682   6.509
 2250SOL    HW2 7650   4.478   3.556   6.406
 2251SOL     OW 7651   5.216   0.713   0.054
 2251SOL    HW1 7652   5.135   0.757   0.014
 2251SOL    HW2 7653   5.298   0.748   0.009
 2252SOL     OW 7654   4.931   3.192   2.637
 2252SOL    HW1 7655   4.914   3.147   2.549
 2252SOL    HW2 7656   4.879   3.146   2.709
 2253SOL     OW 7657   1.204   3.302   6.606
 2253SOL    HW1 7658   1.152   3.375   6.650
 2253SOL    HW2 7659   1.155   3.270   6.525
 2254SOL     OW 7660   3.955   2.984   5.349
 2254SOL    HW1 7661   3.907   2.985   5.262
 2254SOL    HW2 7662   4.029   3.051   5.347
 2255SOL     OW 7663   4.763   2.424   6.663
 2255SOL    HW1 7664   4.823   2.422   6.742
 2255SOL    HW2 7665   4.721   2.334   6.651
 2256SOL     OW 7666   5.783   5.919   1.347
 2256SOL    HW1 7667   5.828   5.830   1.353
 2256SOL    HW2 7668   5.769   5.943   1.251
 2257SOL     OW 7669   6.926   2.324   4.039
 2257SOL    HW1 7670   6.950   2.250   4.102
 2257SOL    HW2 7671   6.993   2.397   4.047
 2258SOL     OW 7672   1.296   5.306   5.516
 2258SOL    HW1 7673   1.389   5.315   5.481
 2258SOL    HW2 7674   1.263   5.396   5.544
 2259SOL     OW 7675   5.468   3.529   0.109
 2259SOL    HW1 7676   5.507   3.588   0.037
 2259SOL    HW2 7677   5.532   3.455   0.129
 2260SOL     OW 7678   6.299   4.613   2.122
 2260SOL    HW1 7679   6.204   4.603   2.093
 2260SOL    HW2 7680   6.304   4.674   2.201
 2261SOL     OW 7681   6.506   6.469   6.725
 2261SOL    HW1 7682   6.543   6.545   6.672
 2261SOL    HW2 7683   6.542   6.472   6.818
 2262SOL     OW 7684   5.352   1.574   2.489
 2262SOL    HW1 7685   5.344   1.665   2.530
 2262SOL    HW2 7686   5.266   1.524   2.500
 2263SOL     OW 7687   3.558   5.800   6.730
 2263SOL    HW1 7688   3.572   5.706   6.700
 2263SOL    HW2 7689   3.489   5.802   6.802
 2264SOL     OW 7690   2.980   3.888   0.373
 2264SOL    HW1 7691   2.941   3.796   0.370
 2264SOL    HW2 7692   2.921   3.948   0.427
 2265SOL     OW 7693   0.740   1.181   4.814
 2265SOL    HW1 7694   0.744   1.117   4.891
 2265SOL    HW2 7695   0.821   1.169   4.757
 2266SOL     OW 7696   5.634   1.993   0.428
 2266SOL    HW1 7697   5.666   1.913   0.377
 2266SOL    HW2 7698   5.546   2.023   0.390
 2267SOL     OW 7699   4.912   2.711   5.225
 2267SOL    HW1 7700   4.931   2.809   5.224
 2267SOL    HW2 7701   4.855   2.687   5.146
 2268SOL     OW 7702   6.547   3.609   6.594
 2268SOL    HW1 7703   6.492   3.579   6.516
 2268SOL    HW2 7704   6.609   3.536   6.620
 2269SOL     OW 7705   5.797   5.628   4.709
 2269SOL    HW1 7706   5.736   5.679   4.649
 2269SOL    HW2 7707   5.863   5.690   4.751
 2270SOL     OW 7708   3.300   2.339   6.291
 2270SOL    HW1 7709   3.271   2.417   6.347
 2270SOL    HW2 7710   3.356   2.372   6.214
 2271SOL     OW 7711   5.880   4.176   0.472
 2271SOL    HW1 7712   5.834   4.252   0.518
 2271SOL    HW2 7713   5.811   4.109   0.443
 2272SOL     OW 7714   6.328   2.239   6.081
 2272SOL    HW1 7715   6.387   2.164   6.049
 2272SOL    HW2 7716   6.330   2.314   6.014
 2273SOL     OW 7717   1.850   0.519   2.278
 2273SOL    HW1 7718   1.751   0.504   2.277
 2273SOL    HW2 7719   1.875   0.573   2.359
 2274SOL     OW 7720   0.195   2.950   6.486
 2274SOL    HW1 7721   0.136   2.975   6.563
 2274SOL    HW2 7722   0.146   2.968   6.400
 2275SOL     OW 7723   5.913   0.771   4.139
 2275SOL    HW1 7724   5.952   0.701   4.199
 2275SOL    HW2 7725   5.978   0.847   4.131
 2276SOL     OW 7726   2.258   4.994   1.157
 2276SOL    HW1 7727   2.269   5.087   1.193
 2276SOL    HW2 7728   2.346   4.947   1.157
 2277SOL     OW 7729   4.165   3.676   5.016
 2277SOL    HW1 7730   4.259   3.673   4.981
 2277SOL    HW2 7731   4.164   3.716   5.108
 2278SOL     OW 7732   6.532   4.942   3.923
 2278SOL    HW1 7733   6.506   4.990   4.007
 2278SOL    HW2 7734   6.617   4.892   3.937
 2279SOL     OW 7735   5.356   5.917   4.461
 2279SOL    HW1 7736   5.330   5.971   4.541
 2279SOL    HW2 7737   5.274   5.879   4.419
 2280SOL     OW 7738   0.192   6.627   4.405
 2280SOL    HW1 7739   0.241   6.699   4.455
 2280SOL    HW2 7740   0.107   6.605   4.453
 2281SOL     OW 7741   3.339   1.698   1.993
 2281SOL    HW1 7742   3.387   1.726   1.910
 2281SOL    HW2 7743   3.260   1.641   1.968
 2282SOL     OW 7744   4.910   0.152   4.845
 2282SOL    HW1 7745   4.817   0.190   4.845
 2282SOL    HW2 7746   4.909   0.063   4.890
 2283SOL     OW 7747   0.402   4.472   1.995
 2283SOL    HW1 7748   0.426   4.562   2.031
 2283SOL    HW2 7749   0.354   4.420   2.065
 2284SOL     OW 7750   1.894   2.183   6.746
 2284SOL    HW1 7751   1.954   2.168   6.668
 2284SOL    HW2 7752   1.948   2.185   6.830
 2285SOL     OW 7753   2.439   2.235   0.933
 2285SOL    HW1 7754   2.433   2.334   0.949
 2285SOL    HW2 7755   2.526   2.201   0.968
 2286SOL     OW 7756   6.909   0.402   4.125
 2286SOL    HW1 7757   6.816   0.379   4.153
 2286SOL    HW2 7758   6.966   0.320   4.126
 2287SOL     OW 7759   1.266   1.304   3.231
 2287SOL    HW1 7760   1.363   1.294   3.208
 2287SOL    HW2 7761   1.210   1.260   3.160
 2288SOL     OW 7762   6.433   5.310   4.878
 2288SOL    HW1 7763   6.362   5.256   4.833
 2288SOL    HW2 7764   6.457   5.268   4.966
 2289SOL     OW 7765   0.590   4.470   2.524
 2289SOL    HW1 7766   0.490   4.464   2.523
 2289SOL    HW2 7767   0.623   4.491   2.432
 2290SOL     OW 7768   1.504   4.557   1.819
 2290SOL    HW1 7769   1.547   4.470   1.838
 2290SOL    HW2 7770   1.570   4.631   1.831
 2291SOL     OW 7771   2.525   2.286   6.627
 2291SOL    HW1 7772   2.592   2.240   6.569
 2291SOL    HW2 7773   2.507   2.377   6.591
 2292SOL     OW 7774   5.799   2.134   4.384
 2292SOL    HW1 7775   5.746   2.076   4.445
 2292SOL    HW2 7776   5.886   2.090   4.364
 2293SOL     OW 7777   5.510   6.712   1.251
 2293SOL    HW1 7778   5.503   6.771   1.171
 2293SOL    HW2 7779   5.463   6.754   1.328
 2294SOL     OW 7780   3.102   1.242   6.422
 2294SOL    HW1 7781   3.124   1.324   6.369
 2294SOL    HW2 7782   3.141   1.162   6.378
 2295SOL     OW 7783   0.340   1.959   2.838
 2295SOL    HW1 7784   0.308   1.864   2.842
 2295SOL    HW2 7785   0.360   1.991   2.931
 2296SOL     OW 7786   3.636   6.059   1.922
 2296SOL    HW1 7787   3.568   6.058   1.996
 2296SOL    HW2 7788   3.597   6.016   1.841
 2297SOL     OW 7789   4.779   4.259   5.392
 2297SOL    HW1 7790   4.827   4.241   5.306
 2297SOL    HW2 7791   4.843   4.293   5.460
 2298SOL     OW 7792   4.185   3.187   1.929
 2298SOL    HW1 7793   4.186   3.283   1.954
 2298SOL    HW2 7794   4.119   3.138   1.986
 2299SOL     OW 7795   4.495   5.051   5.010
 2299SOL    HW1 7796   4.414   5.019   5.059
 2299SOL    HW2 7797   4.569   4.984   5.019
 2300SOL     OW 7798   2.300   5.838   1.883
 2300SOL    HW1 7799   2.286   5.901   1.960
 2300SOL    HW2 7800   2.236   5.860   1.810
 2301SOL     OW 7801   3.698   2.867   2.558
 2301SOL    HW1 7802   3.706   2.853   2.656
 2301SOL    HW2 7803   3.607   2.836   2.528
 2302SOL     OW 7804   3.271   6.923   0.881
 2302SOL    HW1 7805   3.340   6.861   0.918
 2302SOL    HW2 7806   3.314   6.989   0.820
 2303SOL     OW 7807   2.193   3.571   6.451
 2303SOL    HW1 7808   2.234   3.503   6.513
 2303SOL    HW2 7809   2.110   3.533   6.410
 2304SOL     OW 7810   5.155   6.629   3.992
 2304SOL    HW1 7811   5.249   6.634   4.028
 2304SOL    HW2 7812   5.091   6.664   4.061
 2305SOL     OW 7813   2.068   0.210   2.682
 2305SOL    HW1 7814   1.999   0.153   2.725
 2305SOL    HW2 7815   2.155   0.161   2.680
 2306SOL     OW 7816   2.625   4.918   1.884
 2306SOL    HW1 7817   2.612   4.863   1.801
 2306SOL    HW2 7818   2.581   4.873   1.961
 2307SOL     OW 7819   6.503   4.041   3.583
 2307SOL    HW1 7820   6.438   3.982   3.536
 2307SOL    HW2 7821   6.530   4.116   3.522
 2308SOL     OW 7822   1.540   4.995   1.335
 2308SOL    HW1 7823   1.526   5.092   1.354
 2308SOL    HW2 7824   1.580   4.984   1.245
 2309SOL     OW 7825   1.547   0.828   6.381
 2309SOL    HW1 7826   1.621   0.895   6.392
 2309SOL    HW2 7827   1.580   0.751   6.326
 2310SOL     OW 7828   5.476   6.288   0.230
 2310SOL    HW1 7829   5.485   6.221   0.303
 2310SOL    HW2 7830   5.460   6.242   0.143
 2311SOL     OW 7831   1.895   6.789   1.349
 2311SOL    HW1 7832   1.854   6.761   1.262
 2311SOL    HW2 7833   1.986   6.828   1.332
 2312SOL     OW 7834   3.840   6.095   2.750
 2312SOL    HW1 7835   3.864   6.064   2.658
 2312SOL    HW2 7836   3.850   6.195   2.755
 2313SOL     OW 7837   6.005   6.100   1.316
 2313SOL    HW1 7838   6.091   6.054   1.294
 2313SOL    HW2 7839   5.933   6.031   1.327
 2314SOL     OW 7840   5.691   6.791   3.895
 2314SOL    HW1 7841   5.664   6.709   3.845
 2314SOL    HW2 7842   5.706   6.866   3.830
 2315SOL     OW 7843   4.855   3.175   6.201
 2315SOL    HW1 7844   4.946   3.135   6.205
 2315SOL    HW2 7845   4.858   3.270   6.233
 2316SOL     OW 7846   3.715   1.071   4.206
 2316SOL    HW1 7847   3.630   1.118   4.230
 2316SOL    HW2 7848   3.696   0.975   4.190
 2317SOL     OW 7849   0.799   6.595   2.979
 2317SOL    HW1 7850   0.882   6.591   2.924
 2317SOL    HW2 7851   0.740   6.517   2.956
 2318SOL     OW 7852   1.832   2.940   4.110
 2318SOL    HW1 7853   1.841   2.859   4.168
 2318SOL    HW2 7854   1.923   2.978   4.093
 2319SOL     OW 7855   1.992   4.661   4.080
 2319SOL    HW1 7856   2.050   4.580   4.079
 2319SOL    HW2 7857   2.026   4.728   4.014
 2320SOL     OW 7858   0.957   2.168   4.887
 2320SOL    HW1 7859   0.902   2.224   4.949
 2320SOL    HW2 7860   0.918   2.077   4.881
 2321SOL     OW 7861   2.402   0.632   0.276
 2321SOL    HW1 7862   2.364   0.647   0.184
 2321SOL    HW2 7863   2.389   0.536   0.302
 2322SOL     OW 7864   3.299   1.568   4.431
 2322SOL    HW1 7865   3.311   1.667   4.444
 2322SOL    HW2 7866   3.210   1.551   4.388
 2323SOL     OW 7867   2.803   5.222   1.697
 2323SOL    HW1 7868   2.758   5.201   1.610
 2323SOL    HW2 7869   2.766   5.307   1.734
 2324SOL     OW 7870   6.512   6.970   1.743
 2324SOL    HW1 7871   6.542   6.913   1.667
 2324SOL    HW2 7872   6.446   6.920   1.799
 2325SOL     OW 7873   1.516   4.863   2.269
 2325SOL    HW1 7874   1.559   4.846   2.358
 2325SOL    HW2 7875   1.451   4.789   2.249
 2326SOL     OW 7876   3.152   6.152   5.442
 2326SOL    HW1 7877   3.082   6.187   5.505
 2326SOL    HW2 7878   3.184   6.063   5.474
 2327SOL     OW 7879   6.431   3.024   4.374
 2327SOL    HW1 7880   6.359   3.031   4.305
 2327SOL    HW2 7881   6.444   2.928   4.399
 2328SOL     OW 7882   3.233   1.899   2.598
 2328SOL    HW1 7883   3.222   1.991   2.561
 2328SOL    HW2 7884   3.188   1.893   2.688
 2329SOL     OW 7885   1.433   3.579   5.184
 2329SOL    HW1 7886   1.484   3.665   5.182
 2329SOL    HW2 7887   1.484   3.508   5.135
 2330SOL     OW 7888   0.945   3.814   1.682
 2330SOL    HW1 7889   1.043   3.814   1.664
 2330SOL    HW2 7890   0.929   3.789   1.778
 2331SOL     OW 7891   5.981   4.838   1.096
 2331SOL    HW1 7892   5.904   4.797   1.048
 2331SOL    HW2 7893   5.981   4.805   1.191
 2332SOL     OW 7894   4.802   1.582   5.100
 2332SOL    HW1 7895   4.716   1.556   5.144
 2332SOL    HW2 7896   4.872   1.597   5.170
 2333SOL     OW 7897   0.592   5.554   2.989
 2333SOL    HW1 7898   0.604   5.457   3.012
 2333SOL    HW2 7899   0.593   5.565   2.890
 2334SOL     OW 7900   2.349   0.046   6.811
 2334SOL    HW1 7901   2.361   0.050   6.910
 2334SOL    HW2 7902   2.251   0.053   6.789
 2335SOL     OW 7903   5.671   1.591   2.585
 2335SOL    HW1 7904   5.742   1.629   2.643
 2335SOL    HW2 7905   5.598   1.659   2.573
 2336SOL     OW 7906   4.524   2.032   4.584
 2336SOL    HW1 7907   4.555   2.127   4.577
 2336SOL    HW2 7908   4.430   2.025   4.549
 2337SOL     OW 7909   4.168   1.014   3.088
 2337SOL    HW1 7910   4.106   1.052   3.019
 2337SOL    HW2 7911   4.127   0.932   3.128
 2338SOL     OW 7912   1.013   1.723   5.917
 2338SOL    HW1 7913   1.105   1.755   5.936
 2338SOL    HW2 7914   0.961   1.795   5.871
 2339SOL     OW 7915   3.945   4.031   4.925
 2339SOL    HW1 7916   3.956   3.932   4.914
 2339SOL    HW2 7917   4.012   4.078   4.867
 2340SOL     OW 7918   5.163   4.913   0.132
 2340SOL    HW1 7919   5.074   4.904   0.088
 2340SOL    HW2 7920   5.197   5.006   0.119
 2341SOL     OW 7921   5.365   4.193   1.348
 2341SOL    HW1 7922   5.357   4.098   1.380
 2341SOL    HW2 7923   5.420   4.195   1.265
 2342SOL     OW 7924   0.502   6.551   5.149
 2342SOL    HW1 7925   0.542   6.488   5.082
 2342SOL    HW2 7926   0.565   6.627   5.164
 2343SOL     OW 7927   1.695   6.388   2.691
 2343SOL    HW1 7928   1.787   6.349   2.688
 2343SOL    HW2 7929   1.633   6.325   2.736
 2344SOL     OW 7930   1.583   1.009   1.146
 2344SOL    HW1 7931   1.508   1.063   1.184
 2344SOL    HW2 7932   1.627   1.062   1.073
 2345SOL     OW 7933   3.221   5.177   5.677
 2345SOL    HW1 7934   3.155   5.218   5.740
 2345SOL    HW2 7935   3.311   5.175   5.720
 2346SOL     OW 7936   4.642   2.772   5.107
 2346SOL    HW1 7937   4.703   2.836   5.154
 2346SOL    HW2 7938   4.614   2.812   5.019
 2347SOL     OW 7939   2.635   3.392   1.739
 2347SOL    HW1 7940   2.634   3.471   1.677
 2347SOL    HW2 7941   2.564   3.404   1.809
 2348SOL     OW 7942   3.907   6.153   3.176
 2348SOL    HW1 7943   3.962   6.161   3.259
 2348SOL    HW2 7944   3.932   6.225   3.111
 2349SOL     OW 7945   0.460   4.846   5.873
 2349SOL    HW1 7946   0.386   4.872   5.811
 2349SOL    HW2 7947   0.437   4.877   5.966
 2350SOL     OW 7948   5.716   6.971   6.535
 2350SOL    HW1 7949   5.641   7.006   6.591
 2350SOL    HW2 7950   5.776   0.030   6.509
 2351SOL     OW 7951   3.369   5.042   2.289
 2351SOL    HW1 7952   3.283   5.082   2.258
 2351SOL    HW2 7953   3.350   4.955   2.335
 2352SOL     OW 7954   0.906   3.245   2.055
 2352SOL    HW1 7955   0.857   3.273   2.137
 2352SOL    HW2 7956   0.874   3.299   1.977
 2353SOL     OW 7957   3.207   4.550   5.409
 2353SOL    HW1 7958   3.180   4.474   5.350
 2353SOL    HW2 7959   3.169   4.537   5.501
 2354SOL     OW 7960   3.107   1.901   6.229
 2354SOL    HW1 7961   3.200   1.896   6.265
 2354SOL    HW2 7962   3.097   1.833   6.156
 2355SOL     OW 7963   1.367   5.816   6.685
 2355SOL    HW1 7964   1.397   5.782   6.774
 2355SOL    HW2 7965   1.318   5.745   6.636
 2356SOL     OW 7966   2.202   3.725   0.202
 2356SOL    HW1 7967   2.126   3.769   0.249
 2356SOL    HW2 7968   2.260   3.795   0.160
 2357SOL     OW 7969   4.248   5.163   3.735
 2357SOL    HW1 7970   4.213   5.090   3.675
 2357SOL    HW2 7971   4.285   5.122   3.819
 2358SOL     OW 7972   2.724   5.328   5.552
 2358SOL    HW1 7973   2.753   5.406   5.496
 2358SOL    HW2 7974   2.714   5.357   5.647
 2359SOL     OW 7975   0.064   0.766   5.671
 2359SOL    HW1 7976   0.144   0.783   5.613
 2359SOL    HW2 7977   0.089   0.776   5.767
 2360SOL     OW 7978   5.216   6.412   6.011
 2360SOL    HW1 7979   5.211   6.347   5.936
 2360SOL    HW2 7980   5.130   6.462   6.018
 2361SOL     OW 7981   2.922   0.732   5.325
 2361SOL    HW1 7982   2.982   0.810   5.336
 2361SOL    HW2 7983   2.836   0.749   5.373
 2362SOL     OW 7984   2.681   0.559   5.379
 2362SOL    HW1 7985   2.763   0.547   5.324
 2362SOL    HW2 7986   2.603   0.515   5.334
 2363SOL     OW 7987   3.931   2.422   5.754
 2363SOL    HW1 7988   4.009   2.369   5.721
 2363SOL    HW2 7989   3.895   2.381   5.837
 2364SOL     OW 7990   0.264   2.613   2.967
 2364SOL    HW1 7991   0.186   2.596   3.026
 2364SOL    HW2 7992   0.337   2.548   2.990
 2365SOL     OW 7993   6.304   2.426   5.858
 2365SOL    HW1 7994   6.392   2.467   5.879
 2365SOL    HW2 7995   6.242   2.495   5.820
 2366SOL     OW 7996   1.538   4.820   5.724
 2366SOL    HW1 7997   1.632   4.792   5.702
 2366SOL    HW2 7998   1.507   4.887   5.656
 2367SOL     OW 7999   3.803   4.060   6.937
 2367SOL    HW1 8000   3.783   4.131   6.869
 2367SOL    HW2 8001   3.727   4.054   7.001
 2368SOL     OW 8002   5.030   0.259   3.368
 2368SOL    HW1 8003   4.955   0.195   3.385
 2368SOL    HW2 8004   5.098   0.216   3.310
 2369SOL     OW 8005   2.061   2.630   5.153
 2369SOL    HW1 8006   2.102   2.542   5.133
 2369SOL    HW2 8007   1.982   2.644   5.093
 2370SOL     OW 8008   5.054   3.895   6.743
 2370SOL    HW1 8009   5.025   3.948   6.663
 2370SOL    HW2 8010   5.084   3.958   6.815
 2371SOL     OW 8011   1.250   6.091   1.825
 2371SOL    HW1 8012   1.177   6.041   1.872
 2371SOL    HW2 8013   1.339   6.060   1.858
 2372SOL     OW 8014   0.397   2.080   1.690
 2372SOL    HW1 8015   0.491   2.073   1.724
 2372SOL    HW2 8016   0.398   2.079   1.590
 2373SOL     OW 8017   6.542   6.848   0.281
 2373SOL    HW1 8018   6.489   6.930   0.260
 2373SOL    HW2 8019   6.637   6.873   0.300
 2374SOL     OW 8020   6.117   0.978   4.119
 2374SOL    HW1 8021   6.161   1.032   4.191
 2374SOL    HW2 8022   6.142   1.016   4.030
 2375SOL     OW 8023   2.103   6.602   4.878
 2375SOL    HW1 8024   2.034   6.529   4.875
 2375SOL    HW2 8025   2.169   6.589   4.805
 2376SOL     OW 8026   5.696   2.095   3.851
 2376SOL    HW1 8027   5.713   2.100   3.949
 2376SOL    HW2 8028   5.599   2.110   3.833
 2377SOL     OW 8029   3.400   4.131   2.984
 2377SOL    HW1 8030   3.451   4.212   3.013
 2377SOL    HW2 8031   3.426   4.108   2.890
 2378SOL     OW 8032   5.138   2.375   6.776
 2378SOL    HW1 8033   5.144   2.275   6.785
 2378SOL    HW2 8034   5.056   2.408   6.824
 2379SOL     OW 8035   6.496   1.588   6.500
 2379SOL    HW1 8036   6.412   1.625   6.461
 2379SOL    HW2 8037   6.482   1.571   6.598
 2380SOL     OW 8038   6.697   6.462   6.131
 2380SOL    HW1 8039   6.693   6.542   6.072
 2380SOL    HW2 8040   6.618   6.403   6.112
 2381SOL     OW 8041   2.225   4.111   4.126
 2381SOL    HW1 8042   2.294   4.180   4.146
 2381SOL    HW2 8043   2.134   4.150   4.136
 2382SOL     OW 8044   2.562   4.978   3.153
 2382SOL    HW1 8045   2.526   4.991   3.245
 2382SOL    HW2 8046   2.493   5.003   3.086
 2383SOL     OW 8047   5.393   6.010   0.080
 2383SOL    HW1 8048   5.378   5.942   0.151
 2383SOL    HW2 8049   5.463   5.978   0.016
 2384SOL     OW 8050   0.208   6.868   2.134
 2384SOL    HW1 8051   0.217   6.933   2.210
 2384SOL    HW2 8052   0.219   6.917   2.047
 2385SOL     OW 8053   6.145   6.725   1.692
 2385SOL    HW1 8054   6.087   6.644   1.684
 2385SOL    HW2 8055   6.240   6.700   1.676
 2386SOL     OW 8056   5.352   4.668   4.242
 2386SOL    HW1 8057   5.441   4.671   4.288
 2386SOL    HW2 8058   5.279   4.663   4.310
 2387SOL     OW 8059   0.209   1.964   3.401
 2387SOL    HW1 8060   0.275   2.027   3.443
 2387SOL    HW2 8061   0.130   2.016   3.368
 2388SOL     OW 8062   1.314   2.104   4.000
 2388SOL    HW1 8063   1.296   2.177   4.067
 2388SOL    HW2 8064   1.389   2.047   4.033
 2389SOL     OW 8065   5.435   3.331   3.762
 2389SOL    HW1 8066   5.511   3.305   3.822
 2389SOL    HW2 8067   5.359   3.366   3.818
 2390SOL     OW 8068   3.295   3.635   4.266
 2390SOL    HW1 8069   3.244   3.566   4.213
 2390SOL    HW2 8070   3.295   3.609   4.362
 2391SOL     OW 8071   4.574   4.323   5.653
 2391SOL    HW1 8072   4.628   4.251   5.698
 2391SOL    HW2 8073   4.528   4.285   5.574
 2392SOL     OW 8074   3.464   6.650   5.280
 2392SOL    HW1 8075   3.523   6.729   5.262
 2392SOL    HW2 8076   3.520   6.572   5.306
 2393SOL     OW 8077   4.135   5.002   0.675
 2393SOL    HW1 8078   4.066   4.965   0.614
 2393SOL    HW2 8079   4.202   4.932   0.698
 2394SOL     OW 8080   1.495   2.959   4.800
 2394SOL    HW1 8081   1.501   2.922   4.708
 2394SOL    HW2 8082   1.534   3.051   4.802
 2395SOL     OW 8083   6.072   2.833   0.222
 2395SOL    HW1 8084   6.161   2.787   0.229
 2395SOL    HW2 8085   6.045   2.839   0.126
 2396SOL     OW 8086   4.311   5.833   0.113
 2396SOL    HW1 8087   4.223   5.787   0.102
 2396SOL    HW2 8088   4.312   5.883   0.200
 2397SOL     OW 8089   0.104   3.580   0.334
 2397SOL    HW1 8090   0.092   3.560   0.431
 2397SOL    HW2 8091   0.144   3.501   0.288
 2398SOL     OW 8092   3.113   4.286   6.194
 2398SOL    HW1 8093   3.170   4.334   6.261
 2398SOL    HW2 8094   3.159   4.203   6.163
 2399SOL     OW 8095   4.710   1.172   2.460
 2399SOL    HW1 8096   4.672   1.123   2.539
 2399SOL    HW2 8097   4.734   1.107   2.388
 2400SOL     OW 8098   4.049   4.841   0.438
 2400SOL    HW1 8099   3.976   4.816   0.375
 2400SOL    HW2 8100   4.133   4.794   0.411
 2401SOL     OW 8101   3.873   0.717   6.334
 2401SOL    HW1 8102   3.878   0.627   6.378
 2401SOL    HW2 8103   3.792   0.765   6.366
 2402SOL     OW 8104   0.562   2.011   4.133
 2402SOL    HW1 8105   0.578   2.026   4.230
 2402SOL    HW2 8106   0.508   1.928   4.121
 2403SOL     OW 8107   2.942   2.957   7.010
 2403SOL    HW1 8108   2.942   2.964   6.911
 2403SOL    HW2 8109   2.947   3.049   0.033
 2404SOL     OW 8110   5.767   0.913   1.978
 2404SOL    HW1 8111   5.866   0.906   1.966
 2404SOL    HW2 8112   5.746   0.981   2.048
 2405SOL     OW 8113   3.222   3.526   3.579
 2405SOL    HW1 8114   3.202   3.611   3.530
 2405SOL    HW2 8115   3.307   3.486   3.543
 2406SOL     OW 8116   1.597   0.291   3.711
 2406SOL    HW1 8117   1.553   0.215   3.663
 2406SOL    HW2 8118   1.538   0.322   3.786
 2407SOL     OW 8119   4.802   3.076   2.840
 2407SOL    HW1 8120   4.722   3.017   2.849
 2407SOL    HW2 8121   4.883   3.027   2.873
 2408SOL     OW 8122   3.030   4.857   2.423
 2408SOL    HW1 8123   3.126   4.833   2.431
 2408SOL    HW2 8124   2.995   4.828   2.334
 2409SOL     OW 8125   1.889   2.492   1.843
 2409SOL    HW1 8126   1.920   2.581   1.809
 2409SOL    HW2 8127   1.968   2.441   1.878
 2410SOL     OW 8128   5.193   2.626   6.201
 2410SOL    HW1 8129   5.254   2.699   6.170
 2410SOL    HW2 8130   5.173   2.638   6.298
 2411SOL     OW 8131   4.532   5.487   5.608
 2411SOL    HW1 8132   4.525   5.489   5.508
 2411SOL    HW2 8133   4.466   5.551   5.647
 2412SOL     OW 8134   2.868   4.087   6.936
 2412SOL    HW1 8135   2.855   4.180   6.902
 2412SOL    HW2 8136   2.900   4.028   6.861
 2413SOL     OW 8137   6.366   2.737   6.866
 2413SOL    HW1 8138   6.382   2.767   6.772
 2413SOL    HW2 8139   6.453   2.735   6.915
 2414SOL     OW 8140   5.907   4.295   2.237
 2414SOL    HW1 8141   5.954   4.221   2.188
 2414SOL    HW2 8142   5.917   4.280   2.336
 2415SOL     OW 8143   0.854   6.754   1.014
 2415SOL    HW1 8144   0.765   6.742   0.970
 2415SOL    HW2 8145   0.848   6.728   1.110
 2416SOL     OW 8146   3.200   2.068   5.222
 2416SOL    HW1 8147   3.150   2.106   5.300
 2416SOL    HW2 8148   3.215   2.141   5.154
 2417SOL     OW 8149   4.132   2.719   6.353
 2417SOL    HW1 8150   4.204   2.789   6.364
 2417SOL    HW2 8151   4.096   2.695   6.443
 2418SOL     OW 8152   2.898   3.424   3.204
 2418SOL    HW1 8153   2.804   3.399   3.225
 2418SOL    HW2 8154   2.960   3.354   3.239
 2419SOL     OW 8155   0.693   6.531   3.470
 2419SOL    HW1 8156   0.665   6.617   3.426
 2419SOL    HW2 8157   0.620   6.464   3.463
 2420SOL     OW 8158   3.456   0.964   2.452
 2420SOL    HW1 8159   3.480   1.039   2.390
 2420SOL    HW2 8160   3.401   1.000   2.527
 2421SOL     OW 8161   2.695   1.191   5.367
 2421SOL    HW1 8162   2.754   1.123   5.409
 2421SOL    HW2 8163   2.716   1.199   5.269
 2422SOL     OW 8164   5.283   0.464   1.687
 2422SOL    HW1 8165   5.324   0.420   1.607
 2422SOL    HW2 8166   5.354   0.486   1.753
 2423SOL     OW 8167   1.762   5.756   3.748
 2423SOL    HW1 8168   1.842   5.733   3.803
 2423SOL    HW2 8169   1.786   5.755   3.651
 2424SOL     OW 8170   5.677   6.415   5.953
 2424SOL    HW1 8171   5.755   6.388   5.895
 2424SOL    HW2 8172   5.605   6.454   5.896
 2425SOL     OW 8173   6.027   0.225   4.178
 2425SOL    HW1 8174   6.110   0.251   4.227
 2425SOL    HW2 8175   5.951   0.284   4.207
 2426SOL     OW 8176   0.822   4.563   3.921
 2426SOL    HW1 8177   0.844   4.645   3.973
 2426SOL    HW2 8178   0.819   4.584   3.824
 2427SOL     OW 8179   6.463   5.276   6.636
 2427SOL    HW1 8180   6.414   5.232   6.710
 2427SOL    HW2 8181   6.561   5.256   6.644
 2428SOL     OW 8182   0.027   0.017   3.626
 2428SOL    HW1 8183   6.951   0.047   3.645
 2428SOL    HW2 8184   0.059   6.976   3.701
 2429SOL     OW 8185   6.627   6.041   4.282
 2429SOL    HW1 8186   6.529   6.024   4.277
 2429SOL    HW2 8187   6.667   5.989   4.358
 2430SOL     OW 8188   5.940   2.498   1.840
 2430SOL    HW1 8189   5.881   2.577   1.855
 2430SOL    HW2 8190   6.021   2.526   1.787
 2431SOL     OW 8191   3.686   0.183   1.791
 2431SOL    HW1 8192   3.700   0.261   1.853
 2431SOL    HW2 8193   3.766   0.123   1.794
 2432SOL     OW 8194   3.631   6.503   3.375
 2432SOL    HW1 8195   3.624   6.579   3.310
 2432SOL    HW2 8196   3.615   6.416   3.327
 2433SOL     OW 8197   3.097   6.551   0.657
 2433SOL    HW1 8198   3.134   6.526   0.746
 2433SOL    HW2 8199   2.999   6.534   0.654
 2434SOL     OW 8200   4.012   1.342   3.296
 2434SOL    HW1 8201   3.925   1.390   3.307
 2434SOL    HW2 8202   4.034   1.295   3.381
 2435SOL     OW 8203   4.687   5.631   5.816
 2435SOL    HW1 8204   4.630   5.587   5.746
 2435SOL    HW2 8205   4.673   5.730   5.813
 2436SOL     OW 8206   1.537   6.971   0.814
 2436SOL    HW1 8207   1.592   6.994   0.733
 2436SOL    HW2 8208   1.460   0.017   0.820
 2437SOL     OW 8209   3.659   5.562   0.741
 2437SOL    HW1 8210   3.713   5.514   0.810
 2437SOL    HW2 8211   3.571   5.588   0.781
 2438SOL     OW 8212   3.938   1.560   5.375
 2438SOL    HW1 8213   3.847   1.580   5.339
 2438SOL    HW2 8214   3.959   1.620   5.452
 2439SOL     OW 8215   1.391   4.264   0.048
 2439SOL    HW1 8216   1.404   4.177   0.097
 2439SOL    HW2 8217   1.477   4.314   0.047
 2440SOL     OW 8218   3.717   6.528   5.156
 2440SOL    HW1 8219   3.720   6.428   5.147
 2440SOL    HW2 8220   3.652   6.565   5.090
 2441SOL     OW 8221   6.288   0.766   0.237
 2441SOL    HW1 8222   6.226   0.833   0.277
 2441SOL    HW2 8223   6.380   0.805   0.230
 2442SOL     OW 8224   0.060   5.889   3.816
 2442SOL    HW1 8225   0.128   5.940   3.763
 2442SOL    HW2 8226   0.106   5.822   3.874
 2443SOL     OW 8227   3.409   6.612   6.391
 2443SOL    HW1 8228   3.321   6.624   6.437
 2443SOL    HW2 8229   3.482   6.652   6.446
 2444SOL     OW 8230   3.987   4.199   6.331
 2444SOL    HW1 8231   3.913   4.177   6.395
 2444SOL    HW2 8232   4.046   4.270   6.371
 2445SOL     OW 8233   6.893   1.158   2.295
 2445SOL    HW1 8234   6.972   1.203   2.254
 2445SOL    HW2 8235   6.874   1.073   2.246
 2446SOL     OW 8236   0.265   3.195   4.446
 2446SOL    HW1 8237   0.282   3.097   4.455
 2446SOL    HW2 8238   0.216   3.212   4.361
 2447SOL     OW 8239   2.337   1.203   1.042
 2447SOL    HW1 8240   2.324   1.151   1.126
 2447SOL    HW2 8241   2.400   1.153   0.982
 2448SOL     OW 8242   0.759   0.270   4.635
 2448SOL    HW1 8243   0.727   0.196   4.694
 2448SOL    HW2 8244   0.691   0.288   4.564
 2449SOL     OW 8245   7.003   4.293   2.398
 2449SOL    HW1 8246   6.918   4.252   2.366
 2449SOL    HW2 8247   6.991   4.391   2.411
 2450SOL     OW 8248   2.733   4.676   4.312
 2450SOL    HW1 8249   2.669   4.743   4.350
 2450SOL    HW2 8250   2.812   4.723   4.272
 2451SOL     OW 8251   0.138   6.952   4.322
 2451SOL    HW1 8252   0.117   6.902   4.238
 2451SOL    HW2 8253   0.234   6.981   4.320
 2452SOL     OW 8254   2.989   2.188   3.218
 2452SOL    HW1 8255   2.980   2.123   3.142
 2452SOL    HW2 8256   2.902   2.235   3.232
 2453SOL     OW 8257   0.087   3.449   0.584
 2453SOL    HW1 8258   0.044   3.473   0.671
 2453SOL    HW2 8259   0.183   3.424   0.599
 2454SOL     OW 8260   3.318   0.757   0.213
 2454SOL    HW1 8261   3.350   0.748   0.119
 2454SOL    HW2 8262   3.371   0.827   0.260
 2455SOL     OW 8263   5.282   6.966   0.704
 2455SOL    HW1 8264   5.247   7.015   0.783
 2455SOL    HW2 8265   5.348   0.007   0.655
 2456SOL     OW 8266   5.536   1.037   6.724
 2456SOL    HW1 8267   5.514   1.117   6.669
 2456SOL    HW2 8268   5.629   1.006   6.703
 2457SOL     OW 8269   5.883   6.187   6.620
 2457SOL    HW1 8270   5.860   6.089   6.622
 2457SOL    HW2 8271   5.831   6.232   6.548
 2458SOL     OW 8272   2.321   5.826   4.086
 2458SOL    HW1 8273   2.221   5.829   4.086
 2458SOL    HW2 8274   2.352   5.736   4.057
 2459SOL     OW 8275   2.710   6.267   0.340
 2459SOL    HW1 8276   2.807   6.285   0.326
 2459SOL    HW2 8277   2.673   6.333   0.406
 2460SOL     OW 8278   1.866   1.399   1.570
 2460SOL    HW1 8279   1.785   1.340   1.565
 2460SOL    HW2 8280   1.840   1.490   1.602
 2461SOL     OW 8281   4.343   0.175   3.126
 2461SOL    HW1 8282   4.340   0.257   3.184
 2461SOL    HW2 8283   4.432   0.130   3.137
 2462SOL     OW 8284   2.662   5.486   6.852
 2462SOL    HW1 8285   2.572   5.471   6.810
 2462SOL    HW2 8286   2.733   5.448   6.792
 2463SOL     OW 8287   6.280   2.629   4.019
 2463SOL    HW1 8288   6.350   2.584   3.964
 2463SOL    HW2 8289   6.297   2.727   4.021
 2464SOL     OW 8290   1.912   4.089   1.484
 2464SOL    HW1 8291   1.947   3.997   1.504
 2464SOL    HW2 8292   1.867   4.088   1.395
 2465SOL     OW 8293   0.650   6.935   1.688
 2465SOL    HW1 8294   0.641   6.839   1.713
 2465SOL    HW2 8295   0.601   6.993   1.753
 2466SOL     OW 8296   3.151   1.526   1.873
 2466SOL    HW1 8297   3.143   1.448   1.811
 2466SOL    HW2 8298   3.060   1.557   1.900
 2467SOL     OW 8299   5.816   1.520   5.088
 2467SOL    HW1 8300   5.720   1.497   5.073
 2467SOL    HW2 8301   5.852   1.567   5.007
 2468SOL     OW 8302   5.793   6.124   2.539
 2468SOL    HW1 8303   5.819   6.125   2.442
 2468SOL    HW2 8304   5.856   6.182   2.591
 2469SOL     OW 8305   4.117   4.677   5.359
 2469SOL    HW1 8306   4.087   4.582   5.353
 2469SOL    HW2 8307   4.174   4.699   5.280
 2470SOL     OW 8308   3.687   4.459   6.217
 2470SOL    HW1 8309   3.733   4.480   6.302
 2470SOL    HW2 8310   3.617   4.389   6.233
 2471SOL     OW 8311   2.311   6.443   0.654
 2471SOL    HW1 8312   2.341   6.535   0.679
 2471SOL    HW2 8313   2.237   6.448   0.587
 2472SOL     OW 8314   4.502   2.239   3.807
 2472SOL    HW1 8315   4.431   2.276   3.746
 2472SOL    HW2 8316   4.587   2.227   3.756
 2473SOL     OW 8317   2.081   4.206   5.185
 2473SOL    HW1 8318   2.120   4.117   5.160
 2473SOL    HW2 8319   2.154   4.269   5.209
 2474SOL     OW 8320   0.525   5.630   0.442
 2474SOL    HW1 8321   0.434   5.656   0.472
 2474SOL    HW2 8322   0.586   5.710   0.446
 2475SOL     OW 8323   5.112   1.309   1.008
 2475SOL    HW1 8324   5.097   1.232   0.946
 2475SOL    HW2 8325   5.042   1.307   1.080
 2476SOL     OW 8326   0.811   2.810   3.692
 2476SOL    HW1 8327   0.736   2.766   3.642
 2476SOL    HW2 8328   0.780   2.896   3.732
 2477SOL     OW 8329   5.323   0.971   2.600
 2477SOL    HW1 8330   5.260   1.044   2.574
 2477SOL    HW2 8331   5.384   0.952   2.523
 2478SOL     OW 8332   5.545   0.592   2.216
 2478SOL    HW1 8333   5.537   0.650   2.135
 2478SOL    HW2 8334   5.518   0.498   2.193
 2479SOL     OW 8335   1.586   3.841   1.121
 2479SOL    HW1 8336   1.555   3.882   1.035
 2479SOL    HW2 8337   1.574   3.907   1.196
 2480SOL     OW 8338   5.866   4.679   0.833
 2480SOL    HW1 8339   5.962   4.705   0.828
 2480SOL    HW2 8340   5.829   4.670   0.741
 2481SOL     OW 8341   2.540   0.085   0.447
 2481SOL    HW1 8342   2.618   0.106   0.388
 2481SOL    HW2 8343   2.478   0.163   0.449
 2482SOL     OW 8344   4.898   2.697   5.810
 2482SOL    HW1 8345   4.954   2.748   5.875
 2482SOL    HW2 8346   4.839   2.633   5.860
 2483SOL     OW 8347   2.268   1.418   7.009
 2483SOL    HW1 8348   2.197   1.473   6.966
 2483SOL    HW2 8349   2.350   1.419   6.953
 2484SOL     OW 8350   1.984   0.648   0.405
 2484SOL    HW1 8351   1.910   0.629   0.342
 2484SOL    HW2 8352   2.024   0.562   0.437
 2485SOL     OW 8353   4.730   4.750   2.197
 2485SOL    HW1 8354   4.646   4.804   2.190
 2485SOL    HW2 8355   4.746   4.726   2.293
 2486SOL     OW 8356   3.564   5.276   3.527
 2486SOL    HW1 8357   3.504   5.308   3.600
 2486SOL    HW2 8358   3.626   5.206   3.563
 2487SOL     OW 8359   4.024   5.365   6.876
 2487SOL    HW1 8360   3.938   5.407   6.851
 2487SOL    HW2 8361   4.033   5.277   6.829
 2488SOL     OW 8362   2.045   4.148   2.614
 2488SOL    HW1 8363   1.969   4.160   2.679
 2488SOL    HW2 8364   2.049   4.226   2.552
 2489SOL     OW 8365   2.368   6.100   3.728
 2489SOL    HW1 8366   2.366   6.000   3.724
 2489SOL    HW2 8367   2.433   6.135   3.661
 2490SOL     OW 8368   6.586   5.635   0.937
 2490SOL    HW1 8369   6.682   5.646   0.911
 2490SOL    HW2 8370   6.556   5.543   0.913
 2491SOL     OW 8371   2.774   6.382   1.470
 2491SOL    HW1 8372   2.710   6.305   1.465
 2491SOL    HW2 8373   2.811   6.389   1.563
 2492SOL     OW 8374   4.520   3.215   6.940
 2492SOL    HW1 8375   4.553   3.306   6.913
 2492SOL    HW2 8376   4.444   3.224   7.004
 2493SOL     OW 8377   5.725   0.034   2.686
 2493SOL    HW1 8378   5.699   6.964   2.644
 2493SOL    HW2 8379   5.764   0.094   2.616
 2494SOL     OW 8380   5.865   3.601   2.755
 2494SOL    HW1 8381   5.769   3.603   2.783
 2494SOL    HW2 8382   5.881   3.523   2.694
 2495SOL     OW 8383   4.957   0.032   4.576
 2495SOL    HW1 8384   4.922   0.111   4.627
 2495SOL    HW2 8385   4.894   0.010   4.502
 2496SOL     OW 8386   0.710   4.642   6.211
 2496SOL    HW1 8387   0.699   4.544   6.194
 2496SOL    HW2 8388   0.772   4.681   6.143
 2497SOL     OW 8389   0.611   1.193   0.854
 2497SOL    HW1 8390   0.679   1.250   0.901
 2497SOL    HW2 8391   0.650   1.102   0.836
 2498SOL     OW 8392   3.121   2.113   3.450
 2498SOL    HW1 8393   3.092   2.130   3.356
 2498SOL    HW2 8394   3.114   2.016   3.471
 2499SOL     OW 8395   5.146   1.714   4.347
 2499SOL    HW1 8396   5.192   1.656   4.279
 2499SOL    HW2 8397   5.048   1.694   4.348
 2500SOL     OW 8398   4.167   3.296   5.842
 2500SOL    HW1 8399   4.216   3.244   5.772
 2500SOL    HW2 8400   4.205   3.388   5.849
 2501SOL     OW 8401   0.340   5.890   6.865
 2501SOL    HW1 8402   0.414   5.823   6.862
 2501SOL    HW2 8403   0.324   5.925   6.772
 2502SOL     OW 8404   2.561   6.132   3.506
 2502SOL    HW1 8405   2.562   6.134   3.406
 2502SOL    HW2 8406   2.582   6.223   3.541
 2503SOL     OW 8407   3.522   5.706   6.097
 2503SOL    HW1 8408   3.432   5.667   6.082
 2503SOL    HW2 8409   3.519   5.804   6.080
 2504SOL     OW 8410   3.378   5.423   5.550
 2504SOL    HW1 8411   3.323   5.345   5.522
 2504SOL    HW2 8412   3.323   5.506   5.547
 2505SOL     OW 8413   1.751   6.358   4.147
 2505SOL    HW1 8414   1.693   6.301   4.090
 2505SOL    HW2 8415   1.695   6.401   4.219
 2506SOL     OW 8416   6.219   3.148   6.135
 2506SOL    HW1 8417   6.291   3.143   6.065
 2506SOL    HW2 8418   6.202   3.244   6.157
 2507SOL     OW 8419   0.131   3.970   0.326
 2507SOL    HW1 8420   0.069   3.910   0.275
 2507SOL    HW2 8421   0.168   4.039   0.264
 2508SOL     OW 8422   3.086   1.208   2.413
 2508SOL    HW1 8423   3.095   1.258   2.327
 2508SOL    HW2 8424   2.990   1.203   2.439
 2509SOL     OW 8425   5.940   2.907   2.853
 2509SOL    HW1 8426   5.864   2.843   2.842
 2509SOL    HW2 8427   5.908   2.989   2.900
 2510SOL     OW 8428   3.519   4.714   1.259
 2510SOL    HW1 8429   3.533   4.667   1.172
 2510SOL    HW2 8430   3.536   4.812   1.247
 2511SOL     OW 8431   2.370   2.360   4.496
 2511SOL    HW1 8432   2.307   2.403   4.561
 2511SOL    HW2 8433   2.328   2.276   4.459
 2512SOL     OW 8434   5.174   5.308   5.670
 2512SOL    HW1 8435   5.090   5.261   5.698
 2512SOL    HW2 8436   5.169   5.404   5.698
 2513SOL     OW 8437   1.032   3.236   5.547
 2513SOL    HW1 8438   1.056   3.324   5.506
 2513SOL    HW2 8439   0.950   3.200   5.501
 2514SOL     OW 8440   6.789   3.731   4.429
 2514SOL    HW1 8441   6.705   3.739   4.483
 2514SOL    HW2 8442   6.765   3.714   4.333
 2515SOL     OW 8443   1.284   0.066   0.806
 2515SOL    HW1 8444   1.273   0.159   0.772
 2515SOL    HW2 8445   1.220   0.005   0.760
 2516SOL     OW 8446   5.802   6.675   3.406
 2516SOL    HW1 8447   5.767   6.723   3.326
 2516SOL    HW2 8448   5.782   6.578   3.398
 2517SOL     OW 8449   1.629   5.547   5.574
 2517SOL    HW1 8450   1.706   5.530   5.636
 2517SOL    HW2 8451   1.593   5.639   5.590
 2518SOL     OW 8452   2.254   2.922   0.189
 2518SOL    HW1 8453   2.201   2.858   0.134
 2518SOL    HW2 8454   2.233   2.908   0.286
 2519SOL     OW 8455   4.984   5.467   4.450
 2519SOL    HW1 8456   5.072   5.499   4.487
 2519SOL    HW2 8457   4.931   5.423   4.523
 2520SOL     OW 8458   1.322   2.847   0.792
 2520SOL    HW1 8459   1.233   2.831   0.749
 2520SOL    HW2 8460   1.354   2.763   0.835
 2521SOL     OW 8461   0.993   6.634   5.586
 2521SOL    HW1 8462   0.914   6.578   5.558
 2521SOL    HW2 8463   1.075   6.577   5.587
 2522SOL     OW 8464   0.976   3.045   5.949
 2522SOL    HW1 8465   1.013   3.133   5.921
 2522SOL    HW2 8466   0.982   2.980   5.873
 2523SOL     OW 8467   0.489   3.150   1.040
 2523SOL    HW1 8468   0.569   3.093   1.021
 2523SOL    HW2 8469   0.449   3.122   1.128
 2524SOL     OW 8470   0.624   5.835   4.115
 2524SOL    HW1 8471   0.587   5.878   4.197
 2524SOL    HW2 8472   0.577   5.870   4.034
 2525SOL     OW 8473   1.288   2.527   4.696
 2525SOL    HW1 8474   1.333   2.484   4.774
 2525SOL    HW2 8475   1.215   2.587   4.728
 2526SOL     OW 8476   1.329   4.014   5.712
 2526SOL    HW1 8477   1.322   4.110   5.743
 2526SOL    HW2 8478   1.346   3.956   5.791
 2527SOL     OW 8479   4.619   6.960   4.663
 2527SOL    HW1 8480   4.685   6.905   4.612
 2527SOL    HW2 8481   4.570   6.902   4.728
 2528SOL     OW 8482   6.149   4.434   1.134
 2528SOL    HW1 8483   6.149   4.334   1.129
 2528SOL    HW2 8484   6.241   4.469   1.118
 2529SOL     OW 8485   5.932   5.806   6.021
 2529SOL    HW1 8486   5.840   5.840   6.039
 2529SOL    HW2 8487   5.940   5.712   6.053
 2530SOL     OW 8488   1.087   5.815   4.859
 2530SOL    HW1 8489   1.151   5.798   4.783
 2530SOL    HW2 8490   1.004   5.857   4.823
 2531SOL     OW 8491   5.508   5.480   4.458
 2531SOL    HW1 8492   5.493   5.400   4.399
 2531SOL    HW2 8493   5.511   5.450   4.554
 2532SOL     OW 8494   0.691   5.791   0.822
 2532SOL    HW1 8495   0.725   5.703   0.790
 2532SOL    HW2 8496   0.647   5.839   0.746
 2533SOL     OW 8497   4.952   6.306   3.603
 2533SOL    HW1 8498   5.006   6.345   3.678
 2533SOL    HW2 8499   4.877   6.368   3.581
 2534SOL     OW 8500   2.070   0.064   3.655
 2534SOL    HW1 8501   2.072   0.023   3.746
 2534SOL    HW2 8502   1.975   0.069   3.624
 2535SOL     OW 8503   2.595   2.572   6.919
 2535SOL    HW1 8504   2.545   2.487   6.938
 2535SOL    HW2 8505   2.672   2.552   6.859
 2536SOL     OW 8506   0.409   1.782   3.383
 2536SOL    HW1 8507   0.453   1.794   3.472
 2536SOL    HW2 8508   0.332   1.846   3.375
 2537SOL     OW 8509   5.510   5.474   6.854
 2537SOL    HW1 8510   5.415   5.465   6.823
 2537SOL    HW2 8511   5.572   5.436   6.785
 2538SOL     OW 8512   1.364   4.222   4.573
 2538SOL    HW1 8513   1.418   4.261   4.647
 2538SOL    HW2 8514   1.420   4.218   4.489
 2539SOL     OW 8515   4.499   6.999   5.777
 2539SOL    HW1 8516   4.457   0.062   5.736
 2539SOL    HW2 8517   4.440   6.919   5.763
 2540SOL     OW 8518   4.911   0.931   0.991
 2540SOL    HW1 8519   4.964   0.867   0.936
 2540SOL    HW2 8520   4.819   0.894   1.006
 2541SOL     OW 8521   1.582   0.279   5.899
 2541SOL    HW1 8522   1.578   0.260   5.801
 2541SOL    HW2 8523   1.647   0.354   5.916
 2542SOL     OW 8524   3.945   1.417   5.101
 2542SOL    HW1 8525   4.026   1.438   5.046
 2542SOL    HW2 8526   3.927   1.493   5.163
 2543SOL     OW 8527   1.891   0.960   2.740
 2543SOL    HW1 8528   1.897   0.992   2.834
 2543SOL    HW2 8529   1.796   0.940   2.717
 2544SOL     OW 8530   0.497   5.144   2.772
 2544SOL    HW1 8531   0.590   5.124   2.740
 2544SOL    HW2 8532   0.431   5.097   2.714
 2545SOL     OW 8533   1.518   0.586   1.331
 2545SOL    HW1 8534   1.596   0.636   1.293
 2545SOL    HW2 8535   1.495   0.509   1.272
 2546SOL     OW 8536   6.169   3.228   1.758
 2546SOL    HW1 8537   6.162   3.219   1.857
 2546SOL    HW2 8538   6.221   3.311   1.736
 2547SOL     OW 8539   5.281   5.404   6.723
 2547SOL    HW1 8540   5.278   5.306   6.704
 2547SOL    HW2 8541   5.189   5.437   6.742
 2548SOL     OW 8542   2.469   0.865   5.503
 2548SOL    HW1 8543   2.520   0.880   5.418
 2548SOL    HW2 8544   2.514   0.795   5.557
 2549SOL     OW 8545   2.397   1.789   2.092
 2549SOL    HW1 8546   2.350   1.706   2.122
 2549SOL    HW2 8547   2.391   1.859   2.163
 2550SOL     OW 8548   6.546   0.850   6.565
 2550SOL    HW1 8549   6.538   0.949   6.570
 2550SOL    HW2 8550   6.458   0.808   6.585
 2551SOL     OW 8551   3.086   5.346   0.023
 2551SOL    HW1 8552   3.105   5.382   6.950
 2551SOL    HW2 8553   3.167   5.356   0.081
 2552SOL     OW 8554   1.696   5.455   6.000
 2552SOL    HW1 8555   1.669   5.551   6.004
 2552SOL    HW2 8556   1.620   5.401   5.963
 2553SOL     OW 8557   2.799   3.243   6.609
 2553SOL    HW1 8558   2.709   3.235   6.568
 2553SOL    HW2 8559   2.869   3.236   6.538
 2554SOL     OW 8560   1.517   5.884   6.465
 2554SOL    HW1 8561   1.473   5.836   6.541
 2554SOL    HW2 8562   1.613   5.857   6.459
 2555SOL     OW 8563   6.225   6.459   6.668
 2555SOL    HW1 8564   6.317   6.459   6.706
 2555SOL    HW2 8565   6.207   6.371   6.625
 2556SOL     OW 8566   4.149   6.043   0.779
 2556SOL    HW1 8567   4.175   6.108   0.851
 2556SOL    HW2 8568   4.111   6.093   0.701
 2557SOL     OW 8569   2.483   1.792   6.662
 2557SOL    HW1 8570   2.411   1.761   6.600
 2557SOL    HW2 8571   2.499   1.889   6.650
 2558SOL     OW 8572   3.855   3.835   5.918
 2558SOL    HW1 8573   3.770   3.864   5.874
 2558SOL    HW2 8574   3.881   3.745   5.882
 2559SOL     OW 8575   6.606   3.338   4.180
 2559SOL    HW1 8576   6.642   3.266   4.240
 2559SOL    HW2 8577   6.618   3.311   4.084
 2560SOL     OW 8578   4.907   3.394   4.150
 2560SOL    HW1 8579   4.933   3.347   4.066
 2560SOL    HW2 8580   4.859   3.331   4.211
 2561SOL     OW 8581   3.571   0.633   3.510
 2561SOL    HW1 8582   3.498   0.639   3.578
 2561SOL    HW2 8583   3.531   0.629   3.419
 2562SOL     OW 8584   2.189   5.351   2.607
 2562SOL    HW1 8585   2.101   5.350   2.654
 2562SOL    HW2 8586   2.213   5.445   2.584
 2563SOL     OW 8587   4.395   1.626   6.348
 2563SOL    HW1 8588   4.476   1.680   6.371
 2563SOL    HW2 8589   4.317   1.687   6.333
 2564SOL     OW 8590   1.220   6.410   6.408
 2564SOL    HW1 8591   1.215   6.487   6.471
 2564SOL    HW2 8592   1.162   6.335   6.442
 2565SOL     OW 8593   0.176   0.716   0.894
 2565SOL    HW1 8594   0.232   0.653   0.947
 2565SOL    HW2 8595   0.106   0.665   0.844
 2566SOL     OW 8596   1.107   6.897   0.560
 2566SOL    HW1 8597   1.054   6.812   0.569
 2566SOL    HW2 8598   1.201   6.874   0.535
 2567SOL     OW 8599   1.539   1.071   2.141
 2567SOL    HW1 8600   1.508   1.149   2.194
 2567SOL    HW2 8601   1.522   0.987   2.193
 2568SOL     OW 8602   2.683   0.414   0.323
 2568SOL    HW1 8603   2.639   0.342   0.268
 2568SOL    HW2 8604   2.701   0.493   0.265
 2569SOL     OW 8605   1.970   1.225   2.592
 2569SOL    HW1 8606   1.915   1.294   2.544
 2569SOL    HW2 8607   1.910   1.172   2.653
 2570SOL     OW 8608   5.602   0.276   5.991
 2570SOL    HW1 8609   5.664   0.348   6.022
 2570SOL    HW2 8610   5.553   0.238   6.069
 2571SOL     OW 8611   2.986   3.273   4.199
 2571SOL    HW1 8612   2.968   3.351   4.139
 2571SOL    HW2 8613   3.083   3.273   4.224
 2572SOL     OW 8614   1.479   6.574   1.674
 2572SOL    HW1 8615   1.394   6.625   1.687
 2572SOL    HW2 8616   1.531   6.615   1.599
 2573SOL     OW 8617   6.241   1.347   1.935
 2573SOL    HW1 8618   6.213   1.282   1.863
 2573SOL    HW2 8619   6.330   1.386   1.911
 2574SOL     OW 8620   6.971   3.180   0.044
 2574SOL    HW1 8621   0.033   3.138   0.087
 2574SOL    HW2 8622   6.909   3.214   0.114
 2575SOL     OW 8623   4.666   4.100   1.312
 2575SOL    HW1 8624   4.641   4.003   1.320
 2575SOL    HW2 8625   4.603   4.145   1.249
 2576SOL     OW 8626   3.794   0.080   3.881
 2576SOL    HW1 8627   3.729   0.056   3.809
 2576SOL    HW2 8628   3.795   0.010   3.951
 2577SOL     OW 8629   4.455   0.291   2.568
 2577SOL    HW1 8630   4.505   0.364   2.521
 2577SOL    HW2 8631   4.476   0.292   2.665
 2578SOL     OW 8632   4.326   3.114   5.679
 2578SOL    HW1 8633   4.403   3.077   5.629
 2578SOL    HW2 8634   4.241   3.074   5.645
 2579SOL     OW 8635   1.077   1.231   4.450
 2579SOL    HW1 8636   1.046   1.245   4.356
 2579SOL    HW2 8637   1.060   1.137   4.477
 2580SOL     OW 8638   1.505   3.035   6.392
 2580SOL    HW1 8639   1.452   3.053   6.475
 2580SOL    HW2 8640   1.444   3.000   6.320
 2581SOL     OW 8641   6.148   4.923   1.716
 2581SOL    HW1 8642   6.213   4.942   1.789
 2581SOL    HW2 8643   6.173   4.837   1.671
 2582SOL     OW 8644   1.582   3.945   2.927
 2582SOL    HW1 8645   1.602   3.847   2.927
 2582SOL    HW2 8646   1.656   3.993   2.879
 2583SOL     OW 8647   1.351   1.394   1.319
 2583SOL    HW1 8648   1.327   1.313   1.371
 2583SOL    HW2 8649   1.369   1.470   1.382
 2584SOL     OW 8650   3.352   5.588   0.140
 2584SOL    HW1 8651   3.383   5.606   0.233
 2584SOL    HW2 8652   3.431   5.577   0.080
 2585SOL     OW 8653   3.145   0.565   0.172
 2585SOL    HW1 8654   3.217   0.627   0.203
 2585SOL    HW2 8655   3.127   0.581   0.075
 2586SOL     OW 8656   4.700   1.895   3.986
 2586SOL    HW1 8657   4.773   1.899   4.055
 2586SOL    HW2 8658   4.741   1.897   3.895
 2587SOL     OW 8659   6.770   1.217   4.166
 2587SOL    HW1 8660   6.704   1.147   4.193
 2587SOL    HW2 8661   6.723   1.289   4.115
 2588SOL     OW 8662   4.767   6.772   0.661
 2588SOL    HW1 8663   4.678   6.803   0.626
 2588SOL    HW2 8664   4.831   6.763   0.585
 2589SOL     OW 8665   0.145   6.552   5.406
 2589SOL    HW1 8666   0.193   6.603   5.477
 2589SOL    HW2 8667   0.074   6.609   5.366
 2590SOL     OW 8668   3.475   6.525   1.989
 2590SOL    HW1 8669   3.531   6.600   2.023
 2590SOL    HW2 8670   3.533   6.456   1.947
 2591SOL     OW 8671   6.346   6.077   2.572
 2591SOL    HW1 8672   6.436   6.052   2.608
 2591SOL    HW2 8673   6.275   6.032   2.626
 2592SOL     OW 8674   2.167   6.897   1.317
 2592SOL    HW1 8675   2.217   6.981   1.295
 2592SOL    HW2 8676   2.176   6.877   1.414
 2593SOL     OW 8677   3.195   6.554   2.047
 2593SOL    HW1 8678   3.290   6.565   2.019
 2593SOL    HW2 8679   3.179   6.605   2.132
 2594SOL     OW 8680   0.194   6.475   5.813
 2594SOL    HW1 8681   0.214   6.551   5.752
 2594SOL    HW2 8682   0.176   6.510   5.905
 2595SOL     OW 8683   6.315   1.875   5.361
 2595SOL    HW1 8684   6.315   1.808   5.435
 2595SOL    HW2 8685   6.235   1.934   5.369
 2596SOL     OW 8686   3.889   2.235   1.761
 2596SOL    HW1 8687   3.920   2.149   1.803
 2596SOL    HW2 8688   3.795   2.253   1.788
 2597SOL     OW 8689   1.979   3.863   0.303
 2597SOL    HW1 8690   1.949   3.797   0.373
 2597SOL    HW2 8691   1.957   3.956   0.334
 2598SOL     OW 8692   6.793   1.545   4.584
 2598SOL    HW1 8693   6.819   1.451   4.564
 2598SOL    HW2 8694   6.697   1.548   4.611
 2599SOL     OW 8695   2.639   0.492   0.692
 2599SOL    HW1 8696   2.558   0.477   0.636
 2599SOL    HW2 8697   2.644   0.588   0.719
 2600SOL     OW 8698   4.909   3.489   4.633
 2600SOL    HW1 8699   4.924   3.587   4.621
 2600SOL    HW2 8700   4.922   3.464   4.729
 2601SOL     OW 8701   3.022   1.556   6.881
 2601SOL    HW1 8702   3.049   1.460   6.874
 2601SOL    HW2 8703   3.093   1.614   6.841
 2602SOL     OW 8704   6.744   5.146   3.764
 2602SOL    HW1 8705   6.719   5.132   3.860
 2602SOL    HW2 8706   6.689   5.219   3.724
 2603SOL     OW 8707   2.223   2.375   1.636
 2603SOL    HW1 8708   2.211   2.407   1.542
 2603SOL    HW2 8709   2.234   2.276   1.636
 2604SOL     OW 8710   5.034   1.243   2.764
 2604SOL    HW1 8711   4.983   1.160   2.742
 2604SOL    HW2 8712   4.971   1.321   2.768
 2605SOL     OW 8713   2.850   4.902   3.225
 2605SOL    HW1 8714   2.813   4.841   3.295
 2605SOL    HW2 8715   2.941   4.871   3.198
 2606SOL     OW 8716   0.209   4.639   0.839
 2606SOL    HW1 8717   0.158   4.598   0.914
 2606SOL    HW2 8718   0.246   4.727   0.867
 2607SOL     OW 8719   0.749   1.764   5.724
 2607SOL    HW1 8720   0.691   1.762   5.806
 2607SOL    HW2 8721   0.777   1.671   5.700
 2608SOL     OW 8722   3.923   5.477   2.552
 2608SOL    HW1 8723   3.860   5.529   2.609
 2608SOL    HW2 8724   3.886   5.385   2.536
 2609SOL     OW 8725   0.730   2.175   1.568
 2609SOL    HW1 8726   0.692   2.210   1.483
 2609SOL    HW2 8727   0.713   2.241   1.642
 2610SOL     OW 8728   6.879   4.879   4.517
 2610SOL    HW1 8729   6.845   4.872   4.610
 2610SOL    HW2 8730   6.952   4.812   4.502
 2611SOL     OW 8731   5.503   6.482   1.523
 2611SOL    HW1 8732   5.489   6.393   1.568
 2611SOL    HW2 8733   5.591   6.520   1.551
 2612SOL     OW 8734   6.828   7.004   5.761
 2612SOL    HW1 8735   6.851   6.924   5.817
 2612SOL    HW2 8736   6.777   0.052   5.817
 2613SOL     OW 8737   2.744   6.599   1.165
 2613SOL    HW1 8738   2.779   6.591   1.072
 2613SOL    HW2 8739   2.748   6.695   1.193
 2614SOL     OW 8740   6.784   0.206   5.957
 2614SOL    HW1 8741   6.707   0.190   6.019
 2614SOL    HW2 8742   6.865   0.232   6.009
 2615SOL     OW 8743   6.234   3.884   2.799
 2615SOL    HW1 8744   6.211   3.879   2.896
 2615SOL    HW2 8745   6.303   3.954   2.785
 2616SOL     OW 8746   3.737   3.542   3.514
 2616SOL    HW1 8747   3.670   3.616   3.522
 2616SOL    HW2 8748   3.765   3.512   3.605
 2617SOL     OW 8749   4.130   6.216   1.096
 2617SOL    HW1 8750   4.173   6.239   1.184
 2617SOL    HW2 8751   4.152   6.287   1.030
 2618SOL     OW 8752   0.161   6.728   4.003
 2618SOL    HW1 8753   0.251   6.770   4.020
 2618SOL    HW2 8754   0.138   6.736   3.906
 2619SOL     OW 8755   3.063   1.467   3.503
 2619SOL    HW1 8756   3.112   1.459   3.590
 2619SOL    HW2 8757   3.118   1.520   3.438
 2620SOL     OW 8758   0.696   6.355   2.909
 2620SOL    HW1 8759   0.740   6.275   2.870
 2620SOL    HW2 8760   0.606   6.367   2.867
 2621SOL     OW 8761   1.853   5.511   2.730
 2621SOL    HW1 8762   1.769   5.491   2.678
 2621SOL    HW2 8763   1.879   5.430   2.782
 2622SOL     OW 8764   2.687   1.655   6.585
 2622SOL    HW1 8765   2.746   1.727   6.549
 2622SOL    HW2 8766   2.600   1.695   6.613
 2623SOL     OW 8767   3.489   2.048   4.679
 2623SOL    HW1 8768   3.391   2.054   4.661
 2623SOL    HW2 8769   3.504   2.020   4.774
 2624SOL     OW 8770   6.627   2.862   5.247
 2624SOL    HW1 8771   6.577   2.777   5.231
 2624SOL    HW2 8772   6.717   2.857   5.204
 2625SOL     OW 8773   3.238   2.412   5.865
 2625SOL    HW1 8774   3.221   2.316   5.844
 2625SOL    HW2 8775   3.157   2.451   5.910
 2626SOL     OW 8776   0.301   0.519   4.878
 2626SOL    HW1 8777   0.228   0.588   4.883
 2626SOL    HW2 8778   0.279   0.444   4.940
 2627SOL     OW 8779   0.791   0.501   5.010
 2627SOL    HW1 8780   0.860   0.431   5.028
 2627SOL    HW2 8781   0.829   0.591   5.029
 2628SOL     OW 8782   2.099   4.732   6.601
 2628SOL    HW1 8783   2.135   4.810   6.549
 2628SOL    HW2 8784   2.133   4.736   6.695
 2629SOL     OW 8785   3.431   4.196   1.755
 2629SOL    HW1 8786   3.359   4.211   1.687
 2629SOL    HW2 8787   3.394   4.142   1.831
 2630SOL     OW 8788   3.249   1.476   3.706
 2630SOL    HW1 8789   3.235   1.568   3.670
 2630SOL    HW2 8790   3.346   1.463   3.727
 2631SOL     OW 8791   5.009   0.249   4.124
 2631SOL    HW1 8792   4.958   0.269   4.040
 2631SOL    HW2 8793   5.003   0.327   4.186
 2632SOL     OW 8794   3.003   1.800   6.691
 2632SOL    HW1 8795   3.094   1.799   6.731
 2632SOL    HW2 8796   2.977   1.893   6.667
 2633SOL     OW 8797   6.338   1.894   5.852
 2633SOL    HW1 8798   6.423   1.906   5.801
 2633SOL    HW2 8799   6.272   1.965   5.825
 2634SOL     OW 8800   1.439   3.978   3.136
 2634SOL    HW1 8801   1.490   3.973   3.049
 2634SOL    HW2 8802   1.362   4.040   3.125
 2635SOL     OW 8803   5.853   6.031   5.259
 2635SOL    HW1 8804   5.903   6.020   5.345
 2635SOL    HW2 8805   5.903   5.985   5.185
 2636SOL     OW 8806   4.888   0.410   5.216
 2636SOL    HW1 8807   4.901   0.471   5.294
 2636SOL    HW2 8808   4.923   0.453   5.133
 2637SOL     OW 8809   5.332   1.871   3.718
 2637SOL    HW1 8810   5.295   1.805   3.784
 2637SOL    HW2 8811   5.385   1.823   3.648
 2638SOL     OW 8812   6.892   6.949   2.697
 2638SOL    HW1 8813   6.980   6.982   2.730
 2638SOL    HW2 8814   6.858   7.010   2.625
 2639SOL     OW 8815   0.763   0.031   1.959
 2639SOL    HW1 8816   0.785   0.126   1.983
 2639SOL    HW2 8817   0.844   6.992   1.966
 2640SOL     OW 8818   0.149   6.070   4.797
 2640SOL    HW1 8819   0.160   6.084   4.895
 2640SOL    HW2 8820   0.154   6.158   4.750
 2641SOL     OW 8821   4.862   3.226   1.827
 2641SOL    HW1 8822   4.787   3.187   1.881
 2641SOL    HW2 8823   4.939   3.163   1.828
 2642SOL     OW 8824   4.328   6.949   4.055
 2642SOL    HW1 8825   4.339   6.922   4.151
 2642SOL    HW2 8826   4.271   6.882   4.007
 2643SOL     OW 8827   0.953   4.041   2.352
 2643SOL    HW1 8828   0.859   4.063   2.375
 2643SOL    HW2 8829   0.982   3.958   2.400
 2644SOL     OW 8830   6.130   5.998   6.043
 2644SOL    HW1 8831   6.070   5.920   6.031
 2644SOL    HW2 8832   6.145   6.043   5.955
 2645SOL     OW 8833   4.559   5.316   3.838
 2645SOL    HW1 8834   4.495   5.307   3.761
 2645SOL    HW2 8835   4.615   5.234   3.845
 2646SOL     OW 8836   5.993   0.379   6.843
 2646SOL    HW1 8837   5.941   0.459   6.874
 2646SOL    HW2 8838   5.938   0.297   6.851
 2647SOL     OW 8839   6.180   0.407   2.146
 2647SOL    HW1 8840   6.207   0.318   2.184
 2647SOL    HW2 8841   6.086   0.400   2.110
 2648SOL     OW 8842   0.246   0.194   3.644
 2648SOL    HW1 8843   0.177   0.124   3.623
 2648SOL    HW2 8844   0.206   0.285   3.634
 2649SOL     OW 8845   5.794   3.517   6.440
 2649SOL    HW1 8846   5.759   3.492   6.531
 2649SOL    HW2 8847   5.884   3.558   6.450
 2650SOL     OW 8848   0.577   3.812   4.337
 2650SOL    HW1 8849   0.516   3.891   4.335
 2650SOL    HW2 8850   0.525   3.730   4.363
 2651SOL     OW 8851   0.150   2.266   0.022
 2651SOL    HW1 8852   0.249   2.253   0.015
 2651SOL    HW2 8853   0.111   2.189   0.073
 2652SOL     OW 8854   3.283   3.853   3.819
 2652SOL    HW1 8855   3.264   3.758   3.843
 2652SOL    HW2 8856   3.227   3.914   3.874
 2653SOL     OW 8857   5.211   0.331   5.692
 2653SOL    HW1 8858   5.275   0.407   5.701
 2653SOL    HW2 8859   5.245   0.252   5.743
 2654SOL     OW 8860   5.173   4.986   1.020
 2654SOL    HW1 8861   5.117   5.063   1.052
 2654SOL    HW2 8862   5.137   4.952   0.933
 2655SOL     OW 8863   4.869   4.778   4.220
 2655SOL    HW1 8864   4.932   4.701   4.233
 2655SOL    HW2 8865   4.799   4.775   4.291
 2656SOL     OW 8866   3.596   4.888   4.115
 2656SOL    HW1 8867   3.550   4.932   4.192
 2656SOL    HW2 8868   3.685   4.853   4.145
 2657SOL     OW 8869   1.948   4.286   6.519
 2657SOL    HW1 8870   1.954   4.386   6.523
 2657SOL    HW2 8871   2.027   4.247   6.567
 2658SOL     OW 8872   5.048   4.331   0.487
 2658SOL    HW1 8873   5.099   4.352   0.570
 2658SOL    HW2 8874   5.097   4.261   0.435
 2659SOL     OW 8875   6.053   2.859   4.627
 2659SOL    HW1 8876   6.152   2.851   4.644
 2659SOL    HW2 8877   6.004   2.813   4.701
 2660SOL     OW 8878   0.584   1.703   1.168
 2660SOL    HW1 8879   0.601   1.801   1.175
 2660SOL    HW2 8880   0.546   1.669   1.254
 2661SOL     OW 8881   2.330   6.217   0.908
 2661SOL    HW1 8882   2.289   6.233   0.998
 2661SOL    HW2 8883   2.371   6.302   0.874
 2662SOL     OW 8884   4.539   0.133   5.162
 2662SOL    HW1 8885   4.441   0.153   5.166
 2662SOL    HW2 8886   4.553   0.043   5.122
 2663SOL     OW 8887   2.515   4.217   0.734
 2663SOL    HW1 8888   2.591   4.177   0.786
 2663SOL    HW2 8889   2.430   4.170   0.757
 2664SOL     OW 8890   3.981   3.774   4.857
 2664SOL    HW1 8891   3.891   3.740   4.883
 2664SOL    HW2 8892   4.052   3.721   4.904
 2665SOL     OW 8893   2.797   2.435   5.136
 2665SOL    HW1 8894   2.783   2.340   5.165
 2665SOL    HW2 8895   2.836   2.487   5.211
 2666SOL     OW 8896   5.097   3.849   1.632
 2666SOL    HW1 8897   5.147   3.868   1.716
 2666SOL    HW2 8898   5.137   3.769   1.587
 2667SOL     OW 8899   1.631   6.178   4.006
 2667SOL    HW1 8900   1.554   6.177   4.070
 2667SOL    HW2 8901   1.640   6.088   3.963
 2668SOL     OW 8902   6.072   3.446   4.055
 2668SOL    HW1 8903   5.973   3.448   4.045
 2668SOL    HW2 8904   6.115   3.493   3.977
 2669SOL     OW 8905   3.075   4.778   5.248
 2669SOL    HW1 8906   3.113   4.750   5.336
 2669SOL    HW2 8907   3.025   4.701   5.207
 2670SOL     OW 8908   5.579   2.333   6.597
 2670SOL    HW1 8909   5.591   2.238   6.568
 2670SOL    HW2 8910   5.605   2.343   6.693
 2671SOL     OW 8911   3.391   5.341   6.820
 2671SOL    HW1 8912   3.294   5.360   6.805
 2671SOL    HW2 8913   3.420   5.268   6.758
 2672SOL     OW 8914   0.023   4.744   0.629
 2672SOL    HW1 8915   0.071   4.688   0.696
 2672SOL    HW2 8916   0.060   4.725   0.538
 2673SOL     OW 8917   6.284   1.714   3.797
 2673SOL    HW1 8918   6.213   1.760   3.850
 2673SOL    HW2 8919   6.322   1.777   3.729
 2674SOL     OW 8920   1.628   3.878   3.786
 2674SOL    HW1 8921   1.705   3.933   3.754
 2674SOL    HW2 8922   1.633   3.870   3.885
 2675SOL     OW 8923   6.462   5.019   4.610
 2675SOL    HW1 8924   6.457   4.919   4.611
 2675SOL    HW2 8925   6.378   5.057   4.649
 2676SOL     OW 8926   4.623   1.709   1.822
 2676SOL    HW1 8927   4.592   1.709   1.917
 2676SOL    HW2 8928   4.547   1.734   1.762
 2677SOL     OW 8929   3.097   4.172   0.191
 2677SOL    HW1 8930   3.178   4.230   0.184
 2677SOL    HW2 8931   3.015   4.228   0.192
 2678SOL     OW 8932   6.620   3.954   1.416
 2678SOL    HW1 8933   6.592   3.981   1.508
 2678SOL    HW2 8934   6.670   4.029   1.373
 2679SOL     OW 8935   3.149   5.330   1.017
 2679SOL    HW1 8936   3.237   5.377   1.009
 2679SOL    HW2 8937   3.088   5.382   1.076
 2680SOL     OW 8938   0.615   1.690   0.525
 2680SOL    HW1 8939   0.632   1.716   0.430
 2680SOL    HW2 8940   0.576   1.768   0.574
 2681SOL     OW 8941   1.671   2.464   4.567
 2681SOL    HW1 8942   1.687   2.388   4.630
 2681SOL    HW2 8943   1.725   2.451   4.484
 2682SOL     OW 8944   5.532   4.067   2.649
 2682SOL    HW1 8945   5.549   4.056   2.746
 2682SOL    HW2 8946   5.548   3.980   2.602
 2683SOL     OW 8947   2.530   3.709   0.425
 2683SOL    HW1 8948   2.473   3.646   0.371
 2683SOL    HW2 8949   2.471   3.769   0.479
 2684SOL     OW 8950   4.351   5.915   1.395
 2684SOL    HW1 8951   4.335   5.978   1.471
 2684SOL    HW2 8952   4.391   5.830   1.429
 2685SOL     OW 8953   6.120   6.035   6.822
 2685SOL    HW1 8954   6.035   5.991   6.852
 2685SOL    HW2 8955   6.161   6.084   6.899
 2686SOL     OW 8956   1.709   1.715   5.495
 2686SOL    HW1 8957   1.742   1.667   5.414
 2686SOL    HW2 8958   1.609   1.710   5.498
 2687SOL     OW 8959   4.393   4.658   2.286
 2687SOL    HW1 8960   4.455   4.583   2.260
 2687SOL    HW2 8961   4.446   4.739   2.309
 2688SOL     OW 8962   4.936   5.291   0.075
 2688SOL    HW1 8963   4.887   5.377   0.090
 2688SOL    HW2 8964   4.880   5.231   0.018
 2689SOL     OW 8965   1.514   3.084   3.547
 2689SOL    HW1 8966   1.604   3.121   3.523
 2689SOL    HW2 8967   1.496   3.102   3.644
 2690SOL     OW 8968   3.481   3.424   4.013
 2690SOL    HW1 8969   3.530   3.348   4.055
 2690SOL    HW2 8970   3.545   3.479   3.960
 2691SOL     OW 8971   1.318   5.265   2.309
 2691SOL    HW1 8972   1.323   5.352   2.359
 2691SOL    HW2 8973   1.238   5.266   2.249
 2692SOL     OW 8974   3.688   5.036   3.033
 2692SOL    HW1 8975   3.712   5.132   3.019
 2692SOL    HW2 8976   3.694   4.988   2.946
 2693SOL     OW 8977   1.069   4.038   3.118
 2693SOL    HW1 8978   0.979   4.051   3.076
 2693SOL    HW2 8979   1.082   3.942   3.141
 2694SOL     OW 8980   4.676   6.676   2.738
 2694SOL    HW1 8981   4.692   6.607   2.809
 2694SOL    HW2 8982   4.705   6.641   2.649
 2695SOL     OW 8983   4.727   0.582   2.898
 2695SOL    HW1 8984   4.755   0.487   2.915
 2695SOL    HW2 8985   4.664   0.611   2.970
 2696SOL     OW 8986   3.872   3.562   5.326
 2696SOL    HW1 8987   3.858   3.652   5.285
 2696SOL    HW2 8988   3.839   3.562   5.420
 2697SOL     OW 8989   3.284   1.439   2.553
 2697SOL    HW1 8990   3.235   1.366   2.505
 2697SOL    HW2 8991   3.250   1.528   2.523
 2698SOL     OW 8992   1.608   6.076   0.636
 2698SOL    HW1 8993   1.647   6.148   0.693
 2698SOL    HW2 8994   1.608   6.104   0.541
 2699SOL     OW 8995   3.261   6.363   0.250
 2699SOL    HW1 8996   3.267   6.425   0.328
 2699SOL    HW2 8997   3.247   6.269   0.283
 2700SOL     OW 8998   1.917   3.891   0.699
 2700SOL    HW1 8999   1.886   3.961   0.763
 2700SOL    HW2 9000   1.838   3.841   0.664
 2701SOL     OW 9001   3.789   0.719   6.626
 2701SOL    HW1 9002   3.794   0.818   6.628
 2701SOL    HW2 9003   3.868   0.683   6.576
 2702SOL     OW 9004   0.513   2.825   3.586
 2702SOL    HW1 9005   0.474   2.893   3.647
 2702SOL    HW2 9006   0.452   2.810   3.508
 2703SOL     OW 9007   1.874   0.719   2.438
 2703SOL    HW1 9008   1.868   0.712   2.538
 2703SOL    HW2 9009   1.959   0.764   2.413
 2704SOL     OW 9010   0.070   6.257   0.940
 2704SOL    HW1 9011   0.121   6.276   1.024
 2704SOL    HW2 9012   0.132   6.227   0.868
 2705SOL     OW 9013   1.062   4.788   4.241
 2705SOL    HW1 9014   1.101   4.869   4.198
 2705SOL    HW2 9015   0.981   4.759   4.190
 2706SOL     OW 9016   0.825   0.669   1.483
 2706SOL    HW1 9017   0.911   0.622   1.501
 2706SOL    HW2 9018   0.841   0.749   1.425
 2707SOL     OW 9019   2.424   0.924   4.844
 2707SOL    HW1 9020   2.480   0.987   4.896
 2707SOL    HW2 9021   2.346   0.895   4.899
 2708SOL     OW 9022   0.706   2.087   0.460
 2708SOL    HW1 9023   0.736   2.147   0.386
 2708SOL    HW2 9024   0.779   2.080   0.529
 2709SOL     OW 9025   5.564   6.193   0.539
 2709SOL    HW1 9026   5.573   6.293   0.539
 2709SOL    HW2 9027   5.479   6.167   0.584
 2710SOL     OW 9028   0.656   3.117   3.503
 2710SOL    HW1 9029   0.623   3.121   3.597
 2710SOL    HW2 9030   0.621   3.197   3.453
 2711SOL     OW 9031   2.253   1.376   3.730
 2711SOL    HW1 9032   2.278   1.279   3.734
 2711SOL    HW2 9033   2.328   1.431   3.768
 2712SOL     OW 9034   3.231   4.799   0.886
 2712SOL    HW1 9035   3.241   4.831   0.981
 2712SOL    HW2 9036   3.216   4.701   0.886
 2713SOL     OW 9037   2.310   2.017   5.287
 2713SOL    HW1 9038   2.237   1.949   5.294
 2713SOL    HW2 9039   2.302   2.066   5.201
 2714SOL     OW 9040   4.639   2.202   0.453
 2714SOL    HW1 9041   4.720   2.240   0.408
 2714SOL    HW2 9042   4.663   2.172   0.545
 2715SOL     OW 9043   4.873   1.346   0.556
 2715SOL    HW1 9044   4.884   1.275   0.487
 2715SOL    HW2 9045   4.822   1.309   0.634
 2716SOL     OW 9046   5.278   4.498   2.768
 2716SOL    HW1 9047   5.224   4.582   2.769
 2716SOL    HW2 9048   5.372   4.518   2.796
 2717SOL     OW 9049   2.474   4.832   2.098
 2717SOL    HW1 9050   2.531   4.789   2.168
 2717SOL    HW2 9051   2.408   4.766   2.063
 2718SOL     OW 9052   1.505   3.355   6.035
 2718SOL    HW1 9053   1.515   3.444   5.992
 2718SOL    HW2 9054   1.582   3.296   6.009
 2719SOL     OW 9055   6.643   5.707   1.369
 2719SOL    HW1 9056   6.709   5.768   1.326
 2719SOL    HW2 9057   6.674   5.613   1.362
 2720SOL     OW 9058   2.246   6.196   2.470
 2720SOL    HW1 9059   2.340   6.210   2.440
 2720SOL    HW2 9060   2.185   6.201   2.391
 2721SOL     OW 9061   2.850   0.695   4.464
 2721SOL    HW1 9062   2.802   0.781   4.480
 2721SOL    HW2 9063   2.784   0.625   4.434
 2722SOL     OW 9064   6.906   5.488   1.748
 2722SOL    HW1 9065   6.934   5.392   1.760
 2722SOL    HW2 9066   6.978   5.537   1.699
 2723SOL     OW 9067   0.758   6.517   5.514
 2723SOL    HW1 9068   0.763   6.465   5.429
 2723SOL    HW2 9069   0.679   6.487   5.567
 2724SOL     OW 9070   2.232   6.627   6.556
 2724SOL    HW1 9071   2.287   6.612   6.474
 2724SOL    HW2 9072   2.293   6.640   6.635
 2725SOL     OW 9073   6.041   4.627   4.408
 2725SOL    HW1 9074   6.012   4.723   4.402
 2725SOL    HW2 9075   5.980   4.578   4.470
 2726SOL     OW 9076   7.007   3.560   0.887
 2726SOL    HW1 9077   6.956   3.634   0.842
 2726SOL    HW2 9078   0.087   3.580   0.884
 2727SOL     OW 9079   0.562   5.316   4.046
 2727SOL    HW1 9080   0.623   5.285   4.119
 2727SOL    HW2 9081   0.615   5.368   3.979
 2728SOL     OW 9082   3.941   6.860   5.955
 2728SOL    HW1 9083   4.025   6.914   5.963
 2728SOL    HW2 9084   3.962   6.773   5.908
 2729SOL     OW 9085   6.704   5.436   1.405
 2729SOL    HW1 9086   6.684   5.339   1.420
 2729SOL    HW2 9087   6.745   5.447   1.314
 2730SOL     OW 9088   1.917   5.109   1.539
 2730SOL    HW1 9089   1.969   5.025   1.553
 2730SOL    HW2 9090   1.819   5.090   1.547
 2731SOL     OW 9091   4.147   3.468   1.981
 2731SOL    HW1 9092   4.055   3.429   1.979
 2731SOL    HW2 9093   4.153   3.537   2.053
 2732SOL     OW 9094   5.119   2.692   2.267
 2732SOL    HW1 9095   5.064   2.764   2.226
 2732SOL    HW2 9096   5.185   2.657   2.200
 2733SOL     OW 9097   0.400   0.140   5.168
 2733SOL    HW1 9098   0.484   0.119   5.118
 2733SOL    HW2 9099   0.362   0.055   5.205
 2734SOL     OW 9100   2.600   5.777   1.779
 2734SOL    HW1 9101   2.523   5.717   1.757
 2734SOL    HW2 9102   2.683   5.743   1.734
 2735SOL     OW 9103   0.995   3.062   2.551
 2735SOL    HW1 9104   1.019   2.970   2.581
 2735SOL    HW2 9105   0.976   3.062   2.453
 2736SOL     OW 9106   4.140   6.789   4.878
 2736SOL    HW1 9107   4.179   6.786   4.787
 2736SOL    HW2 9108   4.082   6.708   4.892
 2737SOL     OW 9109   3.454   3.744   5.900
 2737SOL    HW1 9110   3.390   3.668   5.905
 2737SOL    HW2 9111   3.447   3.798   5.984
 2738SOL     OW 9112   5.557   4.982   4.177
 2738SOL    HW1 9113   5.517   4.976   4.269
 2738SOL    HW2 9114   5.490   5.020   4.114
 2739SOL     OW 9115   6.608   4.905   0.761
 2739SOL    HW1 9116   6.541   4.831   0.763
 2739SOL    HW2 9117   6.680   4.884   0.695
 2740SOL     OW 9118   5.959   3.839   2.777
 2740SOL    HW1 9119   5.926   3.745   2.774
 2740SOL    HW2 9120   6.059   3.840   2.778
 2741SOL     OW 9121   6.203   1.026   5.330
 2741SOL    HW1 9122   6.172   0.995   5.420
 2741SOL    HW2 9123   6.125   1.028   5.267
 2742SOL     OW 9124   2.052   4.992   6.771
 2742SOL    HW1 9125   2.129   4.986   6.835
 2742SOL    HW2 9126   2.082   5.037   6.687
 2743SOL     OW 9127   6.932   5.548   2.505
 2743SOL    HW1 9128   7.012   5.489   2.492
 2743SOL    HW2 9129   6.960   5.632   2.551
 2744SOL     OW 9130   5.089   1.575   0.023
 2744SOL    HW1 9131   5.081   1.657   0.079
 2744SOL    HW2 9132   5.002   1.558   6.994
 2745SOL     OW 9133   1.043   6.967   6.671
 2745SOL    HW1 9134   0.951   7.007   6.668
 2745SOL    HW2 9135   1.078   6.970   6.765
 2746SOL     OW 9136   1.969   1.997   3.741
 2746SOL    HW1 9137   1.904   2.064   3.776
 2746SOL    HW2 9138   2.045   2.043   3.695
 2747SOL     OW 9139   5.888   3.562   5.754
 2747SOL    HW1 9140   5.925   3.535   5.666
 2747SOL    HW2 9141   5.835   3.486   5.792
 2748SOL     OW 9142   4.314   2.158   0.933
 2748SOL    HW1 9143   4.381   2.085   0.949
 2748SOL    HW2 9144   4.262   2.175   1.017
 2749SOL     OW 9145   6.477   4.830   3.628
 2749SOL    HW1 9146   6.454   4.769   3.704
 2749SOL    HW2 9147   6.400   4.893   3.611
 2750SOL     OW 9148   0.904   4.693   1.101
 2750SOL    HW1 9149   0.813   4.725   1.075
 2750SOL    HW2 9150   0.895   4.614   1.163
 2751SOL     OW 9151   0.308   6.224   0.815
 2751SOL    HW1 9152   0.293   6.199   0.719
 2751SOL    HW2 9153   0.406   6.239   0.830
 2752SOL     OW 9154   4.820   4.816   5.344
 2752SOL    HW1 9155   4.868   4.746   5.396
 2752SOL    HW2 9156   4.859   4.906   5.365
 2753SOL     OW 9157   0.941   6.655   5.860
 2753SOL    HW1 9158   0.914   6.748   5.882
 2753SOL    HW2 9159   0.962   6.648   5.763
 2754SOL     OW 9160   6.589   0.739   3.655
 2754SOL    HW1 9161   6.604   0.671   3.583
 2754SOL    HW2 9162   6.492   0.761   3.662
 2755SOL     OW 9163   2.779   6.804   3.844
 2755SOL    HW1 9164   2.839   6.827   3.767
 2755SOL    HW2 9165   2.713   6.879   3.858
 2756SOL     OW 9166   5.787   4.573   5.786
 2756SOL    HW1 9167   5.853   4.634   5.830
 2756SOL    HW2 9168   5.831   4.526   5.710
 2757SOL     OW 9169   2.206   1.686   6.278
 2757SOL    HW1 9170   2.131   1.630   6.311
 2757SOL    HW2 9171   2.281   1.685   6.345
 2758SOL     OW 9172   5.177   6.445   3.361
 2758SOL    HW1 9173   5.107   6.478   3.298
 2758SOL    HW2 9174   5.186   6.346   3.353
 2759SOL     OW 9175   4.382   5.677   5.696
 2759SOL    HW1 9176   4.341   5.701   5.608
 2759SOL    HW2 9177   4.384   5.758   5.755
 2760SOL     OW 9178   0.153   5.568   2.905
 2760SOL    HW1 9179   0.218   5.523   2.967
 2760SOL    HW2 9180   0.203   5.629   2.844
 2761SOL     OW 9181   2.144   4.380   4.613
 2761SOL    HW1 9182   2.210   4.342   4.549
 2761SOL    HW2 9183   2.151   4.333   4.701
 2762SOL     OW 9184   2.053   1.948   6.628
 2762SOL    HW1 9185   1.967   1.910   6.663
 2762SOL    HW2 9186   2.126   1.881   6.639
 2763SOL     OW 9187   4.847   2.131   4.841
 2763SOL    HW1 9188   4.773   2.188   4.879
 2763SOL    HW2 9189   4.816   2.036   4.835
 2764SOL     OW 9190   6.963   0.204   2.080
 2764SOL    HW1 9191   6.945   0.302   2.094
 2764SOL    HW2 9192   6.947   0.155   2.166
 2765SOL     OW 9193   6.602   6.816   1.057
 2765SOL    HW1 9194   6.580   6.774   0.969
 2765SOL    HW2 9195   6.690   6.864   1.050
 2766SOL     OW 9196   4.422   2.539   6.864
 2766SOL    HW1 9197   4.396   2.472   6.795
 2766SOL    HW2 9198   4.522   2.543   6.870
 2767SOL     OW 9199   6.679   5.524   6.636
 2767SOL    HW1 9200   6.592   5.539   6.591
 2767SOL    HW2 9201   6.666   5.520   6.735
 2768SOL     OW 9202   4.746   0.561   1.252
 2768SOL    HW1 9203   4.839   0.596   1.242
 2768SOL    HW2 9204   4.692   0.625   1.307
 2769SOL     OW 9205   2.257   4.122   6.400
 2769SOL    HW1 9206   2.341   4.095   6.352
 2769SOL    HW2 9207   2.247   4.221   6.395
 2770SOL     OW 9208   4.667   5.894   5.248
 2770SOL    HW1 9209   4.740   5.883   5.314
 2770SOL    HW2 9210   4.674   5.823   5.178
 2771SOL     OW 9211   5.587   1.200   4.189
 2771SOL    HW1 9212   5.581   1.215   4.288
 2771SOL    HW2 9213   5.607   1.287   4.144
 2772SOL     OW 9214   3.126   0.773   1.420
 2772SOL    HW1 9215   3.042   0.719   1.414
 2772SOL    HW2 9216   3.159   0.795   1.328
 2773SOL     OW 9217   6.571   2.719   3.798
 2773SOL    HW1 9218   6.589   2.773   3.716
 2773SOL    HW2 9219   6.503   2.648   3.777
 2774SOL     OW 9220   5.220   3.264   2.965
 2774SOL    HW1 9221   5.216   3.168   2.935
 2774SOL    HW2 9222   5.219   3.267   3.065
 2775SOL     OW 9223   6.211   3.377   5.023
 2775SOL    HW1 9224   6.248   3.433   4.949
 2775SOL    HW2 9225   6.161   3.300   4.983
 2776SOL     OW 9226   5.145   4.129   6.195
 2776SOL    HW1 9227   5.114   4.209   6.247
 2776SOL    HW2 9228   5.244   4.136   6.181
 2777SOL     OW 9229   2.919   2.394   0.999
 2777SOL    HW1 9230   2.903   2.487   1.032
 2777SOL    HW2 9231   2.966   2.340   1.069
 2778SOL     OW 9232   1.015   6.236   6.471
 2778SOL    HW1 9233   1.061   6.153   6.441
 2778SOL    HW2 9234   0.925   6.243   6.427
 2779SOL     OW 9235   5.442   6.549   1.997
 2779SOL    HW1 9236   5.409   6.463   1.956
 2779SOL    HW2 9237   5.364   6.598   2.037
 2780SOL     OW 9238   0.135   0.273   5.674
 2780SOL    HW1 9239   0.112   0.367   5.650
 2780SOL    HW2 9240   0.133   0.216   5.592
 2781SOL     OW 9241   5.898   0.671   2.783
 2781SOL    HW1 9242   5.985   0.621   2.788
 2781SOL    HW2 9243   5.915   0.764   2.751
 2782SOL     OW 9244   4.536   1.321   4.936
 2782SOL    HW1 9245   4.569   1.409   4.971
 2782SOL    HW2 9246   4.473   1.281   5.003
 2783SOL     OW 9247   6.509   4.074   2.064
 2783SOL    HW1 9248   6.590   4.129   2.042
 2783SOL    HW2 9249   6.427   4.119   2.026
 2784SOL     OW 9250   3.350   1.460   2.222
 2784SOL    HW1 9251   3.412   1.477   2.146
 2784SOL    HW2 9252   3.385   1.505   2.304
 2785SOL     OW 9253   5.199   2.289   0.789
 2785SOL    HW1 9254   5.210   2.192   0.811
 2785SOL    HW2 9255   5.284   2.338   0.809
 2786SOL     OW 9256   6.354   6.779   1.885
 2786SOL    HW1 9257   6.370   6.735   1.796
 2786SOL    HW2 9258   6.377   6.715   1.958
 2787SOL     OW 9259   6.172   6.828   5.752
 2787SOL    HW1 9260   6.161   6.833   5.653
 2787SOL    HW2 9261   6.098   6.878   5.797
 2788SOL     OW 9262   2.677   6.303   5.840
 2788SOL    HW1 9263   2.765   6.288   5.794
 2788SOL    HW2 9264   2.621   6.364   5.785
 2789SOL     OW 9265   1.813   1.912   3.526
 2789SOL    HW1 9266   1.857   1.990   3.571
 2789SOL    HW2 9267   1.819   1.923   3.427
 2790SOL     OW 9268   3.477   5.350   1.370
 2790SOL    HW1 9269   3.396   5.311   1.415
 2790SOL    HW2 9270   3.508   5.430   1.421
 2791SOL     OW 9271   0.727   3.382   2.224
 2791SOL    HW1 9272   0.677   3.464   2.254
 2791SOL    HW2 9273   0.664   3.305   2.217
 2792SOL     OW 9274   2.330   0.620   4.347
 2792SOL    HW1 9275   2.319   0.696   4.412
 2792SOL    HW2 9276   2.240   0.592   4.313
 2793SOL     OW 9277   5.245   3.503   1.965
 2793SOL    HW1 9278   5.163   3.481   1.911
 2793SOL    HW2 9279   5.267   3.426   2.025
 2794SOL     OW 9280   6.718   2.287   5.808
 2794SOL    HW1 9281   6.791   2.225   5.781
 2794SOL    HW2 9282   6.729   2.375   5.762
 2795SOL     OW 9283   0.603   3.508   0.926
 2795SOL    HW1 9284   0.557   3.596   0.942
 2795SOL    HW2 9285   0.535   3.434   0.926
 2796SOL     OW 9286   0.020   6.174   3.480
 2796SOL    HW1 9287   7.005   6.153   3.572
 2796SOL    HW2 9288   6.962   6.209   3.425
 2797SOL     OW 9289   5.243   5.227   5.405
 2797SOL    HW1 9290   5.239   5.242   5.504
 2797SOL    HW2 9291   5.252   5.315   5.358
 2798SOL     OW 9292   6.439   5.705   2.662
 2798SOL    HW1 9293   6.490   5.626   2.628
 2798SOL    HW2 9294   6.502   5.773   2.697
 2799SOL     OW 9295   5.622   6.134   6.094
 2799SOL    HW1 9296   5.627   6.225   6.053
 2799SOL    HW2 9297   5.528   6.115   6.121
 2800SOL     OW 9298   5.741   6.382   5.619
 2800SOL    HW1 9299   5.660   6.332   5.589
 2800SOL    HW2 9300   5.729   6.480   5.599
 2801SOL     OW 9301   0.349   5.738   5.870
 2801SOL    HW1 9302   0.290   5.734   5.952
 2801SOL    HW2 9303   0.392   5.829   5.865
 2802SOL     OW 9304   5.614   6.655   5.533
 2802SOL    HW1 9305   5.517   6.654   5.556
 2802SOL    HW2 9306   5.625   6.643   5.435
 2803SOL     OW 9307   4.014   5.076   5.802
 2803SOL    HW1 9308   3.981   4.995   5.753
 2803SOL    HW2 9309   3.936   5.133   5.828
 2804SOL     OW 9310   0.754   3.820   5.183
 2804SOL    HW1 9311   0.798   3.779   5.103
 2804SOL    HW2 9312   0.819   3.879   5.230
 2805SOL     OW 9313   5.712   3.271   3.084
 2805SOL    HW1 9314   5.711   3.289   2.986
 2805SOL    HW2 9315   5.769   3.191   3.103
 2806SOL     OW 9316   2.243   4.044   5.802
 2806SOL    HW1 9317   2.217   3.952   5.773
 2806SOL    HW2 9318   2.334   4.042   5.843
 2807SOL     OW 9319   4.484   6.950   3.211
 2807SOL    HW1 9320   4.457   6.898   3.130
 2807SOL    HW2 9321   4.403   6.977   3.263
 2808SOL     OW 9322   6.394   5.307   1.465
 2808SOL    HW1 9323   6.341   5.376   1.415
 2808SOL    HW2 9324   6.332   5.254   1.523
 2809SOL     OW 9325   5.001   2.686   1.336
 2809SOL    HW1 9326   5.045   2.771   1.305
 2809SOL    HW2 9327   4.957   2.702   1.425
 2810SOL     OW 9328   2.722   6.143   2.796
 2810SOL    HW1 9329   2.745   6.229   2.843
 2810SOL    HW2 9330   2.739   6.066   2.857
 2811SOL     OW 9331   0.875   1.682   2.852
 2811SOL    HW1 9332   0.928   1.709   2.932
 2811SOL    HW2 9333   0.842   1.763   2.804
 2812SOL     OW 9334   6.119   3.521   0.564
 2812SOL    HW1 9335   6.020   3.508   0.569
 2812SOL    HW2 9336   6.139   3.608   0.519
 2813SOL     OW 9337   0.511   1.848   6.889
 2813SOL    HW1 9338   0.541   1.930   6.938
 2813SOL    HW2 9339   0.423   1.865   6.846
 2814SOL     OW 9340   3.220   4.163   5.663
 2814SOL    HW1 9341   3.309   4.144   5.623
 2814SOL    HW2 9342   3.204   4.103   5.741
 2815SOL     OW 9343   6.591   5.035   6.237
 2815SOL    HW1 9344   6.653   5.112   6.223
 2815SOL    HW2 9345   6.585   5.014   6.335
 2816SOL     OW 9346   6.747   6.293   4.255
 2816SOL    HW1 9347   6.741   6.365   4.323
 2816SOL    HW2 9348   6.704   6.210   4.290
 2817SOL     OW 9349   3.165   0.502   2.996
 2817SOL    HW1 9350   3.079   0.452   2.982
 2817SOL    HW2 9351   3.147   0.601   2.990
 2818SOL     OW 9352   0.317   1.177   2.324
 2818SOL    HW1 9353   0.234   1.205   2.277
 2818SOL    HW2 9354   0.294   1.119   2.402
 2819SOL     OW 9355   1.804   0.063   1.978
 2819SOL    HW1 9356   1.842   0.106   1.896
 2819SOL    HW2 9357   1.725   0.115   2.009
 2820SOL     OW 9358   1.479   1.924   2.528
 2820SOL    HW1 9359   1.406   1.880   2.579
 2820SOL    HW2 9360   1.452   1.933   2.432
 2821SOL     OW 9361   2.810   4.978   6.184
 2821SOL    HW1 9362   2.734   4.917   6.205
 2821SOL    HW2 9363   2.815   4.993   6.086
 2822SOL     OW 9364   4.567   1.958   0.270
 2822SOL    HW1 9365   4.517   1.879   0.235
 2822SOL    HW2 9366   4.506   2.015   0.325
 2823SOL     OW 9367   6.054   1.043   0.114
 2823SOL    HW1 9368   6.127   1.027   0.181
 2823SOL    HW2 9369   6.047   1.141   0.095
 2824SOL     OW 9370   2.256   2.067   5.545
 2824SOL    HW1 9371   2.328   2.120   5.589
 2824SOL    HW2 9372   2.279   2.053   5.449
 2825SOL     OW 9373   5.521   0.084   5.578
 2825SOL    HW1 9374   5.449   0.087   5.648
 2825SOL    HW2 9375   5.606   0.053   5.619
 2826SOL     OW 9376   3.719   2.756   6.326
 2826SOL    HW1 9377   3.636   2.811   6.326
 2826SOL    HW2 9378   3.777   2.782   6.403
 2827SOL     OW 9379   0.237   0.452   6.427
 2827SOL    HW1 9380   0.337   0.449   6.430
 2827SOL    HW2 9381   0.206   0.546   6.442
 2828SOL     OW 9382   2.175   2.863   0.481
 2828SOL    HW1 9383   2.121   2.795   0.432
 2828SOL    HW2 9384   2.202   2.826   0.570
 2829SOL     OW 9385   3.225   3.047   3.327
 2829SOL    HW1 9386   3.225   3.073   3.230
 2829SOL    HW2 9387   3.317   3.023   3.355
 2830SOL     OW 9388   3.328   3.907   5.361
 2830SOL    HW1 9389   3.340   3.950   5.271
 2830SOL    HW2 9390   3.413   3.912   5.412
 2831SOL     OW 9391   1.175   3.234   2.710
 2831SOL    HW1 9392   1.110   3.267   2.779
 2831SOL    HW2 9393   1.133   3.159   2.658
 2832SOL     OW 9394   0.721   2.753   1.521
 2832SOL    HW1 9395   0.786   2.787   1.589
 2832SOL    HW2 9396   0.745   2.790   1.431
 2833SOL     OW 9397   3.081   1.405   2.213
 2833SOL    HW1 9398   3.027   1.487   2.230
 2833SOL    HW2 9399   3.178   1.429   2.207
 2834SOL     OW 9400   4.038   6.636   4.462
 2834SOL    HW1 9401   4.118   6.654   4.520
 2834SOL    HW2 9402   3.989   6.556   4.497
 2835SOL     OW 9403   0.590   6.665   0.907
 2835SOL    HW1 9404   0.529   6.735   0.870
 2835SOL    HW2 9405   0.548   6.626   0.989
 2836SOL     OW 9406   1.314   6.361   1.539
 2836SOL    HW1 9407   1.257   6.320   1.468
 2836SOL    HW2 9408   1.371   6.433   1.499
 2837SOL     OW 9409   5.299   4.738   2.460
 2837SOL    HW1 9410   5.376   4.698   2.411
 2837SOL    HW2 9411   5.297   4.837   2.445
 2838SOL     OW 9412   4.514   3.351   1.122
 2838SOL    HW1 9413   4.474   3.283   1.184
 2838SOL    HW2 9414   4.533   3.434   1.174
 2839SOL     OW 9415   0.123   2.631   2.300
 2839SOL    HW1 9416   0.054   2.562   2.323
 2839SOL    HW2 9417   0.211   2.606   2.341
 2840SOL     OW 9418   1.749   6.101   2.186
 2840SOL    HW1 9419   1.718   6.054   2.269
 2840SOL    HW2 9420   1.678   6.163   2.154
 2841SOL     OW 9421   6.464   2.344   6.532
 2841SOL    HW1 9422   6.376   2.380   6.501
 2841SOL    HW2 9423   6.460   2.244   6.532
 2842SOL     OW 9424   0.727   5.175   4.655
 2842SOL    HW1 9425   0.691   5.204   4.744
 2842SOL    HW2 9426   0.665   5.108   4.614
 2843SOL     OW 9427   2.774   1.522   2.360
 2843SOL    HW1 9428   2.766   1.450   2.429
 2843SOL    HW2 9429   2.711   1.596   2.382
 2844SOL     OW 9430   6.293   5.390   0.522
 2844SOL    HW1 9431   6.391   5.402   0.539
 2844SOL    HW2 9432   6.242   5.451   0.583
 2845SOL     OW 9433   5.200   3.089   2.662
 2845SOL    HW1 9434   5.233   3.036   2.585
 2845SOL    HW2 9435   5.107   3.122   2.643
 2846SOL     OW 9436   3.621   0.330   0.668
 2846SOL    HW1 9437   3.614   0.397   0.742
 2846SOL    HW2 9438   3.613   0.238   0.706
 2847SOL     OW 9439   4.995   4.078   3.192
 2847SOL    HW1 9440   4.974   3.992   3.238
 2847SOL    HW2 9441   5.090   4.104   3.210
 2848SOL     OW 9442   2.539   2.797   5.719
 2848SOL    HW1 9443   2.487   2.726   5.671
 2848SOL    HW2 9444   2.484   2.881   5.722
 2849SOL     OW 9445   3.450   0.584   1.749
 2849SOL    HW1 9446   3.526   0.639   1.784
 2849SOL    HW2 9447   3.418   0.623   1.663
 2850SOL     OW 9448   2.210   0.350   3.205
 2850SOL    HW1 9449   2.174   0.257   3.208
 2850SOL    HW2 9450   2.302   0.349   3.167
 2851SOL     OW 9451   4.925   3.002   6.533
 2851SOL    HW1 9452   4.914   3.066   6.609
 2851SOL    HW2 9453   4.842   3.002   6.478
 2852SOL     OW 9454   6.188   4.408   6.427
 2852SOL    HW1 9455   6.188   4.455   6.515
 2852SOL    HW2 9456   6.232   4.465   6.358
 2853SOL     OW 9457   1.286   2.452   6.861
 2853SOL    HW1 9458   1.188   2.432   6.874
 2853SOL    HW2 9459   1.335   2.367   6.844
 2854SOL     OW 9460   3.867   0.313   5.850
 2854SOL    HW1 9461   3.826   0.257   5.921
 2854SOL    HW2 9462   3.870   0.408   5.880
 2855SOL     OW 9463   1.365   2.284   5.532
 2855SOL    HW1 9464   1.424   2.356   5.569
 2855SOL    HW2 9465   1.420   2.203   5.511
 2856SOL     OW 9466   1.237   3.097   4.426
 2856SOL    HW1 9467   1.329   3.063   4.405
 2856SOL    HW2 9468   1.208   3.161   4.355
 2857SOL     OW 9469   0.375   2.663   1.716
 2857SOL    HW1 9470   0.416   2.590   1.660
 2857SOL    HW2 9471   0.440   2.738   1.725
 2858SOL     OW 9472   5.064   5.288   2.033
 2858SOL    HW1 9473   5.065   5.323   2.127
 2858SOL    HW2 9474   5.025   5.357   1.972
 2859SOL     OW 9475   6.296   6.592   0.523
 2859SOL    HW1 9476   6.263   6.558   0.611
 2859SOL    HW2 9477   6.373   6.654   0.538
 2860SOL     OW 9478   2.384   0.662   2.494
 2860SOL    HW1 9479   2.302   0.631   2.446
 2860SOL    HW2 9480   2.389   0.762   2.491
 2861SOL     OW 9481   3.573   5.548   5.728
 2861SOL    HW1 9482   3.577   5.647   5.715
 2861SOL    HW2 9483   3.500   5.510   5.671
 2862SOL     OW 9484   4.186   2.240   1.875
 2862SOL    HW1 9485   4.160   2.190   1.792
 2862SOL    HW2 9486   4.223   2.329   1.849
 2863SOL     OW 9487   4.931   1.559   6.236
 2863SOL    HW1 9488   4.921   1.469   6.278
 2863SOL    HW2 9489   4.928   1.550   6.136
 2864SOL     OW 9490   4.472   2.417   0.774
 2864SOL    HW1 9491   4.511   2.484   0.838
 2864SOL    HW2 9492   4.409   2.357   0.823
 2865SOL     OW 9493   4.381   6.627   3.810
 2865SOL    HW1 9494   4.305   6.668   3.862
 2865SOL    HW2 9495   4.344   6.573   3.735
 2866SOL     OW 9496   5.642   4.026   0.414
 2866SOL    HW1 9497   5.673   3.948   0.360
 2866SOL    HW2 9498   5.543   4.034   0.407
 2867SOL     OW 9499   6.116   6.375   3.288
 2867SOL    HW1 9500   6.031   6.360   3.337
 2867SOL    HW2 9501   6.098   6.427   3.204
 2868SOL     OW 9502   1.347   1.416   5.283
 2868SOL    HW1 9503   1.417   1.378   5.343
 2868SOL    HW2 9504   1.257   1.379   5.310
 2869SOL     OW 9505   6.340   0.816   3.363
 2869SOL    HW1 9506   6.420   0.819   3.302
 2869SOL    HW2 9507   6.262   0.859   3.317
 2870SOL     OW 9508   0.623   1.716   6.223
 2870SOL    HW1 9509   0.708   1.760   6.252
 2870SOL    HW2 9510   0.552   1.734   6.291
 2871SOL     OW 9511   6.082   0.741   0.680
 2871SOL    HW1 9512   6.139   0.704   0.607
 2871SOL    HW2 9513   6.049   0.832   0.653
 2872SOL     OW 9514   2.674   2.156   1.077
 2872SOL    HW1 9515   2.657   2.079   1.139
 2872SOL    HW2 9516   2.772   2.164   1.059
 2873SOL     OW 9517   6.905   6.690   2.536
 2873SOL    HW1 9518   6.907   6.718   2.632
 2873SOL    HW2 9519   6.998   6.676   2.503
 2874SOL     OW 9520   3.872   6.378   2.744
 2874SOL    HW1 9521   3.797   6.440   2.721
 2874SOL    HW2 9522   3.950   6.395   2.685
 2875SOL     OW 9523   4.471   0.362   2.020
 2875SOL    HW1 9524   4.543   0.345   1.952
 2875SOL    HW2 9525   4.393   0.302   2.002
 2876SOL     OW 9526   1.795   0.268   2.824
 2876SOL    HW1 9527   1.818   0.279   2.727
 2876SOL    HW2 9528   1.705   0.307   2.842
 2877SOL     OW 9529   2.581   0.789   6.376
 2877SOL    HW1 9530   2.675   0.757   6.371
 2877SOL    HW2 9531   2.567   0.842   6.460
 2878SOL     OW 9532   2.971   3.691   5.007
 2878SOL    HW1 9533   3.045   3.678   5.074
 2878SOL    HW2 9534   2.944   3.602   4.970
 2879SOL     OW 9535   5.691   5.595   5.523
 2879SOL    HW1 9536   5.672   5.656   5.600
 2879SOL    HW2 9537   5.655   5.635   5.439
 2880SOL     OW 9538   0.508   1.248   3.559
 2880SOL    HW1 9539   0.426   1.299   3.535
 2880SOL    HW2 9540   0.484   1.173   3.621
 2881SOL     OW 9541   3.541   5.830   0.371
 2881SOL    HW1 9542   3.539   5.838   0.272
 2881SOL    HW2 9543   3.488   5.751   0.400
 2882SOL     OW 9544   7.001   5.441   1.418
 2882SOL    HW1 9545   0.019   5.517   1.472
 2882SOL    HW2 9546   6.901   5.441   1.420
 2883SOL     OW 9547   5.795   0.162   3.494
 2883SOL    HW1 9548   5.875   0.200   3.447
 2883SOL    HW2 9549   5.750   0.234   3.547
 2884SOL     OW 9550   0.457   6.072   2.709
 2884SOL    HW1 9551   0.409   6.147   2.754
 2884SOL    HW2 9552   0.451   5.989   2.764
 2885SOL     OW 9553   1.707   2.112   4.805
 2885SOL    HW1 9554   1.741   2.037   4.860
 2885SOL    HW2 9555   1.626   2.082   4.754
 2886SOL     OW 9556   1.885   3.583   6.557
 2886SOL    HW1 9557   1.929   3.654   6.503
 2886SOL    HW2 9558   1.908   3.493   6.521
 2887SOL     OW 9559   0.613   6.349   4.997
 2887SOL    HW1 9560   0.580   6.262   4.959
 2887SOL    HW2 9561   0.712   6.355   4.986
 2888SOL     OW 9562   0.153   4.500   0.251
 2888SOL    HW1 9563   0.083   4.522   0.183
 2888SOL    HW2 9564   0.148   4.566   0.326
 2889SOL     OW 9565   3.360   5.735   2.754
 2889SOL    HW1 9566   3.264   5.747   2.779
 2889SOL    HW2 9567   3.418   5.775   2.825
 2890SOL     OW 9568   1.320   6.076   0.688
 2890SOL    HW1 9569   1.413   6.060   0.654
 2890SOL    HW2 9570   1.304   6.175   0.696
 2891SOL     OW 9571   0.837   3.778   3.456
 2891SOL    HW1 9572   0.740   3.785   3.434
 2891SOL    HW2 9573   0.852   3.804   3.551
 2892SOL     OW 9574   6.092   2.599   1.642
 2892SOL    HW1 9575   6.022   2.598   1.570
 2892SOL    HW2 9576   6.182   2.587   1.600
 2893SOL     OW 9577   0.669   4.715   4.354
 2893SOL    HW1 9578   0.723   4.736   4.436
 2893SOL    HW2 9579   0.611   4.793   4.332
 2894SOL     OW 9580   1.447   3.635   1.447
 2894SOL    HW1 9581   1.542   3.638   1.415
 2894SOL    HW2 9582   1.393   3.575   1.387
 2895SOL     OW 9583   5.326   0.855   5.893
 2895SOL    HW1 9584   5.321   0.901   5.804
 2895SOL    HW2 9585   5.390   0.778   5.887
 2896SOL     OW 9586   4.074   6.948   5.353
 2896SOL    HW1 9587   4.004   6.880   5.332
 2896SOL    HW2 9588   4.034   0.022   5.345
 2897SOL     OW 9589   4.022   4.776   2.226
 2897SOL    HW1 9590   3.981   4.867   2.235
 2897SOL    HW2 9591   3.956   4.706   2.254
 2898SOL     OW 9592   4.371   4.807   4.199
 2898SOL    HW1 9593   4.429   4.809   4.281
 2898SOL    HW2 9594   4.275   4.814   4.226
 2899SOL     OW 9595   0.147   1.702   0.635
 2899SOL    HW1 9596   0.114   1.769   0.568
 2899SOL    HW2 9597   0.214   1.642   0.592
 2900SOL     OW 9598   3.623   4.592   6.755
 2900SOL    HW1 9599   3.647   4.686   6.732
 2900SOL    HW2 9600   3.648   4.573   6.850
 2901SOL     OW 9601   2.028   4.697   3.385
 2901SOL    HW1 9602   1.947   4.696   3.443
 2901SOL    HW2 9603   2.010   4.752   3.304
 2902SOL     OW 9604   6.358   5.204   3.229
 2902SOL    HW1 9605   6.420   5.184   3.304
 2902SOL    HW2 9606   6.266   5.172   3.253
 2903SOL     OW 9607   4.124   6.436   0.906
 2903SOL    HW1 9608   4.031   6.402   0.920
 2903SOL    HW2 9609   4.120   6.526   0.862
 2904SOL     OW 9610   3.027   5.035   5.322
 2904SOL    HW1 9611   2.937   5.033   5.366
 2904SOL    HW2 9612   3.058   4.942   5.305
 2905SOL     OW 9613   1.424   3.658   4.118
 2905SOL    HW1 9614   1.368   3.682   4.198
 2905SOL    HW2 9615   1.475   3.574   4.137
 2906SOL     OW 9616   4.709   5.767   2.773
 2906SOL    HW1 9617   4.630   5.707   2.766
 2906SOL    HW2 9618   4.742   5.789   2.681
 2907SOL     OW 9619   0.523   1.792   3.649
 2907SOL    HW1 9620   0.516   1.693   3.653
 2907SOL    HW2 9621   0.619   1.819   3.636
 2908SOL     OW 9622   5.059   6.525   2.965
 2908SOL    HW1 9623   5.093   6.584   2.892
 2908SOL    HW2 9624   5.130   6.459   2.989
 2909SOL     OW 9625   2.481   5.405   4.175
 2909SOL    HW1 9626   2.383   5.413   4.196
 2909SOL    HW2 9627   2.518   5.324   4.220
 2910SOL     OW 9628   5.990   0.010   3.901
 2910SOL    HW1 9629   6.075   7.006   3.948
 2910SOL    HW2 9630   5.933   0.067   3.959
 2911SOL     OW 9631   1.687   4.988   3.640
 2911SOL    HW1 9632   1.723   5.071   3.597
 2911SOL    HW2 9633   1.599   5.008   3.682
 2912SOL     OW 9634   6.677   6.445   0.288
 2912SOL    HW1 9635   6.748   6.512   0.271
 2912SOL    HW2 9636   6.588   6.483   0.265
 2913SOL     OW 9637   3.724   5.183   1.965
 2913SOL    HW1 9638   3.642   5.201   1.910
 2913SOL    HW2 9639   3.748   5.086   1.959
 2914SOL     OW 9640   6.284   5.857   0.060
 2914SOL    HW1 9641   6.351   5.929   0.044
 2914SOL    HW2 9642   6.249   5.823   6.990
 2915SOL     OW 9643   3.053   1.822   3.444
 2915SOL    HW1 9644   3.046   1.840   3.346
 2915SOL    HW2 9645   2.962   1.817   3.485
 2916SOL     OW 9646   0.987   5.496   0.278
 2916SOL    HW1 9647   1.025   5.571   0.333
 2916SOL    HW2 9648   1.059   5.458   0.219
 2917SOL     OW 9649   2.935   0.298   4.616
 2917SOL    HW1 9650   2.835   0.299   4.607
 2917SOL    HW2 9651   2.968   0.392   4.622
 2918SOL     OW 9652   6.128   3.993   5.501
 2918SOL    HW1 9653   6.208   4.020   5.555
 2918SOL    HW2 9654   6.157   3.935   5.426
 2919SOL     OW 9655   6.247   0.588   3.080
 2919SOL    HW1 9656   6.249   0.620   3.175
 2919SOL    HW2 9657   6.163   0.537   3.064
 2920SOL     OW 9658   3.503   0.464   1.345
 2920SOL    HW1 9659   3.412   0.432   1.374
 2920SOL    HW2 9660   3.569   0.390   1.358
 2921SOL     OW 9661   0.462   0.504   5.413
 2921SOL    HW1 9662   0.483   0.599   5.433
 2921SOL    HW2 9663   0.498   0.480   5.322
 2922SOL     OW 9664   4.922   6.506   1.669
 2922SOL    HW1 9665   4.851   6.514   1.739
 2922SOL    HW2 9666   4.944   6.597   1.633
 2923SOL     OW 9667   6.866   5.665   4.157
 2923SOL    HW1 9668   6.777   5.711   4.157
 2923SOL    HW2 9669   6.885   5.630   4.065
 2924SOL     OW 9670   6.897   2.527   5.150
 2924SOL    HW1 9671   6.923   2.467   5.074
 2924SOL    HW2 9672   6.813   2.492   5.192
 2925SOL     OW 9673   5.816   2.501   0.718
 2925SOL    HW1 9674   5.779   2.437   0.651
 2925SOL    HW2 9675   5.872   2.570   0.671
 2926SOL     OW 9676   5.583   2.099   6.459
 2926SOL    HW1 9677   5.577   2.166   6.385
 2926SOL    HW2 9678   5.651   2.030   6.434
 2927SOL     OW 9679   1.862   3.776   1.120
 2927SOL    HW1 9680   1.922   3.696   1.117
 2927SOL    HW2 9681   1.772   3.753   1.083
 2928SOL     OW 9682   0.210   0.584   6.961
 2928SOL    HW1 9683   0.137   0.651   6.948
 2928SOL    HW2 9684   0.289   0.610   6.905
 2929SOL     OW 9685   1.393   3.127   5.833
 2929SOL    HW1 9686   1.321   3.150   5.767
 2929SOL    HW2 9687   1.393   3.193   5.907
 2930SOL     OW 9688   5.342   6.405   5.189
 2930SOL    HW1 9689   5.314   6.348   5.266
 2930SOL    HW2 9690   5.433   6.441   5.207
 2931SOL     OW 9691   5.160   5.148   6.807
 2931SOL    HW1 9692   5.104   5.086   6.752
 2931SOL    HW2 9693   5.152   5.124   6.903
 2932SOL     OW 9694   0.775   5.681   1.905
 2932SOL    HW1 9695   0.871   5.666   1.927
 2932SOL    HW2 9696   0.723   5.597   1.924
 2933SOL     OW 9697   1.859   6.510   2.223
 2933SOL    HW1 9698   1.764   6.519   2.195
 2933SOL    HW2 9699   1.919   6.523   2.144
 2934SOL     OW 9700   5.788   2.678   0.253
 2934SOL    HW1 9701   5.762   2.775   0.260
 2934SOL    HW2 9702   5.746   2.627   0.327
 2935SOL     OW 9703   6.991   2.625   6.068
 2935SOL    HW1 9704   6.986   2.679   5.984
 2935SOL    HW2 9705   0.034   2.547   6.054
 2936SOL     OW 9706   4.586   5.972   0.330
 2936SOL    HW1 9707   4.547   6.054   0.288
 2936SOL    HW2 9708   4.663   5.999   0.388
 2937SOL     OW 9709   5.367   4.834   1.129
 2937SOL    HW1 9710   5.416   4.900   1.186
 2937SOL    HW2 9711   5.290   4.880   1.084
 2938SOL     OW 9712   5.643   4.723   0.077
 2938SOL    HW1 9713   5.682   4.686   7.009
 2938SOL    HW2 9714   5.558   4.771   0.056
 2939SOL     OW 9715   2.261   0.775   1.674
 2939SOL    HW1 9716   2.322   0.796   1.598
 2939SOL    HW2 9717   2.305   0.801   1.760
 2940SOL     OW 9718   5.490   5.124   5.381
 2940SOL    HW1 9719   5.549   5.182   5.437
 2940SOL    HW2 9720   5.395   5.136   5.410
 2941SOL     OW 9721   1.552   2.367   4.177
 2941SOL    HW1 9722   1.605   2.283   4.165
 2941SOL    HW2 9723   1.581   2.435   4.109
 2942SOL     OW 9724   3.879   1.484   1.153
 2942SOL    HW1 9725   3.934   1.447   1.079
 2942SOL    HW2 9726   3.873   1.583   1.144
 2943SOL     OW 9727   5.589   4.090   3.767
 2943SOL    HW1 9728   5.584   4.106   3.865
 2943SOL    HW2 9729   5.547   4.001   3.745
 2944SOL     OW 9730   2.998   6.198   4.101
 2944SOL    HW1 9731   3.050   6.283   4.088
 2944SOL    HW2 9732   2.930   6.189   4.029
 2945SOL     OW 9733   4.345   2.889   1.514
 2945SOL    HW1 9734   4.384   2.956   1.578
 2945SOL    HW2 9735   4.419   2.835   1.473
 2946SOL     OW 9736   1.949   4.654   6.076
 2946SOL    HW1 9737   1.857   4.689   6.096
 2946SOL    HW2 9738   1.992   4.711   6.006
 2947SOL     OW 9739   1.242   5.821   1.438
 2947SOL    HW1 9740   1.235   5.722   1.452
 2947SOL    HW2 9741   1.307   5.859   1.504
 2948SOL     OW 9742   7.012   4.407   4.751
 2948SOL    HW1 9743   0.042   4.404   4.839
 2948SOL    HW2 9744   6.975   4.317   4.730
 2949SOL     OW 9745   1.016   5.605   0.838
 2949SOL    HW1 9746   0.922   5.589   0.808
 2949SOL    HW2 9747   1.060   5.668   0.774
 2950SOL     OW 9748   6.077   5.876   4.612
 2950SOL    HW1 9749   6.041   5.821   4.536
 2950SOL    HW2 9750   6.045   5.970   4.603
 2951SOL     OW 9751   5.590   2.163   1.872
 2951SOL    HW1 9752   5.659   2.171   1.800
 2951SOL    HW2 9753   5.631   2.123   1.953
 2952SOL     OW 9754   6.944   6.398   5.769
 2952SOL    HW1 9755   6.947   6.302   5.742
 2952SOL    HW2 9756   0.019   6.436   5.765
 2953SOL     OW 9757   6.505   4.450   3.003
 2953SOL    HW1 9758   6.553   4.505   2.935
 2953SOL    HW2 9759   6.410   4.480   3.010
 2954SOL     OW 9760   0.779   5.108   1.375
 2954SOL    HW1 9761   0.744   5.142   1.462
 2954SOL    HW2 9762   0.703   5.074   1.320
 2955SOL     OW 9763   1.066   4.294   0.957
 2955SOL    HW1 9764   1.005   4.364   0.919
 2955SOL    HW2 9765   1.011   4.219   0.993
 2956SOL     OW 9766   5.998   5.509   3.046
 2956SOL    HW1 9767   6.092   5.497   3.078
 2956SOL    HW2 9768   5.993   5.491   2.948
 2957SOL     OW 9769   4.927   4.236   1.774
 2957SOL    HW1 9770   4.913   4.197   1.866
 2957SOL    HW2 9771   4.929   4.162   1.707
 2958SOL     OW 9772   1.871   4.376   3.379
 2958SOL    HW1 9773   1.870   4.283   3.416
 2958SOL    HW2 9774   1.965   4.404   3.364
 2959SOL     OW 9775   5.281   3.282   2.154
 2959SOL    HW1 9776   5.356   3.328   2.201
 2959SOL    HW2 9777   5.233   3.223   2.218
 2960SOL     OW 9778   3.333   0.319   6.754
 2960SOL    HW1 9779   3.318   0.223   6.780
 2960SOL    HW2 9780   3.392   0.323   6.674
 2961SOL     OW 9781   5.805   5.061   3.324
 2961SOL    HW1 9782   5.825   4.964   3.308
 2961SOL    HW2 9783   5.832   5.086   3.417
 2962SOL     OW 9784   4.521   5.880   3.379
 2962SOL    HW1 9785   4.557   5.807   3.437
 2962SOL    HW2 9786   4.575   5.885   3.295
 2963SOL     OW 9787   0.734   0.935   0.069
 2963SOL    HW1 9788   0.727   1.030   0.099
 2963SOL    HW2 9789   0.827   0.916   0.039
 2964SOL     OW 9790   0.514   1.761   5.508
 2964SOL    HW1 9791   0.542   1.819   5.586
 2964SOL    HW2 9792   0.419   1.733   5.520
 2965SOL     OW 9793   0.592   0.924   4.890
 2965SOL    HW1 9794   0.650   0.947   4.968
 2965SOL    HW2 9795   0.633   0.848   4.840
 2966SOL     OW 9796   4.854   5.042   2.807
 2966SOL    HW1 9797   4.948   5.015   2.785
 2966SOL    HW2 9798   4.800   4.960   2.827
 2967SOL     OW 9799   5.876   1.244   5.763
 2967SOL    HW1 9800   5.839   1.157   5.795
 2967SOL    HW2 9801   5.824   1.319   5.804
 2968SOL     OW 9802   0.848   2.616   0.533
 2968SOL    HW1 9803   0.942   2.582   0.536
 2968SOL    HW2 9804   0.823   2.652   0.623
 2969SOL     OW 9805   4.740   2.480   4.309
 2969SOL    HW1 9806   4.712   2.393   4.270
 2969SOL    HW2 9807   4.816   2.518   4.256
 2970SOL     OW 9808   2.744   3.022   5.348
 2970SOL    HW1 9809   2.658   3.025   5.297
 2970SOL    HW2 9810   2.738   2.949   5.418
 2971SOL     OW 9811   4.966   3.670   1.230
 2971SOL    HW1 9812   5.058   3.702   1.209
 2971SOL    HW2 9813   4.921   3.641   1.146
 2972SOL     OW 9814   6.390   4.984   6.576
 2972SOL    HW1 9815   6.487   4.978   6.600
 2972SOL    HW2 9816   6.352   5.068   6.613
 2973SOL     OW 9817   5.120   5.915   2.140
 2973SOL    HW1 9818   5.199   5.868   2.179
 2973SOL    HW2 9819   5.144   6.010   2.121
 2974SOL     OW 9820   0.040   4.361   3.799
 2974SOL    HW1 9821   6.996   4.292   3.838
 2974SOL    HW2 9822   0.132   4.323   3.791
 2975SOL     OW 9823   4.950   4.471   4.256
 2975SOL    HW1 9824   4.964   4.475   4.157
 2975SOL    HW2 9825   4.934   4.377   4.284
 2976SOL     OW 9826   4.597   1.942   2.576
 2976SOL    HW1 9827   4.544   1.859   2.594
 2976SOL    HW2 9828   4.689   1.917   2.544
 2977SOL     OW 9829   0.888   0.590   2.802
 2977SOL    HW1 9830   0.952   0.621   2.873
 2977SOL    HW2 9831   0.809   0.548   2.845
 2978SOL     OW 9832   3.685   4.568   7.014
 2978SOL    HW1 9833   3.636   4.600   0.077
 2978SOL    HW2 9834   3.784   4.574   0.013
 2979SOL     OW 9835   3.427   1.275   3.934
 2979SOL    HW1 9836   3.339   1.230   3.918
 2979SOL    HW2 9837   3.414   1.354   3.993
 2980SOL     OW 9838   2.016   5.554   5.575
 2980SOL    HW1 9839   1.969   5.514   5.654
 2980SOL    HW2 9840   2.075   5.628   5.606
 2981SOL     OW 9841   2.543   0.585   6.873
 2981SOL    HW1 9842   2.624   0.621   6.827
 2981SOL    HW2 9843   2.491   0.529   6.808
 2982SOL     OW 9844   2.689   6.187   1.193
 2982SOL    HW1 9845   2.646   6.201   1.283
 2982SOL    HW2 9846   2.788   6.183   1.204
 2983SOL     OW 9847   6.303   2.352   1.780
 2983SOL    HW1 9848   6.309   2.445   1.816
 2983SOL    HW2 9849   6.373   2.295   1.823
 2984SOL     OW 9850   5.993   5.143   0.208
 2984SOL    HW1 9851   5.931   5.100   0.141
 2984SOL    HW2 9852   6.027   5.229   0.171
 2985SOL     OW 9853   2.107   1.978   4.673
 2985SOL    HW1 9854   2.062   1.994   4.585
 2985SOL    HW2 9855   2.182   2.043   4.685
 2986SOL     OW 9856   3.664   4.003   2.579
 2986SOL    HW1 9857   3.597   3.947   2.531
 2986SOL    HW2 9858   3.693   3.957   2.663
 2987SOL     OW 9859   1.341   1.244   4.751
 2987SOL    HW1 9860   1.250   1.204   4.755
 2987SOL    HW2 9861   1.334   1.344   4.751
 2988SOL     OW 9862   1.749   6.873   2.698
 2988SOL    HW1 9863   1.674   6.931   2.666
 2988SOL    HW2 9864   1.734   6.779   2.668
 2989SOL     OW 9865   5.127   4.987   5.696
 2989SOL    HW1 9866   5.090   5.018   5.783
 2989SOL    HW2 9867   5.210   4.934   5.712
 2990SOL     OW 9868   4.362   1.980   4.318
 2990SOL    HW1 9869   4.353   2.048   4.245
 2990SOL    HW2 9870   4.271   1.949   4.346
 2991SOL     OW 9871   6.441   3.140   5.941
 2991SOL    HW1 9872   6.397   3.189   5.866
 2991SOL    HW2 9873   6.519   3.193   5.975
 2992SOL     OW 9874   1.422   4.937   4.409
 2992SOL    HW1 9875   1.495   4.987   4.455
 2992SOL    HW2 9876   1.333   4.977   4.435
 2993SOL     OW 9877   0.997   5.264   1.443
 2993SOL    HW1 9878   0.943   5.193   1.398
 2993SOL    HW2 9879   0.957   5.354   1.422
 2994SOL     OW 9880   4.171   6.598   0.414
 2994SOL    HW1 9881   4.178   6.498   0.410
 2994SOL    HW2 9882   4.084   6.627   0.376
 2995SOL     OW 9883   3.872   0.999   6.636
 2995SOL    HW1 9884   3.965   0.972   6.614
 2995SOL    HW2 9885   3.874   1.076   6.701
 2996SOL     OW 9886   0.452   1.324   5.366
 2996SOL    HW1 9887   0.365   1.281   5.342
 2996SOL    HW2 9888   0.441   1.423   5.367
 2997SOL     OW 9889   5.016   0.260   2.982
 2997SOL    HW1 9890   5.011   0.210   3.069
 2997SOL    HW2 9891   4.987   0.200   2.908
 2998SOL     OW 9892   5.151   6.837   3.445
 2998SOL    HW1 9893   5.113   6.921   3.486
 2998SOL    HW2 9894   5.131   6.837   3.347
 2999SOL     OW 9895   2.439   5.049   5.170
 2999SOL    HW1 9896   2.527   5.054   5.124
 2999SOL    HW2 9897   2.443   4.981   5.244
 3000SOL     OW 9898   3.065   4.096   6.399
 3000SOL    HW1 9899   3.154   4.074   6.359
 3000SOL    HW2 9900   3.002   4.124   6.326
 3001SOL     OW 9901   6.389   1.523   6.738
 3001SOL    HW1 9902   6.344   1.433   6.739
 3001SOL    HW2 9903   6.322   1.594   6.761
 3002SOL     OW 9904   3.787   2.401   0.295
 3002SOL    HW1 9905   3.751   2.311   0.321
 3002SOL    HW2 9906   3.717   2.470   0.308
 3003SOL     OW 9907   0.774   6.654   0.658
 3003SOL    HW1 9908   0.776   6.748   0.623
 3003SOL    HW2 9909   0.703   6.647   0.728
 3004SOL     OW 9910   1.231   4.210   2.374
 3004SOL    HW1 9911   1.195   4.248   2.460
 3004SOL    HW2 9912   1.160   4.154   2.331
 3005SOL     OW 9913   1.579   2.198   0.212
 3005SOL    HW1 9914   1.648   2.226   0.279
 3005SOL    HW2 9915   1.512   2.272   0.202
 3006SOL     OW 9916   5.520   2.366   4.686
 3006SOL    HW1 9917   5.571   2.365   4.600
 3006SOL    HW2 9918   5.445   2.432   4.680
 3007SOL     OW 9919   5.271   4.324   0.969
 3007SOL    HW1 9920   5.300   4.419   0.978
 3007SOL    HW2 9921   5.335   4.264   1.018
 3008SOL     OW 9922   3.211   2.532   6.478
 3008SOL    HW1 9923   3.231   2.623   6.514
 3008SOL    HW2 9924   3.114   2.527   6.454
 3009SOL     OW 9925   6.460   2.520   2.592
 3009SOL    HW1 9926   6.536   2.554   2.536
 3009SOL    HW2 9927   6.470   2.553   2.686
 3010SOL     OW 9928   2.882   5.713   3.894
 3010SOL    HW1 9929   2.834   5.737   3.809
 3010SOL    HW2 9930   2.980   5.706   3.876
 3011SOL     OW 9931   5.874   0.847   2.261
 3011SOL    HW1 9932   5.858   0.798   2.347
 3011SOL    HW2 9933   5.950   0.911   2.273
 3012SOL     OW 9934   2.342   3.091   6.876
 3012SOL    HW1 9935   2.326   3.045   6.788
 3012SOL    HW2 9936   2.377   3.024   6.942
 3013SOL     OW 9937   5.627   5.481   4.070
 3013SOL    HW1 9938   5.610   5.384   4.056
 3013SOL    HW2 9939   5.551   5.534   4.032
 3014SOL     OW 9940   4.650   2.079   5.519
 3014SOL    HW1 9941   4.678   2.104   5.426
 3014SOL    HW2 9942   4.560   2.036   5.516
 3015SOL     OW 9943   1.684   1.739   0.218
 3015SOL    HW1 9944   1.662   1.668   0.285
 3015SOL    HW2 9945   1.632   1.821   0.237
 3016SOL     OW 9946   3.258   6.479   4.446
 3016SOL    HW1 9947   3.336   6.441   4.396
 3016SOL    HW2 9948   3.194   6.406   4.469
 3017SOL     OW 9949   6.485   5.795   2.357
 3017SOL    HW1 9950   6.510   5.699   2.370
 3017SOL    HW2 9951   6.489   5.843   2.445
 3018SOL     OW 9952   2.950   0.334   6.458
 3018SOL    HW1 9953   2.914   0.333   6.551
 3018SOL    HW2 9954   3.015   0.259   6.447
 3019SOL     OW 9955   0.438   0.054   6.586
 3019SOL    HW1 9956   0.355   7.016   6.580
 3019SOL    HW2 9957   0.514   0.006   6.542
 3020SOL     OW 9958   4.024   3.130   0.716
 3020SOL    HW1 9959   4.106   3.112   0.662
 3020SOL    HW2 9960   4.006   3.053   0.776
 3021SOL     OW 9961   3.128   0.274   5.029
 3021SOL    HW1 9962   3.063   0.215   5.077
 3021SOL    HW2 9963   3.116   0.263   4.930
 3022SOL     OW 9964   4.313   5.246   4.415
 3022SOL    HW1 9965   4.392   5.224   4.472
 3022SOL    HW2 9966   4.263   5.323   4.455
 3023SOL     OW 9967   4.338   6.286   3.056
 3023SOL    HW1 9968   4.288   6.327   3.132
 3023SOL    HW2 9969   4.381   6.201   3.086
 3024SOL     OW 9970   5.864   6.534   4.429
 3024SOL    HW1 9971   5.832   6.626   4.408
 3024SOL    HW2 9972   5.788   6.478   4.459
 3025SOL     OW 9973   4.365   6.010   1.815
 3025SOL    HW1 9974   4.352   6.109   1.821
 3025SOL    HW2 9975   4.287   5.963   1.856
 3026SOL     OW 9976   0.194   1.283   5.909
 3026SOL    HW1 9977   0.261   1.268   5.981
 3026SOL    HW2 9978   0.160   1.195   5.876
 3027SOL     OW 9979   3.810   1.942   2.762
 3027SOL    HW1 9980   3.886   1.896   2.809
 3027SOL    HW2 9981   3.726   1.930   2.816
 3028SOL     OW 9982   1.657   3.372   5.401
 3028SOL    HW1 9983   1.567   3.358   5.361
 3028SOL    HW2 9984   1.650   3.434   5.479
 3029SOL     OW 9985   1.352   3.226   4.670
 3029SOL    HW1 9986   1.327   3.146   4.725
 3029SOL    HW2 9987   1.329   3.208   4.574
 3030SOL     OW 9988   1.207   3.118   0.902
 3030SOL    HW1 9989   1.269   3.192   0.876
 3030SOL    HW2 9990   1.257   3.031   0.901
 3031SOL     OW 9991   0.138   5.066   1.191
 3031SOL    HW1 9992   0.148   5.095   1.096
 3031SOL    HW2 9993   0.147   5.144   1.251
 3032SOL     OW 9994   2.182   7.017   1.587
 3032SOL    HW1 9995   2.085   0.018   1.575
 3032SOL    HW2 9996   2.234   0.085   1.576
 3033SOL     OW 9997   5.547   0.922   2.389
 3033SOL    HW1 9998   5.615   0.866   2.436
 3033SOL    HW2 9999   5.522   0.878   2.303
 3034SOL     OW10000   0.859   0.024   3.513
 3034SOL    HW110001   0.839   0.122   3.505
 3034SOL    HW210002   0.774   6.992   3.529
 3035SOL     OW10003   0.843   3.152   6.174
 3035SOL    HW110004   0.757   3.201   6.159
 3035SOL    HW210005   0.867   3.102   6.090
 3036SOL     OW10006   1.501   2.269   5.142
 3036SOL    HW110007   1.540   2.198   5.201
 3036SOL    HW210008   1.433   2.320   5.194
 3037SOL     OW10009   6.269   5.257   5.950
 3037SOL    HW110010   6.332   5.333   5.933
 3037SOL    HW210011   6.308   5.197   6.020
 3038SOL     OW10012   4.932   5.041   5.516
 3038SOL    HW110013   5.004   5.011   5.578
 3038SOL    HW210014   4.844   5.035   5.561
 3039SOL     OW10015   0.798   2.829   0.749
 3039SOL    HW110016   0.845   2.915   0.766
 3039SOL    HW210017   0.833   2.759   0.811
 3040SOL     OW10018   3.484   4.163   5.863
 3040SOL    HW110019   3.497   4.254   5.901
 3040SOL    HW210020   3.482   4.167   5.764
 3041SOL     OW10021   2.293   4.343   5.471
 3041SOL    HW110022   2.311   4.326   5.374
 3041SOL    HW210023   2.369   4.308   5.526
 3042SOL     OW10024   6.067   6.574   3.109
 3042SOL    HW110025   6.137   6.624   3.058
 3042SOL    HW210026   5.987   6.632   3.122
 3043SOL     OW10027   3.056   4.005   1.779
 3043SOL    HW110028   3.053   3.974   1.874
 3043SOL    HW210029   3.046   4.104   1.775
 3044SOL     OW10030   3.205   5.897   5.508
 3044SOL    HW110031   3.107   5.901   5.489
 3044SOL    HW210032   3.248   5.829   5.448
 3045SOL     OW10033   5.074   6.804   3.193
 3045SOL    HW110034   5.156   6.849   3.158
 3045SOL    HW210035   4.993   6.852   3.160
 3046SOL     OW10036   3.710   0.463   6.651
 3046SOL    HW110037   3.798   0.421   6.629
 3046SOL    HW210038   3.721   0.563   6.656
 3047SOL     OW10039   6.089   0.489   1.679
 3047SOL    HW110040   6.186   0.512   1.671
 3047SOL    HW210041   6.057   0.451   1.592
 3048SOL     OW10042   4.082   2.422   0.723
 3048SOL    HW110043   4.145   2.456   0.792
 3048SOL    HW210044   4.132   2.364   0.658
 3049SOL     OW10045   1.463   0.236   3.166
 3049SOL    HW110046   1.376   0.240   3.215
 3049SOL    HW210047   1.538   0.260   3.227
 3050SOL     OW10048   3.035   1.837   1.774
 3050SOL    HW110049   3.130   1.826   1.746
 3050SOL    HW210050   3.029   1.845   1.873
 3051SOL     OW10051   1.826   6.744   6.876
 3051SOL    HW110052   1.789   6.659   6.838
 3051SOL    HW210053   1.918   6.760   6.839
 3052SOL     OW10054   5.286   5.661   2.095
 3052SOL    HW110055   5.306   5.585   2.033
 3052SOL    HW210056   5.336   5.742   2.066
 3053SOL     OW10057   6.870   3.584   1.230
 3053SOL    HW110058   6.966   3.573   1.255
 3053SOL    HW210059   6.816   3.606   1.312
 3054SOL     OW10060   5.784   2.269   1.693
 3054SOL    HW110061   5.864   2.226   1.653
 3054SOL    HW210062   5.811   2.325   1.771
 3055SOL     OW10063   5.177   0.001   5.207
 3055SOL    HW110064   5.250   0.069   5.201
 3055SOL    HW210065   5.092   0.040   5.172
 3056SOL     OW10066   6.148   1.214   5.805
 3056SOL    HW110067   6.048   1.217   5.797
 3056SOL    HW210068   6.188   1.200   5.714
 3057SOL     OW10069   4.355   5.031   3.946
 3057SOL    HW110070   4.452   5.034   3.919
 3057SOL    HW210071   4.345   5.070   4.037
 3058SOL     OW10072   6.849   4.558   1.126
 3058SOL    HW110073   6.831   4.656   1.140
 3058SOL    HW210074   6.788   4.522   1.056
 3059SOL     OW10075   2.845   1.400   4.017
 3059SOL    HW110076   2.932   1.367   4.053
 3059SOL    HW210077   2.861   1.471   3.949
 3060SOL     OW10078   1.785   5.454   0.410
 3060SOL    HW110079   1.744   5.447   0.319
 3060SOL    HW210080   1.834   5.369   0.431
 3061SOL     OW10081   6.210   6.006   5.743
 3061SOL    HW110082   6.169   5.916   5.748
 3061SOL    HW210083   6.255   6.018   5.654
 3062SOL     OW10084   1.745   6.988   1.012
 3062SOL    HW110085   1.661   6.983   0.957
 3062SOL    HW210086   1.760   6.900   1.057
 3063SOL     OW10087   2.311   4.597   1.341
 3063SOL    HW110088   2.395   4.604   1.394
 3063SOL    HW210089   2.329   4.547   1.257
 3064SOL     OW10090   5.109   3.418   0.832
 3064SOL    HW110091   5.105   3.330   0.785
 3064SOL    HW210092   5.156   3.485   0.774
 3065SOL     OW10093   1.448   2.456   6.501
 3065SOL    HW110094   1.496   2.478   6.586
 3065SOL    HW210095   1.372   2.394   6.520
 3066SOL     OW10096   5.248   5.196   0.739
 3066SOL    HW110097   5.155   5.192   0.776
 3066SOL    HW210098   5.288   5.285   0.761
 3067SOL     OW10099   3.616   0.999   6.556
 3067SOL    HW110100   3.713   1.010   6.577
 3067SOL    HW210101   3.589   1.064   6.485
 3068SOL     OW10102   6.926   6.217   1.570
 3068SOL    HW110103   6.912   6.315   1.581
 3068SOL    HW210104   6.947   6.176   1.659
 3069SOL     OW10105   6.707   6.546   2.328
 3069SOL    HW110106   6.789   6.570   2.380
 3069SOL    HW210107   6.720   6.458   2.283
 3070SOL     OW10108   2.675   0.546   6.607
 3070SOL    HW110109   2.759   0.590   6.574
 3070SOL    HW210110   2.599   0.570   6.547
 3071SOL     OW10111   6.974   6.486   4.437
 3071SOL    HW110112   7.009   6.404   4.392
 3071SOL    HW210113   6.885   6.467   4.477
 3072SOL     OW10114   1.974   5.373   6.025
 3072SOL    HW110115   1.886   5.418   6.011
 3072SOL    HW210116   2.047   5.441   6.015
 3073SOL     OW10117   6.898   3.593   3.215
 3073SOL    HW110118   6.948   3.632   3.293
 3073SOL    HW210119   6.876   3.497   3.235
 3074SOL     OW10120   0.284   4.157   1.171
 3074SOL    HW110121   0.249   4.093   1.102
 3074SOL    HW210122   0.368   4.119   1.211
 3075SOL     OW10123   2.689   5.724   2.965
 3075SOL    HW110124   2.706   5.730   2.867
 3075SOL    HW210125   2.670   5.629   2.989
 3076SOL     OW10126   6.654   1.489   3.655
 3076SOL    HW110127   6.720   1.548   3.700
 3076SOL    HW210128   6.646   1.403   3.704
 3077SOL     OW10129   5.585   4.590   2.056
 3077SOL    HW110130   5.561   4.651   1.981
 3077SOL    HW210131   5.680   4.559   2.045
 3078SOL     OW10132   0.058   3.339   2.661
 3078SOL    HW110133   0.139   3.314   2.608
 3078SOL    HW210134   0.013   3.418   2.618
 3079SOL     OW10135   2.633   2.440   2.909
 3079SOL    HW110136   2.546   2.488   2.898
 3079SOL    HW210137   2.659   2.398   2.822
 3080SOL     OW10138   6.238   5.159   2.342
 3080SOL    HW110139   6.259   5.257   2.349
 3080SOL    HW210140   6.301   5.116   2.277
 3081SOL     OW10141   1.004   4.034   5.897
 3081SOL    HW110142   0.920   3.981   5.892
 3081SOL    HW210143   1.073   3.984   5.949
 3082SOL     OW10144   1.869   5.962   4.073
 3082SOL    HW110145   1.876   6.025   3.995
 3082SOL    HW210146   1.853   6.013   4.157
 3083SOL     OW10147   3.234   6.354   3.571
 3083SOL    HW110148   3.242   6.406   3.486
 3083SOL    HW210149   3.301   6.388   3.638
 3084SOL     OW10150   6.241   4.588   3.250
 3084SOL    HW110151   6.302   4.523   3.295
 3084SOL    HW210152   6.252   4.580   3.151
 3085SOL     OW10153   6.493   4.482   0.603
 3085SOL    HW110154   6.450   4.391   0.611
 3085SOL    HW210155   6.481   4.515   0.510
 3086SOL     OW10156   4.988   1.543   0.693
 3086SOL    HW110157   4.967   1.463   0.637
 3086SOL    HW210158   4.903   1.584   0.726
 3087SOL     OW10159   2.181   6.992   3.420
 3087SOL    HW110160   2.128   0.017   3.494
 3087SOL    HW210161   2.149   6.898   3.407
 3088SOL     OW10162   2.046   3.750   4.998
 3088SOL    HW110163   2.071   3.809   4.921
 3088SOL    HW210164   1.950   3.724   4.989
 3089SOL     OW10165   4.189   2.046   4.605
 3089SOL    HW110166   4.124   2.019   4.534
 3089SOL    HW210167   4.165   2.136   4.640
 3090SOL     OW10168   2.438   1.495   1.677
 3090SOL    HW110169   2.395   1.438   1.748
 3090SOL    HW210170   2.377   1.499   1.598
 3091SOL     OW10171   1.619   1.298   0.620
 3091SOL    HW110172   1.622   1.199   0.633
 3091SOL    HW210173   1.566   1.319   0.538
 3092SOL     OW10174   5.506   6.841   0.561
 3092SOL    HW110175   5.418   6.827   0.608
 3092SOL    HW210176   5.500   6.804   0.468
 3093SOL     OW10177   5.265   5.814   6.472
 3093SOL    HW110178   5.220   5.878   6.409
 3093SOL    HW210179   5.224   5.723   6.462
 3094SOL     OW10180   2.496   0.021   4.208
 3094SOL    HW110181   2.495   6.955   4.154
 3094SOL    HW210182   2.441   0.008   4.291
 3095SOL     OW10183   2.331   4.282   5.195
 3095SOL    HW110184   2.354   4.350   5.126
 3095SOL    HW210185   2.348   4.191   5.159
 3096SOL     OW10186   1.081   5.167   5.420
 3096SOL    HW110187   1.165   5.221   5.412
 3096SOL    HW210188   1.104   5.071   5.432
 3097SOL     OW10189   6.010   3.606   6.759
 3097SOL    HW110190   6.049   3.627   6.849
 3097SOL    HW210191   5.934   3.541   6.770
 3098SOL     OW10192   1.749   2.954   1.615
 3098SOL    HW110193   1.730   2.871   1.669
 3098SOL    HW210194   1.834   2.941   1.564
 3099SOL     OW10195   1.310   6.279   3.854
 3099SOL    HW110196   1.355   6.332   3.782
 3099SOL    HW210197   1.272   6.341   3.923
 3100SOL     OW10198   6.749   6.056   4.033
 3100SOL    HW110199   6.726   5.993   4.107
 3100SOL    HW210200   6.754   6.149   4.068
 3101SOL     OW10201   5.664   5.879   6.061
 3101SOL    HW110202   5.657   5.979   6.060
 3101SOL    HW210203   5.618   5.843   6.141
 3102SOL     OW10204   6.197   6.802   1.245
 3102SOL    HW110205   6.150   6.844   1.323
 3102SOL    HW210206   6.149   6.719   1.218
 3103SOL     OW10207   4.481   1.428   1.754
 3103SOL    HW110208   4.473   1.414   1.655
 3103SOL    HW210209   4.482   1.525   1.774
 3104SOL     OW10210   4.331   0.541   6.409
 3104SOL    HW110211   4.267   0.466   6.426
 3104SOL    HW210212   4.421   0.517   6.447
 3105SOL     OW10213   5.813   4.025   1.279
 3105SOL    HW110214   5.879   4.062   1.345
 3105SOL    HW210215   5.861   3.993   1.198
 3106SOL     OW10216   4.863   6.578   4.607
 3106SOL    HW110217   4.927   6.513   4.565
 3106SOL    HW210218   4.913   6.646   4.659
 3107SOL     OW10219   3.589   0.790   4.704
 3107SOL    HW110220   3.615   0.865   4.644
 3107SOL    HW210221   3.535   0.723   4.652
 3108SOL     OW10222   2.281   5.572   4.702
 3108SOL    HW110223   2.322   5.499   4.646
 3108SOL    HW210224   2.235   5.532   4.781
 3109SOL     OW10225   5.799   6.994   3.698
 3109SOL    HW110226   5.863   7.014   3.772
 3109SOL    HW210227   5.813   0.041   3.623
 3110SOL     OW10228   1.507   3.687   2.979
 3110SOL    HW110229   1.564   3.616   2.939
 3110SOL    HW210230   1.427   3.646   3.023
 3111SOL     OW10231   6.975   5.080   3.596
 3111SOL    HW110232   0.055   5.063   3.613
 3111SOL    HW210233   6.933   5.117   3.679
 3112SOL     OW10234   3.175   3.351   0.240
 3112SOL    HW110235   3.185   3.293   0.321
 3112SOL    HW210236   3.227   3.435   0.253
 3113SOL     OW10237   3.489   5.220   2.843
 3113SOL    HW110238   3.456   5.168   2.922
 3113SOL    HW210239   3.411   5.254   2.791
 3114SOL     OW10240   3.676   1.785   0.465
 3114SOL    HW110241   3.701   1.881   0.454
 3114SOL    HW210242   3.603   1.763   0.400
 3115SOL     OW10243   4.073   4.756   6.314
 3115SOL    HW110244   4.118   4.683   6.262
 3115SOL    HW210245   4.055   4.834   6.254
 3116SOL     OW10246   6.696   2.002   6.805
 3116SOL    HW110247   6.613   2.055   6.787
 3116SOL    HW210248   6.752   1.999   6.722
 3117SOL     OW10249   4.588   4.062   5.352
 3117SOL    HW110250   4.632   3.975   5.332
 3117SOL    HW210251   4.657   4.134   5.357
 3118SOL     OW10252   1.102   4.943   2.260
 3118SOL    HW110253   1.023   4.987   2.218
 3118SOL    HW210254   1.169   5.013   2.286
 3119SOL     OW10255   2.484   2.397   0.200
 3119SOL    HW110256   2.549   2.400   0.125
 3119SOL    HW210257   2.500   2.314   0.255
 3120SOL     OW10258   2.596   0.647   5.622
 3120SOL    HW110259   2.635   0.607   5.538
 3120SOL    HW210260   2.657   0.627   5.699
 3121SOL     OW10261   6.220   1.574   4.438
 3121SOL    HW110262   6.302   1.590   4.382
 3121SOL    HW210263   6.158   1.513   4.389
 3122SOL     OW10264   4.837   5.804   5.469
 3122SOL    HW110265   4.916   5.787   5.411
 3122SOL    HW210266   4.867   5.851   5.553
 3123SOL     OW10267   2.205   1.376   2.502
 3123SOL    HW110268   2.169   1.318   2.575
 3123SOL    HW210269   2.169   1.469   2.512
 3124SOL     OW10270   4.785   0.036   4.359
 3124SOL    HW110271   4.696   0.082   4.356
 3124SOL    HW210272   4.791   6.988   4.284
 3125SOL     OW10273   1.033   3.286   5.189
 3125SOL    HW110274   1.054   3.348   5.114
 3125SOL    HW210275   0.934   3.280   5.201
 3126SOL     OW10276   5.436   4.278   5.383
 3126SOL    HW110277   5.445   4.191   5.432
 3126SOL    HW210278   5.370   4.267   5.308
 3127SOL     OW10279   2.063   2.352   6.494
 3127SOL    HW110280   2.109   2.428   6.540
 3127SOL    HW210281   2.131   2.292   6.452
 3128SOL     OW10282   3.447   1.329   6.548
 3128SOL    HW110283   3.466   1.273   6.467
 3128SOL    HW210284   3.381   1.400   6.525
 3129SOL     OW10285   6.456   3.651   0.192
 3129SOL    HW110286   6.370   3.634   0.240
 3129SOL    HW210287   6.450   3.614   0.099
 3130SOL     OW10288   2.134   4.409   2.240
 3130SOL    HW110289   2.071   4.375   2.171
 3130SOL    HW210290   2.087   4.416   2.328
 3131SOL     OW10291   0.855   3.310   1.769
 3131SOL    HW110292   0.913   3.231   1.751
 3131SOL    HW210293   0.761   3.280   1.786
 3132SOL     OW10294   5.127   5.252   6.511
 3132SOL    HW110295   5.211   5.217   6.551
 3132SOL    HW210296   5.055   5.252   6.580
 3133SOL     OW10297   3.020   1.281   3.272
 3133SOL    HW110298   3.046   1.351   3.339
 3133SOL    HW210299   2.982   1.202   3.320
 3134SOL     OW10300   4.035   4.450   1.157
 3134SOL    HW110301   4.010   4.456   1.060
 3134SOL    HW210302   4.022   4.357   1.189
 3135SOL     OW10303   4.684   0.207   5.386
 3135SOL    HW110304   4.782   0.216   5.365
 3135SOL    HW210305   4.640   0.151   5.315
 3136SOL     OW10306   5.263   6.971   2.515
 3136SOL    HW110307   5.177   6.940   2.476
 3136SOL    HW210308   5.283   0.046   2.483
 3137SOL     OW10309   6.562   6.860   2.793
 3137SOL    HW110310   6.607   6.910   2.719
 3137SOL    HW210311   6.516   6.925   2.854
 3138SOL     OW10312   6.893   6.147   3.708
 3138SOL    HW110313   6.913   6.112   3.799
 3138SOL    HW210314   6.853   6.238   3.715
 3139SOL     OW10315   3.640   5.157   0.364
 3139SOL    HW110316   3.634   5.240   0.419
 3139SOL    HW210317   3.736   5.131   0.354
 3140SOL     OW10318   6.292   6.475   6.202
 3140SOL    HW110319   6.251   6.390   6.234
 3140SOL    HW210320   6.316   6.466   6.106
 3141SOL     OW10321   0.843   0.536   6.643
 3141SOL    HW110322   0.743   0.524   6.638
 3141SOL    HW210323   0.887   0.446   6.642
 3142SOL     OW10324   2.929   6.970   2.716
 3142SOL    HW110325   2.830   6.968   2.704
 3142SOL    HW210326   2.956   6.898   2.779
 3143SOL     OW10327   6.331   1.742   6.964
 3143SOL    HW110328   6.313   1.824   0.001
 3143SOL    HW210329   6.412   1.756   6.908
 3144SOL     OW10330   4.546   3.889   0.900
 3144SOL    HW110331   4.510   3.858   0.812
 3144SOL    HW210332   4.645   3.902   0.894
 3145SOL     OW10333   2.191   6.367   2.220
 3145SOL    HW110334   2.150   6.348   2.131
 3145SOL    HW210335   2.122   6.355   2.291
 3146SOL     OW10336   0.857   1.457   4.344
 3146SOL    HW110337   0.933   1.497   4.394
 3146SOL    HW210338   0.892   1.385   4.283
 3147SOL     OW10339   2.932   5.388   0.277
 3147SOL    HW110340   2.982   5.387   0.191
 3147SOL    HW210341   2.963   5.313   0.335
 3148SOL     OW10342   6.935   6.734   3.801
 3148SOL    HW110343   7.014   6.766   3.749
 3148SOL    HW210344   6.900   6.809   3.857
 3149SOL     OW10345   3.271   0.997   6.442
 3149SOL    HW110346   3.246   0.982   6.346
 3149SOL    HW210347   3.358   0.950   6.461
 3150SOL     OW10348   6.675   5.645   5.490
 3150SOL    HW110349   6.767   5.617   5.518
 3150SOL    HW210350   6.623   5.564   5.463
 3151SOL     OW10351   0.592   1.236   5.124
 3151SOL    HW110352   0.528   1.248   5.200
 3151SOL    HW210353   0.543   1.248   5.038
 3152SOL     OW10354   0.877   5.032   0.516
 3152SOL    HW110355   0.880   5.062   0.421
 3152SOL    HW210356   0.967   4.998   0.544
 3153SOL     OW10357   6.421   5.574   0.001
 3153SOL    HW110358   6.361   5.497   6.996
 3153SOL    HW210359   6.366   5.656   0.018
 3154SOL     OW10360   0.056   2.258   6.767
 3154SOL    HW110361   0.041   2.282   6.863
 3154SOL    HW210362   0.129   2.314   6.730
 3155SOL     OW10363   6.622   5.100   0.557
 3155SOL    HW110364   6.584   5.047   0.633
 3155SOL    HW210365   6.608   5.197   0.575
 3156SOL     OW10366   2.883   3.206   2.061
 3156SOL    HW110367   2.790   3.185   2.091
 3156SOL    HW210368   2.880   3.277   1.991
 3157SOL     OW10369   2.496   1.683   6.205
 3157SOL    HW110370   2.478   1.585   6.216
 3157SOL    HW210371   2.574   1.695   6.143
 3158SOL     OW10372   3.400   1.502   4.085
 3158SOL    HW110373   3.404   1.599   4.062
 3158SOL    HW210374   3.377   1.491   4.182
 3159SOL     OW10375   5.663   0.189   6.721
 3159SOL    HW110376   5.600   0.245   6.667
 3159SOL    HW210377   5.753   0.189   6.677
 3160SOL     OW10378   1.291   6.064   5.609
 3160SOL    HW110379   1.214   6.086   5.669
 3160SOL    HW210380   1.321   6.147   5.562
 3161SOL     OW10381   2.029   2.978   2.996
 3161SOL    HW110382   2.020   2.982   2.897
 3161SOL    HW210383   2.062   3.067   3.030
 3162SOL     OW10384   1.897   5.275   1.762
 3162SOL    HW110385   1.808   5.240   1.790
 3162SOL    HW210386   1.910   5.260   1.664
 3163SOL     OW10387   4.428   4.061   6.475
 3163SOL    HW110388   4.347   4.068   6.532
 3163SOL    HW210389   4.486   3.987   6.509
 3164SOL     OW10390   3.845   5.754   0.889
 3164SOL    HW110391   3.840   5.658   0.917
 3164SOL    HW210392   3.824   5.761   0.792
 3165SOL     OW10393   1.085   6.965   1.754
 3165SOL    HW110394   1.021   6.978   1.679
 3165SOL    HW210395   1.146   6.888   1.733
 3166SOL     OW10396   4.108   1.799   3.336
 3166SOL    HW110397   4.049   1.872   3.301
 3166SOL    HW210398   4.169   1.836   3.406
 3167SOL     OW10399   5.544   4.220   1.107
 3167SOL    HW110400   5.622   4.162   1.085
 3167SOL    HW210401   5.554   4.308   1.061
 3168SOL     OW10402   5.317   2.447   0.317
 3168SOL    HW110403   5.357   2.421   0.405
 3168SOL    HW210404   5.391   2.469   0.253
 3169SOL     OW10405   2.370   4.342   4.090
 3169SOL    HW110406   2.441   4.412   4.089
 3169SOL    HW210407   2.333   4.331   3.997
 3170SOL     OW10408   4.074   5.826   1.675
 3170SOL    HW110409   4.099   5.920   1.653
 3170SOL    HW210410   3.999   5.825   1.741
 3171SOL     OW10411   0.051   1.369   2.209
 3171SOL    HW110412   6.995   1.414   2.259
 3171SOL    HW210413   0.029   1.365   2.112
 3172SOL     OW10414   0.174   5.749   7.015
 3172SOL    HW110415   0.233   5.813   6.966
 3172SOL    HW210416   0.099   5.800   0.041
 3173SOL     OW10417   3.557   2.786   0.195
 3173SOL    HW110418   3.551   2.759   0.291
 3173SOL    HW210419   3.492   2.734   0.141
 3174SOL     OW10420   3.220   2.947   0.265
 3174SOL    HW110421   3.131   2.909   0.288
 3174SOL    HW210422   3.271   2.965   0.349
 3175SOL     OW10423   5.920   0.956   1.497
 3175SOL    HW110424   5.940   0.891   1.424
 3175SOL    HW210425   5.836   0.929   1.544
 3176SOL     OW10426   1.084   3.898   5.635
 3176SOL    HW110427   1.153   3.956   5.677
 3176SOL    HW210428   1.113   3.873   5.542
 3177SOL     OW10429   4.637   4.677   3.693
 3177SOL    HW110430   4.549   4.714   3.664
 3177SOL    HW210431   4.660   4.712   3.784
 3178SOL     OW10432   6.485   2.351   0.885
 3178SOL    HW110433   6.471   2.254   0.867
 3178SOL    HW210434   6.396   2.398   0.889
 3179SOL     OW10435   0.972   2.275   1.799
 3179SOL    HW110436   0.946   2.262   1.895
 3179SOL    HW210437   1.048   2.214   1.777
 3180SOL     OW10438   5.846   0.767   0.422
 3180SOL    HW110439   5.872   0.695   0.487
 3180SOL    HW210440   5.758   0.745   0.381
 3181SOL     OW10441   6.467   1.920   2.853
 3181SOL    HW110442   6.480   2.012   2.817
 3181SOL    HW210443   6.371   1.894   2.845
 3182SOL     OW10444   2.580   0.227   6.823
 3182SOL    HW110445   2.545   0.319   6.804
 3182SOL    HW210446   2.507   0.160   6.811
 3183SOL     OW10447   4.813   4.163   2.015
 3183SOL    HW110448   4.722   4.204   2.019
 3183SOL    HW210449   4.818   4.086   2.079
 3184SOL     OW10450   0.906   2.700   2.775
 3184SOL    HW110451   0.967   2.646   2.834
 3184SOL    HW210452   0.960   2.758   2.715
 3185SOL     OW10453   4.921   5.747   6.488
 3185SOL    HW110454   4.976   5.666   6.510
 3185SOL    HW210455   4.928   5.765   6.390
 3186SOL     OW10456   3.281   1.914   0.863
 3186SOL    HW110457   3.267   2.005   0.824
 3186SOL    HW210458   3.342   1.862   0.804
 3187SOL     OW10459   4.696   5.335   0.294
 3187SOL    HW110460   4.616   5.342   0.235
 3187SOL    HW210461   4.671   5.285   0.377
 3188SOL     OW10462   1.233   6.995   4.426
 3188SOL    HW110463   1.240   0.024   4.514
 3188SOL    HW210464   1.183   6.909   4.437
 3189SOL     OW10465   1.203   1.813   1.132
 3189SOL    HW110466   1.159   1.904   1.132
 3189SOL    HW210467   1.292   1.819   1.089
 3190SOL     OW10468   0.626   5.356   0.404
 3190SOL    HW110469   0.574   5.434   0.439
 3190SOL    HW210470   0.715   5.352   0.450
 3191SOL     OW10471   5.222   5.686   1.002
 3191SOL    HW110472   5.185   5.647   0.918
 3191SOL    HW210473   5.322   5.676   1.002
 3192SOL     OW10474   0.348   3.362   1.500
 3192SOL    HW110475   0.259   3.355   1.456
 3192SOL    HW210476   0.417   3.391   1.434
 3193SOL     OW10477   4.466   0.806   6.578
 3193SOL    HW110478   4.436   0.716   6.547
 3193SOL    HW210479   4.528   0.846   6.509
 3194SOL     OW10480   1.260   1.758   6.591
 3194SOL    HW110481   1.247   1.675   6.537
 3194SOL    HW210482   1.252   1.838   6.531
 3195SOL     OW10483   2.220   1.431   3.467
 3195SOL    HW110484   2.217   1.407   3.565
 3195SOL    HW210485   2.144   1.491   3.445
 3196SOL     OW10486   0.664   0.957   6.611
 3196SOL    HW110487   0.628   0.926   6.699
 3196SOL    HW210488   0.692   0.878   6.557
 3197SOL     OW10489   3.049   6.479   4.096
 3197SOL    HW110490   2.966   6.434   4.130
 3197SOL    HW210491   3.085   6.541   4.166
 3198SOL     OW10492   6.001   3.184   3.779
 3198SOL    HW110493   5.905   3.157   3.774
 3198SOL    HW210494   6.059   3.103   3.781
 3199SOL     OW10495   5.037   4.068   2.888
 3199SOL    HW110496   5.134   4.081   2.872
 3199SOL    HW210497   5.017   4.074   2.986
 3200SOL     OW10498   5.685   3.293   2.812
 3200SOL    HW110499   5.595   3.252   2.795
 3200SOL    HW210500   5.680   3.391   2.796
 3201SOL     OW10501   6.473   4.381   3.877
 3201SOL    HW110502   6.522   4.468   3.886
 3201SOL    HW210503   6.460   4.359   3.781
 3202SOL     OW10504   1.422   4.644   1.524
 3202SOL    HW110505   1.344   4.675   1.469
 3202SOL    HW210506   1.401   4.555   1.564
 3203SOL     OW10507   6.264   2.550   0.621
 3203SOL    HW110508   6.218   2.478   0.674
 3203SOL    HW210509   6.356   2.519   0.597
 3204SOL     OW10510   4.856   6.112   3.064
 3204SOL    HW110511   4.928   6.058   3.019
 3204SOL    HW210512   4.772   6.107   3.010
 3205SOL     OW10513   5.289   2.775   5.782
 3205SOL    HW110514   5.292   2.815   5.874
 3205SOL    HW210515   5.327   2.683   5.784
 3206SOL     OW10516   2.275   4.813   0.157
 3206SOL    HW110517   2.234   4.723   0.169
 3206SOL    HW210518   2.268   4.841   0.061
 3207SOL     OW10519   1.135   1.137   6.430
 3207SOL    HW110520   1.218   1.126   6.376
 3207SOL    HW210521   1.149   1.209   6.498
 3208SOL     OW10522   4.623   6.685   5.899
 3208SOL    HW110523   4.550   6.750   5.876
 3208SOL    HW210524   4.654   6.639   5.816
 3209SOL     OW10525   4.011   5.281   3.691
 3209SOL    HW110526   4.101   5.256   3.728
 3209SOL    HW210527   4.005   5.251   3.596
 3210SOL     OW10528   1.086   3.805   0.616
 3210SOL    HW110529   1.008   3.745   0.634
 3210SOL    HW210530   1.085   3.882   0.680
 3211SOL     OW10531   1.701   3.447   0.739
 3211SOL    HW110532   1.696   3.425   0.837
 3211SOL    HW210533   1.696   3.362   0.686
 3212SOL     OW10534   3.110   0.078   1.511
 3212SOL    HW110535   3.189   0.046   1.458
 3212SOL    HW210536   3.119   0.177   1.526
 3213SOL     OW10537   1.124   0.194   0.428
 3213SOL    HW110538   1.069   0.130   0.482
 3213SOL    HW210539   1.073   0.221   0.346
 3214SOL     OW10540   4.325   5.577   0.520
 3214SOL    HW110541   4.258   5.627   0.575
 3214SOL    HW210542   4.278   5.517   0.456
 3215SOL     OW10543   0.477   3.497   1.325
 3215SOL    HW110544   0.477   3.583   1.375
 3215SOL    HW210545   0.476   3.515   1.227
 3216SOL     OW10546   6.204   5.733   6.847
 3216SOL    HW110547   6.203   5.634   6.861
 3216SOL    HW210548   6.112   5.764   6.827
 3217SOL     OW10549   0.165   4.999   2.200
 3217SOL    HW110550   0.254   5.028   2.237
 3217SOL    HW210551   0.177   4.965   2.107
 3218SOL     OW10552   4.719   2.720   3.609
 3218SOL    HW110553   4.726   2.745   3.706
 3218SOL    HW210554   4.726   2.803   3.553
 3219SOL     OW10555   0.833   1.845   3.623
 3219SOL    HW110556   0.799   1.795   3.543
 3219SOL    HW210557   0.933   1.843   3.624
 3220SOL     OW10558   6.946   5.591   6.287
 3220SOL    HW110559   6.955   5.670   6.347
 3220SOL    HW210560   6.957   5.507   6.340
 3221SOL     OW10561   4.254   0.212   1.946
 3221SOL    HW110562   4.216   0.291   1.898
 3221SOL    HW210563   4.235   0.129   1.894
 3222SOL     OW10564   3.098   0.784   2.985
 3222SOL    HW110565   3.135   0.864   3.034
 3222SOL    HW210566   3.003   0.802   2.960
 3223SOL     OW10567   2.386   6.580   6.332
 3223SOL    HW110568   2.322   6.623   6.268
 3223SOL    HW210569   2.415   6.491   6.296
 3224SOL     OW10570   5.094   3.569   5.927
 3224SOL    HW110571   4.998   3.546   5.915
 3224SOL    HW210572   5.149   3.520   5.859
 3225SOL     OW10573   5.111   2.664   5.587
 3225SOL    HW110574   5.031   2.649   5.645
 3225SOL    HW210575   5.177   2.722   5.636
 3226SOL     OW10576   2.564   1.505   2.918
 3226SOL    HW110577   2.660   1.478   2.914
 3226SOL    HW210578   2.546   1.575   2.848
 3227SOL     OW10579   3.283   2.950   7.017
 3227SOL    HW110580   3.248   2.934   0.092
 3227SOL    HW210581   3.273   2.866   6.963
 3228SOL     OW10582   0.351   4.019   1.523
 3228SOL    HW110583   0.329   4.022   1.620
 3228SOL    HW210584   0.354   3.924   1.493
 3229SOL     OW10585   4.083   0.488   4.760
 3229SOL    HW110586   3.995   0.532   4.741
 3229SOL    HW210587   4.081   0.394   4.725
 3230SOL     OW10588   2.644   4.377   5.332
 3230SOL    HW110589   2.717   4.422   5.383
 3230SOL    HW210590   2.638   4.417   5.240
 3231SOL     OW10591   2.639   6.829   1.282
 3231SOL    HW110592   2.731   6.848   1.316
 3231SOL    HW210593   2.628   6.866   1.190
 3232SOL     OW10594   5.055   6.405   4.383
 3232SOL    HW110595   5.074   6.405   4.481
 3232SOL    HW210596   5.012   6.318   4.357
 3233SOL     OW10597   0.467   2.817   1.254
 3233SOL    HW110598   0.564   2.843   1.249
 3233SOL    HW210599   0.414   2.894   1.287
 3234SOL     OW10600   0.473   2.223   6.791
 3234SOL    HW110601   0.525   2.142   6.817
 3234SOL    HW210602   0.465   2.284   6.870
 3235SOL     OW10603   6.449   0.349   2.510
 3235SOL    HW110604   6.360   0.313   2.536
 3235SOL    HW210605   6.482   0.410   2.582
 3236SOL     OW10606   1.677   3.186   0.517
 3236SOL    HW110607   1.762   3.150   0.554
 3236SOL    HW210608   1.600   3.132   0.551
 3237SOL     OW10609   5.563   1.384   3.547
 3237SOL    HW110610   5.546   1.324   3.625
 3237SOL    HW210611   5.552   1.480   3.575
 3238SOL     OW10612   0.394   5.250   0.707
 3238SOL    HW110613   0.340   5.291   0.634
 3238SOL    HW210614   0.445   5.172   0.671
 3239SOL     OW10615   6.532   1.488   2.200
 3239SOL    HW110616   6.518   1.455   2.106
 3239SOL    HW210617   6.572   1.415   2.256
 3240SOL     OW10618   6.934   6.827   5.968
 3240SOL    HW110619   7.001   6.753   5.979
 3240SOL    HW210620   6.951   6.897   6.038
 3241SOL     OW10621   4.754   1.075   4.630
 3241SOL    HW110622   4.770   1.082   4.728
 3241SOL    HW210623   4.665   1.115   4.608
 3242SOL     OW10624   4.560   3.830   7.014
 3242SOL    HW110625   4.546   3.864   6.921
 3242SOL    HW210626   4.479   3.778   0.025
 3243SOL     OW10627   4.495   4.473   0.472
 3243SOL    HW110628   4.543   4.462   0.385
 3243SOL    HW210629   4.472   4.383   0.509
 3244SOL     OW10630   4.565   5.720   0.234
 3244SOL    HW110631   4.575   5.817   0.257
 3244SOL    HW210632   4.479   5.706   0.184
 3245SOL     OW10633   5.313   3.518   4.799
 3245SOL    HW110634   5.266   3.582   4.859
 3245SOL    HW210635   5.250   3.445   4.772
 3246SOL     OW10636   5.694   0.545   2.886
 3246SOL    HW110637   5.766   0.606   2.852
 3246SOL    HW210638   5.609   0.564   2.838
 3247SOL     OW10639   6.491   4.436   2.559
 3247SOL    HW110640   6.490   4.481   2.649
 3247SOL    HW210641   6.583   4.402   2.540
 3248SOL     OW10642   5.755   3.814   1.615
 3248SOL    HW110643   5.840   3.788   1.569
 3248SOL    HW210644   5.777   3.870   1.695
 3249SOL     OW10645   3.863   4.055   4.174
 3249SOL    HW110646   3.885   4.140   4.127
 3249SOL    HW210647   3.768   4.056   4.203
 3250SOL     OW10648   5.722   7.005   2.228
 3250SOL    HW110649   5.720   0.040   2.313
 3250SOL    HW210650   5.697   6.910   2.247
 3251SOL     OW10651   2.776   0.814   3.776
 3251SOL    HW110652   2.695   0.824   3.834
 3251SOL    HW210653   2.844   0.758   3.823
 3252SOL     OW10654   2.212   1.182   2.750
 3252SOL    HW110655   2.130   1.178   2.693
 3252SOL    HW210656   2.186   1.197   2.845
 3253SOL     OW10657   4.660   4.088   1.768
 3253SOL    HW110658   4.566   4.109   1.795
 3253SOL    HW210659   4.724   4.140   1.825
 3254SOL     OW10660   5.512   6.224   5.524
 3254SOL    HW110661   5.478   6.167   5.599
 3254SOL    HW210662   5.533   6.166   5.445
 3255SOL     OW10663   5.316   6.428   0.598
 3255SOL    HW110664   5.329   6.337   0.637
 3255SOL    HW210665   5.287   6.419   0.503
 3256SOL     OW10666   3.521   1.097   0.808
 3256SOL    HW110667   3.456   1.171   0.787
 3256SOL    HW210668   3.528   1.036   0.730
 3257SOL     OW10669   1.686   1.948   1.766
 3257SOL    HW110670   1.588   1.931   1.753
 3257SOL    HW210671   1.732   1.862   1.789
 3258SOL     OW10672   4.913   5.765   2.534
 3258SOL    HW110673   4.977   5.829   2.576
 3258SOL    HW210674   4.906   5.786   2.436
 3259SOL     OW10675   4.760   5.179   4.923
 3259SOL    HW110676   4.708   5.096   4.944
 3259SOL    HW210677   4.730   5.253   4.983
 3260SOL     OW10678   1.056   2.041   0.913
 3260SOL    HW110679   1.106   2.124   0.887
 3260SOL    HW210680   1.086   1.965   0.855
 3261SOL     OW10681   5.489   0.530   1.853
 3261SOL    HW110682   5.509   0.617   1.897
 3261SOL    HW210683   5.474   0.460   1.923
 3262SOL     OW10684   3.153   2.160   2.486
 3262SOL    HW110685   3.089   2.224   2.528
 3262SOL    HW210686   3.105   2.109   2.414
 3263SOL     OW10687   2.357   0.961   3.227
 3263SOL    HW110688   2.415   0.990   3.151
 3263SOL    HW210689   2.351   1.035   3.294
 3264SOL     OW10690   1.326   4.491   0.937
 3264SOL    HW110691   1.311   4.403   0.983
 3264SOL    HW210692   1.383   4.478   0.857
 3265SOL     OW10693   5.346   0.780   6.574
 3265SOL    HW110694   5.354   0.880   6.584
 3265SOL    HW210695   5.272   0.759   6.511
 3266SOL     OW10696   1.744   4.224   0.017
 3266SOL    HW110697   1.781   4.316   0.023
 3266SOL    HW210698   1.819   4.158   0.013
 3267SOL     OW10699   3.438   6.547   1.209
 3267SOL    HW110700   3.462   6.455   1.239
 3267SOL    HW210701   3.339   6.558   1.209
 3268SOL     OW10702   1.803   3.548   1.579
 3268SOL    HW110703   1.870   3.481   1.609
 3268SOL    HW210704   1.849   3.632   1.551
 3269SOL     OW10705   4.931   5.514   1.863
 3269SOL    HW110706   4.982   5.537   1.780
 3269SOL    HW210707   4.855   5.453   1.839
 3270SOL     OW10708   1.325   4.219   5.902
 3270SOL    HW110709   1.230   4.245   5.922
 3270SOL    HW210710   1.385   4.296   5.920
 3271SOL     OW10711   5.705   3.769   2.553
 3271SOL    HW110712   5.633   3.774   2.484
 3271SOL    HW210713   5.716   3.674   2.582
 3272SOL     OW10714   3.217   4.570   5.988
 3272SOL    HW110715   3.196   4.487   6.039
 3272SOL    HW210716   3.161   4.646   6.022
 3273SOL     OW10717   6.930   5.875   0.686
 3273SOL    HW110718   6.831   5.887   0.699
 3273SOL    HW210719   6.970   5.843   0.771
 3274SOL     OW10720   5.377   0.927   0.880
 3274SOL    HW110721   5.373   1.023   0.850
 3274SOL    HW210722   5.380   0.867   0.800
 3275SOL     OW10723   5.768   1.338   6.726
 3275SOL    HW110724   5.753   1.239   6.732
 3275SOL    HW210725   5.683   1.386   6.749
 3276SOL     OW10726   2.950   5.891   6.671
 3276SOL    HW110727   2.927   5.981   6.634
 3276SOL    HW210728   2.969   5.898   6.769
 3277SOL     OW10729   3.994   6.808   0.023
 3277SOL    HW110730   4.010   6.710   0.037
 3277SOL    HW210731   4.067   6.846   6.984
 3278SOL     OW10732   0.695   1.055   5.483
 3278SOL    HW110733   0.728   0.963   5.503
 3278SOL    HW210734   0.632   1.084   5.556
 3279SOL     OW10735   5.021   0.420   0.644
 3279SOL    HW110736   5.090   0.439   0.714
 3279SOL    HW210737   4.976   0.333   0.664
 3280SOL     OW10738   4.127   4.917   4.245
 3280SOL    HW110739   4.118   4.972   4.328
 3280SOL    HW210740   4.161   4.975   4.171
 3281SOL     OW10741   1.988   5.031   2.311
 3281SOL    HW110742   2.006   4.933   2.300
 3281SOL    HW210743   1.943   5.065   2.228
 3282SOL     OW10744   6.855   5.343   5.459
 3282SOL    HW110745   6.916   5.269   5.487
 3282SOL    HW210746   6.888   5.429   5.497
 3283SOL     OW10747   3.487   0.304   0.950
 3283SOL    HW110748   3.575   0.288   0.995
 3283SOL    HW210749   3.469   0.402   0.944
 3284SOL     OW10750   0.316   4.747   0.110
 3284SOL    HW110751   0.283   4.669   0.057
 3284SOL    HW210752   0.239   4.806   0.135
 3285SOL     OW10753   4.248   2.334   3.207
 3285SOL    HW110754   4.205   2.275   3.139
 3285SOL    HW210755   4.339   2.362   3.175
 3286SOL     OW10756   3.462   2.874   2.402
 3286SOL    HW110757   3.407   2.865   2.319
 3286SOL    HW210758   3.491   2.970   2.412
 3287SOL     OW10759   0.795   0.330   0.042
 3287SOL    HW110760   0.702   0.294   0.029
 3287SOL    HW210761   0.793   0.400   0.113
 3288SOL     OW10762   0.820   5.632   6.201
 3288SOL    HW110763   0.885   5.556   6.201
 3288SOL    HW210764   0.846   5.698   6.130
 3289SOL     OW10765   2.526   0.340   5.281
 3289SOL    HW110766   2.445   0.386   5.318
 3289SOL    HW210767   2.503   0.297   5.194
 3290SOL     OW10768   6.910   6.505   1.529
 3290SOL    HW110769   6.898   6.531   1.434
 3290SOL    HW210770   6.980   6.562   1.571
 3291SOL     OW10771   1.706   0.234   0.255
 3291SOL    HW110772   1.757   0.183   0.324
 3291SOL    HW210773   1.768   0.266   0.183
 3292SOL     OW10774   0.293   1.180   0.466
 3292SOL    HW110775   0.306   1.271   0.505
 3292SOL    HW210776   0.235   1.126   0.527
 3293SOL     OW10777   0.358   4.043   1.805
 3293SOL    HW110778   0.400   3.963   1.849
 3293SOL    HW210779   0.427   4.115   1.793
 3294SOL     OW10780   5.806   2.041   6.232
 3294SOL    HW110781   5.820   2.140   6.232
 3294SOL    HW210782   5.713   2.020   6.205
 3295SOL     OW10783   1.421   2.316   1.882
 3295SOL    HW110784   1.345   2.251   1.891
 3295SOL    HW210785   1.455   2.340   1.973
 3296SOL     OW10786   1.503   6.951   2.757
 3296SOL    HW110787   1.476   6.854   2.761
 3296SOL    HW210788   1.539   6.979   2.847
 3297SOL     OW10789   3.220   1.096   5.490
 3297SOL    HW110790   3.190   1.108   5.585
 3297SOL    HW210791   3.299   1.155   5.473
 3298SOL     OW10792   6.090   2.009   5.322
 3298SOL    HW110793   6.105   2.099   5.363
 3298SOL    HW210794   5.992   1.988   5.322
 3299SOL     OW10795   3.304   5.480   3.200
 3299SOL    HW110796   3.298   5.540   3.121
 3299SOL    HW210797   3.276   5.529   3.283
 3300SOL     OW10798   6.548   0.964   4.893
 3300SOL    HW110799   6.511   0.949   4.985
 3300SOL    HW210800   6.571   1.061   4.882
 3301SOL     OW10801   1.826   3.237   3.076
 3301SOL    HW110802   1.741   3.185   3.074
 3301SOL    HW210803   1.831   3.297   2.996
 3302SOL     OW10804   1.023   4.849   5.454
 3302SOL    HW110805   1.063   4.777   5.398
 3302SOL    HW210806   0.924   4.835   5.461
 3303SOL     OW10807   3.833   3.882   0.906
 3303SOL    HW110808   3.876   3.866   0.995
 3303SOL    HW210809   3.733   3.877   0.916
 3304SOL     OW10810   1.105   5.672   4.334
 3304SOL    HW110811   1.109   5.766   4.302
 3304SOL    HW210812   1.186   5.622   4.304
 3305SOL     OW10813   1.789   1.170   2.280
 3305SOL    HW110814   1.732   1.107   2.227
 3305SOL    HW210815   1.881   1.174   2.240
 3306SOL     OW10816   2.447   5.475   5.021
 3306SOL    HW110817   2.351   5.477   4.992
 3306SOL    HW210818   2.498   5.410   4.965
 3307SOL     OW10819   0.043   5.387   6.883
 3307SOL    HW110820   0.121   5.416   6.939
 3307SOL    HW210821   6.997   5.463   6.873
 3308SOL     OW10822   2.836   6.282   0.863
 3308SOL    HW110823   2.812   6.219   0.789
 3308SOL    HW210824   2.754   6.304   0.916
 3309SOL     OW10825   0.022   5.886   3.420
 3309SOL    HW110826   6.973   5.863   3.491
 3309SOL    HW210827   0.042   5.984   3.424
 3310SOL     OW10828   0.142   3.256   6.399
 3310SOL    HW110829   0.082   3.176   6.410
 3310SOL    HW210830   0.092   3.329   6.352
 3311SOL     OW10831   2.729   3.870   1.254
 3311SOL    HW110832   2.800   3.930   1.292
 3311SOL    HW210833   2.739   3.778   1.293
 3312SOL     OW10834   4.381   4.727   6.025
 3312SOL    HW110835   4.395   4.768   5.935
 3312SOL    HW210836   4.470   4.709   6.067
 3313SOL     OW10837   0.811   6.303   3.599
 3313SOL    HW110838   0.805   6.392   3.554
 3313SOL    HW210839   0.888   6.303   3.664
 3314SOL     OW10840   2.860   1.483   2.892
 3314SOL    HW110841   2.867   1.389   2.924
 3314SOL    HW210842   2.915   1.495   2.809
 3315SOL     OW10843   6.307   4.097   3.807
 3315SOL    HW110844   6.326   4.172   3.871
 3315SOL    HW210845   6.394   4.061   3.772
 3316SOL     OW10846   4.898   1.282   5.625
 3316SOL    HW110847   4.813   1.234   5.603
 3316SOL    HW210848   4.941   1.239   5.704
 3317SOL     OW10849   4.344   3.140   1.694
 3317SOL    HW110850   4.281   3.159   1.769
 3317SOL    HW210851   4.436   3.125   1.730
 3318SOL     OW10852   2.023   1.464   0.924
 3318SOL    HW110853   2.074   1.436   0.842
 3318SOL    HW210854   2.085   1.512   0.986
 3319SOL     OW10855   6.482   1.631   4.046
 3319SOL    HW110856   6.519   1.697   3.980
 3319SOL    HW210857   6.385   1.616   4.027
 3320SOL     OW10858   6.848   0.703   4.659
 3320SOL    HW110859   6.790   0.693   4.578
 3320SOL    HW210860   6.915   0.629   4.661
 3321SOL     OW10861   5.049   1.727   0.237
 3321SOL    HW110862   5.093   1.716   0.326
 3321SOL    HW210863   4.977   1.795   0.242
 3322SOL     OW10864   6.559   2.934   1.268
 3322SOL    HW110865   6.506   3.012   1.235
 3322SOL    HW210866   6.624   2.905   1.198
 3323SOL     OW10867   2.963   2.839   0.301
 3323SOL    HW110868   2.917   2.873   0.219
 3323SOL    HW210869   2.972   2.740   0.296
 3324SOL     OW10870   3.761   5.064   6.934
 3324SOL    HW110871   3.739   5.149   6.981
 3324SOL    HW210872   3.803   5.084   6.846
 3325SOL     OW10873   0.874   3.254   0.131
 3325SOL    HW110874   0.818   3.179   0.096
 3325SOL    HW210875   0.938   3.284   0.061
 3326SOL     OW10876   4.814   2.083   1.750
 3326SOL    HW110877   4.807   2.014   1.678
 3326SOL    HW210878   4.892   2.062   1.809
 3327SOL     OW10879   3.197   5.787   1.443
 3327SOL    HW110880   3.164   5.717   1.380
 3327SOL    HW210881   3.191   5.877   1.400
 3328SOL     OW10882   4.175   2.104   0.687
 3328SOL    HW110883   4.234   2.130   0.764
 3328SOL    HW210884   4.225   2.119   0.601
 3329SOL     OW10885   5.128   0.305   4.766
 3329SOL    HW110886   5.102   0.364   4.689
 3329SOL    HW210887   5.054   0.239   4.784
 3330SOL     OW10888   6.398   4.974   1.393
 3330SOL    HW110889   6.442   5.021   1.316
 3330SOL    HW210890   6.459   4.977   1.473
 3331SOL     OW10891   2.411   2.697   1.415
 3331SOL    HW110892   2.438   2.753   1.493
 3331SOL    HW210893   2.473   2.715   1.338
 3332SOL     OW10894   5.832   5.342   6.824
 3332SOL    HW110895   5.826   5.328   6.725
 3332SOL    HW210896   5.909   5.289   6.860
 3333SOL     OW10897   4.486   4.559   6.344
 3333SOL    HW110898   4.401   4.575   6.294
 3333SOL    HW210899   4.514   4.464   6.332
 3334SOL     OW10900   3.159   3.746   1.871
 3334SOL    HW110901   3.216   3.689   1.929
 3334SOL    HW210902   3.214   3.785   1.797
 3335SOL     OW10903   4.987   0.302   5.541
 3335SOL    HW110904   5.072   0.331   5.585
 3335SOL    HW210905   4.973   0.204   5.558
 3336SOL     OW10906   2.493   5.984   4.853
 3336SOL    HW110907   2.513   5.889   4.878
 3336SOL    HW210908   2.442   5.985   4.767
 3337SOL     OW10909   3.206   3.971   2.596
 3337SOL    HW110910   3.127   3.912   2.582
 3337SOL    HW210911   3.284   3.935   2.546
 3338SOL     OW10912   5.451   2.890   2.059
 3338SOL    HW110913   5.485   2.798   2.040
 3338SOL    HW210914   5.351   2.889   2.057
 3339SOL     OW10915   6.694   0.460   6.518
 3339SOL    HW110916   6.737   0.370   6.516
 3339SOL    HW210917   6.595   0.450   6.506
 3340SOL     OW10918   3.546   1.523   2.394
 3340SOL    HW110919   3.620   1.509   2.460
 3340SOL    HW210920   3.579   1.500   2.302
 3341SOL     OW10921   1.612   5.248   3.314
 3341SOL    HW110922   1.654   5.257   3.224
 3341SOL    HW210923   1.547   5.323   3.329
 3342SOL     OW10924   2.138   0.027   4.420
 3342SOL    HW110925   2.123   6.992   4.336
 3342SOL    HW210926   2.127   0.124   4.400
 3343SOL     OW10927   5.652   3.249   0.773
 3343SOL    HW110928   5.584   3.311   0.812
 3343SOL    HW210929   5.623   3.222   0.681
 3344SOL     OW10930   5.533   3.131   4.572
 3344SOL    HW110931   5.527   3.117   4.473
 3344SOL    HW210932   5.628   3.147   4.598
 3345SOL     OW10933   1.552   3.872   5.802
 3345SOL    HW110934   1.578   3.898   5.709
 3345SOL    HW210935   1.586   3.940   5.866
 3346SOL     OW10936   1.456   0.764   1.083
 3346SOL    HW110937   1.539   0.809   1.117
 3346SOL    HW210938   1.481   0.681   1.034
 3347SOL     OW10939   0.796   3.764   4.904
 3347SOL    HW110940   0.761   3.675   4.876
 3347SOL    HW210941   0.751   3.836   4.851
 3348SOL     OW10942   3.234   3.573   3.916
 3348SOL    HW110943   3.283   3.553   3.831
 3348SOL    HW210944   3.285   3.535   3.994
 3349SOL     OW10945   1.070   6.040   2.910
 3349SOL    HW110946   1.153   6.083   2.872
 3349SOL    HW210947   1.064   6.060   3.007
 3350SOL     OW10948   0.923   2.502   5.798
 3350SOL    HW110949   0.942   2.568   5.870
 3350SOL    HW210950   0.990   2.512   5.724
 3351SOL     OW10951   4.780   0.998   2.269
 3351SOL    HW110952   4.798   1.037   2.179
 3351SOL    HW210953   4.862   0.953   2.303
 3352SOL     OW10954   6.675   2.189   0.689
 3352SOL    HW110955   6.610   2.172   0.615
 3352SOL    HW210956   6.625   2.195   0.776
 3353SOL     OW10957   1.878   5.671   2.051
 3353SOL    HW110958   1.897   5.627   1.963
 3353SOL    HW210959   1.832   5.758   2.036
 3354SOL     OW10960   4.770   2.665   5.468
 3354SOL    HW110961   4.833   2.667   5.389
 3354SOL    HW210962   4.786   2.745   5.525
 3355SOL     OW10963   2.186   1.616   0.290
 3355SOL    HW110964   2.198   1.714   0.306
 3355SOL    HW210965   2.255   1.565   0.342
 3356SOL     OW10966   1.150   4.432   5.698
 3356SOL    HW110967   1.072   4.443   5.636
 3356SOL    HW210968   1.234   4.422   5.645
 3357SOL     OW10969   2.525   4.577   1.882
 3357SOL    HW110970   2.512   4.649   1.814
 3357SOL    HW210971   2.623   4.567   1.901
 3358SOL     OW10972   4.728   1.433   0.986
 3358SOL    HW110973   4.807   1.439   1.046
 3358SOL    HW210974   4.653   1.488   1.024
 3359SOL     OW10975   0.081   0.185   3.257
 3359SOL    HW110976   0.126   0.274   3.260
 3359SOL    HW210977   0.047   0.161   3.348
 3360SOL     OW10978   0.483   1.168   6.724
 3360SOL    HW110979   0.568   1.133   6.762
 3360SOL    HW210980   0.491   1.267   6.708
 3361SOL     OW10981   1.139   4.535   4.000
 3361SOL    HW110982   1.126   4.505   4.095
 3361SOL    HW210983   1.064   4.498   3.944
 3362SOL     OW10984   3.565   1.339   3.210
 3362SOL    HW110985   3.550   1.241   3.196
 3362SOL    HW210986   3.548   1.389   3.125
 3363SOL     OW10987   6.391   6.621   1.662
 3363SOL    HW110988   6.354   6.529   1.674
 3363SOL    HW210989   6.489   6.615   1.640
 3364SOL     OW10990   1.444   4.416   4.170
 3364SOL    HW110991   1.437   4.508   4.132
 3364SOL    HW210992   1.387   4.354   4.117
 3365SOL     OW10993   6.772   1.890   5.172
 3365SOL    HW110994   6.816   1.817   5.224
 3365SOL    HW210995   6.696   1.927   5.226
 3366SOL     OW10996   5.838   6.363   4.903
 3366SOL    HW110997   5.882   6.314   4.829
 3366SOL    HW210998   5.749   6.321   4.923
 3367SOL     OW10999   3.535   2.650   1.386
 3367SOL    HW111000   3.473   2.715   1.431
 3367SOL    HW211001   3.547   2.570   1.445
 3368SOL     OW11002   0.298   4.916   5.644
 3368SOL    HW111003   0.313   5.011   5.615
 3368SOL    HW211004   0.338   4.854   5.577
 3369SOL     OW11005   3.664   2.597   6.086
 3369SOL    HW111006   3.660   2.581   6.184
 3369SOL    HW211007   3.670   2.695   6.068
 3370SOL     OW11008   0.014   5.729   6.508
 3370SOL    HW111009   6.968   5.778   6.568
 3370SOL    HW211010   0.099   5.781   6.501
 3371SOL     OW11011   1.954   2.816   2.056
 3371SOL    HW111012   1.964   2.912   2.083
 3371SOL    HW211013   2.000   2.801   1.969
 3372SOL     OW11014   0.584   2.038   0.897
 3372SOL    HW111015   0.488   2.050   0.870
 3372SOL    HW211016   0.607   1.941   0.896
 3373SOL     OW11017   6.808   1.494   2.729
 3373SOL    HW111018   6.766   1.513   2.640
 3373SOL    HW211019   6.785   1.568   2.793
 3374SOL     OW11020   1.382   6.136   4.474
 3374SOL    HW111021   1.459   6.132   4.537
 3374SOL    HW211022   1.296   6.137   4.526
 3375SOL     OW11023   6.382   5.794   6.465
 3375SOL    HW111024   6.375   5.890   6.493
 3375SOL    HW211025   6.409   5.738   6.544
 3376SOL     OW11026   3.870   3.014   3.332
 3376SOL    HW111027   3.884   3.087   3.265
 3376SOL    HW211028   3.914   3.039   3.418
 3377SOL     OW11029   6.686   6.426   5.831
 3377SOL    HW111030   6.644   6.335   5.831
 3377SOL    HW211031   6.785   6.417   5.834
 3378SOL     OW11032   0.132   1.026   0.624
 3378SOL    HW111033   0.041   0.994   0.651
 3378SOL    HW211034   0.189   1.034   0.706
 3379SOL     OW11035   6.884   6.960   6.215
 3379SOL    HW111036   6.785   6.966   6.223
 3379SOL    HW211037   6.920   6.899   6.285
 3380SOL     OW11038   5.777   6.572   5.049
 3380SOL    HW111039   5.825   6.491   5.016
 3380SOL    HW211040   5.833   6.653   5.033
 3381SOL     OW11041   0.889   2.676   1.189
 3381SOL    HW111042   0.914   2.606   1.257
 3381SOL    HW211043   0.821   2.737   1.228
 3382SOL     OW11044   0.405   2.258   0.744
 3382SOL    HW111045   0.356   2.193   0.801
 3382SOL    HW211046   0.491   2.284   0.788
 3383SOL     OW11047   4.495   5.838   1.658
 3383SOL    HW111048   4.590   5.851   1.688
 3383SOL    HW211049   4.434   5.890   1.717
 3384SOL     OW11050   3.024   3.344   6.038
 3384SOL    HW111051   3.119   3.314   6.052
 3384SOL    HW211052   3.004   3.346   5.940
 3385SOL     OW11053   6.893   2.955   4.590
 3385SOL    HW111054   6.908   2.997   4.501
 3385SOL    HW211055   6.935   2.865   4.593
 3386SOL     OW11056   5.790   4.550   6.497
 3386SOL    HW111057   5.884   4.580   6.516
 3386SOL    HW211058   5.792   4.462   6.451
 3387SOL     OW11059   3.249   0.758   3.385
 3387SOL    HW111060   3.327   0.696   3.375
 3387SOL    HW211061   3.165   0.705   3.388
 3388SOL     OW11062   5.203   2.945   1.889
 3388SOL    HW111063   5.231   3.026   1.837
 3388SOL    HW211064   5.138   2.892   1.835
 3389SOL     OW11065   5.530   5.103   5.757
 3389SOL    HW111066   5.540   5.196   5.723
 3389SOL    HW211067   5.613   5.051   5.736
 3390SOL     OW11068   4.986   5.978   6.047
 3390SOL    HW111069   4.987   5.883   6.079
 3390SOL    HW211070   5.072   5.997   5.999
 3391SOL     OW11071   5.083   3.171   5.254
 3391SOL    HW111072   4.992   3.185   5.294
 3391SOL    HW211073   5.075   3.112   5.174
 3392SOL     OW11074   2.984   6.576   3.847
 3392SOL    HW111075   2.912   6.643   3.861
 3392SOL    HW211076   2.998   6.524   3.931
 3393SOL     OW11077   0.291   6.107   6.660
 3393SOL    HW111078   0.367   6.172   6.654
 3393SOL    HW211079   0.237   6.110   6.575
 3394SOL     OW11080   5.654   3.858   2.151
 3394SOL    HW111081   5.701   3.785   2.201
 3394SOL    HW211082   5.676   3.946   2.192
 3395SOL     OW11083   5.200   3.244   3.244
 3395SOL    HW111084   5.203   3.146   3.267
 3395SOL    HW211085   5.164   3.296   3.321
 3396SOL     OW11086   4.611   2.008   3.532
 3396SOL    HW111087   4.640   2.057   3.614
 3396SOL    HW211088   4.583   1.916   3.556
 3397SOL     OW11089   2.363   0.540   5.671
 3397SOL    HW111090   2.445   0.589   5.641
 3397SOL    HW211091   2.363   0.532   5.770
 3398SOL     OW11092   0.564   6.731   4.571
 3398SOL    HW111093   0.599   6.713   4.663
 3398SOL    HW211094   0.464   6.722   4.571
 3399SOL     OW11095   5.267   4.572   4.009
 3399SOL    HW111096   5.258   4.472   4.007
 3399SOL    HW211097   5.313   4.599   4.094
 3400SOL     OW11098   4.831   2.890   5.637
 3400SOL    HW111099   4.907   2.953   5.618
 3400SOL    HW211100   4.842   2.850   5.728
 3401SOL     OW11101   0.011   3.363   1.098
 3401SOL    HW111102   6.945   3.331   1.143
 3401SOL    HW211103   7.010   3.448   1.050
 3402SOL     OW11104   4.061   5.978   6.764
 3402SOL    HW111105   3.965   5.967   6.789
 3402SOL    HW211106   4.094   6.066   6.798
 3403SOL     OW11107   4.018   5.699   4.913
 3403SOL    HW111108   4.011   5.777   4.975
 3403SOL    HW211109   3.946   5.633   4.934
 3404SOL     OW11110   4.877   1.330   0.037
 3404SOL    HW111111   4.784   1.332   0.000
 3404SOL    HW211112   4.880   1.381   0.123
 3405SOL     OW11113   6.935   3.684   4.670
 3405SOL    HW111114   6.942   3.769   4.722
 3405SOL    HW211115   6.899   3.704   4.578
 3406SOL     OW11116   0.740   4.292   1.586
 3406SOL    HW111117   0.761   4.323   1.493
 3406SOL    HW211118   0.823   4.252   1.627
 3407SOL     OW11119   1.040   5.084   5.825
 3407SOL    HW111120   0.946   5.109   5.803
 3407SOL    HW211121   1.061   4.995   5.784
 3408SOL     OW11122   4.772   3.875   5.273
 3408SOL    HW111123   4.757   3.777   5.259
 3408SOL    HW211124   4.863   3.889   5.311
 3409SOL     OW11125   3.451   6.233   6.822
 3409SOL    HW111126   3.438   6.242   6.920
 3409SOL    HW211127   3.373   6.185   6.782
 3410SOL     OW11128   0.230   6.277   0.524
 3410SOL    HW111129   0.144   6.277   0.473
 3410SOL    HW211130   0.293   6.210   0.485
 3411SOL     OW11131   0.514   2.821   2.073
 3411SOL    HW111132   0.421   2.785   2.078
 3411SOL    HW211133   0.539   2.833   1.977
 3412SOL     OW11134   4.271   2.701   7.013
 3412SOL    HW111135   4.188   2.649   0.017
 3412SOL    HW211136   4.333   2.644   6.959
 3413SOL     OW11137   5.838   1.291   0.807
 3413SOL    HW111138   5.806   1.280   0.902
 3413SOL    HW211139   5.786   1.363   0.762
 3414SOL     OW11140   2.563   0.416   5.901
 3414SOL    HW111141   2.615   0.488   5.856
 3414SOL    HW211142   2.558   0.336   5.840
 3415SOL     OW11143   1.770   3.715   4.987
 3415SOL    HW111144   1.740   3.653   4.915
 3415SOL    HW211145   1.693   3.739   5.046
 3416SOL     OW11146   0.343   5.676   0.740
 3416SOL    HW111147   0.320   5.680   0.643
 3416SOL    HW211148   0.312   5.760   0.785
 3417SOL     OW11149   0.822   6.091   2.839
 3417SOL    HW111150   0.918   6.069   2.857
 3417SOL    HW211151   0.763   6.023   2.883
 3418SOL     OW11152   3.466   0.534   4.303
 3418SOL    HW111153   3.555   0.520   4.260
 3418SOL    HW211154   3.437   0.448   4.346
 3419SOL     OW11155   2.816   5.670   5.202
 3419SOL    HW111156   2.916   5.676   5.205
 3419SOL    HW211157   2.783   5.696   5.111
 3420SOL     OW11158   5.361   2.910   4.648
 3420SOL    HW111159   5.396   2.970   4.720
 3420SOL    HW211160   5.321   2.965   4.575
 3421SOL     OW11161   5.260   0.880   5.264
 3421SOL    HW111162   5.194   0.812   5.231
 3421SOL    HW211163   5.222   0.926   5.345
 3422SOL     OW11164   1.824   0.175   0.502
 3422SOL    HW111165   1.913   0.154   0.461
 3422SOL    HW211166   1.801   0.104   0.569
 3423SOL     OW11167   0.694   4.464   6.710
 3423SOL    HW111168   0.695   4.455   6.610
 3423SOL    HW211169   0.772   4.414   6.749
 3424SOL     OW11170   3.111   6.512   1.569
 3424SOL    HW111171   3.023   6.527   1.524
 3424SOL    HW211172   3.122   6.578   1.643
 3425SOL     OW11173   5.574   5.130   2.499
 3425SOL    HW111174   5.544   5.038   2.526
 3425SOL    HW211175   5.581   5.188   2.580
 3426SOL     OW11176   4.176   2.916   0.179
 3426SOL    HW111177   4.177   2.868   0.267
 3426SOL    HW211178   4.219   2.859   0.110
 3427SOL     OW11179   6.170   0.371   0.275
 3427SOL    HW111180   6.216   0.361   0.363
 3427SOL    HW211181   6.233   0.411   0.209
 3428SOL     OW11182   2.303   5.039   0.543
 3428SOL    HW111183   2.358   5.122   0.555
 3428SOL    HW211184   2.216   5.051   0.590
 3429SOL     OW11185   0.364   2.151   0.185
 3429SOL    HW111186   0.310   2.146   0.269
 3429SOL    HW211187   0.352   2.067   0.132
 3430SOL     OW11188   0.884   6.408   5.028
 3430SOL    HW111189   0.878   6.382   5.125
 3430SOL    HW211190   0.978   6.397   4.997
 3431SOL     OW11191   0.912   0.029   1.578
 3431SOL    HW111192   0.829   7.006   1.615
 3431SOL    HW211193   0.907   0.034   1.479
 3432SOL     OW11194   1.884   2.399   0.132
 3432SOL    HW111195   1.980   2.427   0.135
 3432SOL    HW211196   1.876   2.304   0.161
 3433SOL     OW11197   1.059   0.548   6.111
 3433SOL    HW111198   1.068   0.477   6.041
 3433SOL    HW211199   0.962   0.567   6.127
 3434SOL     OW11200   4.573   1.546   1.256
 3434SOL    HW111201   4.599   1.618   1.320
 3434SOL    HW211202   4.474   1.530   1.261
 3435SOL     OW11203   0.309   1.722   0.878
 3435SOL    HW111204   0.269   1.684   0.795
 3435SOL    HW211205   0.403   1.751   0.860
 3436SOL     OW11206   3.852   5.563   6.770
 3436SOL    HW111207   3.902   5.613   6.698
 3436SOL    HW211208   3.879   5.598   6.859
 3437SOL     OW11209   2.087   1.139   5.857
 3437SOL    HW111210   2.068   1.224   5.809
 3437SOL    HW211211   2.055   1.061   5.803
 3438SOL     OW11212   1.205   2.985   0.008
 3438SOL    HW111213   1.167   3.022   6.941
 3438SOL    HW211214   1.230   2.889   7.011
 3439SOL     OW11215   2.170   6.260   4.726
 3439SOL    HW111216   2.157   6.197   4.802
 3439SOL    HW211217   2.253   6.314   4.741
 3440SOL     OW11218   3.493   3.738   1.435
 3440SOL    HW111219   3.531   3.750   1.527
 3440SOL    HW211220   3.526   3.652   1.397
 3441SOL     OW11221   5.232   6.824   4.324
 3441SOL    HW111222   5.216   6.903   4.384
 3441SOL    HW211223   5.302   6.847   4.256
 3442SOL     OW11224   2.653   5.133   2.092
 3442SOL    HW111225   2.631   5.075   2.013
 3442SOL    HW211226   2.571   5.180   2.124
 3443SOL     OW11227   5.417   5.846   1.366
 3443SOL    HW111228   5.341   5.867   1.427
 3443SOL    HW211229   5.503   5.869   1.411
 3444SOL     OW11230   5.022   5.367   0.406
 3444SOL    HW111231   5.042   5.452   0.454
 3444SOL    HW211232   4.924   5.347   0.413
 3445SOL     OW11233   7.008   5.451   4.268
 3445SOL    HW111234   0.046   5.420   4.191
 3445SOL    HW211235   6.964   5.538   4.246
 3446SOL     OW11236   6.180   0.487   2.742
 3446SOL    HW111237   6.146   0.455   2.654
 3446SOL    HW211238   6.231   0.413   2.787
 3447SOL     OW11239   5.977   5.773   0.779
 3447SOL    HW111240   5.900   5.767   0.716
 3447SOL    HW211241   6.001   5.869   0.794
 3448SOL     OW11242   3.606   0.573   0.781
 3448SOL    HW111243   3.659   0.655   0.760
 3448SOL    HW211244   3.514   0.599   0.811
 3449SOL     OW11245   6.463   6.350   4.161
 3449SOL    HW111246   6.395   6.351   4.234
 3449SOL    HW211247   6.554   6.357   4.200
 3450SOL     OW11248   0.080   2.568   6.386
 3450SOL    HW111249   7.010   2.616   6.395
 3450SOL    HW211250   0.065   2.477   6.349
 3451SOL     OW11251   1.682   6.214   1.582
 3451SOL    HW111252   1.629   6.147   1.530
 3451SOL    HW211253   1.741   6.265   1.519
 3452SOL     OW11254   6.219   0.453   6.058
 3452SOL    HW111255   6.144   0.491   6.004
 3452SOL    HW211256   6.306   0.468   6.010
 3453SOL     OW11257   6.498   6.190   6.397
 3453SOL    HW111258   6.484   6.170   6.300
 3453SOL    HW211259   6.421   6.153   6.450
 3454SOL     OW11260   1.217   2.195   5.933
 3454SOL    HW111261   1.157   2.140   5.991
 3454SOL    HW211262   1.162   2.243   5.865
 3455SOL     OW11263   2.776   2.065   4.110
 3455SOL    HW111264   2.826   2.064   4.196
 3455SOL    HW211265   2.683   2.098   4.125
 3456SOL     OW11266   6.177   5.723   2.599
 3456SOL    HW111267   6.181   5.665   2.517
 3456SOL    HW211268   6.262   5.713   2.651
 3457SOL     OW11269   2.854   5.170   3.302
 3457SOL    HW111270   2.870   5.097   3.235
 3457SOL    HW211271   2.863   5.259   3.257
 3458SOL     OW11272   5.091   0.633   1.751
 3458SOL    HW111273   5.169   0.576   1.725
 3458SOL    HW211274   5.006   0.587   1.726
 3459SOL     OW11275   5.756   3.714   3.147
 3459SOL    HW111276   5.801   3.625   3.151
 3459SOL    HW211277   5.657   3.701   3.139
 3460SOL     OW11278   2.188   3.186   6.652
 3460SOL    HW111279   2.229   3.097   6.634
 3460SOL    HW211280   2.225   3.223   6.737
 3461SOL     OW11281   4.321   6.029   4.919
 3461SOL    HW111282   4.354   6.085   4.995
 3461SOL    HW211283   4.346   5.934   4.934
 3462SOL     OW11284   0.103   3.618   2.548
 3462SOL    HW111285   0.049   3.701   2.541
 3462SOL    HW211286   0.172   3.616   2.475
 3463SOL     OW11287   1.038   3.841   2.509
 3463SOL    HW111288   1.066   3.746   2.523
 3463SOL    HW211289   1.044   3.890   2.596
 3464SOL     OW11290   6.286   3.904   6.498
 3464SOL    HW111291   6.341   3.987   6.484
 3464SOL    HW211292   6.252   3.872   6.410
 3465SOL     OW11293   1.809   2.247   2.309
 3465SOL    HW111294   1.760   2.300   2.377
 3465SOL    HW211295   1.828   2.304   2.229
 3466SOL     OW11296   0.166   4.720   0.406
 3466SOL    HW111297   0.115   4.744   0.323
 3466SOL    HW211298   0.228   4.794   0.431
 3467SOL     OW11299   1.674   2.413   0.793
 3467SOL    HW111300   1.674   2.325   0.841
 3467SOL    HW211301   1.768   2.439   0.771
 3468SOL     OW11302   5.181   6.684   2.743
 3468SOL    HW111303   5.240   6.756   2.779
 3468SOL    HW211304   5.236   6.604   2.722
 3469SOL     OW11305   4.813   0.101   2.540
 3469SOL    HW111306   4.843   0.052   2.458
 3469SOL    HW211307   4.867   0.184   2.550
 3470SOL     OW11308   6.051   3.442   1.451
 3470SOL    HW111309   6.024   3.401   1.537
 3470SOL    HW211310   6.074   3.370   1.385
 3471SOL     OW11311   4.265   5.171   4.167
 3471SOL    HW111312   4.257   5.183   4.266
 3471SOL    HW211313   4.261   5.261   4.123
 3472SOL     OW11314   2.666   0.880   3.225
 3472SOL    HW111315   2.626   0.956   3.174
 3472SOL    HW211316   2.614   0.797   3.206
 3473SOL     OW11317   0.003   2.110   1.581
 3473SOL    HW111318   0.090   2.073   1.615
 3473SOL    HW211319   6.957   2.035   1.564
 3474SOL     OW11320   1.068   4.808   1.737
 3474SOL    HW111321   1.010   4.756   1.674
 3474SOL    HW211322   1.010   4.855   1.804
 3475SOL     OW11323   1.290   4.700   4.353
 3475SOL    HW111324   1.339   4.781   4.386
 3475SOL    HW211325   1.204   4.729   4.310
 3476SOL     OW11326   2.450   1.516   3.338
 3476SOL    HW111327   2.453   1.496   3.240
 3476SOL    HW211328   2.365   1.481   3.377
 3477SOL     OW11329   1.793   5.416   1.249
 3477SOL    HW111330   1.699   5.415   1.282
 3477SOL    HW211331   1.810   5.500   1.197
 3478SOL     OW11332   2.417   5.639   5.473
 3478SOL    HW111333   2.470   5.624   5.390
 3478SOL    HW211334   2.478   5.643   5.552
 3479SOL     OW11335   1.274   0.576   3.363
 3479SOL    HW111336   1.340   0.633   3.313
 3479SOL    HW211337   1.194   0.560   3.307
 3480SOL     OW11338   0.508   6.537   4.802
 3480SOL    HW111339   0.486   6.481   4.723
 3480SOL    HW211340   0.543   6.479   4.876
 3481SOL     OW11341   4.663   0.308   0.682
 3481SOL    HW111342   4.735   0.256   0.726
 3481SOL    HW211343   4.696   0.342   0.594
 3482SOL     OW11344   5.488   1.098   1.928
 3482SOL    HW111345   5.552   1.094   2.005
 3482SOL    HW211346   5.451   1.190   1.920
 3483SOL     OW11347   4.693   2.309   1.857
 3483SOL    HW111348   4.789   2.307   1.884
 3483SOL    HW211349   4.671   2.228   1.803
 3484SOL     OW11350   1.106   3.297   6.980
 3484SOL    HW111351   1.084   3.389   6.945
 3484SOL    HW211352   1.205   3.284   6.978
 3485SOL     OW11353   2.058   1.624   4.601
 3485SOL    HW111354   2.058   1.545   4.663
 3485SOL    HW211355   2.100   1.597   4.514
 3486SOL     OW11356   2.605   0.863   3.522
 3486SOL    HW111357   2.640   0.845   3.430
 3486SOL    HW211358   2.681   0.869   3.586
 3487SOL     OW11359   5.516   2.548   5.384
 3487SOL    HW111360   5.438   2.610   5.370
 3487SOL    HW211361   5.497   2.488   5.462
 3488SOL     OW11362   6.068   1.396   4.276
 3488SOL    HW111363   6.096   1.349   4.192
 3488SOL    HW211364   6.047   1.328   4.346
 3489SOL     OW11365   3.958   0.094   1.391
 3489SOL    HW111366   4.057   0.095   1.374
 3489SOL    HW211367   3.910   0.119   1.307
 3490SOL     OW11368   4.382   4.263   0.183
 3490SOL    HW111369   4.435   4.193   0.233
 3490SOL    HW211370   4.287   4.258   0.211
 3491SOL     OW11371   4.560   2.571   5.284
 3491SOL    HW111372   4.588   2.645   5.223
 3491SOL    HW211373   4.580   2.596   5.379
 3492SOL     OW11374   0.241   5.451   1.130
 3492SOL    HW111375   0.278   5.372   1.180
 3492SOL    HW211376   0.280   5.535   1.167
 3493SOL     OW11377   5.552   4.526   6.091
 3493SOL    HW111378   5.636   4.476   6.113
 3493SOL    HW211379   5.477   4.462   6.079
 3494SOL     OW11380   3.674   0.663   1.197
 3494SOL    HW111381   3.609   0.594   1.227
 3494SOL    HW211382   3.766   0.622   1.192
 3495SOL     OW11383   5.518   4.691   2.324
 3495SOL    HW111384   5.521   4.714   2.227
 3495SOL    HW211385   5.605   4.649   2.351
 3496SOL     OW11386   6.128   4.445   0.748
 3496SOL    HW111387   6.050   4.418   0.693
 3496SOL    HW211388   6.123   4.543   0.769
 3497SOL     OW11389   3.625   1.082   3.847
 3497SOL    HW111390   3.562   1.158   3.864
 3497SOL    HW211391   3.716   1.105   3.880
 3498SOL     OW11392   3.058   2.388   0.769
 3498SOL    HW111393   3.121   2.311   0.779
 3498SOL    HW211394   3.002   2.397   0.852
 3499SOL     OW11395   4.845   3.163   4.308
 3499SOL    HW111396   4.846   3.166   4.408
 3499SOL    HW211397   4.786   3.088   4.277
 3500SOL     OW11398   1.638   3.433   5.001
 3500SOL    HW111399   1.681   3.350   5.036
 3500SOL    HW211400   1.677   3.455   4.911
 3501SOL     OW11401   1.923   5.868   4.621
 3501SOL    HW111402   1.879   5.788   4.580
 3501SOL    HW211403   1.865   5.949   4.608
 3502SOL     OW11404   6.235   2.993   2.606
 3502SOL    HW111405   6.155   2.969   2.550
 3502SOL    HW211406   6.225   2.951   2.696
 3503SOL     OW11407   6.258   6.685   4.461
 3503SOL    HW111408   6.291   6.716   4.372
 3503SOL    HW211409   6.196   6.754   4.499
 3504SOL     OW11410   2.070   1.935   1.595
 3504SOL    HW111411   1.997   1.994   1.629
 3504SOL    HW211412   2.064   1.845   1.639
 3505SOL     OW11413   5.732   4.792   5.128
 3505SOL    HW111414   5.677   4.745   5.197
 3505SOL    HW211415   5.706   4.888   5.125
 3506SOL     OW11416   4.961   5.214   5.828
 3506SOL    HW111417   4.984   5.291   5.888
 3506SOL    HW211418   4.868   5.226   5.792
 3507SOL     OW11419   1.502   0.917   0.563
 3507SOL    HW111420   1.594   0.945   0.590
 3507SOL    HW211421   1.498   0.817   0.557
 3508SOL     OW11422   2.998   2.521   5.947
 3508SOL    HW111423   2.998   2.565   6.037
 3508SOL    HW211424   3.026   2.587   5.877
 3509SOL     OW11425   5.725   0.745   5.709
 3509SOL    HW111426   5.820   0.765   5.733
 3509SOL    HW211427   5.676   0.716   5.791
 3510SOL     OW11428   1.451   2.610   1.825
 3510SOL    HW111429   1.354   2.629   1.839
 3510SOL    HW211430   1.463   2.513   1.803
 3511SOL     OW11431   3.248   5.317   0.287
 3511SOL    HW111432   3.200   5.299   0.373
 3511SOL    HW211433   3.252   5.416   0.272
 3512SOL     OW11434   0.529   4.860   0.710
 3512SOL    HW111435   0.448   4.862   0.768
 3512SOL    HW211436   0.588   4.938   0.731
 3513SOL     OW11437   6.383   2.986   0.538
 3513SOL    HW111438   6.445   3.044   0.589
 3513SOL    HW211439   6.289   3.001   0.570
 3514SOL     OW11440   1.043   1.429   1.977
 3514SOL    HW111441   1.011   1.517   1.942
 3514SOL    HW211442   0.981   1.356   1.947
 3515SOL     OW11443   4.997   5.890   3.313
 3515SOL    HW111444   4.930   5.880   3.239
 3515SOL    HW211445   5.032   5.800   3.339
 3516SOL     OW11446   4.573   0.254   0.962
 3516SOL    HW111447   4.574   0.243   0.863
 3516SOL    HW211448   4.598   0.167   1.005
 3517SOL     OW11449   1.134   1.841   0.742
 3517SOL    HW111450   1.114   1.844   0.644
 3517SOL    HW211451   1.231   1.822   0.755
 3518SOL     OW11452   5.803   2.906   4.445
 3518SOL    HW111453   5.730   2.857   4.398
 3518SOL    HW211454   5.885   2.849   4.449
 3519SOL     OW11455   1.365   0.993   6.269
 3519SOL    HW111456   1.449   0.959   6.312
 3519SOL    HW211457   1.322   0.919   6.218
 3520SOL     OW11458   2.828   4.671   6.121
 3520SOL    HW111459   2.740   4.706   6.152
 3520SOL    HW211460   2.817   4.626   6.032
 3521SOL     OW11461   4.947   2.600   0.133
 3521SOL    HW111462   4.970   2.513   0.091
 3521SOL    HW211463   5.023   2.630   0.191
 3522SOL     OW11464   6.522   4.509   1.993
 3522SOL    HW111465   6.514   4.504   1.893
 3522SOL    HW211466   6.437   4.546   2.031
 3523SOL     OW11467   2.423   5.073   6.350
 3523SOL    HW111468   2.509   5.032   6.382
 3523SOL    HW211469   2.385   5.016   6.277
 3524SOL     OW11470   3.686   1.565   1.545
 3524SOL    HW111471   3.644   1.620   1.473
 3524SOL    HW211472   3.771   1.525   1.511
 3525SOL     OW11473   1.450   3.800   2.574
 3525SOL    HW111474   1.544   3.765   2.572
 3525SOL    HW211475   1.437   3.861   2.495
 3526SOL     OW11476   2.263   6.377   4.041
 3526SOL    HW111477   2.331   6.436   4.085
 3526SOL    HW211478   2.177   6.382   4.091
 3527SOL     OW11479   5.735   2.545   6.365
 3527SOL    HW111480   5.690   2.541   6.455
 3527SOL    HW211481   5.826   2.503   6.372
 3528SOL     OW11482   0.715   5.315   4.262
 3528SOL    HW111483   0.631   5.368   4.272
 3528SOL    HW211484   0.794   5.376   4.270
 3529SOL     OW11485   3.769   0.132   0.184
 3529SOL    HW111486   3.764   0.210   0.245
 3529SOL    HW211487   3.864   0.116   0.158
 3530SOL     OW11488   0.616   5.289   3.081
 3530SOL    HW111489   0.671   5.218   3.037
 3530SOL    HW211490   0.662   5.319   3.164
 3531SOL     OW11491   5.032   2.944   0.864
 3531SOL    HW111492   4.957   2.879   0.871
 3531SOL    HW211493   5.057   2.957   0.768
 3532SOL     OW11494   2.714   0.863   1.618
 3532SOL    HW111495   2.757   0.811   1.692
 3532SOL    HW211496   2.768   0.945   1.599
 3533SOL     OW11497   2.008   1.866   2.595
 3533SOL    HW111498   1.914   1.899   2.583
 3533SOL    HW211499   2.034   1.810   2.516
 3534SOL     OW11500   5.859   1.003   5.902
 3534SOL    HW111501   5.915   0.971   5.826
 3534SOL    HW211502   5.918   1.033   5.977
 3535SOL     OW11503   1.133   5.230   0.402
 3535SOL    HW111504   1.217   5.280   0.422
 3535SOL    HW211505   1.119   5.229   0.303
 3536SOL     OW11506   2.044   2.179   3.534
 3536SOL    HW111507   2.020   2.276   3.537
 3536SOL    HW211508   2.005   2.138   3.452
 3537SOL     OW11509   2.911   5.844   1.159
 3537SOL    HW111510   2.978   5.772   1.176
 3537SOL    HW211511   2.914   5.872   1.063
 3538SOL     OW11512   1.054   0.628   5.788
 3538SOL    HW111513   0.964   0.636   5.745
 3538SOL    HW211514   1.055   0.547   5.847
 3539SOL     OW11515   6.127   3.717   5.810
 3539SOL    HW111516   6.049   3.658   5.829
 3539SOL    HW211517   6.115   3.804   5.858
 3540SOL     OW11518   2.012   2.682   6.468
 3540SOL    HW111519   2.020   2.663   6.370
 3540SOL    HW211520   1.922   2.653   6.500
 3541SOL     OW11521   1.758   2.590   6.533
 3541SOL    HW111522   1.784   2.511   6.477
 3541SOL    HW211523   1.729   2.558   6.624
 3542SOL     OW11524   1.242   4.574   1.914
 3542SOL    HW111525   1.338   4.555   1.898
 3542SOL    HW211526   1.228   4.672   1.928
 3543SOL     OW11527   0.700   2.738   4.903
 3543SOL    HW111528   0.602   2.721   4.890
 3543SOL    HW211529   0.741   2.761   4.815
 3544SOL     OW11530   2.573   4.495   6.218
 3544SOL    HW111531   2.524   4.554   6.283
 3544SOL    HW211532   2.667   4.527   6.210
 3545SOL     OW11533   4.008   5.068   0.043
 3545SOL    HW111534   3.913   5.069   0.012
 3545SOL    HW211535   4.054   4.987   0.008
 3546SOL     OW11536   0.377   4.406   3.410
 3546SOL    HW111537   0.326   4.362   3.336
 3546SOL    HW211538   0.330   4.489   3.439
 3547SOL     OW11539   6.631   5.055   5.333
 3547SOL    HW111540   6.540   5.039   5.294
 3547SOL    HW211541   6.695   5.079   5.260
 3548SOL     OW11542   5.550   0.649   5.539
 3548SOL    HW111543   5.621   0.693   5.596
 3548SOL    HW211544   5.530   0.707   5.460
 3549SOL     OW11545   6.857   4.948   5.891
 3549SOL    HW111546   6.794   5.010   5.844
 3549SOL    HW211547   6.814   4.911   5.972
 3550SOL     OW11548   5.930   3.100   3.063
 3550SOL    HW111549   5.927   3.015   3.117
 3550SOL    HW211550   6.020   3.142   3.074
 3551SOL     OW11551   3.507   2.041   2.733
 3551SOL    HW111552   3.517   1.951   2.690
 3551SOL    HW211553   3.530   2.113   2.667
 3552SOL     OW11554   6.648   6.587   1.899
 3552SOL    HW111555   6.562   6.586   1.951
 3552SOL    HW211556   6.628   6.596   1.802
 3553SOL     OW11557   4.761   5.254   0.587
 3553SOL    HW111558   4.803   5.333   0.633
 3553SOL    HW211559   4.789   5.170   0.633
 3554SOL     OW11560   4.441   1.808   1.152
 3554SOL    HW111561   4.399   1.721   1.180
 3554SOL    HW211562   4.398   1.883   1.202
 3555SOL     OW11563   0.562   4.197   4.213
 3555SOL    HW111564   0.516   4.279   4.178
 3555SOL    HW211565   0.637   4.224   4.272
 3556SOL     OW11566   3.896   1.607   4.379
 3556SOL    HW111567   3.816   1.658   4.408
 3556SOL    HW211568   3.867   1.521   4.335
 3557SOL     OW11569   0.853   0.982   4.455
 3557SOL    HW111570   0.782   1.034   4.502
 3557SOL    HW211571   0.880   0.903   4.510
 3558SOL     OW11572   1.631   6.037   2.434
 3558SOL    HW111573   1.573   5.962   2.465
 3558SOL    HW211574   1.725   6.020   2.464
 3559SOL     OW11575   0.343   6.083   5.340
 3559SOL    HW111576   0.367   6.127   5.426
 3559SOL    HW211577   0.350   5.983   5.350
 3560SOL     OW11578   1.328   5.335   2.740
 3560SOL    HW111579   1.425   5.321   2.759
 3560SOL    HW211580   1.295   5.413   2.794
 3561SOL     OW11581   4.616   4.535   4.942
 3561SOL    HW111582   4.520   4.561   4.936
 3561SOL    HW211583   4.670   4.595   4.883
 3562SOL     OW11584   3.562   1.481   2.966
 3562SOL    HW111585   3.553   1.498   2.868
 3562SOL    HW211586   3.563   1.568   3.015
 3563SOL     OW11587   6.437   2.079   0.550
 3563SOL    HW111588   6.481   2.002   0.503
 3563SOL    HW211589   6.338   2.071   0.541
 3564SOL     OW11590   0.736   4.572   3.304
 3564SOL    HW111591   0.667   4.591   3.234
 3564SOL    HW211592   0.734   4.644   3.374
 3565SOL     OW11593   3.190   5.467   5.274
 3565SOL    HW111594   3.130   5.432   5.202
 3565SOL    HW211595   3.207   5.395   5.341
 3566SOL     OW11596   6.922   3.638   5.926
 3566SOL    HW111597   7.000   3.661   5.867
 3566SOL    HW211598   6.893   3.718   5.977
 3567SOL     OW11599   0.348   2.745   6.605
 3567SOL    HW111600   0.289   2.824   6.588
 3567SOL    HW211601   0.424   2.773   6.664
 3568SOL     OW11602   4.405   4.817   3.655
 3568SOL    HW111603   4.398   4.909   3.616
 3568SOL    HW211604   4.376   4.751   3.587
 3569SOL     OW11605   2.710   1.738   5.772
 3569SOL    HW111606   2.634   1.783   5.726
 3569SOL    HW211607   2.703   1.752   5.871
 3570SOL     OW11608   5.512   0.834   5.321
 3570SOL    HW111609   5.565   0.890   5.258
 3570SOL    HW211610   5.416   0.832   5.291
 3571SOL     OW11611   0.548   5.231   4.880
 3571SOL    HW111612   0.449   5.218   4.888
 3571SOL    HW211613   0.593   5.190   4.960
 3572SOL     OW11614   6.112   3.853   3.068
 3572SOL    HW111615   6.168   3.845   3.150
 3572SOL    HW211616   6.086   3.761   3.037
 3573SOL     OW11617   0.784   5.847   3.265
 3573SOL    HW111618   0.693   5.877   3.236
 3573SOL    HW211619   0.775   5.789   3.347
 3574SOL     OW11620   0.722   3.502   0.173
 3574SOL    HW111621   0.795   3.570   0.160
 3574SOL    HW211622   0.762   3.411   0.174
 3575SOL     OW11623   5.192   4.986   2.136
 3575SOL    HW111624   5.233   5.043   2.208
 3575SOL    HW211625   5.204   4.889   2.159
 3576SOL     OW11626   0.323   2.403   6.116
 3576SOL    HW111627   0.283   2.493   6.132
 3576SOL    HW211628   0.269   2.353   6.048
 3577SOL     OW11629   1.357   1.735   6.211
 3577SOL    HW111630   1.310   1.753   6.298
 3577SOL    HW211631   1.455   1.755   6.221
 3578SOL     OW11632   4.101   1.825   0.718
 3578SOL    HW111633   4.115   1.921   0.693
 3578SOL    HW211634   4.125   1.766   0.640
 3579SOL     OW11635   0.043   2.246   3.537
 3579SOL    HW111636   0.124   2.295   3.506
 3579SOL    HW211637   0.032   2.259   3.635
 3580SOL     OW11638   5.857   3.135   1.429
 3580SOL    HW111639   5.926   3.200   1.397
 3580SOL    HW211640   5.819   3.167   1.516
 3581SOL     OW11641   1.505   5.701   3.688
 3581SOL    HW111642   1.446   5.738   3.760
 3581SOL    HW211643   1.600   5.705   3.718
 3582SOL     OW11644   0.762   3.508   6.233
 3582SOL    HW111645   0.721   3.591   6.195
 3582SOL    HW211646   0.855   3.498   6.198
 3583SOL     OW11647   0.736   4.092   6.202
 3583SOL    HW111648   0.643   4.106   6.166
 3583SOL    HW211649   0.764   4.172   6.255
 3584SOL     OW11650   6.074   5.466   6.638
 3584SOL    HW111651   5.993   5.426   6.597
 3584SOL    HW211652   6.061   5.565   6.649
 3585SOL     OW11653   3.157   0.782   4.734
 3585SOL    HW111654   3.220   0.859   4.723
 3585SOL    HW211655   3.092   0.803   4.807
 3586SOL     OW11656   6.369   2.077   4.909
 3586SOL    HW111657   6.275   2.057   4.937
 3586SOL    HW211658   6.381   2.051   4.814
 3587SOL     OW11659   2.184   4.503   5.863
 3587SOL    HW111660   2.250   4.544   5.800
 3587SOL    HW211661   2.145   4.421   5.821
 3588SOL     OW11662   1.453   2.894   5.625
 3588SOL    HW111663   1.369   2.930   5.665
 3588SOL    HW211664   1.445   2.895   5.525
 3589SOL     OW11665   4.791   1.367   4.709
 3589SOL    HW111666   4.729   1.441   4.736
 3589SOL    HW211667   4.784   1.293   4.775
 3590SOL     OW11668   0.693   3.007   0.570
 3590SOL    HW111669   0.717   2.924   0.620
 3590SOL    HW211670   0.771   3.035   0.514
 3591SOL     OW11671   5.127   4.260   6.864
 3591SOL    HW111672   5.199   4.247   6.797
 3591SOL    HW211673   5.136   4.192   6.937
 3592SOL     OW11674   0.700   5.141   1.683
 3592SOL    HW111675   0.783   5.117   1.734
 3592SOL    HW211676   0.619   5.112   1.735
 3593SOL     OW11677   0.522   5.709   5.105
 3593SOL    HW111678   0.460   5.669   5.038
 3593SOL    HW211679   0.615   5.707   5.068
 3594SOL     OW11680   4.711   6.714   3.176
 3594SOL    HW111681   4.715   6.805   3.134
 3594SOL    HW211682   4.622   6.673   3.158
 3595SOL     OW11683   4.124   5.570   6.137
 3595SOL    HW111684   4.109   5.574   6.236
 3595SOL    HW211685   4.128   5.663   6.100
 3596SOL     OW11686   6.219   3.305   3.201
 3596SOL    HW111687   6.182   3.359   3.277
 3596SOL    HW211688   6.235   3.365   3.122
 3597SOL     OW11689   2.088   2.379   5.686
 3597SOL    HW111690   2.111   2.402   5.591
 3597SOL    HW211691   2.007   2.321   5.687
 3598SOL     OW11692   1.257   5.624   6.518
 3598SOL    HW111693   1.317   5.594   6.443
 3598SOL    HW211694   1.234   5.545   6.576
 3599SOL     OW11695   6.145   2.632   6.976
 3599SOL    HW111696   6.069   2.645   6.912
 3599SOL    HW211697   6.231   2.659   6.931
 3600SOL     OW11698   0.543   2.868   1.748
 3600SOL    HW111699   0.513   2.958   1.717
 3600SOL    HW211700   0.603   2.827   1.679
 3601SOL     OW11701   5.295   3.690   6.519
 3601SOL    HW111702   5.385   3.694   6.564
 3601SOL    HW211703   5.237   3.625   6.567
 3602SOL     OW11704   1.702   2.810   0.710
 3602SOL    HW111705   1.691   2.807   0.611
 3602SOL    HW211706   1.630   2.755   0.754
 3603SOL     OW11707   3.410   0.999   4.255
 3603SOL    HW111708   3.429   1.096   4.241
 3603SOL    HW211709   3.324   0.989   4.304
 3604SOL     OW11710   6.500   6.167   3.047
 3604SOL    HW111711   6.401   6.151   3.046
 3604SOL    HW211712   6.533   6.163   3.142
 3605SOL     OW11713   6.555   3.996   4.697
 3605SOL    HW111714   6.619   3.927   4.729
 3605SOL    HW211715   6.597   4.086   4.702
 3606SOL     OW11716   0.235   0.269   4.570
 3606SOL    HW111717   0.162   0.220   4.523
 3606SOL    HW211718   0.214   0.367   4.571
 3607SOL     OW11719   5.870   5.025   1.631
 3607SOL    HW111720   5.947   4.978   1.674
 3607SOL    HW211721   5.833   5.093   1.694
 3608SOL     OW11722   5.067   2.816   4.456
 3608SOL    HW111723   4.973   2.816   4.489
 3608SOL    HW211724   5.113   2.900   4.484
 3609SOL     OW11725   1.455   0.052   4.307
 3609SOL    HW111726   1.372   0.015   4.348
 3609SOL    HW211727   1.530   7.005   4.321
 3610SOL     OW11728   1.852   6.799   5.712
 3610SOL    HW111729   1.890   6.728   5.653
 3610SOL    HW211730   1.925   6.841   5.766
 3611SOL     OW11731   4.422   5.194   4.686
 3611SOL    HW111732   4.466   5.115   4.643
 3611SOL    HW211733   4.436   5.190   4.785
 3612SOL     OW11734   6.730   6.862   0.655
 3612SOL    HW111735   6.711   6.959   0.643
 3612SOL    HW211736   6.788   6.850   0.736
 3613SOL     OW11737   4.718   4.435   1.842
 3613SOL    HW111738   4.635   4.394   1.881
 3613SOL    HW211739   4.780   4.362   1.813
 3614SOL     OW11740   4.102   3.506   1.256
 3614SOL    HW111741   4.149   3.538   1.338
 3614SOL    HW211742   4.143   3.547   1.176
 3615SOL     OW11743   5.180   4.773   6.547
 3615SOL    HW111744   5.193   4.688   6.598
 3615SOL    HW211745   5.270   4.810   6.521
 3616SOL     OW11746   0.412   1.732   6.385
 3616SOL    HW111747   0.364   1.808   6.341
 3616SOL    HW211748   0.423   1.753   6.483
 3617SOL     OW11749   4.083   0.749   6.577
 3617SOL    HW111750   4.124   0.823   6.525
 3617SOL    HW211751   4.087   0.771   6.675
 3618SOL     OW11752   2.741   2.843   5.896
 3618SOL    HW111753   2.807   2.904   5.852
 3618SOL    HW211754   2.669   2.820   5.831
 3619SOL     OW11755   5.388   3.072   4.865
 3619SOL    HW111756   5.443   3.152   4.839
 3619SOL    HW211757   5.444   3.009   4.918
 3620SOL     OW11758   6.110   6.321   5.776
 3620SOL    HW111759   6.076   6.301   5.867
 3620SOL    HW211760   6.204   6.288   5.767
 3621SOL     OW11761   3.206   2.774   5.244
 3621SOL    HW111762   3.243   2.685   5.269
 3621SOL    HW211763   3.107   2.767   5.231
 3622SOL     OW11764   1.112   1.324   6.131
 3622SOL    HW111765   1.048   1.247   6.129
 3622SOL    HW211766   1.063   1.406   6.161
 3623SOL     OW11767   0.253   6.369   4.363
 3623SOL    HW111768   0.208   6.333   4.281
 3623SOL    HW211769   0.234   6.467   4.371
 3624SOL     OW11770   1.955   6.993   2.834
 3624SOL    HW111771   2.007   6.936   2.898
 3624SOL    HW211772   1.895   6.935   2.779
 3625SOL     OW11773   6.950   2.847   6.807
 3625SOL    HW111774   6.885   2.885   6.873
 3625SOL    HW211775   6.903   2.780   6.750
 3626SOL     OW11776   1.610   1.821   6.268
 3626SOL    HW111777   1.597   1.919   6.253
 3626SOL    HW211778   1.708   1.801   6.274
 3627SOL     OW11779   3.080   3.024   2.148
 3627SOL    HW111780   3.035   3.063   2.068
 3627SOL    HW211781   3.039   3.062   2.231
 3628SOL     OW11782   1.853   0.834   2.138
 3628SOL    HW111783   1.918   0.886   2.193
 3628SOL    HW211784   1.861   0.737   2.160
 3629SOL     OW11785   6.754   1.138   5.359
 3629SOL    HW111786   6.772   1.116   5.263
 3629SOL    HW211787   6.655   1.140   5.374
 3630SOL     OW11788   4.966   2.217   4.162
 3630SOL    HW111789   4.967   2.287   4.091
 3630SOL    HW211790   5.005   2.253   4.246
 3631SOL     OW11791   2.151   1.236   3.061
 3631SOL    HW111792   2.089   1.312   3.079
 3631SOL    HW211793   2.240   1.255   3.102
 3632SOL     OW11794   5.374   5.194   1.049
 3632SOL    HW111795   5.468   5.220   1.030
 3632SOL    HW211796   5.363   5.096   1.031
 3633SOL     OW11797   4.407   1.894   5.524
 3633SOL    HW111798   4.331   1.879   5.460
 3633SOL    HW211799   4.490   1.852   5.486
 3634SOL     OW11800   1.675   4.980   5.236
 3634SOL    HW111801   1.750   5.019   5.289
 3634SOL    HW211802   1.709   4.950   5.147
 3635SOL     OW11803   3.020   0.203   0.999
 3635SOL    HW111804   2.933   0.251   0.981
 3635SOL    HW211805   3.001   0.106   1.015
 3636SOL     OW11806   6.955   5.347   0.840
 3636SOL    HW111807   6.976   5.257   0.876
 3636SOL    HW211808   0.022   5.397   0.821
 3637SOL     OW11809   0.048   2.474   1.993
 3637SOL    HW111810   6.988   2.444   1.937
 3637SOL    HW211811   0.018   2.546   2.056
 3638SOL     OW11812   0.621   4.431   3.545
 3638SOL    HW111813   0.660   4.426   3.452
 3638SOL    HW211814   0.524   4.407   3.542
 3639SOL     OW11815   3.387   5.434   0.974
 3639SOL    HW111816   3.409   5.519   0.925
 3639SOL    HW211817   3.453   5.363   0.948
 3640SOL     OW11818   4.413   0.539   0.386
 3640SOL    HW111819   4.439   0.630   0.353
 3640SOL    HW211820   4.477   0.510   0.457
 3641SOL     OW11821   6.161   4.220   2.611
 3641SOL    HW111822   6.208   4.277   2.544
 3641SOL    HW211823   6.172   4.124   2.586
 3642SOL     OW11824   5.313   2.078   0.581
 3642SOL    HW111825   5.255   2.018   0.636
 3642SOL    HW211826   5.405   2.082   0.621
 3643SOL     OW11827   3.163   5.548   4.574
 3643SOL    HW111828   3.095   5.576   4.505
 3643SOL    HW211829   3.225   5.481   4.533
 3644SOL     OW11830   1.026   0.943   1.951
 3644SOL    HW111831   1.035   0.905   1.859
 3644SOL    HW211832   1.115   0.939   1.998
 3645SOL     OW11833   1.673   2.553   4.013
 3645SOL    HW111834   1.764   2.557   3.972
 3645SOL    HW211835   1.607   2.594   3.951
 3646SOL     OW11836   1.676   4.121   6.249
 3646SOL    HW111837   1.748   4.090   6.186
 3646SOL    HW211838   1.718   4.152   6.335
 3647SOL     OW11839   2.243   6.182   6.516
 3647SOL    HW111840   2.148   6.157   6.533
 3647SOL    HW211841   2.284   6.218   6.600
 3648SOL     OW11842   4.547   5.900   1.999
 3648SOL    HW111843   4.473   5.921   1.935
 3648SOL    HW211844   4.527   5.943   2.087
 3649SOL     OW11845   6.400   2.688   1.294
 3649SOL    HW111846   6.371   2.639   1.212
 3649SOL    HW211847   6.468   2.757   1.270
 3650SOL     OW11848   6.671   5.550   2.425
 3650SOL    HW111849   6.765   5.582   2.439
 3650SOL    HW211850   6.673   5.470   2.363
 3651SOL     OW11851   0.580   0.384   4.448
 3651SOL    HW111852   0.528   0.394   4.533
 3651SOL    HW211853   0.517   0.366   4.373
 3652SOL     OW11854   6.358   0.333   3.387
 3652SOL    HW111855   6.308   0.406   3.434
 3652SOL    HW211856   6.302   0.250   3.384
 3653SOL     OW11857   1.327   1.172   3.577
 3653SOL    HW111858   1.259   1.219   3.521
 3653SOL    HW211859   1.326   1.210   3.670
 3654SOL     OW11860   3.968   4.433   0.407
 3654SOL    HW111861   3.940   4.369   0.335
 3654SOL    HW211862   3.899   4.434   0.480
 3655SOL     OW11863   3.108   0.180   4.247
 3655SOL    HW111864   3.094   0.106   4.182
 3655SOL    HW211865   3.077   0.151   4.338
 3656SOL     OW11866   0.706   5.410   1.715
 3656SOL    HW111867   0.739   5.316   1.703
 3656SOL    HW211868   0.646   5.434   1.639
 3657SOL     OW11869   5.480   5.715   5.032
 3657SOL    HW111870   5.558   5.676   4.984
 3657SOL    HW211871   5.397   5.663   5.009
 3658SOL     OW11872   2.386   4.467   6.925
 3658SOL    HW111873   2.408   4.424   7.013
 3658SOL    HW211874   2.404   4.404   6.850
 3659SOL     OW11875   2.182   3.121   5.704
 3659SOL    HW111876   2.184   3.218   5.679
 3659SOL    HW211877   2.108   3.105   5.769
 3660SOL     OW11878   5.847   5.817   4.425
 3660SOL    HW111879   5.759   5.819   4.471
 3660SOL    HW211880   5.844   5.753   4.349
 3661SOL     OW11881   6.257   0.962   4.835
 3661SOL    HW111882   6.260   1.055   4.799
 3661SOL    HW211883   6.350   0.927   4.845
 3662SOL     OW11884   4.056   0.952   4.070
 3662SOL    HW111885   4.069   0.878   4.005
 3662SOL    HW211886   4.125   1.023   4.054
 3663SOL     OW11887   1.587   1.928   0.598
 3663SOL    HW111888   1.683   1.956   0.599
 3663SOL    HW211889   1.573   1.856   0.666
 3664SOL     OW11890   4.631   2.392   1.419
 3664SOL    HW111891   4.532   2.403   1.434
 3664SOL    HW211892   4.680   2.412   1.503
 3665SOL     OW11893   0.788   6.105   4.861
 3665SOL    HW111894   0.746   6.034   4.805
 3665SOL    HW211895   0.845   6.062   4.931
 3666SOL     OW11896   1.021   3.555   2.557
 3666SOL    HW111897   1.111   3.530   2.592
 3666SOL    HW211898   1.007   3.511   2.468
 3667SOL     OW11899   0.393   1.299   3.880
 3667SOL    HW111900   0.322   1.311   3.950
 3667SOL    HW211901   0.354   1.256   3.799
 3668SOL     OW11902   1.244   1.347   0.641
 3668SOL    HW111903   1.306   1.301   0.704
 3668SOL    HW211904   1.154   1.356   0.684
 3669SOL     OW11905   5.230   1.705   3.939
 3669SOL    HW111906   5.273   1.683   4.027
 3669SOL    HW211907   5.160   1.637   3.919
 3670SOL     OW11908   1.722   5.650   6.623
 3670SOL    HW111909   1.741   5.706   6.542
 3670SOL    HW211910   1.742   5.554   6.601
 3671SOL     OW11911   0.058   1.961   3.781
 3671SOL    HW111912   0.156   1.961   3.758
 3671SOL    HW211913   0.004   1.966   3.697
 3672SOL     OW11914   4.660   2.164   2.292
 3672SOL    HW111915   4.673   2.233   2.364
 3672SOL    HW211916   4.748   2.147   2.247
 3673SOL     OW11917   4.256   6.211   0.024
 3673SOL    HW111918   4.331   6.276   0.029
 3673SOL    HW211919   4.278   6.128   0.075
 3674SOL     OW11920   1.391   5.786   5.526
 3674SOL    HW111921   1.379   5.810   5.429
 3674SOL    HW211922   1.344   5.853   5.583
 3675SOL     OW11923   1.932   2.884   3.826
 3675SOL    HW111924   1.880   2.870   3.742
 3675SOL    HW211925   1.949   2.796   3.870
 3676SOL     OW11926   6.598   4.572   2.777
 3676SOL    HW111927   6.690   4.556   2.812
 3676SOL    HW211928   6.587   4.670   2.758
 3677SOL     OW11929   2.890   6.257   4.368
 3677SOL    HW111930   2.944   6.267   4.285
 3677SOL    HW211931   2.807   6.205   4.349
 3678SOL     OW11932   1.351   1.342   4.328
 3678SOL    HW111933   1.272   1.286   4.354
 3678SOL    HW211934   1.413   1.288   4.271
 3679SOL     OW11935   6.773   0.253   3.306
 3679SOL    HW111936   6.795   0.160   3.277
 3679SOL    HW211937   6.830   0.279   3.384
 3680SOL     OW11938   5.264   3.173   4.258
 3680SOL    HW111939   5.200   3.246   4.280
 3680SOL    HW211940   5.239   3.133   4.169
 3681SOL     OW11941   0.098   1.409   6.306
 3681SOL    HW111942   0.013   1.421   6.254
 3681SOL    HW211943   0.175   1.402   6.242
 3682SOL     OW11944   5.716   3.357   0.145
 3682SOL    HW111945   5.761   3.270   0.161
 3682SOL    HW211946   5.747   3.424   0.213
 3683SOL     OW11947   7.005   1.687   4.174
 3683SOL    HW111948   0.042   1.628   4.233
 3683SOL    HW211949   0.047   1.743   4.118
 3684SOL     OW11950   1.202   5.463   6.735
 3684SOL    HW111951   1.102   5.459   6.743
 3684SOL    HW211952   1.241   5.484   6.824
 3685SOL     OW11953   1.798   5.812   6.439
 3685SOL    HW111954   1.785   5.860   6.352
 3685SOL    HW211955   1.891   5.777   6.445
 3686SOL     OW11956   6.207   5.153   4.783
 3686SOL    HW111957   6.213   5.089   4.859
 3686SOL    HW211958   6.111   5.166   4.757
 3687SOL     OW11959   3.753   6.482   3.799
 3687SOL    HW111960   3.682   6.433   3.749
 3687SOL    HW211961   3.718   6.573   3.825
 3688SOL     OW11962   0.239   3.024   6.876
 3688SOL    HW111963   0.196   3.050   6.962
 3688SOL    HW211964   0.220   3.094   6.807
 3689SOL     OW11965   1.873   0.211   5.593
 3689SOL    HW111966   1.911   0.253   5.676
 3689SOL    HW211967   1.938   0.144   5.556
 3690SOL     OW11968   4.290   6.022   0.371
 3690SOL    HW111969   4.199   5.979   0.369
 3690SOL    HW211970   4.336   5.998   0.456
 3691SOL     OW11971   2.506   1.808   6.931
 3691SOL    HW111972   2.501   1.798   6.832
 3691SOL    HW211973   2.497   1.718   6.975
 3692SOL     OW11974   6.566   5.396   5.486
 3692SOL    HW111975   6.508   5.318   5.464
 3692SOL    HW211976   6.658   5.380   5.449
 3693SOL     OW11977   2.072   3.479   2.979
 3693SOL    HW111978   2.115   3.569   2.976
 3693SOL    HW211979   2.081   3.435   2.890
 3694SOL     OW11980   0.718   6.324   2.265
 3694SOL    HW111981   0.641   6.372   2.224
 3694SOL    HW211982   0.704   6.225   2.258
 3695SOL     OW11983   5.110   2.752   1.580
 3695SOL    HW111984   5.053   2.833   1.587
 3695SOL    HW211985   5.197   2.775   1.536
 3696SOL     OW11986   3.719   0.324   3.973
 3696SOL    HW111987   3.752   0.237   3.938
 3696SOL    HW211988   3.731   0.327   4.072
 3697SOL     OW11989   0.443   6.431   2.801
 3697SOL    HW111990   0.480   6.385   2.720
 3697SOL    HW211991   0.349   6.399   2.817
 3698SOL     OW11992   2.730   1.184   3.885
 3698SOL    HW111993   2.763   1.274   3.912
 3698SOL    HW211994   2.807   1.128   3.854
 3699SOL     OW11995   1.701   1.703   3.673
 3699SOL    HW111996   1.672   1.645   3.596
 3699SOL    HW211997   1.734   1.791   3.638
 3700SOL     OW11998   1.502   5.368   4.825
 3700SOL    HW111999   1.513   5.429   4.747
 3700SOL    HW212000   1.591   5.341   4.860
 3701SOL     OW12001   1.483   0.886   3.853
 3701SOL    HW112002   1.542   0.966   3.861
 3701SOL    HW212003   1.497   0.842   3.765
 3702SOL     OW12004   5.633   6.370   3.450
 3702SOL    HW112005   5.555   6.419   3.411
 3702SOL    HW212006   5.678   6.428   3.519
 3703SOL     OW12007   6.702   0.709   6.398
 3703SOL    HW112008   6.647   0.768   6.457
 3703SOL    HW212009   6.689   0.614   6.424
 3704SOL     OW12010   3.872   2.065   1.101
 3704SOL    HW112011   3.914   2.116   1.026
 3704SOL    HW212012   3.791   2.114   1.133
 3705SOL     OW12013   5.162   4.062   4.854
 3705SOL    HW112014   5.258   4.081   4.872
 3705SOL    HW212015   5.115   4.044   4.941
 3706SOL     OW12016   0.940   3.886   6.879
 3706SOL    HW112017   1.027   3.904   6.833
 3706SOL    HW212018   0.937   3.937   6.965
 3707SOL     OW12019   5.274   4.969   4.683
 3707SOL    HW112020   5.285   4.898   4.753
 3707SOL    HW212021   5.288   5.059   4.724
 3708SOL     OW12022   6.195   0.641   0.458
 3708SOL    HW112023   6.122   0.573   0.448
 3708SOL    HW212024   6.220   0.676   0.368
 3709SOL     OW12025   3.862   0.375   1.424
 3709SOL    HW112026   3.821   0.432   1.495
 3709SOL    HW212027   3.853   0.278   1.450
 3710SOL     OW12028   6.633   5.497   5.147
 3710SOL    HW112029   6.728   5.469   5.140
 3710SOL    HW212030   6.619   5.581   5.095
 3711SOL     OW12031   1.548   5.512   4.606
 3711SOL    HW112032   1.515   5.600   4.573
 3711SOL    HW212033   1.552   5.447   4.530
 3712SOL     OW12034   0.974   4.957   6.063
 3712SOL    HW112035   0.898   4.989   6.119
 3712SOL    HW212036   0.976   5.009   5.977
 3713SOL     OW12037   0.651   6.754   5.225
 3713SOL    HW112038   0.743   6.762   5.263
 3713SOL    HW212039   0.585   6.747   5.300
 3714SOL     OW12040   5.792   5.904   6.467
 3714SOL    HW112041   5.768   5.980   6.406
 3714SOL    HW212042   5.869   5.854   6.429
 3715SOL     OW12043   0.766   3.828   2.261
 3715SOL    HW112044   0.814   3.914   2.276
 3715SOL    HW212045   0.702   3.811   2.336
 3716SOL     OW12046   6.173   6.607   4.010
 3716SOL    HW112047   6.116   6.551   3.951
 3716SOL    HW212048   6.270   6.592   3.987
 3717SOL     OW12049   5.937   0.107   6.899
 3717SOL    HW112050   5.940   0.037   6.827
 3717SOL    HW212051   6.020   0.102   6.954
 3718SOL     OW12052   0.257   0.619   0.377
 3718SOL    HW112053   0.265   0.560   0.297
 3718SOL    HW212054   0.277   0.567   0.460
 3719SOL     OW12055   5.120   3.231   1.564
 3719SOL    HW112056   5.087   3.302   1.503
 3719SOL    HW212057   5.219   3.220   1.553
 3720SOL     OW12058   5.869   3.462   0.328
 3720SOL    HW112059   5.959   3.421   0.316
 3720SOL    HW212060   5.846   3.463   0.425
 3721SOL     OW12061   6.850   4.914   1.999
 3721SOL    HW112062   6.822   4.836   2.056
 3721SOL    HW212063   6.948   4.929   2.009
 3722SOL     OW12064   5.518   5.978   0.978
 3722SOL    HW112065   5.420   5.961   0.987
 3722SOL    HW212066   5.544   5.978   0.882
 3723SOL     OW12067   5.635   4.453   0.949
 3723SOL    HW112068   5.614   4.548   0.925
 3723SOL    HW212069   5.734   4.443   0.961
 3724SOL     OW12070   1.747   4.674   4.794
 3724SOL    HW112071   1.667   4.625   4.829
 3724SOL    HW212072   1.815   4.608   4.761
 3725SOL     OW12073   0.348   5.126   6.997
 3725SOL    HW112074   0.368   5.211   6.949
 3725SOL    HW212075   0.425   5.063   6.988
 3726SOL     OW12076   5.922   3.088   6.327
 3726SOL    HW112077   5.913   3.004   6.273
 3726SOL    HW212078   5.834   3.136   6.328
 3727SOL     OW12079   6.625   2.092   5.563
 3727SOL    HW112080   6.590   2.180   5.531
 3727SOL    HW212081   6.672   2.105   5.650
 3728SOL     OW12082   0.963   3.792   6.550
 3728SOL    HW112083   1.049   3.752   6.583
 3728SOL    HW212084   0.946   3.763   6.456
 3729SOL     OW12085   1.932   2.015   4.177
 3729SOL    HW112086   1.922   1.937   4.116
 3729SOL    HW212087   2.005   2.075   4.145
 3730SOL     OW12088   2.938   5.898   5.412
 3730SOL    HW112089   3.008   5.845   5.364
 3730SOL    HW212090   2.904   5.970   5.353
 3731SOL     OW12091   0.344   1.390   0.581
 3731SOL    HW112092   0.327   1.477   0.535
 3731SOL    HW212093   0.385   1.407   0.671
 3732SOL     OW12094   2.881   2.279   0.281
 3732SOL    HW112095   2.853   2.288   0.185
 3732SOL    HW212096   2.809   2.232   0.332
 3733SOL     OW12097   1.835   3.615   2.937
 3733SOL    HW112098   1.840   3.691   2.872
 3733SOL    HW212099   1.927   3.583   2.959
 3734SOL     OW12100   5.024   0.253   1.226
 3734SOL    HW112101   5.047   0.350   1.214
 3734SOL    HW212102   5.021   0.208   1.137
 3735SOL     OW12103   2.828   0.920   2.917
 3735SOL    HW112104   2.839   0.975   2.834
 3735SOL    HW212105   2.734   0.885   2.920
 3736SOL     OW12106   0.284   1.607   1.188
 3736SOL    HW112107   0.238   1.687   1.226
 3736SOL    HW212108   0.278   1.608   1.088
 3737SOL     OW12109   5.145   0.758   4.271
 3737SOL    HW112110   5.101   0.848   4.270
 3737SOL    HW212111   5.239   0.768   4.304
 3738SOL     OW12112   6.508   0.305   1.695
 3738SOL    HW112113   6.537   0.249   1.617
 3738SOL    HW212114   6.459   0.248   1.761
 3739SOL     OW12115   2.726   5.352   0.868
 3739SOL    HW112116   2.638   5.399   0.857
 3739SOL    HW212117   2.725   5.298   0.952
 3740SOL     OW12118   6.434   0.008   0.592
 3740SOL    HW112119   6.482   6.938   0.586
 3740SOL    HW212120   6.399   0.020   0.685
 3741SOL     OW12121   4.945   2.721   6.098
 3741SOL    HW112122   5.026   2.675   6.134
 3741SOL    HW212123   4.967   2.817   6.080
 3742SOL     OW12124   3.257   1.746   6.766
 3742SOL    HW112125   3.278   1.823   6.705
 3742SOL    HW212126   3.341   1.713   6.809
 3743SOL     OW12127   5.707   2.978   0.765
 3743SOL    HW112128   5.713   2.911   0.839
 3743SOL    HW212129   5.691   3.068   0.803
 3744SOL     OW12130   1.565   6.340   1.778
 3744SOL    HW112131   1.508   6.413   1.740
 3744SOL    HW212132   1.610   6.291   1.704
 3745SOL     OW12133   4.501   4.568   2.596
 3745SOL    HW112134   4.456   4.552   2.508
 3745SOL    HW212135   4.538   4.661   2.598
 3746SOL     OW12136   6.444   0.519   4.032
 3746SOL    HW112137   6.389   0.599   4.057
 3746SOL    HW212138   6.529   0.550   3.990
 3747SOL     OW12139   3.522   5.976   5.154
 3747SOL    HW112140   3.571   5.890   5.141
 3747SOL    HW212141   3.462   5.992   5.076
 3748SOL     OW12142   5.701   0.896   1.682
 3748SOL    HW112143   5.718   0.897   1.780
 3748SOL    HW212144   5.603   0.910   1.665
 3749SOL     OW12145   1.722   4.869   2.990
 3749SOL    HW112146   1.752   4.955   2.950
 3749SOL    HW212147   1.794   4.800   2.980
 3750SOL     OW12148   6.635   5.196   1.431
 3750SOL    HW112149   6.548   5.238   1.457
 3750SOL    HW212150   6.635   5.180   1.332
 3751SOL     OW12151   6.461   3.538   1.401
 3751SOL    HW112152   6.557   3.565   1.403
 3751SOL    HW212153   6.454   3.438   1.404
 3752SOL     OW12154   0.075   6.741   0.727
 3752SOL    HW112155   0.033   6.670   0.672
 3752SOL    HW212156   0.096   6.820   0.669
 3753SOL     OW12157   6.946   0.781   4.126
 3753SOL    HW112158   6.944   0.862   4.184
 3753SOL    HW212159   6.881   0.713   4.159
 3754SOL     OW12160   4.124   6.818   1.231
 3754SOL    HW112161   4.046   6.803   1.291
 3754SOL    HW212162   4.095   6.812   1.136
 3755SOL     OW12163   5.171   5.642   4.586
 3755SOL    HW112164   5.126   5.706   4.647
 3755SOL    HW212165   5.259   5.615   4.626
 3756SOL     OW12166   2.131   5.768   6.482
 3756SOL    HW112167   2.184   5.835   6.429
 3756SOL    HW212168   2.095   5.698   6.421
 3757SOL     OW12169   3.931   6.280   6.451
 3757SOL    HW112170   3.971   6.195   6.418
 3757SOL    HW212171   3.832   6.269   6.460
 3758SOL     OW12172   2.271   1.288   5.361
 3758SOL    HW112173   2.287   1.199   5.319
 3758SOL    HW212174   2.197   1.335   5.313
 3759SOL     OW12175   4.481   5.790   5.964
 3759SOL    HW112176   4.496   5.793   6.063
 3759SOL    HW212177   4.559   5.830   5.917
 3760SOL     OW12178   2.039   1.837   5.294
 3760SOL    HW112179   1.963   1.863   5.353
 3760SOL    HW212180   2.042   1.897   5.214
 3761SOL     OW12181   1.037   0.738   4.875
 3761SOL    HW112182   1.030   0.774   4.968
 3761SOL    HW212183   1.106   0.790   4.825
 3762SOL     OW12184   1.051   4.033   0.064
 3762SOL    HW112185   1.077   4.060   6.989
 3762SOL    HW212186   1.112   3.962   0.097
 3763SOL     OW12187   0.360   4.409   1.120
 3763SOL    HW112188   0.287   4.472   1.094
 3763SOL    HW212189   0.323   4.317   1.131
 3764SOL     OW12190   1.958   6.998   3.921
 3764SOL    HW112191   1.899   0.061   3.916
 3764SOL    HW212192   1.928   6.931   3.853
 3765SOL     OW12193   4.410   0.980   0.860
 3765SOL    HW112194   4.373   0.887   0.865
 3765SOL    HW212195   4.460   0.991   0.774
 3766SOL     OW12196   1.169   1.184   3.844
 3766SOL    HW112197   1.182   1.104   3.903
 3766SOL    HW212198   1.085   1.174   3.792
 3767SOL     OW12199   2.142   4.237   0.462
 3767SOL    HW112200   2.196   4.204   0.384
 3767SOL    HW212201   2.182   4.323   0.495
 3768SOL     OW12202   1.857   6.054   4.854
 3768SOL    HW112203   1.898   5.964   4.869
 3768SOL    HW212204   1.899   6.120   4.916
 3769SOL     OW12205   6.080   6.490   5.403
 3769SOL    HW112206   6.098   6.568   5.342
 3769SOL    HW212207   6.058   6.524   5.495
 3770SOL     OW12208   2.122   0.565   6.986
 3770SOL    HW112209   2.083   0.517   6.907
 3770SOL    HW212210   2.058   0.560   0.045
 3771SOL     OW12211   6.108   3.340   0.289
 3771SOL    HW112212   6.163   3.281   0.349
 3771SOL    HW212213   6.114   3.307   0.195
 3772SOL     OW12214   0.044   0.804   6.899
 3772SOL    HW112215   0.120   0.869   6.900
 3772SOL    HW212216   6.982   0.846   6.943
 3773SOL     OW12217   6.160   2.625   6.127
 3773SOL    HW112218   6.182   2.568   6.206
 3773SOL    HW212219   6.166   2.570   6.044
 3774SOL     OW12220   0.353   5.962   0.221
 3774SOL    HW112221   0.415   5.889   0.193
 3774SOL    HW212222   0.259   5.927   0.227
 3775SOL     OW12223   5.151   5.345   2.509
 3775SOL    HW112224   5.146   5.425   2.449
 3775SOL    HW212225   5.187   5.373   2.598
 3776SOL     OW12226   4.189   1.217   0.735
 3776SOL    HW112227   4.161   1.313   0.736
 3776SOL    HW212228   4.261   1.203   0.668
 3777SOL     OW12229   3.489   4.994   4.364
 3777SOL    HW112230   3.509   5.087   4.393
 3777SOL    HW212231   3.390   4.979   4.363
 3778SOL     OW12232   3.852   4.979   2.275
 3778SOL    HW112233   3.771   4.946   2.226
 3778SOL    HW212234   3.866   5.076   2.254
 3779SOL     OW12235   1.747   4.790   0.606
 3779SOL    HW112236   1.719   4.717   0.544
 3779SOL    HW212237   1.747   4.756   0.700
 3780SOL     OW12238   5.463   5.973   4.943
 3780SOL    HW112239   5.470   5.893   5.003
 3780SOL    HW212240   5.371   6.012   4.951
 3781SOL     OW12241   1.011   6.958   4.638
 3781SOL    HW112242   1.092   6.954   4.696
 3781SOL    HW212243   0.945   6.889   4.667
 3782SOL     OW12244   2.337   0.658   4.078
 3782SOL    HW112245   2.373   0.661   4.172
 3782SOL    HW212246   2.321   0.563   4.052
 3783SOL     OW12247   5.821   5.612   4.218
 3783SOL    HW112248   5.739   5.593   4.164
 3783SOL    HW212249   5.855   5.526   4.257
 3784SOL     OW12250   4.786   2.898   2.213
 3784SOL    HW112251   4.750   2.943   2.131
 3784SOL    HW212252   4.744   2.808   2.222
 3785SOL     OW12253   1.731   1.437   6.524
 3785SOL    HW112254   1.708   1.379   6.602
 3785SOL    HW212255   1.686   1.403   6.442
 3786SOL     OW12256   2.399   6.227   2.799
 3786SOL    HW112257   2.392   6.305   2.737
 3786SOL    HW212258   2.489   6.185   2.789
 3787SOL     OW12259   6.121   0.713   2.470
 3787SOL    HW112260   6.196   0.674   2.416
 3787SOL    HW212261   6.040   0.655   2.462
 3788SOL     OW12262   0.845   3.967   4.640
 3788SOL    HW112263   0.780   3.997   4.710
 3788SOL    HW212264   0.933   4.012   4.654
 3789SOL     OW12265   0.223   3.072   5.254
 3789SOL    HW112266   0.165   3.104   5.329
 3789SOL    HW212267   0.279   2.996   5.285
 3790SOL     OW12268   1.214   4.737   5.018
 3790SOL    HW112269   1.278   4.730   4.942
 3790SOL    HW212270   1.121   4.743   4.982
 3791SOL     OW12271   5.269   0.364   0.375
 3791SOL    HW112272   5.200   0.295   0.400
 3791SOL    HW212273   5.322   0.389   0.456
 3792SOL     OW12274   1.099   1.820   5.053
 3792SOL    HW112275   1.024   1.808   4.989
 3792SOL    HW212276   1.120   1.917   5.062
 3793SOL     OW12277   4.588   6.906   2.837
 3793SOL    HW112278   4.623   6.828   2.786
 3793SOL    HW212279   4.518   6.875   2.902
 3794SOL     OW12280   2.602   4.194   0.263
 3794SOL    HW112281   2.575   4.125   0.330
 3794SOL    HW212282   2.598   4.155   0.171
 3795SOL     OW12283   4.658   6.561   6.396
 3795SOL    HW112284   4.618   6.527   6.481
 3795SOL    HW212285   4.667   6.486   6.331
 3796SOL     OW12286   3.039   1.813   2.048
 3796SOL    HW112287   3.109   1.839   2.115
 3796SOL    HW212288   2.987   1.735   2.082
 3797SOL     OW12289   0.167   4.081   2.262
 3797SOL    HW112290   0.133   3.991   2.290
 3797SOL    HW212291   0.109   4.152   2.302
 3798SOL     OW12292   2.760   5.672   2.701
 3798SOL    HW112293   2.740   5.599   2.635
 3798SOL    HW212294   2.858   5.671   2.722
 3799SOL     OW12295   0.665   2.683   4.530
 3799SOL    HW112296   0.606   2.642   4.601
 3799SOL    HW212297   0.754   2.637   4.532
 3800SOL     OW12298   5.503   3.072   4.302
 3800SOL    HW112299   5.552   3.042   4.220
 3800SOL    HW212300   5.414   3.109   4.277
 3801SOL     OW12301   6.213   6.646   2.867
 3801SOL    HW112302   6.305   6.637   2.907
 3801SOL    HW212303   6.221   6.662   2.769
 3802SOL     OW12304   1.248   2.273   2.630
 3802SOL    HW112305   1.282   2.251   2.539
 3802SOL    HW212306   1.263   2.196   2.692
 3803SOL     OW12307   3.266   2.185   0.855
 3803SOL    HW112308   3.298   2.176   0.950
 3803SOL    HW212309   3.328   2.245   0.805
 3804SOL     OW12310   5.168   1.121   4.088
 3804SOL    HW112311   5.189   1.144   4.183
 3804SOL    HW212312   5.249   1.082   4.044
 3805SOL     OW12313   2.361   3.010   1.638
 3805SOL    HW112314   2.312   3.081   1.689
 3805SOL    HW212315   2.456   3.038   1.625
 3806SOL     OW12316   3.687   4.023   6.552
 3806SOL    HW112317   3.654   4.094   6.613
 3806SOL    HW212318   3.660   3.933   6.588
 3807SOL     OW12319   1.977   5.616   3.227
 3807SOL    HW112320   1.906   5.633   3.159
 3807SOL    HW212321   2.043   5.550   3.190
 3808SOL     OW12322   4.233   0.178   1.037
 3808SOL    HW112323   4.261   0.135   1.124
 3808SOL    HW212324   4.294   0.255   1.018
 3809SOL     OW12325   6.153   3.187   0.899
 3809SOL    HW112326   6.177   3.228   0.812
 3809SOL    HW212327   6.053   3.181   0.906
 3810SOL     OW12328   4.686   2.286   4.119
 3810SOL    HW112329   4.612   2.220   4.107
 3810SOL    HW212330   4.774   2.238   4.126
 3811SOL     OW12331   1.092   3.917   4.248
 3811SOL    HW112332   1.068   3.975   4.170
 3811SOL    HW212333   1.009   3.882   4.290
 3812SOL     OW12334   5.248   0.693   4.741
 3812SOL    HW112335   5.310   0.686   4.819
 3812SOL    HW212336   5.300   0.717   4.659
 3813SOL     OW12337   4.908   4.656   0.523
 3813SOL    HW112338   4.954   4.735   0.485
 3813SOL    HW212339   4.922   4.577   0.463
 3814SOL     OW12340   0.139   6.950   0.557
 3814SOL    HW112341   0.168   6.916   0.468
 3814SOL    HW212342   0.211   7.008   0.596
 3815SOL     OW12343   4.813   3.184   0.013
 3815SOL    HW112344   4.785   3.088   0.012
 3815SOL    HW212345   4.861   3.205   6.945
 3816SOL     OW12346   0.787   5.682   6.655
 3816SOL    HW112347   0.766   5.632   6.570
 3816SOL    HW212348   0.805   5.778   6.634
 3817SOL     OW12349   4.803   3.882   2.181
 3817SOL    HW112350   4.783   3.785   2.194
 3817SOL    HW212351   4.830   3.923   2.268
 3818SOL     OW12352   5.570   0.669   0.423
 3818SOL    HW112353   5.520   0.589   0.457
 3818SOL    HW212354   5.549   0.748   0.480
 3819SOL     OW12355   5.873   5.667   1.402
 3819SOL    HW112356   5.937   5.593   1.422
 3819SOL    HW212357   5.852   5.716   1.487
 3820SOL     OW12358   5.536   6.911   3.164
 3820SOL    HW112359   5.587   6.964   3.096
 3820SOL    HW212360   5.552   6.950   3.255
 3821SOL     OW12361   2.466   1.481   0.631
 3821SOL    HW112362   2.508   1.565   0.667
 3821SOL    HW212363   2.407   1.441   0.702
 3822SOL     OW12364   1.340   6.626   2.422
 3822SOL    HW112365   1.265   6.563   2.401
 3822SOL    HW212366   1.314   6.685   2.498
 3823SOL     OW12367   3.057   2.630   6.178
 3823SOL    HW112368   2.993   2.610   6.252
 3823SOL    HW212369   3.090   2.724   6.186
 3824SOL     OW12370   5.959   2.755   0.600
 3824SOL    HW112371   5.974   2.844   0.644
 3824SOL    HW212372   6.000   2.756   0.509
 3825SOL     OW12373   0.957   6.233   0.609
 3825SOL    HW112374   0.960   6.145   0.561
 3825SOL    HW212375   0.919   6.303   0.548
 3826SOL     OW12376   0.878   2.629   6.900
 3826SOL    HW112377   0.863   2.691   6.822
 3826SOL    HW212378   0.790   2.604   6.940
 3827SOL     OW12379   2.537   2.377   1.213
 3827SOL    HW112380   2.504   2.431   1.136
 3827SOL    HW212381   2.596   2.303   1.178
 3828SOL     OW12382   3.592   2.492   1.681
 3828SOL    HW112383   3.624   2.430   1.752
 3828SOL    HW212384   3.668   2.550   1.651
 3829SOL     OW12385   2.079   4.689   4.361
 3829SOL    HW112386   2.066   4.774   4.411
 3829SOL    HW212387   2.050   4.701   4.266
 3830SOL     OW12388   1.039   0.371   4.294
 3830SOL    HW112389   1.028   0.351   4.392
 3830SOL    HW212390   0.965   0.430   4.263
 3831SOL     OW12391   4.256   2.307   2.384
 3831SOL    HW112392   4.200   2.279   2.461
 3831SOL    HW212393   4.202   2.304   2.300
 3832SOL     OW12394   5.542   0.933   2.969
 3832SOL    HW112395   5.524   1.013   2.912
 3832SOL    HW212396   5.457   0.887   2.991
 3833SOL     OW12397   0.649   5.826   5.782
 3833SOL    HW112398   0.645   5.808   5.880
 3833SOL    HW212399   0.726   5.887   5.762
 3834SOL     OW12400   4.408   3.419   1.646
 3834SOL    HW112401   4.506   3.418   1.667
 3834SOL    HW212402   4.373   3.325   1.646
 3835SOL     OW12403   3.207   5.248   5.415
 3835SOL    HW112404   3.208   5.224   5.512
 3835SOL    HW212405   3.128   5.207   5.370
 3836SOL     OW12406   1.759   4.201   5.584
 3836SOL    HW112407   1.844   4.219   5.535
 3836SOL    HW212408   1.757   4.105   5.613
 3837SOL     OW12409   4.792   4.052   7.002
 3837SOL    HW112410   4.725   4.102   6.947
 3837SOL    HW212411   4.754   3.962   0.009
 3838SOL     OW12412   6.954   3.444   4.791
 3838SOL    HW112413   7.013   3.393   4.728
 3838SOL    HW212414   6.930   3.533   4.751
 3839SOL     OW12415   4.022   0.784   3.839
 3839SOL    HW112416   4.102   0.809   3.785
 3839SOL    HW212417   3.943   0.773   3.779
 3840SOL     OW12418   1.896   1.619   5.680
 3840SOL    HW112419   1.915   1.535   5.630
 3840SOL    HW212420   1.810   1.659   5.648
 3841SOL     OW12421   0.164   3.075   5.527
 3841SOL    HW112422   0.084   3.019   5.506
 3841SOL    HW212423   0.245   3.016   5.536
 3842SOL     OW12424   1.073   4.104   6.559
 3842SOL    HW112425   1.086   4.181   6.495
 3842SOL    HW212426   1.015   4.035   6.516
 3843SOL     OW12427   0.128   4.223   2.638
 3843SOL    HW112428   0.071   4.234   2.720
 3843SOL    HW212429   0.079   4.260   2.559
 3844SOL     OW12430   0.473   3.063   6.678
 3844SOL    HW112431   0.565   3.078   6.715
 3844SOL    HW212432   0.424   2.999   6.737
 3845SOL     OW12433   3.680   2.897   3.078
 3845SOL    HW112434   3.724   2.929   3.163
 3845SOL    HW212435   3.581   2.906   3.087
 3846SOL     OW12436   1.250   4.900   3.679
 3846SOL    HW112437   1.268   4.849   3.764
 3846SOL    HW212438   1.313   4.977   3.673
 3847SOL     OW12439   6.354   0.702   4.564
 3847SOL    HW112440   6.421   0.765   4.603
 3847SOL    HW212441   6.285   0.679   4.633
 3848SOL     OW12442   3.149   5.450   2.729
 3848SOL    HW112443   3.240   5.449   2.688
 3848SOL    HW212444   3.156   5.477   2.825
 3849SOL     OW12445   0.606   1.442   4.846
 3849SOL    HW112446   0.652   1.523   4.812
 3849SOL    HW212447   0.653   1.360   4.814
 3850SOL     OW12448   2.437   3.733   1.438
 3850SOL    HW112449   2.517   3.790   1.460
 3850SOL    HW212450   2.354   3.788   1.446
 3851SOL     OW12451   1.616   4.364   2.956
 3851SOL    HW112452   1.596   4.374   3.053
 3851SOL    HW212453   1.567   4.434   2.904
 3852SOL     OW12454   4.807   6.764   3.856
 3852SOL    HW112455   4.731   6.782   3.918
 3852SOL    HW212456   4.893   6.794   3.898
 3853SOL     OW12457   1.276   2.717   2.758
 3853SOL    HW112458   1.341   2.780   2.716
 3853SOL    HW212459   1.309   2.623   2.747
 3854SOL     OW12460   1.216   3.265   2.318
 3854SOL    HW112461   1.130   3.217   2.303
 3854SOL    HW212462   1.198   3.364   2.325
 3855SOL     OW12463   5.106   6.022   6.339
 3855SOL    HW112464   5.077   6.107   6.295
 3855SOL    HW212465   5.086   6.027   6.437
 3856SOL     OW12466   6.379   6.274   5.726
 3856SOL    HW112467   6.430   6.189   5.721
 3856SOL    HW212468   6.378   6.318   5.636
 3857SOL     OW12469   0.858   5.814   5.971
 3857SOL    HW112470   0.857   5.723   5.928
 3857SOL    HW212471   0.907   5.878   5.911
 3858SOL     OW12472   1.224   6.084   5.242
 3858SOL    HW112473   1.272   5.998   5.257
 3858SOL    HW212474   1.146   6.090   5.304
 3859SOL     OW12475   6.828   2.220   3.161
 3859SOL    HW112476   6.876   2.159   3.224
 3859SOL    HW212477   6.793   2.168   3.084
 3860SOL     OW12478   1.719   0.464   5.444
 3860SOL    HW112479   1.623   0.478   5.420
 3860SOL    HW212480   1.730   0.376   5.490
 3861SOL     OW12481   5.232   4.703   2.171
 3861SOL    HW112482   5.262   4.643   2.245
 3861SOL    HW212483   5.209   4.648   2.090
 3862SOL     OW12484   0.330   6.820   5.192
 3862SOL    HW112485   0.318   6.736   5.244
 3862SOL    HW212486   0.392   6.803   5.116
 3863SOL     OW12487   4.366   2.880   6.389
 3863SOL    HW112488   4.373   2.890   6.290
 3863SOL    HW212489   4.451   2.913   6.432
 3864SOL     OW12490   3.249   1.355   5.088
 3864SOL    HW112491   3.196   1.408   5.153
 3864SOL    HW212492   3.208   1.362   4.997
 3865SOL     OW12493   3.598   0.085   0.807
 3865SOL    HW112494   3.640   0.106   0.895
 3865SOL    HW212495   3.504   0.120   0.806
 3866SOL     OW12496   4.041   1.034   0.929
 3866SOL    HW112497   4.103   1.101   0.888
 3866SOL    HW212498   3.947   1.067   0.924
 3867SOL     OW12499   2.160   3.348   3.659
 3867SOL    HW112500   2.163   3.254   3.693
 3867SOL    HW212501   2.185   3.349   3.562
 3868SOL     OW12502   3.010   6.490   0.925
 3868SOL    HW112503   2.970   6.581   0.915
 3868SOL    HW212504   2.945   6.421   0.894
 3869SOL     OW12505   6.722   3.141   4.664
 3869SOL    HW112506   6.775   3.221   4.634
 3869SOL    HW212507   6.770   3.058   4.637
 3870SOL     OW12508   4.999   5.225   0.839
 3870SOL    HW112509   4.973   5.215   0.936
 3870SOL    HW212510   4.942   5.166   0.783
 3871SOL     OW12511   4.028   0.468   2.683
 3871SOL    HW112512   3.931   0.465   2.661
 3871SOL    HW212513   4.082   0.470   2.599
 3872SOL     OW12514   3.307   2.860   2.161
 3872SOL    HW112515   3.240   2.933   2.150
 3872SOL    HW212516   3.265   2.772   2.138
 3873SOL     OW12517   6.839   5.517   1.164
 3873SOL    HW112518   6.811   5.541   1.071
 3873SOL    HW212519   6.912   5.578   1.194
 3874SOL     OW12520   4.058   5.719   0.057
 3874SOL    HW112521   3.959   5.722   0.039
 3874SOL    HW212522   4.074   5.685   0.149
 3875SOL     OW12523   0.943   2.763   2.281
 3875SOL    HW112524   0.893   2.722   2.357
 3875SOL    HW212525   1.001   2.693   2.238
 3876SOL     OW12526   6.172   5.471   6.921
 3876SOL    HW112527   6.130   5.440   7.006
 3876SOL    HW212528   6.105   5.464   6.847
 3877SOL     OW12529   0.119   2.558   0.277
 3877SOL    HW112530   0.062   2.480   0.250
 3877SOL    HW212531   0.132   2.557   0.376
 3878SOL     OW12532   2.344   6.319   5.404
 3878SOL    HW112533   2.347   6.313   5.304
 3878SOL    HW212534   2.280   6.390   5.431
 3879SOL     OW12535   4.737   6.727   1.193
 3879SOL    HW112536   4.739   6.823   1.220
 3879SOL    HW212537   4.716   6.720   1.096
 3880SOL     OW12538   5.684   4.350   3.682
 3880SOL    HW112539   5.686   4.415   3.758
 3880SOL    HW212540   5.659   4.260   3.716
 3881SOL     OW12541   1.408   5.274   0.457
 3881SOL    HW112542   1.377   5.218   0.534
 3881SOL    HW212543   1.454   5.217   0.390
 3882SOL     OW12544   6.129   1.403   4.653
 3882SOL    HW112545   6.080   1.472   4.707
 3882SOL    HW212546   6.071   1.375   4.576
 3883SOL     OW12547   4.240   1.040   3.390
 3883SOL    HW112548   4.337   1.063   3.391
 3883SOL    HW212549   4.198   1.078   3.307
 3884SOL     OW12550   1.499   5.672   4.045
 3884SOL    HW112551   1.547   5.597   4.001
 3884SOL    HW212552   1.411   5.687   4.000
 3885SOL     OW12553   6.480   1.573   4.323
 3885SOL    HW112554   6.564   1.587   4.375
 3885SOL    HW212555   6.496   1.596   4.227
 3886SOL     OW12556   6.550   0.187   4.972
 3886SOL    HW112557   6.491   0.120   5.017
 3886SOL    HW212558   6.585   0.148   4.887
 3887SOL     OW12559   5.272   1.866   5.701
 3887SOL    HW112560   5.241   1.946   5.752
 3887SOL    HW212561   5.192   1.814   5.670
 3888SOL     OW12562   0.891   0.752   6.464
 3888SOL    HW112563   0.868   0.687   6.536
 3888SOL    HW212564   0.977   0.798   6.487
 3889SOL     OW12565   0.452   3.192   6.434
 3889SOL    HW112566   0.447   3.132   6.514
 3889SOL    HW212567   0.361   3.227   6.412
 3890SOL     OW12568   5.678   6.446   2.961
 3890SOL    HW112569   5.716   6.494   2.882
 3890SOL    HW212570   5.600   6.498   2.997
 3891SOL     OW12571   5.061   4.361   4.799
 3891SOL    HW112572   4.967   4.375   4.832
 3891SOL    HW212573   5.103   4.287   4.852
 3892SOL     OW12574   0.710   0.289   2.544
 3892SOL    HW112575   0.755   0.249   2.465
 3892SOL    HW212576   0.724   0.388   2.544
 3893SOL     OW12577   3.139   5.489   2.321
 3893SOL    HW112578   3.101   5.552   2.253
 3893SOL    HW212579   3.069   5.468   2.390
 3894SOL     OW12580   3.383   2.389   0.675
 3894SOL    HW112581   3.465   2.340   0.705
 3894SOL    HW212582   3.387   2.483   0.706
 3895SOL     OW12583   1.112   1.295   5.384
 3895SOL    HW112584   1.096   1.360   5.458
 3895SOL    HW212585   1.031   1.238   5.371
 3896SOL     OW12586   0.511   2.661   6.080
 3896SOL    HW112587   0.502   2.624   5.988
 3896SOL    HW212588   0.422   2.659   6.126
 3897SOL     OW12589   3.201   6.934   1.870
 3897SOL    HW112590   3.226   6.952   1.966
 3897SOL    HW212591   3.257   6.991   1.810
 3898SOL     OW12592   3.477   2.943   3.429
 3898SOL    HW112593   3.452   2.956   3.525
 3898SOL    HW212594   3.575   2.927   3.423
 3899SOL     OW12595   4.880   1.329   4.443
 3899SOL    HW112596   4.814   1.272   4.393
 3899SOL    HW212597   4.847   1.343   4.536
 3900SOL     OW12598   5.762   3.621   3.639
 3900SOL    HW112599   5.769   3.522   3.623
 3900SOL    HW212600   5.710   3.637   3.723
 3901SOL     OW12601   2.279   6.399   5.825
 3901SOL    HW112602   2.214   6.475   5.828
 3901SOL    HW212603   2.356   6.424   5.766
 3902SOL     OW12604   4.521   4.462   2.164
 3902SOL    HW112605   4.592   4.427   2.225
 3902SOL    HW212606   4.512   4.401   2.086
 3903SOL     OW12607   3.877   3.486   6.896
 3903SOL    HW112608   3.893   3.520   6.989
 3903SOL    HW212609   3.819   3.404   6.900
 3904SOL     OW12610   1.140   0.881   6.501
 3904SOL    HW112611   1.115   0.975   6.479
 3904SOL    HW212612   1.236   0.877   6.530
 3905SOL     OW12613   6.176   6.652   6.386
 3905SOL    HW112614   6.223   6.593   6.320
 3905SOL    HW212615   6.206   6.629   6.478
 3906SOL     OW12616   2.071   5.375   5.152
 3906SOL    HW112617   2.120   5.294   5.184
 3906SOL    HW212618   1.980   5.377   5.194
 3907SOL     OW12619   0.325   1.265   4.625
 3907SOL    HW112620   0.373   1.204   4.562
 3907SOL    HW212621   0.292   1.213   4.704
 3908SOL     OW12622   0.411   1.448   6.563
 3908SOL    HW112623   0.486   1.487   6.510
 3908SOL    HW212624   0.351   1.522   6.595
 3909SOL     OW12625   5.780   4.270   6.424
 3909SOL    HW112626   5.716   4.203   6.461
 3909SOL    HW212627   5.873   4.250   6.456
 3910SOL     OW12628   3.687   4.017   2.148
 3910SOL    HW112629   3.693   4.059   2.057
 3910SOL    HW212630   3.600   4.042   2.191
 3911SOL     OW12631   5.347   1.236   0.775
 3911SOL    HW112632   5.265   1.238   0.832
 3911SOL    HW212633   5.345   1.313   0.711
 3912SOL     OW12634   3.957   0.439   6.344
 3912SOL    HW112635   3.963   0.360   6.406
 3912SOL    HW212636   4.048   0.479   6.333
 3913SOL     OW12637   3.798   5.745   0.027
 3913SOL    HW112638   3.787   5.836   7.003
 3913SOL    HW212639   3.721   5.687   0.001
 3914SOL     OW12640   4.776   1.111   2.028
 3914SOL    HW112641   4.681   1.097   1.997
 3914SOL    HW212642   4.790   1.207   2.050
 3915SOL     OW12643   3.989   6.544   0.092
 3915SOL    HW112644   3.924   6.502   0.029
 3915SOL    HW212645   4.030   6.473   0.150
 3916SOL     OW12646   2.342   6.857   3.003
 3916SOL    HW112647   2.431   6.831   3.040
 3916SOL    HW212648   2.316   6.795   2.929
 3917SOL     OW12649   2.761   4.997   0.345
 3917SOL    HW112650   2.689   5.025   0.281
 3917SOL    HW212651   2.850   5.005   0.299
 3918SOL     OW12652   4.611   0.748   0.635
 3918SOL    HW112653   4.538   0.812   0.610
 3918SOL    HW212654   4.576   0.654   0.632
 3919SOL     OW12655   4.173   0.619   0.450
 3919SOL    HW112656   4.273   0.617   0.455
 3919SOL    HW212657   4.138   0.528   0.431
 3920SOL     OW12658   2.165   0.921   6.815
 3920SOL    HW112659   2.231   0.987   6.779
 3920SOL    HW212660   2.170   0.920   6.915
 3921SOL     OW12661   0.011   2.481   6.982
 3921SOL    HW112662   0.062   2.562   6.952
 3921SOL    HW212663   0.075   2.410   7.011
 3922SOL     OW12664   4.854   5.322   1.378
 3922SOL    HW112665   4.820   5.388   1.310
 3922SOL    HW212666   4.782   5.255   1.397
 3923SOL     OW12667   5.721   1.769   1.201
 3923SOL    HW112668   5.632   1.726   1.186
 3923SOL    HW212669   5.784   1.702   1.239
 3924SOL     OW12670   0.739   4.352   3.061
 3924SOL    HW112671   0.722   4.328   3.157
 3924SOL    HW212672   0.677   4.426   3.034
 3925SOL     OW12673   4.578   4.528   1.586
 3925SOL    HW112674   4.624   4.563   1.668
 3925SOL    HW212675   4.607   4.434   1.568
 3926SOL     OW12676   0.710   0.048   5.769
 3926SOL    HW112677   0.613   0.053   5.745
 3926SOL    HW212678   0.755   6.997   5.712
 3927SOL     OW12679   0.677   3.031   3.801
 3927SOL    HW112680   0.690   3.110   3.860
 3927SOL    HW212681   0.596   2.980   3.829
 3928SOL     OW12682   2.930   6.672   2.237
 3928SOL    HW112683   2.879   6.753   2.206
 3928SOL    HW212684   2.906   6.594   2.180
 3929SOL     OW12685   0.148   1.190   0.118
 3929SOL    HW112686   0.079   1.195   0.191
 3929SOL    HW212687   0.223   1.132   0.148
 3930SOL     OW12688   0.933   1.905   4.115
 3930SOL    HW112689   0.922   1.810   4.087
 3930SOL    HW212690   0.975   1.957   4.040
 3931SOL     OW12691   1.965   2.021   2.023
 3931SOL    HW112692   1.933   2.096   1.965
 3931SOL    HW212693   2.062   2.006   2.006
 3932SOL     OW12694   2.272   5.103   3.871
 3932SOL    HW112695   2.202   5.151   3.818
 3932SOL    HW212696   2.362   5.118   3.831
 3933SOL     OW12697   0.903   6.289   0.135
 3933SOL    HW112698   0.972   6.284   0.063
 3933SOL    HW212699   0.852   6.203   0.139
 3934SOL     OW12700   0.094   1.497   2.909
 3934SOL    HW112701   0.164   1.510   2.839
 3934SOL    HW212702   0.038   1.418   2.885
 3935SOL     OW12703   6.739   2.331   6.091
 3935SOL    HW112704   6.693   2.295   6.010
 3935SOL    HW212705   6.751   2.257   6.158
 3936SOL     OW12706   6.543   6.046   5.577
 3936SOL    HW112707   6.582   5.977   5.516
 3936SOL    HW212708   6.616   6.085   5.634
 3937SOL     OW12709   0.871   5.722   2.657
 3937SOL    HW112710   0.840   5.816   2.640
 3937SOL    HW212711   0.937   5.722   2.732
 3938SOL     OW12712   6.878   3.134   4.323
 3938SOL    HW112713   6.963   3.085   4.304
 3938SOL    HW212714   6.806   3.102   4.262
 3939SOL     OW12715   2.258   1.763   3.835
 3939SOL    HW112716   2.215   1.816   3.909
 3939SOL    HW212717   2.192   1.696   3.801
 3940SOL     OW12718   3.092   4.855   2.126
 3940SOL    HW112719   3.177   4.856   2.073
 3940SOL    HW212720   3.014   4.864   2.065
 3941SOL     OW12721   5.941   6.766   4.085
 3941SOL    HW112722   5.870   6.786   4.017
 3941SOL    HW212723   6.024   6.736   4.038
 3942SOL     OW12724   0.761   6.156   5.540
 3942SOL    HW112725   0.746   6.182   5.635
 3942SOL    HW212726   0.850   6.113   5.530
 3943SOL     OW12727   0.849   3.545   1.579
 3943SOL    HW112728   0.894   3.624   1.621
 3943SOL    HW212729   0.867   3.463   1.634
 3944SOL     OW12730   5.765   3.334   5.853
 3944SOL    HW112731   5.766   3.395   5.932
 3944SOL    HW212732   5.738   3.242   5.881
 3945SOL     OW12733   0.789   2.549   3.280
 3945SOL    HW112734   0.854   2.616   3.245
 3945SOL    HW212735   0.803   2.537   3.379
 3946SOL     OW12736   6.901   3.663   6.807
 3946SOL    HW112737   6.846   3.745   6.793
 3946SOL    HW212738   6.875   3.619   6.893
 3947SOL     OW12739   6.108   5.395   0.151
 3947SOL    HW112740   6.063   5.458   0.214
 3947SOL    HW212741   6.205   5.385   0.176
 3948SOL     OW12742   1.384   3.318   6.944
 3948SOL    HW112743   1.430   3.386   6.888
 3948SOL    HW212744   1.428   3.229   6.932
 3949SOL     OW12745   6.285   0.216   3.057
 3949SOL    HW112746   6.368   0.256   3.096
 3949SOL    HW212747   6.206   0.273   3.080
 3950SOL     OW12748   4.186   4.063   1.716
 3950SOL    HW112749   4.160   3.977   1.760
 3950SOL    HW212750   4.274   4.093   1.752
 3951SOL     OW12751   0.454   2.311   6.534
 3951SOL    HW112752   0.360   2.285   6.512
 3951SOL    HW212753   0.474   2.287   6.629
 3952SOL     OW12754   6.096   2.920   3.732
 3952SOL    HW112755   6.048   2.863   3.799
 3952SOL    HW212756   6.139   2.862   3.663
 3953SOL     OW12757   3.098   4.798   6.116
 3953SOL    HW112758   3.099   4.889   6.076
 3953SOL    HW212759   3.004   4.764   6.123
 3954SOL     OW12760   6.314   4.150   5.667
 3954SOL    HW112761   6.400   4.110   5.700
 3954SOL    HW212762   6.288   4.226   5.726
 3955SOL     OW12763   4.898   6.440   0.258
 3955SOL    HW112764   4.808   6.484   0.260
 3955SOL    HW212765   4.907   6.379   0.336
 3956SOL     OW12766   0.868   2.789   5.496
 3956SOL    HW112767   0.777   2.746   5.497
 3956SOL    HW212768   0.924   2.747   5.424
 3957SOL     OW12769   3.244   6.028   4.034
 3957SOL    HW112770   3.170   6.089   4.061
 3957SOL    HW212771   3.317   6.081   3.991
 3958SOL     OW12772   5.661   6.523   0.197
 3958SOL    HW112773   5.753   6.492   0.217
 3958SOL    HW212774   5.598   6.445   0.199
 3959SOL     OW12775   3.456   6.118   1.177
 3959SOL    HW112776   3.490   6.166   1.096
 3959SOL    HW212777   3.513   6.038   1.195
 3960SOL     OW12778   4.834   2.683   6.622
 3960SOL    HW112779   4.786   2.595   6.623
 3960SOL    HW212780   4.883   2.695   6.708
 3961SOL     OW12781   5.013   1.980   2.279
 3961SOL    HW112782   5.028   2.079   2.286
 3961SOL    HW212783   4.940   1.963   2.214
 3962SOL     OW12784   0.647   6.101   6.867
 3962SOL    HW112785   0.626   6.067   6.958
 3962SOL    HW212786   0.714   6.041   6.823
 3963SOL     OW12787   5.973   5.707   3.356
 3963SOL    HW112788   5.978   5.788   3.416
 3963SOL    HW212789   5.890   5.712   3.301
 3964SOL     OW12790   4.374   5.779   5.066
 3964SOL    HW112791   4.470   5.756   5.075
 3964SOL    HW212792   4.318   5.700   5.088
 3965SOL     OW12793   3.411   4.625   6.513
 3965SOL    HW112794   3.508   4.611   6.536
 3965SOL    HW212795   3.360   4.645   6.596
 3966SOL     OW12796   6.264   4.755   6.487
 3966SOL    HW112797   6.185   4.747   6.426
 3966SOL    HW212798   6.281   4.851   6.507
 3967SOL     OW12799   0.664   5.138   3.783
 3967SOL    HW112800   0.566   5.133   3.802
 3967SOL    HW212801   0.682   5.098   3.693
 3968SOL     OW12802   5.446   0.588   2.780
 3968SOL    HW112803   5.452   0.595   2.681
 3968SOL    HW212804   5.394   0.506   2.804
 3969SOL     OW12805   1.167   4.342   2.580
 3969SOL    HW112806   1.137   4.437   2.566
 3969SOL    HW212807   1.120   4.303   2.659
 3970SOL     OW12808   4.854   5.062   3.496
 3970SOL    HW112809   4.954   5.057   3.495
 3970SOL    HW212810   4.826   5.155   3.470
 3971SOL     OW12811   2.895   5.352   3.103
 3971SOL    HW112812   2.828   5.284   3.074
 3971SOL    HW212813   2.957   5.373   3.027
 3972SOL     OW12814   0.155   6.013   0.666
 3972SOL    HW112815   0.100   6.088   0.630
 3972SOL    HW212816   0.100   5.929   0.666
 3973SOL     OW12817   3.243   3.163   5.435
 3973SOL    HW112818   3.164   3.107   5.411
 3973SOL    HW212819   3.327   3.108   5.427
 3974SOL     OW12820   0.650   0.905   6.177
 3974SOL    HW112821   0.627   0.978   6.242
 3974SOL    HW212822   0.733   0.930   6.128
 3975SOL     OW12823   6.479   0.765   5.640
 3975SOL    HW112824   6.548   0.692   5.640
 3975SOL    HW212825   6.518   0.848   5.678
 3976SOL     OW12826   0.997   4.883   1.267
 3976SOL    HW112827   0.942   4.826   1.206
 3976SOL    HW212828   0.940   4.956   1.305
 3977SOL     OW12829   2.728   5.322   6.141
 3977SOL    HW112830   2.728   5.246   6.076
 3977SOL    HW212831   2.651   5.383   6.120
 3978SOL     OW12832   5.660   1.239   5.011
 3978SOL    HW112833   5.579   1.236   4.953
 3978SOL    HW212834   5.742   1.242   4.955
 3979SOL     OW12835   1.716   6.872   1.652
 3979SOL    HW112836   1.649   6.940   1.680
 3979SOL    HW212837   1.680   6.817   1.577
 3980SOL     OW12838   6.421   3.734   5.243
 3980SOL    HW112839   6.434   3.728   5.342
 3980SOL    HW212840   6.386   3.647   5.208
 3981SOL     OW12841   0.196   1.602   6.060
 3981SOL    HW112842   0.214   1.604   5.962
 3981SOL    HW212843   0.278   1.572   6.109
 3982SOL     OW12844   2.667   0.781   4.765
 3982SOL    HW112845   2.677   0.830   4.678
 3982SOL    HW212846   2.576   0.799   4.802
 3983SOL     OW12847   3.135   6.007   4.475
 3983SOL    HW112848   3.101   6.100   4.489
 3983SOL    HW212849   3.235   6.009   4.467
 3984SOL     OW12850   1.912   0.038   1.550
 3984SOL    HW112851   1.910   0.048   1.451
 3984SOL    HW212852   1.863   6.972   1.576
 3985SOL     OW12853   2.113   3.715   6.932
 3985SOL    HW112854   2.082   3.650   7.001
 3985SOL    HW212855   2.177   3.780   6.974
 3986SOL     OW12856   0.060   1.826   2.764
 3986SOL    HW112857   6.998   1.804   2.708
 3986SOL    HW212858   0.127   1.875   2.708
 3987SOL     OW12859   1.700   5.277   4.968
 3987SOL    HW112860   1.699   5.300   5.066
 3987SOL    HW212861   1.782   5.225   4.947
 3988SOL     OW12862   3.604   1.596   5.653
 3988SOL    HW112863   3.603   1.498   5.631
 3988SOL    HW212864   3.531   1.642   5.602
 3989SOL     OW12865   5.998   0.239   5.819
 3989SOL    HW112866   6.050   0.224   5.735
 3989SOL    HW212867   6.049   0.201   5.896
 3990SOL     OW12868   5.652   2.528   4.928
 3990SOL    HW112869   5.748   2.555   4.921
 3990SOL    HW212870   5.635   2.448   4.871
 3991SOL     OW12871   6.674   2.577   3.016
 3991SOL    HW112872   6.709   2.518   3.089
 3991SOL    HW212873   6.742   2.648   2.995
 3992SOL     OW12874   4.609   2.945   6.984
 3992SOL    HW112875   4.568   3.036   6.984
 3992SOL    HW212876   4.618   2.913   6.890
 3993SOL     OW12877   2.613   2.107   3.422
 3993SOL    HW112878   2.565   2.068   3.344
 3993SOL    HW212879   2.546   2.140   3.489
 3994SOL     OW12880   2.332   2.755   5.034
 3994SOL    HW112881   2.251   2.720   5.081
 3994SOL    HW212882   2.334   2.855   5.041
 3995SOL     OW12883   2.548   4.844   3.692
 3995SOL    HW112884   2.493   4.848   3.608
 3995SOL    HW212885   2.641   4.814   3.670
 3996SOL     OW12886   2.113   1.442   4.817
 3996SOL    HW112887   2.132   1.356   4.864
 3996SOL    HW212888   2.019   1.471   4.839
 3997SOL     OW12889   4.909   3.653   3.405
 3997SOL    HW112890   4.904   3.726   3.336
 3997SOL    HW212891   4.821   3.645   3.451
 3998SOL     OW12892   5.692   2.145   2.238
 3998SOL    HW112893   5.790   2.132   2.255
 3998SOL    HW212894   5.660   2.075   2.174
 3999SOL     OW12895   6.225   4.058   3.480
 3999SOL    HW112896   6.245   4.153   3.504
 3999SOL    HW212897   6.152   4.055   3.412
 4000SOL     OW12898   3.284   5.076   3.008
 4000SOL    HW112899   3.209   5.077   2.941
 4000SOL    HW212900   3.247   5.101   3.098
 4001SOL     OW12901   2.485   3.726   5.310
 4001SOL    HW112902   2.581   3.708   5.290
 4001SOL    HW212903   2.462   3.818   5.278
 4002SOL     OW12904   3.606   3.406   4.458
 4002SOL    HW112905   3.508   3.424   4.466
 4002SOL    HW212906   3.656   3.492   4.472
 4003SOL     OW12907   2.363   1.386   6.564
 4003SOL    HW112908   2.388   1.384   6.467
 4003SOL    HW212909   2.266   1.367   6.573
 4004SOL     OW12910   6.468   3.175   4.598
 4004SOL    HW112911   6.448   3.133   4.510
 4004SOL    HW212912   6.559   3.147   4.628
 4005SOL     OW12913   4.963   4.886   1.302
 4005SOL    HW112914   4.871   4.908   1.332
 4005SOL    HW212915   4.973   4.786   1.296
 4006SOL     OW12916   5.814   4.712   2.361
 4006SOL    HW112917   5.787   4.795   2.312
 4006SOL    HW212918   5.903   4.682   2.329
 4007SOL     OW12919   0.420   2.374   2.857
 4007SOL    HW112920   0.415   2.464   2.812
 4007SOL    HW212921   0.419   2.302   2.788
 4008SOL     OW12922   3.206   0.909   6.196
 4008SOL    HW112923   3.251   0.885   6.110
 4008SOL    HW212924   3.115   0.945   6.178
 4009SOL     OW12925   4.355   2.037   1.302
 4009SOL    HW112926   4.299   2.093   1.241
 4009SOL    HW212927   4.431   2.091   1.337
 4010SOL     OW12928   3.031   3.293   1.678
 4010SOL    HW112929   3.079   3.221   1.728
 4010SOL    HW212930   3.097   3.358   1.641
 4011SOL     OW12931   0.165   6.451   2.082
 4011SOL    HW112932   0.082   6.502   2.103
 4011SOL    HW212933   0.246   6.506   2.104
 4012SOL     OW12934   4.438   6.485   2.403
 4012SOL    HW112935   4.446   6.543   2.484
 4012SOL    HW212936   4.508   6.415   2.405
 4013SOL     OW12937   2.205   0.607   1.217
 4013SOL    HW112938   2.252   0.574   1.135
 4013SOL    HW212939   2.253   0.574   1.298
 4014SOL     OW12940   3.562   5.571   3.789
 4014SOL    HW112941   3.597   5.664   3.778
 4014SOL    HW212942   3.635   5.505   3.774
 4015SOL     OW12943   4.929   4.889   7.004
 4015SOL    HW112944   4.871   4.963   6.971
 4015SOL    HW212945   4.971   4.842   6.927
 4016SOL     OW12946   2.686   6.087   6.814
 4016SOL    HW112947   2.621   6.023   6.775
 4016SOL    HW212948   2.747   6.039   6.878
 4017SOL     OW12949   0.709   6.052   6.024
 4017SOL    HW112950   0.764   5.970   6.016
 4017SOL    HW212951   0.687   6.069   6.120
 4018SOL     OW12952   4.751   6.333   1.456
 4018SOL    HW112953   4.818   6.273   1.411
 4018SOL    HW212954   4.799   6.405   1.506
 4019SOL     OW12955   5.838   4.577   2.924
 4019SOL    HW112956   5.851   4.478   2.921
 4019SOL    HW212957   5.741   4.598   2.908
 4020SOL     OW12958   6.778   3.126   5.889
 4020SOL    HW112959   6.867   3.106   5.849
 4020SOL    HW212960   6.714   3.154   5.818
 4021SOL     OW12961   3.412   4.057   5.139
 4021SOL    HW112962   3.329   4.088   5.093
 4021SOL    HW212963   3.491   4.108   5.103
 4022SOL     OW12964   4.181   6.884   6.851
 4022SOL    HW112965   4.224   6.795   6.867
 4022SOL    HW212966   4.251   6.951   6.825
 4023SOL     OW12967   0.207   0.327   5.059
 4023SOL    HW112968   0.255   0.263   5.119
 4023SOL    HW212969   0.161   0.276   4.986
 4024SOL     OW12970   2.492   5.172   4.338
 4024SOL    HW112971   2.432   5.135   4.267
 4024SOL    HW212972   2.552   5.100   4.372
 4025SOL     OW12973   0.823   6.070   4.080
 4025SOL    HW112974   0.790   6.158   4.113
 4025SOL    HW212975   0.791   5.997   4.141
 4026SOL     OW12976   5.948   6.811   3.569
 4026SOL    HW112977   5.911   6.768   3.486
 4026SOL    HW212978   5.876   6.865   3.612
 4027SOL     OW12979   3.219   2.305   0.158
 4027SOL    HW112980   3.163   2.318   0.076
 4027SOL    HW212981   3.160   2.273   0.233
 4028SOL     OW12982   3.851   1.809   3.723
 4028SOL    HW112983   3.856   1.713   3.694
 4028SOL    HW212984   3.929   1.830   3.782
 4029SOL     OW12985   2.794   4.570   5.860
 4029SOL    HW112986   2.756   4.481   5.836
 4029SOL    HW212987   2.809   4.623   5.776
 4030SOL     OW12988   0.019   1.356   1.943
 4030SOL    HW112989   0.008   1.295   1.865
 4030SOL    HW212990   0.100   1.414   1.929
 4031SOL     OW12991   5.490   5.730   3.352
 4031SOL    HW112992   5.447   5.716   3.441
 4031SOL    HW212993   5.419   5.742   3.283
 4032SOL     OW12994   6.822   0.166   1.638
 4032SOL    HW112995   6.800   0.129   1.728
 4032SOL    HW212996   6.748   0.142   1.574
 4033SOL     OW12997   2.181   3.015   1.422
 4033SOL    HW112998   2.165   3.113   1.432
 4033SOL    HW212999   2.250   2.985   1.489
 4034SOL     OW13000   5.961   1.620   4.691
 4034SOL    HW113001   6.044   1.659   4.651
 4034SOL    HW213002   5.938   1.668   4.776
 4035SOL     OW13003   6.291   1.887   0.962
 4035SOL    HW113004   6.196   1.898   0.992
 4035SOL    HW213005   6.304   1.796   0.922
 4036SOL     OW13006   4.198   5.612   2.242
 4036SOL    HW113007   4.152   5.698   2.221
 4036SOL    HW213008   4.163   5.539   2.183
 4037SOL     OW13009   2.099   1.661   0.040
 4037SOL    HW113010   2.118   1.636   0.135
 4037SOL    HW213011   2.008   1.628   0.015
 4038SOL     OW13012   4.595   2.923   1.346
 4038SOL    HW113013   4.654   2.975   1.408
 4038SOL    HW213014   4.557   2.844   1.395
 4039SOL     OW13015   6.013   5.833   1.048
 4039SOL    HW113016   6.048   5.834   1.142
 4039SOL    HW213017   6.081   5.873   0.987
 4040SOL     OW13018   3.405   6.995   5.756
 4040SOL    HW113019   3.397   6.915   5.696
 4040SOL    HW213020   3.427   6.965   5.849
 4041SOL     OW13021   1.191   5.550   1.522
 4041SOL    HW113022   1.175   5.463   1.476
 4041SOL    HW213023   1.154   5.546   1.615
 4042SOL     OW13024   6.246   5.734   3.212
 4042SOL    HW113025   6.158   5.733   3.259
 4042SOL    HW213026   6.272   5.640   3.188
 4043SOL     OW13027   6.499   2.625   5.192
 4043SOL    HW113028   6.418   2.570   5.171
 4043SOL    HW213029   6.540   2.657   5.107
 4044SOL     OW13030   4.327   0.105   3.529
 4044SOL    HW113031   4.293   0.086   3.621
 4044SOL    HW213032   4.268   0.059   3.462
 4045SOL     OW13033   3.831   6.303   5.295
 4045SOL    HW113034   3.849   6.245   5.216
 4045SOL    HW213035   3.890   6.275   5.371
 4046SOL     OW13036   1.577   1.966   4.068
 4046SOL    HW113037   1.619   2.052   4.099
 4046SOL    HW213038   1.582   1.898   4.141
 4047SOL     OW13039   1.951   2.404   0.758
 4047SOL    HW113040   1.958   2.503   0.764
 4047SOL    HW213041   1.963   2.365   0.850
 4048SOL     OW13042   5.020   1.711   1.992
 4048SOL    HW113043   4.956   1.681   1.920
 4048SOL    HW213044   5.032   1.810   1.985
 4049SOL     OW13045   5.524   5.129   6.347
 4049SOL    HW113046   5.476   5.043   6.363
 4049SOL    HW213047   5.506   5.161   6.254
 4050SOL     OW13048   1.239   6.746   2.066
 4050SOL    HW113049   1.141   6.759   2.081
 4050SOL    HW213050   1.290   6.786   2.142
 4051SOL     OW13051   4.564   2.229   6.563
 4051SOL    HW113052   4.566   2.259   6.467
 4051SOL    HW213053   4.559   2.130   6.567
 4052SOL     OW13054   6.663   1.272   2.357
 4052SOL    HW113055   6.611   1.203   2.407
 4052SOL    HW213056   6.742   1.229   2.312
 4053SOL     OW13057   3.262   5.761   4.013
 4053SOL    HW113058   3.218   5.741   3.926
 4053SOL    HW213059   3.255   5.859   4.032
 4054SOL     OW13060   6.687   4.419   1.363
 4054SOL    HW113061   6.590   4.396   1.356
 4054SOL    HW213062   6.742   4.339   1.337
 4055SOL     OW13063   2.740   3.434   0.033
 4055SOL    HW113064   2.716   3.501   6.981
 4055SOL    HW213065   2.798   3.477   0.102
 4056SOL     OW13066   4.349   3.804   0.405
 4056SOL    HW113067   4.285   3.874   0.436
 4056SOL    HW213068   4.380   3.750   0.484
 4057SOL     OW13069   6.701   2.788   1.064
 4057SOL    HW113070   6.683   2.699   1.022
 4057SOL    HW213071   6.790   2.785   1.109
 4058SOL     OW13072   1.942   0.113   4.758
 4058SOL    HW113073   1.952   0.103   4.857
 4058SOL    HW213074   1.861   0.167   4.738
 4059SOL     OW13075   0.822   1.919   2.720
 4059SOL    HW113076   0.848   1.864   2.640
 4059SOL    HW213077   0.731   1.958   2.706
 4060SOL     OW13078   5.241   5.577   5.028
 4060SOL    HW113079   5.141   5.588   5.026
 4060SOL    HW213080   5.267   5.518   5.104
 4061SOL     OW13081   2.723   4.884   2.313
 4061SOL    HW113082   2.718   4.893   2.413
 4061SOL    HW213083   2.752   4.971   2.273
 4062SOL     OW13084   2.093   1.644   2.424
 4062SOL    HW113085   2.014   1.659   2.364
 4062SOL    HW213086   2.174   1.626   2.368
 4063SOL     OW13087   6.217   6.682   6.813
 4063SOL    HW113088   6.210   6.610   6.745
 4063SOL    HW213089   6.255   6.645   6.898
 4064SOL     OW13090   2.586   0.326   4.144
 4064SOL    HW113091   2.598   0.233   4.109
 4064SOL    HW213092   2.535   0.323   4.229
 4065SOL     OW13093   1.070   6.630   1.314
 4065SOL    HW113094   0.990   6.612   1.258
 4065SOL    HW213095   1.082   6.728   1.326
 4066SOL     OW13096   5.515   5.158   3.585
 4066SOL    HW113097   5.613   5.177   3.585
 4066SOL    HW213098   5.496   5.080   3.645
 4067SOL     OW13099   6.488   3.083   2.846
 4067SOL    HW113100   6.439   3.161   2.886
 4067SOL    HW213101   6.453   2.998   2.886
 4068SOL     OW13102   2.168   1.361   4.420
 4068SOL    HW113103   2.213   1.351   4.331
 4068SOL    HW213104   2.195   1.285   4.480
 4069SOL     OW13105   2.002   5.341   6.602
 4069SOL    HW113106   2.030   5.296   6.517
 4069SOL    HW213107   1.904   5.363   6.598
 4070SOL     OW13108   0.304   3.628   2.308
 4070SOL    HW113109   0.340   3.540   2.339
 4070SOL    HW213110   0.310   3.634   2.208
 4071SOL     OW13111   1.726   0.725   5.258
 4071SOL    HW113112   1.723   0.811   5.309
 4071SOL    HW213113   1.776   0.656   5.311
 4072SOL     OW13114   0.279   5.377   4.405
 4072SOL    HW113115   0.231   5.304   4.356
 4072SOL    HW213116   0.333   5.338   4.478
 4073SOL     OW13117   2.432   6.302   6.308
 4073SOL    HW113118   2.410   6.237   6.380
 4073SOL    HW213119   2.400   6.266   6.220
 4074SOL     OW13120   7.010   3.623   1.804
 4074SOL    HW113121   6.989   3.698   1.868
 4074SOL    HW213122   0.083   3.587   1.824
 4075SOL     OW13123   4.330   2.062   1.994
 4075SOL    HW113124   4.316   2.077   2.092
 4075SOL    HW213125   4.276   2.128   1.942
 4076SOL     OW13126   2.745   2.796   5.490
 4076SOL    HW113127   2.670   2.776   5.428
 4076SOL    HW213128   2.718   2.777   5.584
 4077SOL     OW13129   3.032   0.868   0.156
 4077SOL    HW113130   3.045   0.771   0.178
 4077SOL    HW213131   3.064   0.886   0.063
 4078SOL     OW13132   0.500   5.909   1.549
 4078SOL    HW113133   0.589   5.863   1.545
 4078SOL    HW213134   0.507   5.998   1.504
 4079SOL     OW13135   1.419   1.455   3.711
 4079SOL    HW113136   1.464   1.389   3.771
 4079SOL    HW213137   1.487   1.500   3.655
 4080SOL     OW13138   3.382   4.534   6.857
 4080SOL    HW113139   3.469   4.537   6.809
 4080SOL    HW213140   3.332   4.452   6.829
 4081SOL     OW13141   1.826   2.604   4.998
 4081SOL    HW113142   1.780   2.516   4.991
 4081SOL    HW213143   1.799   2.663   4.922
 4082SOL     OW13144   1.419   3.280   0.805
 4082SOL    HW113145   1.394   3.317   0.715
 4082SOL    HW213146   1.475   3.198   0.791
 4083SOL     OW13147   6.945   4.488   2.121
 4083SOL    HW113148   7.008   4.552   2.164
 4083SOL    HW213149   6.994   4.407   2.089
 4084SOL     OW13150   5.016   2.532   3.831
 4084SOL    HW113151   5.091   2.490   3.881
 4084SOL    HW213152   4.939   2.468   3.826
 4085SOL     OW13153   2.199   5.946   1.125
 4085SOL    HW113154   2.103   5.944   1.098
 4085SOL    HW213155   2.256   5.920   1.047
 4086SOL     OW13156   1.389   5.382   1.827
 4086SOL    HW113157   1.427   5.415   1.913
 4086SOL    HW213158   1.325   5.308   1.844
 4087SOL     OW13159   1.478   1.561   2.956
 4087SOL    HW113160   1.462   1.623   3.033
 4087SOL    HW213161   1.390   1.527   2.922
 4088SOL     OW13162   6.580   1.135   6.523
 4088SOL    HW113163   6.525   1.191   6.462
 4088SOL    HW213164   6.675   1.134   6.491
 4089SOL     OW13165   6.088   5.606   4.401
 4089SOL    HW113166   6.176   5.626   4.444
 4089SOL    HW213167   6.076   5.665   4.321
 4090SOL     OW13168   1.461   5.504   5.218
 4090SOL    HW113169   1.433   5.439   5.148
 4090SOL    HW213170   1.399   5.497   5.297
 4091SOL     OW13171   6.642   6.648   6.564
 4091SOL    HW113172   6.729   6.699   6.567
 4091SOL    HW213173   6.609   6.644   6.470
 4092SOL     OW13174   5.982   2.509   5.216
 4092SOL    HW113175   5.890   2.533   5.247
 4092SOL    HW213176   5.987   2.517   5.117
 4093SOL     OW13177   4.796   5.894   1.950
 4093SOL    HW113178   4.819   5.991   1.961
 4093SOL    HW213179   4.701   5.879   1.977
 4094SOL     OW13180   1.843   5.747   5.454
 4094SOL    HW113181   1.899   5.676   5.498
 4094SOL    HW213182   1.794   5.707   5.376
 4095SOL     OW13183   1.066   3.248   0.323
 4095SOL    HW113184   1.150   3.280   0.279
 4095SOL    HW213185   0.989   3.258   0.260
 4096SOL     OW13186   4.802   6.775   6.070
 4096SOL    HW113187   4.733   6.728   6.015
 4096SOL    HW213188   4.762   6.803   6.157
 4097SOL     OW13189   4.288   4.755   5.170
 4097SOL    HW113190   4.296   4.671   5.118
 4097SOL    HW213191   4.246   4.826   5.114
 4098SOL     OW13192   6.603   2.478   1.601
 4098SOL    HW113193   6.607   2.381   1.624
 4098SOL    HW213194   6.694   2.518   1.605
 4099SOL     OW13195   2.987   5.242   1.290
 4099SOL    HW113196   2.910   5.216   1.347
 4099SOL    HW213197   2.993   5.181   1.211
 4100SOL     OW13198   6.714   7.010   4.803
 4100SOL    HW113199   6.810   0.006   4.780
 4100SOL    HW213200   6.707   6.946   4.880
 4101SOL     OW13201   6.285   1.262   6.751
 4101SOL    HW113202   6.313   1.237   6.844
 4101SOL    HW213203   6.252   1.180   6.703
 4102SOL     OW13204   0.387   1.055   0.789
 4102SOL    HW113205   0.417   0.981   0.730
 4102SOL    HW213206   0.465   1.112   0.813
 4103SOL     OW13207   6.818   0.136   0.071
 4103SOL    HW113208   6.785   0.085   0.150
 4103SOL    HW213209   6.743   0.186   0.028
 4104SOL     OW13210   0.385   4.784   2.971
 4104SOL    HW113211   0.474   4.817   2.938
 4104SOL    HW213212   0.312   4.832   2.924
 4105SOL     OW13213   5.238   6.930   1.192
 4105SOL    HW113214   5.298   6.956   1.267
 4105SOL    HW213215   5.293   6.902   1.114
 4106SOL     OW13216   6.339   3.367   2.907
 4106SOL    HW113217   6.351   3.465   2.894
 4106SOL    HW213218   6.280   3.330   2.835
 4107SOL     OW13219   1.195   4.885   1.083
 4107SOL    HW113220   1.099   4.873   1.110
 4107SOL    HW213221   1.237   4.956   1.140
 4108SOL     OW13222   5.898   4.462   5.570
 4108SOL    HW113223   5.990   4.473   5.532
 4108SOL    HW213224   5.838   4.422   5.500
 4109SOL     OW13225   5.908   0.031   4.685
 4109SOL    HW113226   5.857   0.109   4.649
 4109SOL    HW213227   5.875   0.010   4.777
 4110SOL     OW13228   4.352   3.571   6.077
 4110SOL    HW113229   4.392   3.480   6.086
 4110SOL    HW213230   4.252   3.563   6.078
 4111SOL     OW13231   5.109   3.229   0.143
 4111SOL    HW113232   5.010   3.219   0.141
 4111SOL    HW213233   5.150   3.145   0.178
 4112SOL     OW13234   5.040   5.990   4.422
 4112SOL    HW113235   4.984   5.907   4.421
 4112SOL    HW213236   4.995   6.061   4.368
 4113SOL     OW13237   5.011   6.148   4.619
 4113SOL    HW113238   5.077   6.221   4.606
 4113SOL    HW213239   5.017   6.083   4.543
 4114SOL     OW13240   3.476   2.086   3.968
 4114SOL    HW113241   3.376   2.092   3.970
 4114SOL    HW213242   3.510   2.134   3.887
 4115SOL     OW13243   3.435   5.234   1.878
 4115SOL    HW113244   3.435   5.165   1.805
 4115SOL    HW213245   3.358   5.218   1.939
 4116SOL     OW13246   3.052   0.917   2.411
 4116SOL    HW113247   3.088   0.991   2.467
 4116SOL    HW213248   2.970   0.879   2.454
 4117SOL     OW13249   1.489   4.040   2.370
 4117SOL    HW113250   1.404   4.089   2.351
 4117SOL    HW213251   1.493   3.957   2.315
 4118SOL     OW13252   3.598   6.594   0.005
 4118SOL    HW113253   3.547   6.562   6.942
 4118SOL    HW213254   3.564   6.548   0.087
 4119SOL     OW13255   2.848   1.848   3.599
 4119SOL    HW113256   2.782   1.801   3.657
 4119SOL    HW213257   2.853   1.944   3.626
 4120SOL     OW13258   3.648   1.045   6.989
 4120SOL    HW113259   3.559   1.071   6.951
 4120SOL    HW213260   3.675   1.111   0.041
 4121SOL     OW13261   5.922   1.258   4.478
 4121SOL    HW113262   5.888   1.201   4.403
 4121SOL    HW213263   5.847   1.314   4.513
 4122SOL     OW13264   1.638   5.319   4.417
 4122SOL    HW113265   1.655   5.308   4.319
 4122SOL    HW213266   1.597   5.235   4.453
 4123SOL     OW13267   4.521   4.486   5.425
 4123SOL    HW113268   4.458   4.532   5.489
 4123SOL    HW213269   4.603   4.457   5.474
 4124SOL     OW13270   6.883   5.959   0.140
 4124SOL    HW113271   6.841   5.920   0.058
 4124SOL    HW213272   6.835   5.926   0.221
 4125SOL     OW13273   4.995   1.663   2.286
 4125SOL    HW113274   4.971   1.752   2.324
 4125SOL    HW213275   5.017   1.672   2.189
 4126SOL     OW13276   1.517   3.289   4.376
 4126SOL    HW113277   1.433   3.343   4.382
 4126SOL    HW213278   1.580   3.333   4.312
 4127SOL     OW13279   4.723   4.882   5.013
 4127SOL    HW113280   4.770   4.841   4.935
 4127SOL    HW213281   4.790   4.912   5.081
 4128SOL     OW13282   1.025   3.183   1.405
 4128SOL    HW113283   1.087   3.147   1.475
 4128SOL    HW213284   1.078   3.208   1.324
 4129SOL     OW13285   3.648   1.453   6.243
 4129SOL    HW113286   3.569   1.490   6.194
 4129SOL    HW213287   3.694   1.527   6.292
 4130SOL     OW13288   6.419   3.321   6.751
 4130SOL    HW113289   6.463   3.266   6.680
 4130SOL    HW213290   6.433   3.278   6.841
 4131SOL     OW13291   0.671   0.972   3.917
 4131SOL    HW113292   0.767   0.945   3.911
 4131SOL    HW213293   0.615   0.891   3.930
 4132SOL     OW13294   4.860   4.434   3.488
 4132SOL    HW113295   4.893   4.429   3.582
 4132SOL    HW213296   4.827   4.344   3.459
 4133SOL     OW13297   2.655   5.534   0.647
 4133SOL    HW113298   2.575   5.541   0.707
 4133SOL    HW213299   2.685   5.625   0.620
 4134SOL     OW13300   2.345   3.521   0.701
 4134SOL    HW113301   2.304   3.567   0.623
 4134SOL    HW213302   2.427   3.571   0.731
 4135SOL     OW13303   0.703   1.545   2.480
 4135SOL    HW113304   0.717   1.516   2.575
 4135SOL    HW213305   0.694   1.465   2.421
 4136SOL     OW13306   1.312   2.237   3.286
 4136SOL    HW113307   1.279   2.230   3.381
 4136SOL    HW213308   1.252   2.298   3.235
 4137SOL     OW13309   1.246   4.293   0.656
 4137SOL    HW113310   1.204   4.248   0.735
 4137SOL    HW213311   1.225   4.243   0.573
 4138SOL     OW13312   4.862   5.309   2.786
 4138SOL    HW113313   4.892   5.215   2.801
 4138SOL    HW213314   4.790   5.310   2.716
 4139SOL     OW13315   1.810   1.794   5.881
 4139SOL    HW113316   1.856   1.864   5.935
 4139SOL    HW213317   1.877   1.751   5.819
 4140SOL     OW13318   3.251   0.182   5.261
 4140SOL    HW113319   3.205   0.225   5.184
 4140SOL    HW213320   3.314   0.112   5.227
 4141SOL     OW13321   6.426   6.105   0.920
 4141SOL    HW113322   6.391   6.056   0.840
 4141SOL    HW213323   6.493   6.173   0.891
 4142SOL     OW13324   6.770   5.243   1.160
 4142SOL    HW113325   6.828   5.325   1.161
 4142SOL    HW213326   6.778   5.197   1.071
 4143SOL     OW13327   5.615   1.121   0.455
 4143SOL    HW113328   5.639   1.205   0.504
 4143SOL    HW213329   5.684   1.102   0.385
 4144SOL     OW13330   5.162   3.194   6.889
 4144SOL    HW113331   5.244   3.233   6.848
 4144SOL    HW213332   5.163   3.212   6.988
 4145SOL     OW13333   6.723   6.035   1.552
 4145SOL    HW113334   6.752   5.939   1.557
 4145SOL    HW213335   6.803   6.094   1.567
 4146SOL     OW13336   6.388   0.997   3.988
 4146SOL    HW113337   6.382   0.950   3.900
 4146SOL    HW213338   6.350   1.089   3.979
 4147SOL     OW13339   5.092   4.043   6.508
 4147SOL    HW113340   5.122   3.989   6.429
 4147SOL    HW213341   5.026   4.111   6.479
 4148SOL     OW13342   1.449   0.597   5.453
 4148SOL    HW113343   1.430   0.656   5.374
 4148SOL    HW213344   1.365   0.581   5.504
 4149SOL     OW13345   6.955   3.085   0.396
 4149SOL    HW113346   0.014   3.095   0.459
 4149SOL    HW213347   6.927   2.989   0.390
 4150SOL     OW13348   1.225   0.825   5.827
 4150SOL    HW113349   1.214   0.917   5.791
 4150SOL    HW213350   1.145   0.770   5.804
 4151SOL     OW13351   2.199   5.897   6.081
 4151SOL    HW113352   2.206   5.928   6.175
 4151SOL    HW213353   2.287   5.908   6.035
 4152SOL     OW13354   4.819   5.537   1.202
 4152SOL    HW113355   4.768   5.611   1.246
 4152SOL    HW213356   4.917   5.549   1.218
 4153SOL     OW13357   4.474   5.495   6.982
 4153SOL    HW113358   4.390   5.538   6.950
 4153SOL    HW213359   4.552   5.552   6.957
 4154SOL     OW13360   6.993   5.233   3.966
 4154SOL    HW113361   0.020   5.295   4.031
 4154SOL    HW213362   6.966   5.284   3.884
 4155SOL     OW13363   1.029   0.983   2.467
 4155SOL    HW113364   0.963   0.914   2.497
 4155SOL    HW213365   0.982   1.051   2.410
 4156SOL     OW13366   5.028   5.796   4.766
 4156SOL    HW113367   4.967   5.834   4.695
 4156SOL    HW213368   5.033   5.860   4.843
 4157SOL     OW13369   4.678   5.202   4.254
 4157SOL    HW113370   4.736   5.147   4.193
 4157SOL    HW213371   4.625   5.267   4.200
 4158SOL     OW13372   0.804   4.156   1.923
 4158SOL    HW113373   0.873   4.170   1.852
 4158SOL    HW213374   0.848   4.117   2.004
 4159SOL     OW13375   2.130   3.484   3.878
 4159SOL    HW113376   2.069   3.432   3.938
 4159SOL    HW213377   2.157   3.428   3.800
 4160SOL     OW13378   6.197   0.986   1.200
 4160SOL    HW113379   6.156   1.058   1.256
 4160SOL    HW213380   6.290   1.014   1.174
 4161SOL     OW13381   0.954   1.313   0.658
 4161SOL    HW113382   0.883   1.382   0.648
 4161SOL    HW213383   0.996   1.320   0.748
 4162SOL     OW13384   7.017   6.764   6.381
 4162SOL    HW113385   0.049   6.677   6.376
 4162SOL    HW213386   6.948   6.759   6.453
 4163SOL     OW13387   5.434   6.594   3.357
 4163SOL    HW113388   5.454   6.670   3.419
 4163SOL    HW213389   5.345   6.555   3.381
 4164SOL     OW13390   1.728   6.562   6.306
 4164SOL    HW113391   1.775   6.475   6.325
 4164SOL    HW213392   1.630   6.550   6.320
 4165SOL     OW13393   4.039   6.528   6.441
 4165SOL    HW113394   3.990   6.442   6.450
 4165SOL    HW213395   3.976   6.604   6.457
 4166SOL     OW13396   6.328   3.427   0.914
 4166SOL    HW113397   6.328   3.371   0.998
 4166SOL    HW213398   6.320   3.367   0.835
 4167SOL     OW13399   1.382   4.000   0.930
 4167SOL    HW113400   1.456   4.015   0.865
 4167SOL    HW213401   1.336   3.914   0.909
 4168SOL     OW13402   6.814   4.826   1.157
 4168SOL    HW113403   6.906   4.850   1.189
 4168SOL    HW213404   6.753   4.817   1.235
 4169SOL     OW13405   5.609   4.153   4.043
 4169SOL    HW113406   5.702   4.182   4.068
 4169SOL    HW213407   5.546   4.175   4.117
 4170SOL     OW13408   4.951   4.348   5.599
 4170SOL    HW113409   4.890   4.288   5.651
 4170SOL    HW213410   4.941   4.442   5.631
 4171SOL     OW13411   6.805   5.192   0.362
 4171SOL    HW113412   6.792   5.144   0.449
 4171SOL    HW213413   6.819   5.290   0.380
 4172SOL     OW13414   0.461   2.162   6.177
 4172SOL    HW113415   0.403   2.242   6.163
 4172SOL    HW213416   0.419   2.101   6.244
 4173SOL     OW13417   5.533   3.637   5.621
 4173SOL    HW113418   5.548   3.544   5.586
 4173SOL    HW213419   5.618   3.688   5.615
 4174SOL     OW13420   4.952   0.661   3.114
 4174SOL    HW113421   5.033   0.631   3.164
 4174SOL    HW213422   4.872   0.610   3.146
 4175SOL     OW13423   2.491   6.032   3.976
 4175SOL    HW113424   2.467   6.078   3.891
 4175SOL    HW213425   2.423   5.962   3.997
 4176SOL     OW13426   2.861   6.367   1.716
 4176SOL    HW113427   2.961   6.376   1.716
 4176SOL    HW213428   2.825   6.399   1.803
 4177SOL     OW13429   6.067   4.487   4.849
 4177SOL    HW113430   6.162   4.462   4.865
 4177SOL    HW213431   6.029   4.528   4.932
 4178SOL     OW13432   4.871   0.671   4.093
 4178SOL    HW113433   4.942   0.630   4.150
 4178SOL    HW213434   4.892   0.768   4.078
 4179SOL     OW13435   5.119   2.707   3.657
 4179SOL    HW113436   5.068   2.649   3.721
 4179SOL    HW213437   5.213   2.674   3.649
 4180SOL     OW13438   5.071   4.182   1.320
 4180SOL    HW113439   5.013   4.243   1.265
 4180SOL    HW213440   5.161   4.224   1.332
 4181SOL     OW13441   2.463   1.609   1.009
 4181SOL    HW113442   2.484   1.598   0.912
 4181SOL    HW213443   2.473   1.705   1.035
 4182SOL     OW13444   0.576   6.773   3.298
 4182SOL    HW113445   0.651   6.764   3.234
 4182SOL    HW213446   0.606   6.825   3.378
 4183SOL     OW13447   4.337   0.860   7.017
 4183SOL    HW113448   4.312   0.928   0.069
 4183SOL    HW213449   4.307   0.769   0.030
 4184SOL     OW13450   4.814   4.995   1.030
 4184SOL    HW113451   4.877   5.064   1.066
 4184SOL    HW213452   4.766   5.032   0.951
 4185SOL     OW13453   0.705   5.434   2.440
 4185SOL    HW113454   0.624   5.397   2.484
 4185SOL    HW213455   0.689   5.530   2.417
 4186SOL     OW13456   2.425   5.271   0.545
 4186SOL    HW113457   2.510   5.273   0.599
 4186SOL    HW213458   2.409   5.361   0.504
 4187SOL     OW13459   3.536   3.877   6.130
 4187SOL    HW113460   3.606   3.913   6.068
 4187SOL    HW213461   3.578   3.851   6.216
 4188SOL     OW13462   4.383   0.037   4.539
 4188SOL    HW113463   4.472   0.014   4.580
 4188SOL    HW213464   4.392   0.121   4.486
 4189SOL     OW13465   3.979   0.195   5.392
 4189SOL    HW113466   3.911   0.222   5.460
 4189SOL    HW213467   4.026   0.276   5.358
 4190SOL     OW13468   0.846   0.628   0.183
 4190SOL    HW113469   0.868   0.711   0.234
 4190SOL    HW213470   0.848   0.550   0.245
 4191SOL     OW13471   5.263   3.841   3.173
 4191SOL    HW113472   5.226   3.871   3.261
 4191SOL    HW213473   5.330   3.907   3.140
 4192SOL     OW13474   0.567   1.164   4.218
 4192SOL    HW113475   0.556   1.260   4.194
 4192SOL    HW213476   0.664   1.139   4.211
 4193SOL     OW13477   1.553   0.511   2.592
 4193SOL    HW113478   1.643   0.468   2.584
 4193SOL    HW213479   1.537   0.536   2.687
 4194SOL     OW13480   5.684   0.554   4.950
 4194SOL    HW113481   5.631   0.633   4.981
 4194SOL    HW213482   5.675   0.479   5.016
 4195SOL     OW13483   4.183   6.595   2.331
 4195SOL    HW113484   4.152   6.681   2.373
 4195SOL    HW213485   4.274   6.573   2.366
 4196SOL     OW13486   5.497   2.096   3.475
 4196SOL    HW113487   5.408   2.060   3.448
 4196SOL    HW213488   5.568   2.029   3.453
 4197SOL     OW13489   4.831   6.111   5.541
 4197SOL    HW113490   4.854   6.173   5.466
 4197SOL    HW213491   4.868   6.147   5.627
 4198SOL     OW13492   5.721   3.695   0.340
 4198SOL    HW113493   5.791   3.625   0.323
 4198SOL    HW213494   5.645   3.653   0.391
 4199SOL     OW13495   2.184   3.197   6.354
 4199SOL    HW113496   2.218   3.210   6.447
 4199SOL    HW213497   2.157   3.101   6.341
 4200SOL     OW13498   3.197   6.566   6.053
 4200SOL    HW113499   3.250   6.481   6.055
 4200SOL    HW213500   3.160   6.579   5.961
 4201SOL     OW13501   6.412   6.386   3.763
 4201SOL    HW113502   6.340   6.393   3.693
 4201SOL    HW213503   6.392   6.310   3.824
 4202SOL     OW13504   4.147   5.312   5.801
 4202SOL    HW113505   4.100   5.224   5.787
 4202SOL    HW213506   4.210   5.328   5.725
 4203SOL     OW13507   5.139   5.111   0.494
 4203SOL    HW113508   5.185   5.145   0.576
 4203SOL    HW213509   5.104   5.188   0.441
 4204SOL     OW13510   4.129   3.311   2.558
 4204SOL    HW113511   4.143   3.410   2.568
 4204SOL    HW213512   4.106   3.272   2.648
 4205SOL     OW13513   4.045   5.264   3.415
 4205SOL    HW113514   3.994   5.198   3.360
 4205SOL    HW213515   4.029   5.356   3.379
 4206SOL     OW13516   6.212   0.833   5.551
 4206SOL    HW113517   6.310   0.822   5.568
 4206SOL    HW213518   6.185   0.771   5.477
 4207SOL     OW13519   1.354   1.182   1.529
 4207SOL    HW113520   1.294   1.104   1.510
 4207SOL    HW213521   1.448   1.159   1.504
 4208SOL     OW13522   0.718   3.866   6.691
 4208SOL    HW113523   0.779   3.823   6.625
 4208SOL    HW213524   0.769   3.890   6.774
 4209SOL     OW13525   0.590   0.972   5.757
 4209SOL    HW113526   0.602   1.050   5.818
 4209SOL    HW213527   0.667   0.909   5.767
 4210SOL     OW13528   3.109   3.358   2.203
 4210SOL    HW113529   3.130   3.288   2.272
 4210SOL    HW213530   3.039   3.323   2.140
 4211SOL     OW13531   3.805   5.247   5.741
 4211SOL    HW113532   3.768   5.272   5.652
 4211SOL    HW213533   3.759   5.300   5.812
 4212SOL     OW13534   6.054   2.781   2.531
 4212SOL    HW113535   6.016   2.703   2.579
 4212SOL    HW213536   6.144   2.757   2.493
 4213SOL     OW13537   2.467   0.804   2.208
 4213SOL    HW113538   2.442   0.710   2.184
 4213SOL    HW213539   2.553   0.828   2.164
 4214SOL     OW13540   1.873   4.327   4.923
 4214SOL    HW113541   1.937   4.252   4.936
 4214SOL    HW213542   1.842   4.360   5.012
 4215SOL     OW13543   6.897   6.319   4.735
 4215SOL    HW113544   6.915   6.266   4.652
 4215SOL    HW213545   6.893   6.416   4.711
 4216SOL     OW13546   0.997   1.573   3.235
 4216SOL    HW113547   1.049   1.558   3.319
 4216SOL    HW213548   1.059   1.587   3.158
 4217SOL     OW13549   6.661   0.166   2.920
 4217SOL    HW113550   6.725   0.148   2.994
 4217SOL    HW213551   6.711   0.194   2.838
 4218SOL     OW13552   4.688   1.032   1.547
 4218SOL    HW113553   4.668   1.118   1.499
 4218SOL    HW213554   4.659   1.040   1.642
 4219SOL     OW13555   2.679   5.121   3.517
 4219SOL    HW113556   2.748   5.142   3.448
 4219SOL    HW213557   2.602   5.073   3.475
 4220SOL     OW13558   5.579   3.020   3.346
 4220SOL    HW113559   5.539   3.108   3.319
 4220SOL    HW213560   5.572   2.956   3.270
 4221SOL     OW13561   6.195   5.549   6.323
 4221SOL    HW113562   6.109   5.545   6.272
 4221SOL    HW213563   6.258   5.610   6.275
 4222SOL     OW13564   6.029   2.288   2.839
 4222SOL    HW113565   6.008   2.372   2.889
 4222SOL    HW213566   6.114   2.299   2.788
 4223SOL     OW13567   3.152   3.282   5.663
 4223SOL    HW113568   3.058   3.260   5.634
 4223SOL    HW213569   3.213   3.277   5.584
 4224SOL     OW13570   4.789   2.973   3.301
 4224SOL    HW113571   4.821   3.005   3.390
 4224SOL    HW213572   4.757   3.052   3.247
 4225SOL     OW13573   4.149   0.411   5.318
 4225SOL    HW113574   4.084   0.465   5.263
 4225SOL    HW213575   4.170   0.460   5.402
 4226SOL     OW13576   0.591   0.590   2.611
 4226SOL    HW113577   0.582   0.683   2.647
 4226SOL    HW213578   0.597   0.593   2.511
 4227SOL     OW13579   3.669   4.855   6.690
 4227SOL    HW113580   3.618   4.937   6.718
 4227SOL    HW213581   3.684   4.857   6.591
 4228SOL     OW13582   0.718   3.584   3.925
 4228SOL    HW113583   0.748   3.509   3.984
 4228SOL    HW213584   0.701   3.666   3.980
 4229SOL     OW13585   4.888   5.172   5.286
 4229SOL    HW113586   4.933   5.108   5.225
 4229SOL    HW213587   4.879   5.131   5.377
 4230SOL     OW13588   2.098   0.473   4.267
 4230SOL    HW113589   2.080   0.398   4.330
 4230SOL    HW213590   2.117   0.437   4.176
 4231SOL     OW13591   5.702   5.967   4.762
 4231SOL    HW113592   5.783   5.971   4.821
 4231SOL    HW213593   5.620   5.963   4.819
 4232SOL     OW13594   0.346   4.371   2.571
 4232SOL    HW113595   0.269   4.312   2.594
 4232SOL    HW213596   0.322   4.466   2.592
 4233SOL     OW13597   6.828   0.546   6.746
 4233SOL    HW113598   6.777   0.542   6.661
 4233SOL    HW213599   6.926   0.551   6.726
 4234SOL     OW13600   1.354   0.079   5.742
 4234SOL    HW113601   1.361   0.031   5.830
 4234SOL    HW213602   1.430   0.143   5.733
 4235SOL     OW13603   5.034   3.777   5.613
 4235SOL    HW113604   5.133   3.776   5.619
 4235SOL    HW213605   4.995   3.806   5.701
 4236SOL     OW13606   0.243   3.679   2.792
 4236SOL    HW113607   0.208   3.659   2.883
 4236SOL    HW213608   0.187   3.633   2.723
 4237SOL     OW13609   6.525   5.479   3.418
 4237SOL    HW113610   6.453   5.413   3.438
 4237SOL    HW213611   6.603   5.431   3.376
 4238SOL     OW13612   3.575   4.960   2.641
 4238SOL    HW113613   3.486   4.977   2.683
 4238SOL    HW213614   3.583   5.016   2.558
 4239SOL     OW13615   5.909   1.261   3.623
 4239SOL    HW113616   5.954   1.255   3.533
 4239SOL    HW213617   5.890   1.357   3.644
 4240SOL     OW13618   2.385   6.841   0.201
 4240SOL    HW113619   2.417   6.823   0.294
 4240SOL    HW213620   2.301   6.790   0.185
 4241SOL     OW13621   6.339   0.678   1.261
 4241SOL    HW113622   6.254   0.719   1.295
 4241SOL    HW213623   6.375   0.733   1.186
 4242SOL     OW13624   1.865   0.872   3.278
 4242SOL    HW113625   1.838   0.953   3.330
 4242SOL    HW213626   1.952   0.837   3.312
 4243SOL     OW13627   0.164   3.891   3.799
 4243SOL    HW113628   0.255   3.920   3.828
 4243SOL    HW213629   0.165   3.792   3.780
 4244SOL     OW13630   5.372   5.468   0.890
 4244SOL    HW113631   5.367   5.432   0.983
 4244SOL    HW213632   5.281   5.470   0.850
 4245SOL     OW13633   6.148   1.270   6.225
 4245SOL    HW113634   6.059   1.305   6.197
 4245SOL    HW213635   6.200   1.241   6.145
 4246SOL     OW13636   5.824   2.941   3.467
 4246SOL    HW113637   5.834   2.982   3.557
 4246SOL    HW213638   5.742   2.976   3.423
 4247SOL     OW13639   2.091   5.331   3.339
 4247SOL    HW113640   2.100   5.386   3.422
 4247SOL    HW213641   2.181   5.300   3.308
 4248SOL     OW13642   1.563   1.252   3.428
 4248SOL    HW113643   1.499   1.207   3.490
 4248SOL    HW213644   1.538   1.232   3.333
 4249SOL     OW13645   5.081   1.376   4.243
 4249SOL    HW113646   5.006   1.371   4.308
 4249SOL    HW213647   5.045   1.391   4.151
 4250SOL     OW13648   6.085   6.271   4.704
 4250SOL    HW113649   6.125   6.336   4.639
 4250SOL    HW213650   6.002   6.231   4.664
 4251SOL     OW13651   6.371   3.286   1.148
 4251SOL    HW113652   6.416   3.297   1.237
 4251SOL    HW213653   6.342   3.191   1.137
 4252SOL     OW13654   5.316   6.173   6.174
 4252SOL    HW113655   5.240   6.126   6.217
 4252SOL    HW213656   5.281   6.247   6.116
 4253SOL     OW13657   3.331   6.943   1.435
 4253SOL    HW113658   3.429   6.949   1.457
 4253SOL    HW213659   3.301   6.848   1.441
 4254SOL     OW13660   1.846   4.007   1.804
 4254SOL    HW113661   1.849   4.106   1.788
 4254SOL    HW213662   1.934   3.967   1.781
 4255SOL     OW13663   6.986   3.970   3.634
 4255SOL    HW113664   0.025   3.933   3.707
 4255SOL    HW213665   0.015   4.047   3.590
 4256SOL     OW13666   0.989   5.986   1.086
 4256SOL    HW113667   1.065   5.980   1.151
 4256SOL    HW213668   1.019   6.034   1.004
 4257SOL     OW13669   3.455   1.352   4.506
 4257SOL    HW113670   3.395   1.428   4.483
 4257SOL    HW213671   3.460   1.342   4.606
 4258SOL     OW13672   3.036   5.994   0.667
 4258SOL    HW113673   2.955   6.033   0.624
 4258SOL    HW213674   3.107   6.065   0.674
 4259SOL     OW13675   1.471   6.629   1.096
 4259SOL    HW113676   1.409   6.626   1.175
 4259SOL    HW213677   1.489   6.724   1.071
 4260SOL     OW13678   5.873   0.889   3.293
 4260SOL    HW113679   5.791   0.848   3.253
 4260SOL    HW213680   5.876   0.987   3.270
 4261SOL     OW13681   1.936   0.477   2.962
 4261SOL    HW113682   2.027   0.485   2.921
 4261SOL    HW213683   1.891   0.395   2.927
 4262SOL     OW13684   0.750   3.791   6.221
 4262SOL    HW113685   0.719   3.871   6.272
 4262SOL    HW213686   0.836   3.758   6.260
 4263SOL     OW13687   2.514   0.380   3.366
 4263SOL    HW113688   2.447   0.316   3.402
 4263SOL    HW213689   2.499   0.395   3.269
 4264SOL     OW13690   0.064   2.231   4.449
 4264SOL    HW113691   0.141   2.176   4.481
 4264SOL    HW213692   7.014   2.172   4.405
 4265SOL     OW13693   3.953   1.122   0.630
 4265SOL    HW113694   3.967   1.029   0.596
 4265SOL    HW213695   4.041   1.162   0.656
 4266SOL     OW13696   2.082   6.175   6.288
 4266SOL    HW113697   2.159   6.231   6.318
 4266SOL    HW213698   2.037   6.219   6.210
 4267SOL     OW13699   2.312   4.278   4.442
 4267SOL    HW113700   2.292   4.203   4.380
 4267SOL    HW213701   2.402   4.317   4.419
 4268SOL     OW13702   1.288   5.439   7.000
 4268SOL    HW113703   1.373   5.414   0.030
 4268SOL    HW213704   1.272   5.537   7.010
 4269SOL     OW13705   2.984   7.009   3.298
 4269SOL    HW113706   3.002   0.007   3.396
 4269SOL    HW213707   2.891   0.020   3.277
 4270SOL     OW13708   3.584   2.920   2.116
 4270SOL    HW113709   3.648   2.876   2.179
 4270SOL    HW213710   3.491   2.907   2.149
 4271SOL     OW13711   0.374   0.741   0.699
 4271SOL    HW113712   0.288   0.748   0.750
 4271SOL    HW213713   0.358   0.689   0.615
 4272SOL     OW13714   6.472   2.752   4.457
 4272SOL    HW113715   6.436   2.662   4.478
 4272SOL    HW213716   6.559   2.743   4.409
 4273SOL     OW13717   4.623   6.241   4.358
 4273SOL    HW113718   4.555   6.313   4.341
 4273SOL    HW213719   4.632   6.226   4.456
 4274SOL     OW13720   1.621   6.643   2.163
 4274SOL    HW113721   1.561   6.694   2.224
 4274SOL    HW213722   1.666   6.707   2.100
 4275SOL     OW13723   6.890   1.983   3.983
 4275SOL    HW113724   6.944   2.026   4.055
 4275SOL    HW213725   6.946   1.971   3.901
 4276SOL     OW13726   2.578   5.205   3.992
 4276SOL    HW113727   2.506   5.180   3.928
 4276SOL    HW213728   2.606   5.300   3.974
 4277SOL     OW13729   6.712   4.771   3.006
 4277SOL    HW113730   6.767   4.688   3.005
 4277SOL    HW213731   6.771   4.851   2.996
 4278SOL     OW13732   0.142   6.701   4.812
 4278SOL    HW113733   0.135   6.800   4.818
 4278SOL    HW213734   0.158   6.663   4.903
 4279SOL     OW13735   1.874   1.385   3.180
 4279SOL    HW113736   1.901   1.476   3.149
 4279SOL    HW213737   1.904   1.372   3.275
 4280SOL     OW13738   5.867   6.997   5.530
 4280SOL    HW113739   5.959   0.012   5.507
 4280SOL    HW213740   5.874   6.911   5.581
 4281SOL     OW13741   5.659   5.181   3.134
 4281SOL    HW113742   5.711   5.135   3.206
 4281SOL    HW213743   5.617   5.264   3.171
 4282SOL     OW13744   3.243   4.320   0.512
 4282SOL    HW113745   3.159   4.354   0.555
 4282SOL    HW213746   3.225   4.300   0.415
 4283SOL     OW13747   2.374   1.175   3.410
 4283SOL    HW113748   2.471   1.181   3.435
 4283SOL    HW213749   2.332   1.265   3.416
 4284SOL     OW13750   4.034   4.486   0.867
 4284SOL    HW113751   4.039   4.391   0.837
 4284SOL    HW213752   4.070   4.546   0.796
 4285SOL     OW13753   2.617   1.228   6.161
 4285SOL    HW113754   2.642   1.218   6.065
 4285SOL    HW213755   2.699   1.214   6.218
 4286SOL     OW13756   5.896   6.712   6.203
 4286SOL    HW113757   5.816   6.745   6.153
 4286SOL    HW213758   5.895   6.750   6.296
 4287SOL     OW13759   4.665   1.102   6.040
 4287SOL    HW113760   4.648   1.016   5.992
 4287SOL    HW213761   4.636   1.179   5.984
 4288SOL     OW13762   0.704   5.552   3.847
 4288SOL    HW113763   0.728   5.580   3.941
 4288SOL    HW213764   0.678   5.633   3.794
 4289SOL     OW13765   0.875   2.268   5.932
 4289SOL    HW113766   0.928   2.297   6.012
 4289SOL    HW213767   0.872   2.344   5.866
 4290SOL     OW13768   0.952   6.285   4.705
 4290SOL    HW113769   0.901   6.367   4.677
 4290SOL    HW213770   0.897   6.233   4.771
 4291SOL     OW13771   5.297   3.703   6.902
 4291SOL    HW113772   5.245   3.639   6.958
 4291SOL    HW213773   5.237   3.741   6.831
 4292SOL     OW13774   6.536   3.120   0.209
 4292SOL    HW113775   6.611   3.168   0.255
 4292SOL    HW213776   6.519   3.033   0.255
 4293SOL     OW13777   3.554   4.607   0.230
 4293SOL    HW113778   3.577   4.696   0.269
 4293SOL    HW213779   3.538   4.541   0.303
 4294SOL     OW13780   2.015   1.098   6.655
 4294SOL    HW113781   2.054   1.133   6.570
 4294SOL    HW213782   2.079   1.036   6.700
 4295SOL     OW13783   5.466   5.673   4.274
 4295SOL    HW113784   5.517   5.758   4.287
 4295SOL    HW213785   5.490   5.608   4.346
 4296SOL     OW13786   3.184   6.559   0.069
 4296SOL    HW113787   3.207   6.471   0.112
 4296SOL    HW213788   3.196   6.632   0.136
 4297SOL     OW13789   5.885   0.463   1.866
 4297SOL    HW113790   5.952   0.505   1.806
 4297SOL    HW213791   5.854   0.530   1.933
 4298SOL     OW13792   3.666   5.918   0.987
 4298SOL    HW113793   3.723   5.841   0.956
 4298SOL    HW213794   3.688   5.940   1.082
 4299SOL     OW13795   1.655   2.536   0.007
 4299SOL    HW113796   1.585   2.482   0.053
 4299SOL    HW213797   1.744   2.490   0.014
 4300SOL     OW13798   2.623   0.164   0.175
 4300SOL    HW113799   2.673   0.084   0.208
 4300SOL    HW213800   2.681   0.218   0.115
 4301SOL     OW13801   4.734   6.976   1.332
 4301SOL    HW113802   4.682   6.943   1.410
 4301SOL    HW213803   4.831   6.979   1.356
 4302SOL     OW13804   6.924   0.517   6.156
 4302SOL    HW113805   6.971   0.485   6.074
 4302SOL    HW213806   6.831   0.545   6.132
 4303SOL     OW13807   0.188   4.377   4.254
 4303SOL    HW113808   0.270   4.421   4.293
 4303SOL    HW213809   0.110   4.438   4.264
 4304SOL     OW13810   3.369   3.265   2.572
 4304SOL    HW113811   3.371   3.187   2.635
 4304SOL    HW213812   3.463   3.297   2.556
 4305SOL     OW13813   0.882   6.888   5.972
 4305SOL    HW113814   0.856   6.977   5.935
 4305SOL    HW213815   0.941   6.900   6.051
 4306SOL     OW13816   4.640   4.771   4.387
 4306SOL    HW113817   4.596   4.705   4.448
 4306SOL    HW213818   4.639   4.861   4.429
 4307SOL     OW13819   6.088   3.553   5.294
 4307SOL    HW113820   6.101   3.650   5.313
 4307SOL    HW213821   6.173   3.514   5.258
 4308SOL     OW13822   6.152   5.847   1.278
 4308SOL    HW113823   6.178   5.770   1.337
 4308SOL    HW213824   6.233   5.880   1.229
 4309SOL     OW13825   1.059   1.364   0.915
 4309SOL    HW113826   1.116   1.337   0.993
 4309SOL    HW213827   1.066   1.463   0.901
 4310SOL     OW13828   1.355   2.764   1.567
 4310SOL    HW113829   1.349   2.701   1.644
 4310SOL    HW213830   1.296   2.731   1.493
 4311SOL     OW13831   0.229   5.896   2.848
 4311SOL    HW113832   0.147   5.944   2.817
 4311SOL    HW213833   0.216   5.867   2.943
 4312SOL     OW13834   1.640   5.514   2.580
 4312SOL    HW113835   1.664   5.504   2.484
 4312SOL    HW213836   1.629   5.611   2.602
 4313SOL     OW13837   4.703   2.350   0.913
 4313SOL    HW113838   4.625   2.319   0.858
 4313SOL    HW213839   4.788   2.322   0.868
 4314SOL     OW13840   5.693   1.804   5.180
 4314SOL    HW113841   5.723   1.719   5.224
 4314SOL    HW213842   5.604   1.789   5.137
 4315SOL     OW13843   1.841   0.587   3.408
 4315SOL    HW113844   1.816   0.669   3.357
 4315SOL    HW213845   1.900   0.529   3.351
 4316SOL     OW13846   4.642   0.619   1.697
 4316SOL    HW113847   4.671   0.534   1.741
 4316SOL    HW213848   4.677   0.621   1.603
 4317SOL     OW13849   5.376   1.657   5.546
 4317SOL    HW113850   5.326   1.677   5.462
 4317SOL    HW213851   5.342   1.716   5.619
 4318SOL     OW13852   1.266   1.823   4.779
 4318SOL    HW113853   1.270   1.724   4.777
 4318SOL    HW213854   1.234   1.853   4.869
 4319SOL     OW13855   2.315   1.885   0.838
 4319SOL    HW113856   2.301   1.982   0.819
 4319SOL    HW213857   2.316   1.870   0.937
 4320SOL     OW13858   3.601   5.291   0.914
 4320SOL    HW113859   3.606   5.251   0.823
 4320SOL    HW213860   3.655   5.236   0.978
 4321SOL     OW13861   6.936   4.549   4.519
 4321SOL    HW113862   6.968   4.482   4.585
 4321SOL    HW213863   6.934   4.508   4.428
 4322SOL     OW13864   6.147   3.188   0.051
 4322SOL    HW113865   6.183   3.112   0.105
 4322SOL    HW213866   6.185   3.185   6.977
 4323SOL     OW13867   4.600   4.393   0.237
 4323SOL    HW113868   4.525   4.340   0.198
 4323SOL    HW213869   4.680   4.388   0.176
 4324SOL     OW13870   5.884   4.661   6.151
 4324SOL    HW113871   5.815   4.589   6.140
 4324SOL    HW213872   5.975   4.622   6.139
 4325SOL     OW13873   3.042   1.224   2.003
 4325SOL    HW113874   3.063   1.296   2.068
 4325SOL    HW213875   3.073   1.251   1.912
 4326SOL     OW13876   4.777   4.709   1.871
 4326SOL    HW113877   4.854   4.737   1.928
 4326SOL    HW213878   4.776   4.609   1.863
 4327SOL     OW13879   5.299   5.586   1.422
 4327SOL    HW113880   5.343   5.525   1.355
 4327SOL    HW213881   5.366   5.616   1.489
 4328SOL     OW13882   5.642   4.765   5.676
 4328SOL    HW113883   5.699   4.699   5.724
 4328SOL    HW213884   5.546   4.748   5.698
 4329SOL     OW13885   4.401   2.756   5.722
 4329SOL    HW113886   4.406   2.770   5.623
 4329SOL    HW213887   4.306   2.756   5.751
 4330SOL     OW13888   2.063   6.365   4.227
 4330SOL    HW113889   2.057   6.320   4.317
 4330SOL    HW213890   1.972   6.367   4.185
 4331SOL     OW13891   5.531   0.757   1.986
 4331SOL    HW113892   5.446   0.810   1.976
 4331SOL    HW213893   5.609   0.819   1.995
 4332SOL     OW13894   5.426   3.393   2.653
 4332SOL    HW113895   5.327   3.407   2.661
 4332SOL    HW213896   5.447   3.296   2.666
 4333SOL     OW13897   4.509   1.513   5.191
 4333SOL    HW113898   4.412   1.517   5.216
 4333SOL    HW213899   4.565   1.544   5.268
 4334SOL     OW13900   2.282   2.630   2.379
 4334SOL    HW113901   2.246   2.597   2.292
 4334SOL    HW213902   2.382   2.620   2.380
 4335SOL     OW13903   3.768   3.230   1.371
 4335SOL    HW113904   3.682   3.230   1.319
 4335SOL    HW213905   3.752   3.275   1.460
 4336SOL     OW13906   2.634   6.430   6.149
 4336SOL    HW113907   2.617   6.385   6.061
 4336SOL    HW213908   2.582   6.384   6.221
 4337SOL     OW13909   2.244   4.718   1.924
 4337SOL    HW113910   2.283   4.643   1.870
 4337SOL    HW213911   2.280   4.805   1.890
 4338SOL     OW13912   6.419   6.686   5.884
 4338SOL    HW113913   6.341   6.747   5.873
 4338SOL    HW213914   6.476   6.689   5.802
 4339SOL     OW13915   3.895   2.831   6.139
 4339SOL    HW113916   3.835   2.814   6.217
 4339SOL    HW213917   3.989   2.842   6.171
 4340SOL     OW13918   6.131   3.706   1.791
 4340SOL    HW113919   6.213   3.701   1.848
 4340SOL    HW213920   6.140   3.781   1.726
 4341SOL     OW13921   1.273   5.074   1.280
 4341SOL    HW113922   1.348   5.013   1.305
 4341SOL    HW213923   1.245   5.128   1.359
 4342SOL     OW13924   5.448   4.050   3.103
 4342SOL    HW113925   5.524   4.043   3.039
 4342SOL    HW213926   5.482   4.046   3.197
 4343SOL     OW13927   2.995   5.844   4.709
 4343SOL    HW113928   2.909   5.828   4.661
 4343SOL    HW213929   3.057   5.895   4.650
 4344SOL     OW13930   1.115   3.601   2.921
 4344SOL    HW113931   1.166   3.619   3.005
 4344SOL    HW213932   1.167   3.636   2.843
 4345SOL     OW13933   3.426   4.072   4.827
 4345SOL    HW113934   3.397   4.044   4.735
 4345SOL    HW213935   3.351   4.121   4.872
 4346SOL     OW13936   2.067   3.318   2.754
 4346SOL    HW113937   1.974   3.313   2.718
 4346SOL    HW213938   2.107   3.227   2.755
 4347SOL     OW13939   5.296   6.421   3.001
 4347SOL    HW113940   5.345   6.351   3.052
 4347SOL    HW213941   5.351   6.504   2.997
 4348SOL     OW13942   0.164   5.673   4.010
 4348SOL    HW113943   0.074   5.635   3.990
 4348SOL    HW213944   0.194   5.642   4.100
 4349SOL     OW13945   6.436   1.949   3.164
 4349SOL    HW113946   6.434   1.931   3.066
 4349SOL    HW213947   6.503   1.889   3.208
 4350SOL     OW13948   4.128   2.138   4.034
 4350SOL    HW113949   4.042   2.146   3.984
 4350SOL    HW213950   4.134   2.210   4.102
 4351SOL     OW13951   1.008   6.132   1.636
 4351SOL    HW113952   1.070   6.133   1.715
 4351SOL    HW213953   1.005   6.223   1.596
 4352SOL     OW13954   6.532   4.426   2.245
 4352SOL    HW113955   6.516   4.435   2.147
 4352SOL    HW213956   6.499   4.509   2.292
 4353SOL     OW13957   3.535   3.099   6.740
 4353SOL    HW113958   3.436   3.100   6.755
 4353SOL    HW213959   3.554   3.072   6.646
 4354SOL     OW13960   2.098   1.121   6.385
 4354SOL    HW113961   2.088   1.199   6.324
 4354SOL    HW213962   2.121   1.040   6.331
 4355SOL     OW13963   2.139   6.610   3.012
 4355SOL    HW113964   2.106   6.695   2.971
 4355SOL    HW213965   2.118   6.533   2.951
 4356SOL     OW13966   4.747   3.659   6.136
 4356SOL    HW113967   4.833   3.647   6.184
 4356SOL    HW213968   4.703   3.743   6.166
 4357SOL     OW13969   0.138   0.981   1.436
 4357SOL    HW113970   0.167   1.059   1.380
 4357SOL    HW213971   0.210   0.959   1.502
 4358SOL     OW13972   6.309   0.989   0.731
 4358SOL    HW113973   6.249   1.062   0.763
 4358SOL    HW213974   6.259   0.902   0.730
 4359SOL     OW13975   1.375   1.181   6.853
 4359SOL    HW113976   1.340   1.122   6.925
 4359SOL    HW213977   1.474   1.172   6.847
 4360SOL     OW13978   0.489   3.260   3.723
 4360SOL    HW113979   0.564   3.326   3.731
 4360SOL    HW213980   0.404   3.309   3.704
 4361SOL     OW13981   2.285   4.108   1.394
 4361SOL    HW113982   2.277   4.112   1.294
 4361SOL    HW213983   2.237   4.186   1.434
 4362SOL     OW13984   6.903   5.885   4.313
 4362SOL    HW113985   6.894   5.809   4.249
 4362SOL    HW213986   6.938   5.966   4.265
 4363SOL     OW13987   4.608   1.769   1.417
 4363SOL    HW113988   4.529   1.755   1.477
 4363SOL    HW213989   4.685   1.802   1.471
 4364SOL     OW13990   3.175   4.003   3.632
 4364SOL    HW113991   3.234   3.942   3.686
 4364SOL    HW213992   3.162   3.964   3.541
 4365SOL     OW13993   2.567   0.356   2.178
 4365SOL    HW113994   2.609   0.274   2.137
 4365SOL    HW213995   2.636   0.406   2.230
 4366SOL     OW13996   6.217   6.919   6.572
 4366SOL    HW113997   6.155   6.896   6.646
 4366SOL    HW213998   6.309   6.888   6.595
 4367SOL     OW13999   2.510   5.112   3.760
 4367SOL    HW114000   2.501   5.014   3.741
 4367SOL    HW214001   2.563   5.155   3.688
 4368SOL     OW14002   3.613   5.666   1.873
 4368SOL    HW114003   3.562   5.589   1.913
 4368SOL    HW214004   3.550   5.739   1.848
 4369SOL     OW14005   4.682   4.865   3.016
 4369SOL    HW114006   4.770   4.827   2.989
 4369SOL    HW214007   4.611   4.796   3.001
 4370SOL     OW14008   3.740   4.747   1.408
 4370SOL    HW114009   3.654   4.752   1.358
 4370SOL    HW214010   3.752   4.656   1.446
 4371SOL     OW14011   2.079   2.070   2.789
 4371SOL    HW114012   1.994   2.087   2.837
 4371SOL    HW214013   2.067   1.992   2.727
 4372SOL     OW14014   2.453   2.478   4.231
 4372SOL    HW114015   2.494   2.564   4.260
 4372SOL    HW214016   2.427   2.424   4.311
 4373SOL     OW14017   4.367   1.217   0.235
 4373SOL    HW114018   4.465   1.237   0.237
 4373SOL    HW214019   4.353   1.118   0.229
 4374SOL     OW14020   1.378   1.720   1.721
 4374SOL    HW114021   1.399   1.792   1.655
 4374SOL    HW214022   1.376   1.632   1.674
 4375SOL     OW14023   4.235   5.945   2.769
 4375SOL    HW114024   4.162   5.963   2.835
 4375SOL    HW214025   4.197   5.897   2.690
 4376SOL     OW14026   6.094   0.286   2.566
 4376SOL    HW114027   6.091   0.216   2.494
 4376SOL    HW214028   6.061   0.247   2.652
 4377SOL     OW14029   5.589   5.242   6.973
 4377SOL    HW114030   5.687   5.250   6.994
 4377SOL    HW214031   5.553   5.330   6.944
 4378SOL     OW14032   1.802   2.900   2.404
 4378SOL    HW114033   1.888   2.856   2.380
 4378SOL    HW214034   1.767   2.952   2.326
 4379SOL     OW14035   2.284   1.346   1.861
 4379SOL    HW114036   2.265   1.248   1.855
 4379SOL    HW214037   2.347   1.364   1.937
 4380SOL     OW14038   2.059   6.656   3.893
 4380SOL    HW114039   2.037   6.587   3.824
 4380SOL    HW214040   1.979   6.672   3.952
 4381SOL     OW14041   2.235   4.237   4.833
 4381SOL    HW114042   2.310   4.303   4.836
 4381SOL    HW214043   2.267   4.150   4.870
 4382SOL     OW14044   6.106   3.321   6.346
 4382SOL    HW114045   6.106   3.350   6.442
 4382SOL    HW214046   6.049   3.240   6.336
 4383SOL     OW14047   0.819   3.070   5.439
 4383SOL    HW114048   0.731   3.082   5.484
 4383SOL    HW214049   0.853   2.977   5.456
 4384SOL     OW14050   5.427   1.293   6.660
 4384SOL    HW114051   5.361   1.298   6.585
 4384SOL    HW214052   5.463   1.385   6.678
 4385SOL     OW14053   0.019   2.656   4.622
 4385SOL    HW114054   6.991   2.573   4.590
 4385SOL    HW214055   0.109   2.664   4.579
 4386SOL     OW14056   1.672   3.751   6.807
 4386SOL    HW114057   1.667   3.664   6.855
 4386SOL    HW214058   1.744   3.747   6.737
 4387SOL     OW14059   0.552   1.304   1.494
 4387SOL    HW114060   0.496   1.267   1.568
 4387SOL    HW214061   0.493   1.326   1.416
 4388SOL     OW14062   4.760   1.073   6.297
 4388SOL    HW114063   4.702   0.995   6.321
 4388SOL    HW214064   4.777   1.073   6.199
 4389SOL     OW14065   5.821   1.998   0.607
 4389SOL    HW114066   5.742   1.992   0.545
 4389SOL    HW214067   5.901   2.030   0.556
 4390SOL     OW14068   3.815   1.728   2.016
 4390SOL    HW114069   3.843   1.635   2.037
 4390SOL    HW214070   3.720   1.742   2.042
 4391SOL     OW14071   1.737   5.917   5.638
 4391SOL    HW114072   1.758   5.854   5.563
 4391SOL    HW214073   1.743   5.868   5.725
 4392SOL     OW14074   6.713   3.538   5.531
 4392SOL    HW114075   6.730   3.567   5.437
 4392SOL    HW214076   6.750   3.446   5.545
 4393SOL     OW14077   5.382   6.872   2.795
 4393SOL    HW114078   5.482   6.874   2.795
 4393SOL    HW214079   5.348   6.910   2.709
 4394SOL     OW14080   6.005   5.545   2.767
 4394SOL    HW114081   6.058   5.612   2.715
 4394SOL    HW214082   5.908   5.565   2.758
 4395SOL     OW14083   3.877   0.921   1.897
 4395SOL    HW114084   3.790   0.959   1.865
 4395SOL    HW214085   3.943   0.923   1.822
 4396SOL     OW14086   2.527   2.233   4.074
 4396SOL    HW114087   2.508   2.311   4.134
 4396SOL    HW214088   2.441   2.192   4.045
 4397SOL     OW14089   0.361   1.344   4.986
 4397SOL    HW114090   0.382   1.255   4.946
 4397SOL    HW214091   0.411   1.415   4.936
 4398SOL     OW14092   0.877   4.278   4.767
 4398SOL    HW114093   0.906   4.267   4.672
 4398SOL    HW214094   0.798   4.219   4.785
 4399SOL     OW14095   1.506   0.824   1.948
 4399SOL    HW114096   1.536   0.829   2.043
 4399SOL    HW214097   1.492   0.916   1.912
 4400SOL     OW14098   2.433   0.291   5.037
 4400SOL    HW114099   2.412   0.246   4.950
 4400SOL    HW214100   2.378   0.374   5.045
 4401SOL     OW14101   4.888   0.192   6.869
 4401SOL    HW114102   4.920   0.108   6.825
 4401SOL    HW214103   4.811   0.229   6.816
 4402SOL     OW14104   2.196   6.550   1.758
 4402SOL    HW114105   2.253   6.493   1.818
 4402SOL    HW214106   2.135   6.491   1.705
 4403SOL     OW14107   0.423   6.863   4.062
 4403SOL    HW114108   0.416   6.962   4.074
 4403SOL    HW214109   0.415   6.841   3.965
 4404SOL     OW14110   0.504   4.247   5.788
 4404SOL    HW114111   0.546   4.301   5.861
 4404SOL    HW214112   0.536   4.152   5.794
 4405SOL     OW14113   2.978   4.491   1.078
 4405SOL    HW114114   2.936   4.428   1.013
 4405SOL    HW214115   2.907   4.526   1.140
 4406SOL     OW14116   6.489   4.311   1.101
 4406SOL    HW114117   6.447   4.392   1.059
 4406SOL    HW214118   6.582   4.301   1.067
 4407SOL     OW14119   0.499   4.077   0.559
 4407SOL    HW114120   0.415   4.028   0.582
 4407SOL    HW214121   0.492   4.114   0.467
 4408SOL     OW14122   4.070   1.198   1.404
 4408SOL    HW114123   4.121   1.203   1.317
 4408SOL    HW214124   4.134   1.181   1.479
 4409SOL     OW14125   4.197   6.966   1.876
 4409SOL    HW114126   4.237   6.932   1.790
 4409SOL    HW214127   4.240   6.920   1.953
 4410SOL     OW14128   1.519   5.581   0.300
 4410SOL    HW114129   1.517   5.581   0.400
 4410SOL    HW214130   1.469   5.502   0.265
 4411SOL     OW14131   3.169   2.952   3.852
 4411SOL    HW114132   3.133   2.958   3.759
 4411SOL    HW214133   3.108   3.001   3.915
 4412SOL     OW14134   3.430   0.739   4.912
 4412SOL    HW114135   3.492   0.742   4.834
 4412SOL    HW214136   3.382   0.652   4.913
 4413SOL     OW14137   4.695   5.579   4.827
 4413SOL    HW114138   4.772   5.517   4.814
 4413SOL    HW214139   4.664   5.613   4.739
 4414SOL     OW14140   3.961   5.072   1.773
 4414SOL    HW114141   3.902   5.024   1.838
 4414SOL    HW214142   3.930   5.054   1.680
 4415SOL     OW14143   4.172   3.633   6.574
 4415SOL    HW114144   4.265   3.614   6.541
 4415SOL    HW214145   4.124   3.691   6.508
 4416SOL     OW14146   2.522   0.336   4.419
 4416SOL    HW114147   2.555   0.430   4.435
 4416SOL    HW214148   2.433   0.324   4.462
 4417SOL     OW14149   5.784   4.502   3.241
 4417SOL    HW114150   5.857   4.535   3.302
 4417SOL    HW214151   5.817   4.502   3.147
 4418SOL     OW14152   5.066   0.886   2.982
 4418SOL    HW114153   5.014   0.816   3.031
 4418SOL    HW214154   5.138   0.842   2.928
 4419SOL     OW14155   5.388   5.855   0.320
 4419SOL    HW114156   5.312   5.800   0.284
 4419SOL    HW214157   5.353   5.915   0.393
 4420SOL     OW14158   5.412   1.401   1.325
 4420SOL    HW114159   5.328   1.374   1.374
 4420SOL    HW214160   5.490   1.388   1.386
 4421SOL     OW14161   2.057   1.541   4.089
 4421SOL    HW114162   2.109   1.615   4.133
 4421SOL    HW214163   1.985   1.580   4.031
 4422SOL     OW14164   2.601   4.391   5.755
 4422SOL    HW114165   2.551   4.377   5.841
 4422SOL    HW214166   2.573   4.322   5.689
 4423SOL     OW14167   1.000   2.688   5.283
 4423SOL    HW114168   1.098   2.667   5.284
 4423SOL    HW214169   0.974   2.719   5.192
 4424SOL     OW14170   5.365   6.921   4.099
 4424SOL    HW114171   5.391   6.837   4.051
 4424SOL    HW214172   5.310   6.978   4.038
 4425SOL     OW14173   3.709   5.681   6.318
 4425SOL    HW114174   3.684   5.676   6.222
 4425SOL    HW214175   3.644   5.740   6.366
 4426SOL     OW14176   0.361   2.201   4.604
 4426SOL    HW114177   0.415   2.143   4.664
 4426SOL    HW214178   0.412   2.218   4.519
 4427SOL     OW14179   6.796   6.395   2.734
 4427SOL    HW114180   6.711   6.347   2.757
 4427SOL    HW214181   6.774   6.479   2.685
 4428SOL     OW14182   3.406   5.502   2.267
 4428SOL    HW114183   3.417   5.600   2.282
 4428SOL    HW214184   3.309   5.479   2.260
 4429SOL     OW14185   2.988   0.213   3.063
 4429SOL    HW114186   2.957   0.306   3.043
 4429SOL    HW214187   2.918   0.166   3.118
 4430SOL     OW14188   4.902   3.397   4.908
 4430SOL    HW114189   4.985   3.380   4.962
 4430SOL    HW214190   4.866   3.487   4.929
 4431SOL     OW14191   1.664   0.599   1.876
 4431SOL    HW114192   1.653   0.519   1.935
 4431SOL    HW214193   1.609   0.674   1.911
 4432SOL     OW14194   3.328   4.102   4.354
 4432SOL    HW114195   3.358   4.146   4.269
 4432SOL    HW214196   3.228   4.096   4.355
 4433SOL     OW14197   5.825   0.305   4.572
 4433SOL    HW114198   5.789   0.254   4.494
 4433SOL    HW214199   5.750   0.353   4.618
 4434SOL     OW14200   3.540   1.668   3.293
 4434SOL    HW114201   3.587   1.757   3.296
 4434SOL    HW214202   3.512   1.642   3.386
 4435SOL     OW14203   4.059   3.950   1.261
 4435SOL    HW114204   4.128   3.916   1.325
 4435SOL    HW214205   4.100   3.959   1.170
 4436SOL     OW14206   3.911   1.427   1.434
 4436SOL    HW114207   3.951   1.336   1.425
 4436SOL    HW214208   3.868   1.453   1.348
 4437SOL     OW14209   5.367   1.603   4.197
 4437SOL    HW114210   5.451   1.563   4.160
 4437SOL    HW214211   5.390   1.658   4.277
 4438SOL     OW14212   4.836   0.896   0.477
 4438SOL    HW114213   4.901   0.824   0.451
 4438SOL    HW214214   4.769   0.859   0.540
 4439SOL     OW14215   0.519   6.152   1.438
 4439SOL    HW114216   0.450   6.218   1.467
 4439SOL    HW214217   0.534   6.162   1.339
 4440SOL     OW14218   2.126   4.781   0.498
 4440SOL    HW114219   2.211   4.827   0.522
 4440SOL    HW214220   2.080   4.832   0.425
 4441SOL     OW14221   6.746   1.880   2.726
 4441SOL    HW114222   6.781   1.818   2.656
 4441SOL    HW214223   6.652   1.854   2.749
 4442SOL     OW14224   2.414   5.932   5.151
 4442SOL    HW114225   2.504   5.912   5.189
 4442SOL    HW214226   2.403   5.885   5.064
 4443SOL     OW14227   6.723   3.184   1.364
 4443SOL    HW114228   6.712   3.133   1.280
 4443SOL    HW214229   6.806   3.154   1.411
 4444SOL     OW14230   4.154   5.304   6.082
 4444SOL    HW114231   4.156   5.294   5.983
 4444SOL    HW214232   4.154   5.401   6.106
 4445SOL     OW14233   6.413   0.041   0.865
 4445SOL    HW114234   6.463   0.043   0.952
 4445SOL    HW214235   6.334   6.998   0.873
 4446SOL     OW14236   5.921   1.388   1.955
 4446SOL    HW114237   5.983   1.441   2.013
 4446SOL    HW214238   5.848   1.349   2.011
 4447SOL     OW14239   5.806   3.806   6.139
 4447SOL    HW114240   5.882   3.840   6.194
 4447SOL    HW214241   5.723   3.801   6.196
 4448SOL     OW14242   3.047   4.046   1.105
 4448SOL    HW114243   3.039   3.998   1.018
 4448SOL    HW214244   3.141   4.077   1.118
 4449SOL     OW14245   4.617   0.831   6.366
 4449SOL    HW114246   4.568   0.785   6.291
 4449SOL    HW214247   4.686   0.769   6.404
 4450SOL     OW14248   4.060   3.560   4.213
 4450SOL    HW114249   4.097   3.639   4.262
 4450SOL    HW214250   3.966   3.579   4.185
 4451SOL     OW14251   5.918   4.184   4.059
 4451SOL    HW114252   5.936   4.091   4.092
 4451SOL    HW214253   5.951   4.194   3.966
 4452SOL     OW14254   5.760   6.456   4.071
 4452SOL    HW114255   5.785   6.535   4.127
 4452SOL    HW214256   5.838   6.429   4.015
 4453SOL     OW14257   0.290   3.014   1.291
 4453SOL    HW114258   0.236   3.041   1.212
 4453SOL    HW214259   0.230   2.986   1.365
 4454SOL     OW14260   6.804   2.101   0.025
 4454SOL    HW114261   6.776   2.058   6.957
 4454SOL    HW214262   6.883   2.051   0.063
 4455SOL     OW14263   3.989   6.755   6.702
 4455SOL    HW114264   3.943   6.746   6.790
 4455SOL    HW214265   4.064   6.821   6.709
 4456SOL     OW14266   2.836   5.218   2.275
 4456SOL    HW114267   2.825   5.312   2.245
 4456SOL    HW214268   2.787   5.157   2.213
 4457SOL     OW14269   4.109   2.674   0.598
 4457SOL    HW114270   4.100   2.594   0.657
 4457SOL    HW214271   4.052   2.662   0.517
 4458SOL     OW14272   1.210   3.757   6.689
 4458SOL    HW114273   1.261   3.842   6.673
 4458SOL    HW214274   1.273   3.679   6.687
 4459SOL     OW14275   4.598   0.730   3.741
 4459SOL    HW114276   4.538   0.693   3.812
 4459SOL    HW214277   4.637   0.655   3.688
 4460SOL     OW14278   3.007   3.025   5.307
 4460SOL    HW114279   2.908   3.034   5.311
 4460SOL    HW214280   3.038   3.040   5.213
 4461SOL     OW14281   1.398   0.413   2.388
 4461SOL    HW114282   1.304   0.397   2.419
 4461SOL    HW214283   1.455   0.434   2.467
 4462SOL     OW14284   6.831   3.874   1.658
 4462SOL    HW114285   6.888   3.925   1.594
 4462SOL    HW214286   6.879   3.865   1.745
 4463SOL     OW14287   4.570   2.706   0.138
 4463SOL    HW114288   4.533   2.773   0.073
 4463SOL    HW214289   4.495   2.662   0.186
 4464SOL     OW14290   0.049   4.852   0.183
 4464SOL    HW114291   0.016   4.848   0.088
 4464SOL    HW214292   6.990   4.875   0.244
 4465SOL     OW14293   2.399   5.653   2.361
 4465SOL    HW114294   2.329   5.633   2.293
 4465SOL    HW214295   2.365   5.721   2.425
 4466SOL     OW14296   1.767   1.239   2.956
 4466SOL    HW114297   1.798   1.309   3.021
 4466SOL    HW214298   1.689   1.273   2.904
 4467SOL     OW14299   1.683   0.290   3.319
 4467SOL    HW114300   1.670   0.231   3.398
 4467SOL    HW214301   1.778   0.282   3.287
 4468SOL     OW14302   1.904   3.025   1.066
 4468SOL    HW114303   1.906   3.009   0.967
 4468SOL    HW214304   1.815   3.063   1.092
 4469SOL     OW14305   4.205   0.366   1.358
 4469SOL    HW114306   4.225   0.269   1.343
 4469SOL    HW214307   4.117   0.376   1.403
 4470SOL     OW14308   5.920   3.113   1.925
 4470SOL    HW114309   5.878   3.190   1.973
 4470SOL    HW214310   5.849   3.046   1.901
 4471SOL     OW14311   0.045   2.027   6.602
 4471SOL    HW114312   6.974   1.985   6.581
 4471SOL    HW214313   0.031   2.103   6.665
 4472SOL     OW14314   1.728   3.060   3.839
 4472SOL    HW114315   1.721   3.150   3.882
 4472SOL    HW214316   1.798   3.006   3.884
 4473SOL     OW14317   6.921   2.638   3.682
 4473SOL    HW114318   0.000   2.650   3.704
 4473SOL    HW214319   6.865   2.661   3.762
 4474SOL     OW14320   3.971   0.371   2.008
 4474SOL    HW114321   3.872   0.375   2.011
 4474SOL    HW214322   4.009   0.404   2.095
 4475SOL     OW14323   1.906   3.619   2.267
 4475SOL    HW114324   1.972   3.555   2.228
 4475SOL    HW214325   1.836   3.569   2.318
 4476SOL     OW14326   4.647   6.797   4.069
 4476SOL    HW114327   4.609   6.888   4.082
 4476SOL    HW214328   4.582   6.729   4.102
 4477SOL     OW14329   1.233   0.504   5.586
 4477SOL    HW114330   1.213   0.406   5.583
 4477SOL    HW214331   1.169   0.549   5.649
 4478SOL     OW14332   3.426   6.558   2.684
 4478SOL    HW114333   3.455   6.465   2.710
 4478SOL    HW214334   3.506   6.613   2.663
 4479SOL     OW14335   0.800   1.196   1.485
 4479SOL    HW114336   0.753   1.178   1.399
 4479SOL    HW214337   0.760   1.276   1.529
 4480SOL     OW14338   2.277   3.425   5.758
 4480SOL    HW114339   2.375   3.406   5.767
 4480SOL    HW214340   2.259   3.470   5.670
 4481SOL     OW14341   2.807   6.274   5.503
 4481SOL    HW114342   2.837   6.365   5.477
 4481SOL    HW214343   2.870   6.235   5.570
 4482SOL     OW14344   0.834   4.208   4.296
 4482SOL    HW114345   0.812   4.111   4.304
 4482SOL    HW214346   0.827   4.251   4.386
 4483SOL     OW14347   4.939   3.525   2.176
 4483SOL    HW114348   5.000   3.568   2.242
 4483SOL    HW214349   4.985   3.518   2.087
 4484SOL     OW14350   3.281   2.892   5.582
 4484SOL    HW114351   3.349   2.958   5.612
 4484SOL    HW214352   3.312   2.848   5.497
 4485SOL     OW14353   5.197   1.548   5.085
 4485SOL    HW114354   5.235   1.541   4.992
 4485SOL    HW214355   5.264   1.513   5.150
 4486SOL     OW14356   4.881   4.215   4.604
 4486SOL    HW114357   4.944   4.252   4.536
 4486SOL    HW214358   4.912   4.240   4.695
 4487SOL     OW14359   2.707   2.900   6.413
 4487SOL    HW114360   2.691   2.865   6.321
 4487SOL    HW214361   2.771   2.976   6.408
 4488SOL     OW14362   6.585   3.705   5.897
 4488SOL    HW114363   6.596   3.609   5.924
 4488SOL    HW214364   6.488   3.725   5.884
 4489SOL     OW14365   6.264   5.305   4.536
 4489SOL    HW114366   6.239   5.237   4.605
 4489SOL    HW214367   6.200   5.300   4.460
 4490SOL     OW14368   6.245   2.597   3.087
 4490SOL    HW114369   6.330   2.577   3.039
 4490SOL    HW214370   6.245   2.693   3.117
 4491SOL     OW14371   0.285   2.677   4.522
 4491SOL    HW114372   0.361   2.639   4.575
 4491SOL    HW214373   0.253   2.609   4.455
 4492SOL     OW14374   5.361   4.346   1.748
 4492SOL    HW114375   5.324   4.289   1.822
 4492SOL    HW214376   5.286   4.397   1.705
 4493SOL     OW14377   4.812   6.665   5.196
 4493SOL    HW114378   4.811   6.764   5.207
 4493SOL    HW214379   4.876   6.625   5.262
 4494SOL     OW14380   6.567   1.433   5.788
 4494SOL    HW114381   6.520   1.471   5.867
 4494SOL    HW214382   6.584   1.336   5.802
 4495SOL     OW14383   4.138   6.307   4.327
 4495SOL    HW114384   4.061   6.251   4.355
 4495SOL    HW214385   4.124   6.337   4.232
 4496SOL     OW14386   5.324   5.430   1.189
 4496SOL    HW114387   5.336   5.335   1.162
 4496SOL    HW214388   5.230   5.458   1.171
 4497SOL     OW14389   4.827   0.926   6.665
 4497SOL    HW114390   4.736   0.904   6.703
 4497SOL    HW214391   4.838   1.025   6.661
 4498SOL     OW14392   6.527   3.254   6.327
 4498SOL    HW114393   6.490   3.346   6.313
 4498SOL    HW214394   6.617   3.247   6.285
 4499SOL     OW14395   6.900   3.330   4.076
 4499SOL    HW114396   6.810   3.326   4.032
 4499SOL    HW214397   6.893   3.299   4.171
 4500SOL     OW14398   3.062   3.315   3.625
 4500SOL    HW114399   2.995   3.337   3.696
 4500SOL    HW214400   3.123   3.393   3.611
 4501SOL     OW14401   6.995   2.917   5.464
 4501SOL    HW114402   6.975   2.918   5.366
 4501SOL    HW214403   6.917   2.878   5.513
 4502SOL     OW14404   0.951   2.066   6.531
 4502SOL    HW114405   0.916   2.019   6.611
 4502SOL    HW214406   0.999   2.149   6.560
 4503SOL     OW14407   3.166   0.200   2.578
 4503SOL    HW114408   3.191   0.104   2.591
 4503SOL    HW214409   3.245   0.258   2.595
 4504SOL     OW14410   6.798   1.797   4.736
 4504SOL    HW114411   6.762   1.726   4.797
 4504SOL    HW214412   6.869   1.757   4.678
 4505SOL     OW14413   6.161   5.907   3.018
 4505SOL    HW114414   6.191   6.000   3.037
 4505SOL    HW214415   6.203   5.844   3.084
 4506SOL     OW14416   4.375   2.434   3.449
 4506SOL    HW114417   4.424   2.347   3.459
 4506SOL    HW214418   4.308   2.426   3.375
 4507SOL     OW14419   5.827   4.991   2.550
 4507SOL    HW114420   5.820   4.962   2.646
 4507SOL    HW214421   5.743   5.037   2.523
 4508SOL     OW14422   1.143   4.653   5.894
 4508SOL    HW114423   1.206   4.633   5.969
 4508SOL    HW214424   1.152   4.582   5.824
 4509SOL     OW14425   5.261   2.788   2.508
 4509SOL    HW114426   5.273   2.695   2.543
 4509SOL    HW214427   5.199   2.787   2.430
 4510SOL     OW14428   4.799   0.569   4.721
 4510SOL    HW114429   4.866   0.638   4.749
 4510SOL    HW214430   4.846   0.490   4.683
 4511SOL     OW14431   6.609   3.192   6.593
 4511SOL    HW114432   6.547   3.186   6.515
 4511SOL    HW214433   6.692   3.139   6.574
 4512SOL     OW14434   2.586   0.055   5.530
 4512SOL    HW114435   2.625   0.019   5.445
 4512SOL    HW214436   2.493   0.087   5.513
 4513SOL     OW14437   5.356   6.193   0.771
 4513SOL    HW114438   5.282   6.133   0.803
 4513SOL    HW214439   5.416   6.216   0.848
 4514SOL     OW14440   4.670   1.135   5.584
 4514SOL    HW114441   4.591   1.161   5.641
 4514SOL    HW214442   4.698   1.042   5.607
 4515SOL     OW14443   0.569   3.046   6.021
 4515SOL    HW114444   0.575   3.146   6.027
 4515SOL    HW214445   0.497   3.012   6.081
 4516SOL     OW14446   1.629   0.031   0.104
 4516SOL    HW114447   1.638   0.112   0.161
 4516SOL    HW214448   1.680   0.045   0.018
 4517SOL     OW14449   3.023   0.872   6.515
 4517SOL    HW114450   2.965   0.936   6.565
 4517SOL    HW214451   3.115   0.910   6.506
 4518SOL     OW14452   6.582   1.070   3.310
 4518SOL    HW114453   6.680   1.089   3.314
 4518SOL    HW214454   6.567   0.974   3.286
 4519SOL     OW14455   5.449   0.363   2.081
 4519SOL    HW114456   5.361   0.315   2.084
 4519SOL    HW214457   5.519   0.300   2.048
 4520SOL     OW14458   4.926   6.063   3.710
 4520SOL    HW114459   5.015   6.035   3.745
 4520SOL    HW214460   4.936   6.144   3.653
 4521SOL     OW14461   5.772   1.998   3.454
 4521SOL    HW114462   5.847   1.933   3.462
 4521SOL    HW214463   5.794   2.081   3.504
 4522SOL     OW14464   5.974   6.942   3.241
 4522SOL    HW114465   5.876   6.941   3.221
 4522SOL    HW214466   6.025   6.940   3.156
 4523SOL     OW14467   1.779   4.363   0.287
 4523SOL    HW114468   1.698   4.411   0.321
 4523SOL    HW214469   1.829   4.423   0.226
 4524SOL     OW14470   5.467   2.780   3.919
 4524SOL    HW114471   5.493   2.751   4.011
 4524SOL    HW214472   5.449   2.699   3.863
 4525SOL     OW14473   4.974   1.152   3.324
 4525SOL    HW114474   4.901   1.173   3.259
 4525SOL    HW214475   4.942   1.082   3.388
 4526SOL     OW14476   5.520   0.680   1.364
 4526SOL    HW114477   5.592   0.715   1.305
 4526SOL    HW214478   5.559   0.640   1.446
 4527SOL     OW14479   3.830   1.463   3.607
 4527SOL    HW114480   3.917   1.494   3.568
 4527SOL    HW214481   3.816   1.367   3.584
 4528SOL     OW14482   4.649   6.603   0.261
 4528SOL    HW114483   4.591   6.676   0.223
 4528SOL    HW214484   4.660   6.618   0.359
 4529SOL     OW14485   3.725   1.671   5.268
 4529SOL    HW114486   3.725   1.677   5.168
 4529SOL    HW214487   3.639   1.630   5.299
 4530SOL     OW14488   0.864   3.422   6.482
 4530SOL    HW114489   0.812   3.465   6.408
 4530SOL    HW214490   0.827   3.452   6.570
 4531SOL     OW14491   0.450   3.632   3.931
 4531SOL    HW114492   0.389   3.620   4.010
 4531SOL    HW214493   0.512   3.554   3.925
 4532SOL     OW14494   5.951   2.395   3.346
 4532SOL    HW114495   5.991   2.353   3.265
 4532SOL    HW214496   5.853   2.377   3.349
 4533SOL     OW14497   1.541   0.478   2.168
 4533SOL    HW114498   1.525   0.409   2.097
 4533SOL    HW214499   1.483   0.458   2.247
 4534SOL     OW14500   4.829   4.363   4.903
 4534SOL    HW114501   4.835   4.289   4.969
 4534SOL    HW214502   4.755   4.426   4.930
 4535SOL     OW14503   4.825   1.418   2.416
 4535SOL    HW114504   4.922   1.393   2.424
 4535SOL    HW214505   4.769   1.336   2.420
 4536SOL     OW14506   3.985   1.830   3.953
 4536SOL    HW114507   4.002   1.929   3.961
 4536SOL    HW214508   4.032   1.782   4.026
 4537SOL     OW14509   3.631   3.513   5.935
 4537SOL    HW114510   3.573   3.505   6.017
 4537SOL    HW214511   3.606   3.596   5.885
 4538SOL     OW14512   2.595   0.599   4.479
 4538SOL    HW114513   2.563   0.593   4.573
 4538SOL    HW214514   2.517   0.617   4.418
 4539SOL     OW14515   2.150   1.179   4.653
 4539SOL    HW114516   2.241   1.136   4.648
 4539SOL    HW214517   2.109   1.159   4.741
 4540SOL     OW14518   3.048   3.441   4.689
 4540SOL    HW114519   3.036   3.378   4.612
 4540SOL    HW214520   3.145   3.464   4.698
 4541SOL     OW14521   5.814   1.769   0.780
 4541SOL    HW114522   5.803   1.853   0.727
 4541SOL    HW214523   5.896   1.775   0.836
 4542SOL     OW14524   6.282   0.835   2.980
 4542SOL    HW114525   6.246   0.871   3.066
 4542SOL    HW214526   6.282   0.735   2.984
 4543SOL     OW14527   4.815   1.824   1.639
 4543SOL    HW114528   4.796   1.762   1.715
 4543SOL    HW214529   4.888   1.784   1.582
 4544SOL     OW14530   3.381   6.333   6.326
 4544SOL    HW114531   3.380   6.415   6.384
 4544SOL    HW214532   3.405   6.360   6.232
 4545SOL     OW14533   5.523   3.570   5.057
 4545SOL    HW114534   5.480   3.612   4.977
 4545SOL    HW214535   5.474   3.486   5.081
 4546SOL     OW14536   2.261   1.662   6.564
 4546SOL    HW114537   2.310   1.575   6.576
 4546SOL    HW214538   2.189   1.670   6.632
 4547SOL     OW14539   5.946   2.524   2.946
 4547SOL    HW114540   6.012   2.563   3.010
 4547SOL    HW214541   5.857   2.516   2.991
 4548SOL     OW14542   1.273   4.138   4.830
 4548SOL    HW114543   1.238   4.231   4.833
 4548SOL    HW214544   1.335   4.127   4.752
 4549SOL     OW14545   6.282   4.373   2.406
 4549SOL    HW114546   6.365   4.395   2.458
 4549SOL    HW214547   6.237   4.458   2.378
 4550SOL     OW14548   1.564   6.034   3.082
 4550SOL    HW114549   1.622   6.106   3.121
 4550SOL    HW214550   1.576   6.031   2.983
 4551SOL     OW14551   5.894   1.565   6.043
 4551SOL    HW114552   5.972   1.511   6.010
 4551SOL    HW214553   5.819   1.557   5.978
 4552SOL     OW14554   6.356   2.617   1.547
 4552SOL    HW114555   6.362   2.649   1.453
 4552SOL    HW214556   6.434   2.557   1.567
 4553SOL     OW14557   4.038   4.360   6.552
 4553SOL    HW114558   4.111   4.409   6.600
 4553SOL    HW214559   3.979   4.314   6.618
 4554SOL     OW14560   4.776   0.395   1.512
 4554SOL    HW114561   4.868   0.429   1.528
 4554SOL    HW214562   4.741   0.431   1.426
 4555SOL     OW14563   3.426   1.415   5.891
 4555SOL    HW114564   3.499   1.396   5.825
 4555SOL    HW214565   3.400   1.331   5.938
 4556SOL     OW14566   4.573   2.516   3.950
 4556SOL    HW114567   4.476   2.497   3.964
 4556SOL    HW214568   4.625   2.483   4.029
 4557SOL     OW14569   4.701   6.757   4.406
 4557SOL    HW114570   4.763   6.733   4.480
 4557SOL    HW214571   4.727   6.709   4.323
 4558SOL     OW14572   0.389   3.415   5.480
 4558SOL    HW114573   0.362   3.511   5.477
 4558SOL    HW214574   0.337   3.368   5.551
 4559SOL     OW14575   1.032   4.084   1.374
 4559SOL    HW114576   1.008   4.050   1.465
 4559SOL    HW214577   1.064   4.008   1.317
 4560SOL     OW14578   5.359   5.030   2.781
 4560SOL    HW114579   5.444   4.984   2.753
 4560SOL    HW214580   5.380   5.097   2.852
 4561SOL     OW14581   2.406   0.628   1.403
 4561SOL    HW114582   2.480   0.598   1.343
 4561SOL    HW214583   2.424   0.720   1.436
 4562SOL     OW14584   3.429   6.355   5.139
 4562SOL    HW114585   3.438   6.287   5.066
 4562SOL    HW214586   3.454   6.445   5.104
 4563SOL     OW14587   0.977   4.079   0.716
 4563SOL    HW114588   0.948   4.073   0.812
 4563SOL    HW214589   0.905   4.041   0.658
 4564SOL     OW14590   0.103   6.973   1.039
 4564SOL    HW114591   0.060   7.006   0.955
 4564SOL    HW214592   0.183   0.012   1.060
 4565SOL     OW14593   6.858   1.052   5.781
 4565SOL    HW114594   6.841   1.102   5.866
 4565SOL    HW214595   6.943   1.001   5.789
 4566SOL     OW14596   6.524   1.467   0.320
 4566SOL    HW114597   6.531   1.556   0.276
 4566SOL    HW214598   6.472   1.475   0.406
 4567SOL     OW14599   6.853   0.283   0.298
 4567SOL    HW114600   6.854   0.382   0.313
 4567SOL    HW214601   6.858   0.265   0.200
 4568SOL     OW14602   1.449   4.265   5.354
 4568SOL    HW114603   1.538   4.247   5.314
 4568SOL    HW214604   1.390   4.185   5.343
 4569SOL     OW14605   1.702   1.095   3.207
 4569SOL    HW114606   1.762   1.175   3.220
 4569SOL    HW214607   1.752   1.024   3.158
 4570SOL     OW14608   1.182   6.523   3.123
 4570SOL    HW114609   1.128   6.558   3.199
 4570SOL    HW214610   1.247   6.592   3.093
 4571SOL     OW14611   3.483   3.091   6.205
 4571SOL    HW114612   3.415   3.110   6.134
 4571SOL    HW214613   3.537   3.010   6.178
 4572SOL     OW14614   1.173   6.577   0.122
 4572SOL    HW114615   1.194   6.479   0.115
 4572SOL    HW214616   1.084   6.589   0.165
 4573SOL     OW14617   6.769   6.215   0.271
 4573SOL    HW114618   6.752   6.188   0.176
 4573SOL    HW214619   6.748   6.312   0.282
 4574SOL     OW14620   6.743   3.686   1.445
 4574SOL    HW114621   6.690   3.763   1.409
 4574SOL    HW214622   6.775   3.707   1.538
 4575SOL     OW14623   5.806   2.299   6.135
 4575SOL    HW114624   5.903   2.318   6.125
 4575SOL    HW214625   5.768   2.273   6.046
 4576SOL     OW14626   2.105   5.875   6.982
 4576SOL    HW114627   2.093   5.926   0.050
 4576SOL    HW214628   2.016   5.842   6.951
 4577SOL     OW14629   1.098   2.096   4.284
 4577SOL    HW114630   1.106   2.009   4.235
 4577SOL    HW214631   1.168   2.160   4.251
 4578SOL     OW14632   0.858   3.435   4.125
 4578SOL    HW114633   0.911   3.380   4.190
 4578SOL    HW214634   0.906   3.521   4.107
 4579SOL     OW14635   4.857   2.251   3.120
 4579SOL    HW114636   4.839   2.279   3.025
 4579SOL    HW214637   4.804   2.310   3.181
 4580SOL     OW14638   4.798   5.131   6.899
 4580SOL    HW114639   4.853   5.180   6.831
 4580SOL    HW214640   4.711   5.103   6.859
 4581SOL     OW14641   3.134   4.885   3.203
 4581SOL    HW114642   3.160   4.977   3.234
 4581SOL    HW214643   3.214   4.826   3.205
 4582SOL     OW14644   5.705   6.397   4.623
 4582SOL    HW114645   5.747   6.306   4.629
 4582SOL    HW214646   5.615   6.395   4.667
 4583SOL     OW14647   2.997   2.031   5.599
 4583SOL    HW114648   2.947   1.946   5.581
 4583SOL    HW214649   2.953   2.105   5.548
 4584SOL     OW14650   0.289   5.307   5.877
 4584SOL    HW114651   0.222   5.379   5.895
 4584SOL    HW214652   0.264   5.224   5.927
 4585SOL     OW14653   2.679   6.560   3.517
 4585SOL    HW114654   2.778   6.562   3.530
 4585SOL    HW214655   2.640   6.648   3.542
 4586SOL     OW14656   3.835   4.766   0.253
 4586SOL    HW114657   3.757   4.741   0.310
 4586SOL    HW214658   3.803   4.818   0.174
 4587SOL     OW14659   4.039   3.820   2.114
 4587SOL    HW114660   3.996   3.897   2.162
 4587SOL    HW214661   4.047   3.742   2.176
 4588SOL     OW14662   3.989   4.004   5.590
 4588SOL    HW114663   4.013   3.993   5.686
 4588SOL    HW214664   3.903   4.055   5.583
 4589SOL     OW14665   5.455   1.114   2.794
 4589SOL    HW114666   5.401   1.197   2.808
 4589SOL    HW214667   5.417   1.062   2.718
 4590SOL     OW14668   4.785   5.576   0.271
 4590SOL    HW114669   4.697   5.622   0.262
 4590SOL    HW214670   4.771   5.478   0.281
 4591SOL     OW14671   0.785   6.072   4.427
 4591SOL    HW114672   0.754   6.164   4.451
 4591SOL    HW214673   0.711   6.021   4.385
 4592SOL     OW14674   3.512   1.723   1.769
 4592SOL    HW114675   3.539   1.627   1.764
 4592SOL    HW214676   3.434   1.739   1.707
 4593SOL     OW14677   4.327   5.603   3.535
 4593SOL    HW114678   4.313   5.600   3.436
 4593SOL    HW214679   4.425   5.615   3.555
 4594SOL     OW14680   3.214   0.681   1.880
 4594SOL    HW114681   3.303   0.650   1.846
 4594SOL    HW214682   3.227   0.764   1.935
 4595SOL     OW14683   3.533   2.206   6.037
 4595SOL    HW114684   3.592   2.172   6.110
 4595SOL    HW214685   3.491   2.292   6.066
 4596SOL     OW14686   5.809   6.708   3.121
 4596SOL    HW114687   5.835   6.733   3.028
 4596SOL    HW214688   5.718   6.668   3.121
 4597SOL     OW14689   4.609   4.384   6.611
 4597SOL    HW114690   4.685   4.449   6.606
 4597SOL    HW214691   4.546   4.400   6.535
 4598SOL     OW14692   2.112   5.435   0.251
 4598SOL    HW114693   2.059   5.511   0.214
 4598SOL    HW214694   2.205   5.465   0.271
 4599SOL     OW14695   1.378   5.105   0.126
 4599SOL    HW114696   1.387   5.011   0.157
 4599SOL    HW214697   1.282   5.133   0.130
 4600SOL     OW14698   0.907   4.621   5.144
 4600SOL    HW114699   0.922   4.557   5.068
 4600SOL    HW214700   0.852   4.698   5.113
 4601SOL     OW14701   1.298   6.816   5.673
 4601SOL    HW114702   1.326   6.910   5.692
 4601SOL    HW214703   1.379   6.757   5.670
 4602SOL     OW14704   1.031   5.635   1.967
 4602SOL    HW114705   1.023   5.568   1.893
 4602SOL    HW214706   1.125   5.636   2.001
 4603SOL     OW14707   3.251   6.194   0.922
 4603SOL    HW114708   3.161   6.195   0.965
 4603SOL    HW214709   3.315   6.248   0.978
 4604SOL     OW14710   4.675   0.322   1.821
 4604SOL    HW114711   4.675   0.308   1.722
 4604SOL    HW214712   4.719   0.246   1.866
 4605SOL     OW14713   3.245   1.175   3.515
 4605SOL    HW114714   3.328   1.230   3.520
 4605SOL    HW214715   3.172   1.228   3.472
 4606SOL     OW14716   0.962   0.345   1.775
 4606SOL    HW114717   0.875   0.340   1.824
 4606SOL    HW214718   0.955   0.291   1.690
 4607SOL     OW14719   2.455   2.490   0.960
 4607SOL    HW114720   2.408   2.578   0.966
 4607SOL    HW214721   2.507   2.486   0.875
 4608SOL     OW14722   1.043   6.201   3.750
 4608SOL    HW114723   1.059   6.192   3.651
 4608SOL    HW214724   1.124   6.242   3.793
 4609SOL     OW14725   4.856   4.825   6.014
 4609SOL    HW114726   4.781   4.882   5.979
 4609SOL    HW214727   4.942   4.855   5.973
 4610SOL     OW14728   4.932   2.314   0.766
 4610SOL    HW114729   4.899   2.251   0.696
 4610SOL    HW214730   5.031   2.326   0.755
 4611SOL     OW14731   0.044   6.057   6.070
 4611SOL    HW114732   6.993   6.129   6.059
 4611SOL    HW214733   0.032   6.011   6.158
 4612SOL     OW14734   0.744   5.471   0.156
 4612SOL    HW114735   0.666   5.455   0.217
 4612SOL    HW214736   0.828   5.474   0.210
 4613SOL     OW14737   2.449   5.861   2.527
 4613SOL    HW114738   2.385   5.893   2.457
 4613SOL    HW214739   2.399   5.844   2.612
 4614SOL     OW14740   0.100   3.812   4.504
 4614SOL    HW114741   0.086   3.807   4.603
 4614SOL    HW214742   0.193   3.844   4.485
 4615SOL     OW14743   2.193   0.964   0.075
 4615SOL    HW114744   2.114   0.915   0.113
 4615SOL    HW214745   2.277   0.916   0.101
 4616SOL     OW14746   5.988   0.915   5.678
 4616SOL    HW114747   6.065   0.884   5.622
 4616SOL    HW214748   5.931   0.977   5.624
 4617SOL     OW14749   0.898   2.780   1.761
 4617SOL    HW114750   0.864   2.722   1.835
 4617SOL    HW214751   0.861   2.873   1.773
 4618SOL     OW14752   2.145   2.841   5.441
 4618SOL    HW114753   2.146   2.848   5.341
 4618SOL    HW214754   2.132   2.932   5.480
 4619SOL     OW14755   3.185   6.051   2.962
 4619SOL    HW114756   3.137   6.079   2.879
 4619SOL    HW214757   3.284   6.058   2.946
 4620SOL     OW14758   3.124   4.689   0.513
 4620SOL    HW114759   3.181   4.747   0.454
 4620SOL    HW214760   3.073   4.747   0.577
 4621SOL     OW14761   4.614   1.403   2.653
 4621SOL    HW114762   4.628   1.325   2.592
 4621SOL    HW214763   4.699   1.424   2.701
 4622SOL     OW14764   2.298   4.112   0.275
 4622SOL    HW114765   2.348   4.118   0.362
 4622SOL    HW214766   2.310   4.020   0.236
 4623SOL     OW14767   6.669   5.993   0.795
 4623SOL    HW114768   6.725   6.037   0.865
 4623SOL    HW214769   6.643   6.060   0.726
 4624SOL     OW14770   5.436   0.387   3.142
 4624SOL    HW114771   5.515   0.437   3.107
 4624SOL    HW214772   5.388   0.444   3.209
 4625SOL     OW14773   1.453   4.133   0.346
 4625SOL    HW114774   1.535   4.164   0.396
 4625SOL    HW214775   1.480   4.103   0.255
 4626SOL     OW14776   5.849   5.707   2.493
 4626SOL    HW114777   5.939   5.692   2.452
 4626SOL    HW214778   5.847   5.795   2.539
 4627SOL     OW14779   3.057   5.142   3.903
 4627SOL    HW114780   2.989   5.144   3.829
 4627SOL    HW214781   3.035   5.213   3.970
 4628SOL     OW14782   5.673   3.794   4.058
 4628SOL    HW114783   5.597   3.761   4.113
 4628SOL    HW214784   5.676   3.894   4.062
 4629SOL     OW14785   2.305   5.064   5.588
 4629SOL    HW114786   2.236   5.030   5.652
 4629SOL    HW214787   2.281   5.157   5.560
 4630SOL     OW14788   3.849   5.514   2.259
 4630SOL    HW114789   3.784   5.588   2.240
 4630SOL    HW214790   3.905   5.538   2.338
 4631SOL     OW14791   2.306   6.587   3.477
 4631SOL    HW114792   2.345   6.553   3.391
 4631SOL    HW214793   2.214   6.621   3.461
 4632SOL     OW14794   3.803   5.225   2.556
 4632SOL    HW114795   3.862   5.205   2.477
 4632SOL    HW214796   3.718   5.175   2.547
 4633SOL     OW14797   5.502   1.224   3.798
 4633SOL    HW114798   5.503   1.142   3.740
 4633SOL    HW214799   5.408   1.250   3.817
 4634SOL     OW14800   2.599   4.789   6.290
 4634SOL    HW114801   2.523   4.734   6.326
 4634SOL    HW214802   2.624   4.859   6.356
 4635SOL     OW14803   5.371   3.986   1.548
 4635SOL    HW114804   5.428   3.908   1.520
 4635SOL    HW214805   5.278   3.971   1.514
 4636SOL     OW14806   2.131   4.604   0.235
 4636SOL    HW114807   2.125   4.627   0.332
 4636SOL    HW214808   2.046   4.561   0.205
 4637SOL     OW14809   1.053   0.302   6.944
 4637SOL    HW114810   1.103   0.384   6.972
 4637SOL    HW214811   0.956   0.315   6.960
 4638SOL     OW14812   4.940   3.043   0.298
 4638SOL    HW114813   5.035   3.036   0.330
 4638SOL    HW214814   4.899   2.952   0.296
 4639SOL     OW14815   2.402   4.442   4.882
 4639SOL    HW114816   2.461   4.466   4.959
 4639SOL    HW214817   2.310   4.477   4.898
 4640SOL     OW14818   4.918   4.828   3.269
 4640SOL    HW114819   4.969   4.878   3.200
 4640SOL    HW214820   4.851   4.888   3.312
 4641SOL     OW14821   2.624   6.228   4.849
 4641SOL    HW114822   2.586   6.136   4.861
 4641SOL    HW214823   2.623   6.252   4.752
 4642SOL     OW14824   0.261   5.615   4.272
 4642SOL    HW114825   0.194   5.656   4.334
 4642SOL    HW214826   0.273   5.519   4.293
 4643SOL     OW14827   5.899   2.858   1.367
 4643SOL    HW114828   5.880   2.947   1.407
 4643SOL    HW214829   5.919   2.792   1.440
 4644SOL     OW14830   0.302   4.580   5.258
 4644SOL    HW114831   0.374   4.573   5.189
 4644SOL    HW214832   0.214   4.594   5.214
 4645SOL     OW14833   1.022   1.517   4.829
 4645SOL    HW114834   0.987   1.469   4.748
 4645SOL    HW214835   0.986   1.472   4.912
 4646SOL     OW14836   2.415   5.836   3.705
 4646SOL    HW114837   2.338   5.775   3.722
 4646SOL    HW214838   2.494   5.783   3.674
 4647SOL     OW14839   1.685   1.092   3.951
 4647SOL    HW114840   1.751   1.017   3.957
 4647SOL    HW214841   1.633   1.098   4.036
 4648SOL     OW14842   4.286   0.973   2.060
 4648SOL    HW114843   4.191   0.996   2.080
 4648SOL    HW214844   4.344   0.997   2.138
 4649SOL     OW14845   5.498   0.471   6.273
 4649SOL    HW114846   5.491   0.492   6.370
 4649SOL    HW214847   5.408   0.450   6.236
 4650SOL     OW14848   4.967   5.530   3.691
 4650SOL    HW114849   4.942   5.547   3.786
 4650SOL    HW214850   4.885   5.514   3.636
 4651SOL     OW14851   6.739   1.465   1.112
 4651SOL    HW114852   6.817   1.511   1.156
 4651SOL    HW214853   6.772   1.390   1.056
 4652SOL     OW14854   0.387   0.049   4.338
 4652SOL    HW114855   0.391   0.144   4.305
 4652SOL    HW214856   0.468   0.030   4.394
 4653SOL     OW14857   5.767   5.021   0.064
 4653SOL    HW114858   5.785   4.932   0.106
 4653SOL    HW214859   5.690   5.013   0.000
 4654SOL     OW14860   0.575   6.319   0.275
 4654SOL    HW114861   0.515   6.396   0.251
 4654SOL    HW214862   0.652   6.353   0.329
 4655SOL     OW14863   6.592   5.182   1.772
 4655SOL    HW114864   6.611   5.138   1.685
 4655SOL    HW214865   6.602   5.281   1.762
 4656SOL     OW14866   1.080   0.457   3.833
 4656SOL    HW114867   1.108   0.406   3.914
 4656SOL    HW214868   1.104   0.405   3.751
 4657SOL     OW14869   5.300   6.190   1.508
 4657SOL    HW114870   5.268   6.228   1.421
 4657SOL    HW214871   5.234   6.213   1.580
 4658SOL     OW14872   4.288   1.520   2.712
 4658SOL    HW114873   4.248   1.457   2.645
 4658SOL    HW214874   4.269   1.486   2.805
 4659SOL     OW14875   3.162   4.326   5.259
 4659SOL    HW114876   3.080   4.353   5.208
 4659SOL    HW214877   3.152   4.231   5.289
 4660SOL     OW14878   1.047   3.498   5.481
 4660SOL    HW114879   0.968   3.544   5.521
 4660SOL    HW214880   1.061   3.531   5.388
 4661SOL     OW14881   3.299   4.108   6.082
 4661SOL    HW114882   3.381   4.132   6.029
 4661SOL    HW214883   3.326   4.072   6.171
 4662SOL     OW14884   3.724   6.791   4.864
 4662SOL    HW114885   3.692   6.883   4.841
 4662SOL    HW214886   3.736   6.738   4.781
 4663SOL     OW14887   0.377   1.679   2.971
 4663SOL    HW114888   0.322   1.641   3.045
 4663SOL    HW214889   0.471   1.693   3.003
 4664SOL     OW14890   1.725   1.316   0.312
 4664SOL    HW114891   1.753   1.267   0.394
 4664SOL    HW214892   1.799   1.374   0.280
 4665SOL     OW14893   3.305   6.774   0.218
 4665SOL    HW114894   3.303   6.872   0.239
 4665SOL    HW214895   3.399   6.745   0.201
 4666SOL     OW14896   1.462   2.109   1.031
 4666SOL    HW114897   1.435   2.012   1.037
 4666SOL    HW214898   1.559   2.115   1.009
 4667SOL     OW14899   6.284   4.217   1.970
 4667SOL    HW114900   6.288   4.173   1.881
 4667SOL    HW214901   6.226   4.299   1.964
 4668SOL     OW14902   5.198   1.766   3.325
 4668SOL    HW114903   5.219   1.850   3.375
 4668SOL    HW214904   5.283   1.722   3.296
 4669SOL     OW14905   4.304   6.472   6.371
 4669SOL    HW114906   4.214   6.483   6.412
 4669SOL    HW214907   4.372   6.461   6.443
 4670SOL     OW14908   3.114   2.254   5.398
 4670SOL    HW114909   3.142   2.293   5.310
 4670SOL    HW214910   3.178   2.283   5.469
 4671SOL     OW14911   6.563   2.332   2.230
 4671SOL    HW114912   6.597   2.425   2.240
 4671SOL    HW214913   6.586   2.297   2.139
 4672SOL     OW14914   2.602   4.195   6.055
 4672SOL    HW114915   2.692   4.237   6.051
 4672SOL    HW214916   2.532   4.267   6.047
 4673SOL     OW14917   5.045   6.722   1.331
 4673SOL    HW114918   5.109   6.646   1.343
 4673SOL    HW214919   5.081   6.785   1.262
 4674SOL     OW14920   5.013   6.916   6.455
 4674SOL    HW114921   5.002   6.936   6.552
 4674SOL    HW214922   4.924   6.908   6.412
 4675SOL     OW14923   0.066   1.832   6.163
 4675SOL    HW114924   0.007   1.816   6.242
 4675SOL    HW214925   0.118   1.749   6.143
 4676SOL     OW14926   6.922   6.376   3.947
 4676SOL    HW114927   6.976   6.433   4.011
 4676SOL    HW214928   6.966   6.378   3.857
 4677SOL     OW14929   2.719   1.114   0.227
 4677SOL    HW114930   2.660   1.170   0.169
 4677SOL    HW214931   2.694   1.018   0.218
 4678SOL     OW14932   1.833   4.661   2.862
 4678SOL    HW114933   1.778   4.689   2.784
 4678SOL    HW214934   1.869   4.569   2.847
 4679SOL     OW14935   3.737   0.284   1.081
 4679SOL    HW114936   3.789   0.198   1.085
 4679SOL    HW214937   3.786   0.354   1.133
 4680SOL     OW14938   3.647   1.561   6.499
 4680SOL    HW114939   3.623   1.466   6.483
 4680SOL    HW214940   3.709   1.567   6.577
 4681SOL     OW14941   5.822   4.833   6.679
 4681SOL    HW114942   5.769   4.768   6.734
 4681SOL    HW214943   5.841   4.792   6.589
 4682SOL     OW14944   5.012   4.545   5.223
 4682SOL    HW114945   4.938   4.593   5.176
 4682SOL    HW214946   5.032   4.460   5.176
 4683SOL     OW14947   4.957   5.128   2.522
 4683SOL    HW114948   5.020   5.204   2.508
 4683SOL    HW214949   4.878   5.159   2.575
 4684SOL     OW14950   5.352   0.618   5.025
 4684SOL    HW114951   5.295   0.637   5.105
 4684SOL    HW214952   5.357   0.519   5.011
 4685SOL     OW14953   1.704   5.119   5.577
 4685SOL    HW114954   1.770   5.145   5.647
 4685SOL    HW214955   1.747   5.057   5.511
 4686SOL     OW14956   4.877   5.259   6.647
 4686SOL    HW114957   4.846   5.188   6.583
 4686SOL    HW214958   4.811   5.334   6.646
 4687SOL     OW14959   5.086   3.345   4.397
 4687SOL    HW114960   5.095   3.413   4.470
 4687SOL    HW214961   4.995   3.351   4.357
 4688SOL     OW14962   5.938   4.022   5.278
 4688SOL    HW114963   5.972   3.982   5.363
 4688SOL    HW214964   5.938   4.122   5.285
 4689SOL     OW14965   4.696   1.012   0.192
 4689SOL    HW114966   4.722   0.916   0.203
 4689SOL    HW214967   4.713   1.041   0.098
 4690SOL     OW14968   0.840   0.416   0.375
 4690SOL    HW114969   0.843   0.454   0.468
 4690SOL    HW214970   0.793   0.328   0.377
 4691SOL     OW14971   2.859   4.363   0.876
 4691SOL    HW114972   2.928   4.296   0.848
 4691SOL    HW214973   2.808   4.393   0.795
 4692SOL     OW14974   5.640   5.425   2.278
 4692SOL    HW114975   5.599   5.501   2.330
 4692SOL    HW214976   5.568   5.363   2.248
 4693SOL     OW14977   1.129   1.676   3.016
 4693SOL    HW114978   1.169   1.751   3.068
 4693SOL    HW214979   1.192   1.648   2.944
 4694SOL     OW14980   2.406   1.179   0.056
 4694SOL    HW114981   2.397   1.278   0.044
 4694SOL    HW214982   2.394   1.156   0.153
 4695SOL     OW14983   1.493   4.436   2.136
 4695SOL    HW114984   1.572   4.485   2.173
 4695SOL    HW214985   1.521   4.381   2.058
 4696SOL     OW14986   0.344   3.707   0.307
 4696SOL    HW114987   0.340   3.781   0.240
 4696SOL    HW214988   0.251   3.671   0.321
 4697SOL     OW14989   1.511   3.993   1.380
 4697SOL    HW114990   1.556   4.075   1.416
 4697SOL    HW214991   1.512   3.922   1.450
 4698SOL     OW14992   4.481   5.913   2.675
 4698SOL    HW114993   4.471   5.816   2.653
 4698SOL    HW214994   4.397   5.947   2.719
 4699SOL     OW14995   1.135   6.411   2.399
 4699SOL    HW114996   1.163   6.350   2.325
 4699SOL    HW214997   1.147   6.363   2.487
 4700SOL     OW14998   6.860   0.840   3.084
 4700SOL    HW114999   6.845   0.743   3.105
 4700SOL    HW215000   6.924   0.848   3.008
 4701SOL     OW15001   3.183   2.221   0.483
 4701SOL    HW115002   3.282   2.211   0.495
 4701SOL    HW215003   3.159   2.318   0.486
 4702SOL     OW15004   5.036   4.870   0.382
 4702SOL    HW115005   5.064   4.867   0.286
 4702SOL    HW215006   5.067   4.956   0.423
 4703SOL     OW15007   6.982   0.776   2.389
 4703SOL    HW115008   6.896   0.730   2.410
 4703SOL    HW215009   6.963   0.862   2.341
 4704SOL     OW15010   6.521   6.609   6.321
 4704SOL    HW115011   6.594   6.613   6.253
 4704SOL    HW215012   6.440   6.567   6.281
 4705SOL     OW15013   3.748   2.790   0.887
 4705SOL    HW115014   3.749   2.728   0.809
 4705SOL    HW215015   3.751   2.737   0.972
 4706SOL     OW15016   2.411   0.357   0.401
 4706SOL    HW115017   2.506   0.383   0.420
 4706SOL    HW215018   2.351   0.397   0.469
 4707SOL     OW15019   1.096   6.940   0.204
 4707SOL    HW115020   1.036   0.002   0.192
 4707SOL    HW215021   1.192   6.969   0.196
 4708SOL     OW15022   1.391   2.565   6.246
 4708SOL    HW115023   1.415   2.530   6.336
 4708SOL    HW215024   1.466   2.550   6.182
 4709SOL     OW15025   4.441   5.614   5.369
 4709SOL    HW115026   4.385   5.582   5.293
 4709SOL    HW215027   4.443   5.714   5.369
 4710SOL     OW15028   4.668   0.326   5.644
 4710SOL    HW115029   4.723   0.409   5.634
 4710SOL    HW215030   4.663   0.278   5.557
 4711SOL     OW15031   6.187   1.396   1.388
 4711SOL    HW115032   6.141   1.306   1.386
 4711SOL    HW215033   6.286   1.383   1.382
 4712SOL     OW15034   2.706   5.282   6.468
 4712SOL    HW115035   2.697   5.326   6.378
 4712SOL    HW215036   2.657   5.337   6.537
 4713SOL     OW15037   3.584   4.538   1.059
 4713SOL    HW115038   3.661   4.588   1.020
 4713SOL    HW215039   3.571   4.452   1.009
 4714SOL     OW15040   0.980   1.569   6.158
 4714SOL    HW115041   0.987   1.632   6.080
 4714SOL    HW215042   0.969   1.622   6.242
 4715SOL     OW15043   5.654   3.430   2.388
 4715SOL    HW115044   5.724   3.453   2.321
 4715SOL    HW215045   5.654   3.331   2.403
 4716SOL     OW15046   4.402   6.673   6.207
 4716SOL    HW115047   4.451   6.652   6.122
 4716SOL    HW215048   4.441   6.620   6.282
 4717SOL     OW15049   0.581   6.183   3.674
 4717SOL    HW115050   0.676   6.212   3.677
 4717SOL    HW215051   0.570   6.108   3.609
 4718SOL     OW15052   6.070   2.178   1.139
 4718SOL    HW115053   6.028   2.227   1.062
 4718SOL    HW215054   6.105   2.243   1.206
 4719SOL     OW15055   4.714   3.047   1.586
 4719SOL    HW115056   4.689   3.056   1.682
 4719SOL    HW215057   4.812   3.063   1.575
 4720SOL     OW15058   2.087   5.277   6.331
 4720SOL    HW115059   2.126   5.290   6.241
 4720SOL    HW215060   2.024   5.199   6.330
 4721SOL     OW15061   6.593   1.561   2.581
 4721SOL    HW115062   6.549   1.477   2.613
 4721SOL    HW215063   6.524   1.619   2.536
 4722SOL     OW15064   1.081   6.138   6.722
 4722SOL    HW115065   1.062   6.182   6.635
 4722SOL    HW215066   1.178   6.112   6.726
 4723SOL     OW15067   2.574   3.262   5.864
 4723SOL    HW115068   2.598   3.176   5.909
 4723SOL    HW215069   2.544   3.329   5.933
 4724SOL     OW15070   6.213   6.925   3.660
 4724SOL    HW115071   6.123   6.883   3.649
 4724SOL    HW215072   6.247   6.907   3.752
 4725SOL     OW15073   6.727   5.047   0.975
 4725SOL    HW115074   6.795   4.983   1.012
 4725SOL    HW215075   6.674   5.002   0.904
 4726SOL     OW15076   1.263   3.309   6.186
 4726SOL    HW115077   1.319   3.279   6.264
 4726SOL    HW215078   1.321   3.317   6.105
 4727SOL     OW15079   0.986   6.358   1.479
 4727SOL    HW115080   0.891   6.389   1.475
 4727SOL    HW215081   1.030   6.375   1.391
 4728SOL     OW15082   5.800   1.540   1.359
 4728SOL    HW115083   5.834   1.468   1.299
 4728SOL    HW215084   5.723   1.505   1.413
 4729SOL     OW15085   4.495   1.411   0.724
 4729SOL    HW115086   4.460   1.455   0.806
 4729SOL    HW215087   4.493   1.475   0.648
 4730SOL     OW15088   3.093   5.732   5.220
 4730SOL    HW115089   3.158   5.765   5.151
 4730SOL    HW215090   3.110   5.635   5.237
 4731SOL     OW15091   2.929   0.260   0.371
 4731SOL    HW115092   2.846   0.311   0.351
 4731SOL    HW215093   2.966   0.290   0.459
 4732SOL     OW15094   1.332   4.042   5.250
 4732SOL    HW115095   1.255   4.102   5.231
 4732SOL    HW215096   1.392   4.038   5.170
 4733SOL     OW15097   1.827   4.057   3.727
 4733SOL    HW115098   1.905   4.079   3.786
 4733SOL    HW215099   1.859   4.047   3.633
 4734SOL     OW15100   4.859   3.570   6.994
 4734SOL    HW115101   4.813   3.651   0.013
 4734SOL    HW215102   4.958   3.580   7.006
 4735SOL     OW15103   0.248   5.187   4.884
 4735SOL    HW115104   0.218   5.279   4.908
 4735SOL    HW215105   0.245   5.129   4.965
 4736SOL     OW15106   6.048   1.838   5.729
 4736SOL    HW115107   6.048   1.824   5.828
 4736SOL    HW215108   6.088   1.927   5.708
 4737SOL     OW15109   2.936   4.296   1.676
 4737SOL    HW115110   2.932   4.354   1.758
 4737SOL    HW215111   2.867   4.327   1.610
 4738SOL     OW15112   1.901   6.395   3.070
 4738SOL    HW115113   1.970   6.323   3.076
 4738SOL    HW215114   1.914   6.447   2.986
 4739SOL     OW15115   4.857   1.458   2.790
 4739SOL    HW115116   4.813   1.488   2.874
 4739SOL    HW215117   4.907   1.534   2.748
 4740SOL     OW15118   0.287   2.066   0.911
 4740SOL    HW115119   0.289   1.967   0.925
 4740SOL    HW215120   0.291   2.112   1.000
 4741SOL     OW15121   5.330   4.075   0.719
 4741SOL    HW115122   5.417   4.119   0.697
 4741SOL    HW215123   5.347   3.991   0.770
 4742SOL     OW15124   3.266   0.075   6.957
 4742SOL    HW115125   3.201   0.098   0.012
 4742SOL    HW215126   3.359   0.073   6.995
 4743SOL     OW15127   1.911   3.480   5.307
 4743SOL    HW115128   1.820   3.443   5.288
 4743SOL    HW215129   1.915   3.511   5.402
 4744SOL     OW15130   2.504   4.021   6.261
 4744SOL    HW115131   2.493   3.927   6.229
 4744SOL    HW215132   2.546   4.076   6.188
 4745SOL     OW15133   3.370   5.393   5.970
 4745SOL    HW115134   3.374   5.299   5.937
 4745SOL    HW215135   3.338   5.393   6.065
 4746SOL     OW15136   5.371   6.278   2.296
 4746SOL    HW115137   5.277   6.274   2.330
 4746SOL    HW215138   5.433   6.239   2.364
 4747SOL     OW15139   1.901   4.025   6.096
 4747SOL    HW115140   1.914   4.114   6.052
 4747SOL    HW215141   1.983   4.000   6.147
 4748SOL     OW15142   1.117   4.961   0.621
 4748SOL    HW115143   1.147   4.872   0.656
 4748SOL    HW215144   1.183   5.031   0.648
 4749SOL     OW15145   3.130   6.272   5.158
 4749SOL    HW115146   3.223   6.308   5.166
 4749SOL    HW215147   3.105   6.224   5.242
 4750SOL     OW15148   0.367   3.677   3.637
 4750SOL    HW115149   0.274   3.646   3.659
 4750SOL    HW215150   0.424   3.673   3.718
 4751SOL     OW15151   3.060   2.318   1.211
 4751SOL    HW115152   3.146   2.270   1.193
 4751SOL    HW215153   3.079   2.414   1.231
 4752SOL     OW15154   3.587   0.438   6.920
 4752SOL    HW115155   3.528   0.357   6.918
 4752SOL    HW215156   3.643   0.440   6.837
 4753SOL     OW15157   5.184   0.339   3.644
 4753SOL    HW115158   5.238   0.316   3.725
 4753SOL    HW215159   5.167   0.256   3.591
 4754SOL     OW15160   6.062   6.877   4.507
 4754SOL    HW115161   6.069   6.897   4.410
 4754SOL    HW215162   5.987   6.928   4.547
 4755SOL     OW15163   2.280   0.608   0.883
 4755SOL    HW115164   2.282   0.701   0.919
 4755SOL    HW215165   2.344   0.551   0.936
 4756SOL     OW15166   6.234   3.564   1.206
 4756SOL    HW115167   6.240   3.467   1.184
 4756SOL    HW215168   6.306   3.588   1.271
 4757SOL     OW15169   2.540   1.999   0.553
 4757SOL    HW115170   2.578   1.992   0.646
 4757SOL    HW215171   2.495   1.913   0.530
 4758SOL     OW15172   2.409   6.772   4.482
 4758SOL    HW115173   2.479   6.702   4.479
 4758SOL    HW215174   2.324   6.737   4.443
 4759SOL     OW15175   5.296   4.789   4.869
 4759SOL    HW115176   5.278   4.794   4.968
 4759SOL    HW215177   5.347   4.705   4.849
 4760SOL     OW15178   3.483   1.966   0.131
 4760SOL    HW115179   3.391   1.971   0.092
 4760SOL    HW215180   3.527   2.055   0.125
 4761SOL     OW15181   0.575   6.084   0.117
 4761SOL    HW115182   0.505   6.026   0.159
 4761SOL    HW215183   0.572   6.175   0.158
 4762SOL     OW15184   1.560   5.614   2.870
 4762SOL    HW115185   1.461   5.604   2.866
 4762SOL    HW215186   1.597   5.624   2.778
 4763SOL     OW15187   6.608   6.521   3.198
 4763SOL    HW115188   6.675   6.529   3.272
 4763SOL    HW215189   6.539   6.453   3.224
 4764SOL     OW15190   4.977   3.830   4.934
 4764SOL    HW115191   4.948   3.858   4.843
 4764SOL    HW215192   4.927   3.748   4.961
 4765SOL     OW15193   4.431   0.914   4.040
 4765SOL    HW115194   4.407   0.831   3.990
 4765SOL    HW215195   4.360   0.983   4.026
 4766SOL     OW15196   5.180   5.197   4.450
 4766SOL    HW115197   5.172   5.121   4.385
 4766SOL    HW215198   5.090   5.235   4.467
 4767SOL     OW15199   3.704   5.171   6.078
 4767SOL    HW115200   3.709   5.255   6.024
 4767SOL    HW215201   3.752   5.184   6.165
 4768SOL     OW15202   4.104   1.166   5.108
 4768SOL    HW115203   4.202   1.187   5.099
 4768SOL    HW215204   4.051   1.251   5.109
 4769SOL     OW15205   4.933   4.224   0.196
 4769SOL    HW115206   4.961   4.178   0.112
 4769SOL    HW215207   4.978   4.313   0.201
 4770SOL     OW15208   1.111   0.587   4.464
 4770SOL    HW115209   1.186   0.572   4.400
 4770SOL    HW215210   1.088   0.501   4.510
 4771SOL     OW15211   3.459   5.121   5.812
 4771SOL    HW115212   3.509   5.081   5.735
 4771SOL    HW215213   3.524   5.153   5.881
 4772SOL     OW15214   3.203   4.466   1.361
 4772SOL    HW115215   3.195   4.400   1.436
 4772SOL    HW215216   3.128   4.453   1.297
 4773SOL     OW15217   0.279   5.626   4.648
 4773SOL    HW115218   0.237   5.551   4.597
 4773SOL    HW215219   0.217   5.704   4.651
 4774SOL     OW15220   1.122   2.463   1.949
 4774SOL    HW115221   1.130   2.559   1.920
 4774SOL    HW215222   1.149   2.404   1.873
 4775SOL     OW15223   5.153   6.277   2.433
 4775SOL    HW115224   5.064   6.232   2.423
 4775SOL    HW215225   5.175   6.286   2.531
 4776SOL     OW15226   1.061   6.249   5.462
 4776SOL    HW115227   1.073   6.183   5.536
 4776SOL    HW215228   1.102   6.337   5.488
 4777SOL     OW15229   2.516   4.896   1.113
 4777SOL    HW115230   2.590   4.858   1.170
 4777SOL    HW215231   2.555   4.960   1.047
 4778SOL     OW15232   6.663   2.899   3.232
 4778SOL    HW115233   6.571   2.931   3.257
 4778SOL    HW215234   6.679   2.917   3.135
 4779SOL     OW15235   6.226   6.456   2.586
 4779SOL    HW115236   6.307   6.487   2.537
 4779SOL    HW215237   6.170   6.535   2.613
 4780SOL     OW15238   5.797   0.658   0.132
 4780SOL    HW115239   5.878   0.652   0.191
 4780SOL    HW215240   5.757   0.749   0.139
 4781SOL     OW15241   2.221   5.873   2.348
 4781SOL    HW115242   2.212   5.807   2.273
 4781SOL    HW215243   2.145   5.938   2.345
 4782SOL     OW15244   4.201   5.596   6.874
 4782SOL    HW115245   4.139   5.647   6.933
 4782SOL    HW215246   4.152   5.519   6.833
 4783SOL     OW15247   4.792   4.600   0.102
 4783SOL    HW115248   4.831   4.691   0.085
 4783SOL    HW215249   4.826   4.536   0.034
 4784SOL     OW15250   5.906   4.267   6.719
 4784SOL    HW115251   5.810   4.261   6.745
 4784SOL    HW215252   5.947   4.176   6.719
 4785SOL     OW15253   0.334   6.405   2.420
 4785SOL    HW115254   0.336   6.492   2.372
 4785SOL    HW215255   0.259   6.405   2.487
 4786SOL     OW15256   2.654   1.765   0.259
 4786SOL    HW115257   2.640   1.704   0.181
 4786SOL    HW215258   2.738   1.739   0.307
 4787SOL     OW15259   4.090   1.663   2.540
 4787SOL    HW115260   4.150   1.710   2.476
 4787SOL    HW215261   4.141   1.592   2.589
 4788SOL     OW15262   0.718   5.466   5.416
 4788SOL    HW115263   0.625   5.484   5.383
 4788SOL    HW215264   0.724   5.490   5.513
 4789SOL     OW15265   5.253   1.810   1.058
 4789SOL    HW115266   5.339   1.763   1.080
 4789SOL    HW215267   5.195   1.751   1.002
 4790SOL     OW15268   6.289   2.504   5.086
 4790SOL    HW115269   6.220   2.531   5.019
 4790SOL    HW215270   6.280   2.406   5.104
 4791SOL     OW15271   6.330   2.592   1.933
 4791SOL    HW115272   6.281   2.654   1.871
 4791SOL    HW215273   6.288   2.596   2.024
 4792SOL     OW15274   2.017   4.075   3.152
 4792SOL    HW115275   2.006   3.980   3.180
 4792SOL    HW215276   1.927   4.118   3.143
 4793SOL     OW15277   1.841   2.741   5.764
 4793SOL    HW115278   1.876   2.763   5.673
 4793SOL    HW215279   1.763   2.799   5.785
 4794SOL     OW15280   4.309   0.381   3.359
 4794SOL    HW115281   4.298   0.370   3.458
 4794SOL    HW215282   4.224   0.414   3.319
 4795SOL     OW15283   5.871   2.651   4.171
 4795SOL    HW115284   5.814   2.591   4.115
 4795SOL    HW215285   5.870   2.744   4.133
 4796SOL     OW15286   5.017   1.629   5.273
 4796SOL    HW115287   5.004   1.542   5.320
 4796SOL    HW215288   5.064   1.614   5.186
 4797SOL     OW15289   1.293   6.354   5.850
 4797SOL    HW115290   1.366   6.293   5.879
 4797SOL    HW215291   1.265   6.412   5.927
 4798SOL     OW15292   6.895   3.309   4.535
 4798SOL    HW115293   6.894   3.241   4.462
 4798SOL    HW215294   6.920   3.398   4.497
 4799SOL     OW15295   5.075   2.345   0.119
 4799SOL    HW115296   5.058   2.247   0.125
 4799SOL    HW215297   5.148   2.370   0.182
 4800SOL     OW15298   3.293   3.305   6.074
 4800SOL    HW115299   3.309   3.240   6.000
 4800SOL    HW215300   3.359   3.380   6.067
 4801SOL     OW15301   2.919   2.338   6.656
 4801SOL    HW115302   2.894   2.420   6.708
 4801SOL    HW215303   2.978   2.280   6.712
 4802SOL     OW15304   0.852   6.023   2.401
 4802SOL    HW115305   0.877   6.039   2.306
 4802SOL    HW215306   0.869   6.106   2.454
 4803SOL     OW15307   1.031   5.067   0.887
 4803SOL    HW115308   1.078   5.006   0.951
 4803SOL    HW215309   1.096   5.135   0.851
 4804SOL     OW15310   5.178   6.164   0.119
 4804SOL    HW115311   5.184   6.256   0.081
 4804SOL    HW215312   5.264   6.115   0.103
 4805SOL     OW15313   5.176   1.205   2.477
 4805SOL    HW115314   5.149   1.269   2.550
 4805SOL    HW215315   5.210   1.257   2.399
 4806SOL     OW15316   0.999   4.517   3.218
 4806SOL    HW115317   0.962   4.464   3.141
 4806SOL    HW215318   0.927   4.576   3.255
 4807SOL     OW15319   0.936   5.019   0.254
 4807SOL    HW115320   0.901   5.040   0.163
 4807SOL    HW215321   0.922   4.922   0.274
 4808SOL     OW15322   5.552   4.084   6.604
 4808SOL    HW115323   5.474   4.145   6.608
 4808SOL    HW215324   5.531   4.007   6.544
 4809SOL     OW15325   3.257   4.551   0.102
 4809SOL    HW115326   3.319   4.553   0.024
 4809SOL    HW215327   3.270   4.634   0.156
 4810SOL     OW15328   1.242   4.846   2.673
 4810SOL    HW115329   1.230   4.848   2.772
 4810SOL    HW215330   1.242   4.940   2.637
 4811SOL     OW15331   2.945   3.739   1.725
 4811SOL    HW115332   3.022   3.718   1.785
 4811SOL    HW215333   2.937   3.838   1.715
 4812SOL     OW15334   6.625   5.471   4.048
 4812SOL    HW115335   6.567   5.464   4.129
 4812SOL    HW215336   6.650   5.379   4.017
 4813SOL     OW15337   5.142   2.452   1.414
 4813SOL    HW115338   5.106   2.519   1.350
 4813SOL    HW215339   5.078   2.440   1.490
 4814SOL     OW15340   6.394   3.876   0.605
 4814SOL    HW115341   6.387   3.915   0.697
 4814SOL    HW215342   6.481   3.903   0.565
 4815SOL     OW15343   5.546   4.558   2.862
 4815SOL    HW115344   5.542   4.571   2.763
 4815SOL    HW215345   5.494   4.631   2.907
 4816SOL     OW15346   1.748   4.652   0.835
 4816SOL    HW115347   1.698   4.569   0.860
 4816SOL    HW215348   1.779   4.698   0.917
 4817SOL     OW15349   0.214   2.182   6.448
 4817SOL    HW115350   0.172   2.233   6.373
 4817SOL    HW215351   0.143   2.146   6.508
 4818SOL     OW15352   1.435   6.453   3.706
 4818SOL    HW115353   1.420   6.551   3.701
 4818SOL    HW215354   1.523   6.434   3.749
 4819SOL     OW15355   1.387   1.687   0.326
 4819SOL    HW115356   1.332   1.660   0.405
 4819SOL    HW215357   1.484   1.686   0.351
 4820SOL     OW15358   5.739   2.707   2.196
 4820SOL    HW115359   5.817   2.720   2.134
 4820SOL    HW215360   5.704   2.796   2.225
 4821SOL     OW15361   1.362   6.322   3.108
 4821SOL    HW115362   1.353   6.236   3.160
 4821SOL    HW215363   1.296   6.388   3.143
 4822SOL     OW15364   2.628   2.228   5.257
 4822SOL    HW115365   2.548   2.268   5.302
 4822SOL    HW215366   2.601   2.182   5.173
 4823SOL     OW15367   1.565   1.134   4.840
 4823SOL    HW115368   1.553   1.036   4.827
 4823SOL    HW215369   1.478   1.181   4.823
 4824SOL     OW15370   4.873   2.550   4.949
 4824SOL    HW115371   4.866   2.465   5.001
 4824SOL    HW215372   4.786   2.569   4.904
 4825SOL     OW15373   1.953   3.054   5.001
 4825SOL    HW115374   1.988   2.969   4.960
 4825SOL    HW215375   1.947   3.125   4.931
 4826SOL     OW15376   5.507   1.663   0.140
 4826SOL    HW115377   5.560   1.735   0.096
 4826SOL    HW215378   5.515   1.578   0.087
 4827SOL     OW15379   6.374   1.659   0.798
 4827SOL    HW115380   6.466   1.698   0.788
 4827SOL    HW215381   6.360   1.590   0.728
 4828SOL     OW15382   4.983   2.508   1.036
 4828SOL    HW115383   4.901   2.551   1.074
 4828SOL    HW215384   4.957   2.453   0.957
 4829SOL     OW15385   4.110   6.341   5.834
 4829SOL    HW115386   4.126   6.243   5.820
 4829SOL    HW215387   4.077   6.357   5.927
 4830SOL     OW15388   4.377   6.464   4.357
 4830SOL    HW115389   4.282   6.434   4.354
 4830SOL    HW215390   4.401   6.509   4.271
 4831SOL     OW15391   1.045   4.301   5.949
 4831SOL    HW115392   1.006   4.210   5.939
 4831SOL    HW215393   1.024   4.355   5.867
 4832SOL     OW15394   3.902   4.013   3.764
 4832SOL    HW115395   3.910   4.056   3.674
 4832SOL    HW215396   3.817   4.043   3.808
 4833SOL     OW15397   5.140   1.857   3.005
 4833SOL    HW115398   5.166   1.844   3.101
 4833SOL    HW215399   5.052   1.905   3.001
 4834SOL     OW15400   3.144   6.494   1.151
 4834SOL    HW115401   3.107   6.484   1.058
 4834SOL    HW215402   3.103   6.574   1.195
 4835SOL     OW15403   5.585   1.801   6.754
 4835SOL    HW115404   5.491   1.835   6.752
 4835SOL    HW215405   5.637   1.844   6.681
 4836SOL     OW15406   4.942   2.357   4.734
 4836SOL    HW115407   4.916   2.437   4.787
 4836SOL    HW215408   4.907   2.274   4.779
 4837SOL     OW15409   6.931   3.983   3.030
 4837SOL    HW115410   6.834   3.968   3.010
 4837SOL    HW215411   6.940   4.055   3.099
 4838SOL     OW15412   1.139   5.251   0.097
 4838SOL    HW115413   1.192   5.318   0.045
 4838SOL    HW215414   1.074   5.206   0.036
 4839SOL     OW15415   1.714   3.093   0.269
 4839SOL    HW115416   1.692   3.141   0.354
 4839SOL    HW215417   1.631   3.079   0.216
 4840SOL     OW15418   6.627   4.545   6.632
 4840SOL    HW115419   6.553   4.495   6.676
 4840SOL    HW215420   6.594   4.586   6.547
 4841SOL     OW15421   2.160   5.091   2.536
 4841SOL    HW115422   2.193   5.185   2.524
 4841SOL    HW215423   2.134   5.053   2.447
 4842SOL     OW15424   3.774   5.254   2.232
 4842SOL    HW115425   3.753   5.230   2.137
 4842SOL    HW215426   3.799   5.351   2.237
 4843SOL     OW15427   6.243   3.085   1.524
 4843SOL    HW115428   6.198   3.132   1.600
 4843SOL    HW215429   6.282   2.999   1.555
 4844SOL     OW15430   0.730   3.077   6.794
 4844SOL    HW115431   0.781   3.163   6.803
 4844SOL    HW215432   0.795   3.001   6.788
 4845SOL     OW15433   5.044   5.250   6.262
 4845SOL    HW115434   5.021   5.154   6.244
 4845SOL    HW215435   5.072   5.260   6.357
 4846SOL     OW15436   6.531   2.339   3.523
 4846SOL    HW115437   6.558   2.328   3.427
 4846SOL    HW215438   6.609   2.373   3.575
 4847SOL     OW15439   2.394   0.456   6.688
 4847SOL    HW115440   2.347   0.537   6.655
 4847SOL    HW215441   2.367   0.377   6.632
 4848SOL     OW15442   1.812   1.243   4.725
 4848SOL    HW115443   1.718   1.223   4.752
 4848SOL    HW215444   1.874   1.180   4.772
 4849SOL     OW15445   0.871   5.969   6.782
 4849SOL    HW115446   0.826   5.972   6.693
 4849SOL    HW215447   0.934   6.046   6.790
 4850SOL     OW15448   4.182   1.134   1.672
 4850SOL    HW115449   4.160   1.037   1.684
 4850SOL    HW215450   4.280   1.148   1.685
 4851SOL     OW15451   3.404   6.685   5.699
 4851SOL    HW115452   3.395   6.586   5.710
 4851SOL    HW215453   3.433   6.726   5.785
 4852SOL     OW15454   1.853   5.790   5.021
 4852SOL    HW115455   1.781   5.740   4.973
 4852SOL    HW215456   1.904   5.727   5.080
 4853SOL     OW15457   2.824   1.305   3.585
 4853SOL    HW115458   2.886   1.378   3.611
 4853SOL    HW215459   2.848   1.221   3.633
 4854SOL     OW15460   4.346   6.525   2.008
 4854SOL    HW115461   4.259   6.491   2.043
 4854SOL    HW215462   4.345   6.625   2.009
 4855SOL     OW15463   5.576   2.640   4.161
 4855SOL    HW115464   5.557   2.685   4.248
 4855SOL    HW215465   5.555   2.542   4.169
 4856SOL     OW15466   1.704   3.393   2.877
 4856SOL    HW115467   1.757   3.476   2.896
 4856SOL    HW215468   1.615   3.399   2.922
 4857SOL     OW15469   2.852   2.123   3.660
 4857SOL    HW115470   2.779   2.189   3.673
 4857SOL    HW215471   2.900   2.142   3.574
 4858SOL     OW15472   0.092   0.222   4.831
 4858SOL    HW115473   0.158   0.273   4.776
 4858SOL    HW215474   0.000   0.255   4.811
 4859SOL     OW15475   0.809   5.517   3.196
 4859SOL    HW115476   0.825   5.553   3.288
 4859SOL    HW215477   0.742   5.574   3.149
 4860SOL     OW15478   4.635   4.890   0.657
 4860SOL    HW115479   4.650   4.793   0.679
 4860SOL    HW215480   4.574   4.897   0.578
 4861SOL     OW15481   6.191   5.213   6.625
 4861SOL    HW115482   6.163   5.309   6.620
 4861SOL    HW215483   6.112   5.156   6.650
 4862SOL     OW15484   1.881   4.427   4.681
 4862SOL    HW115485   1.976   4.405   4.660
 4862SOL    HW215486   1.860   4.403   4.776
 4863SOL     OW15487   5.199   3.741   2.142
 4863SOL    HW115488   5.153   3.718   2.227
 4863SOL    HW215489   5.182   3.668   2.075
 4864SOL     OW15490   3.490   1.815   2.550
 4864SOL    HW115491   3.397   1.851   2.544
 4864SOL    HW215492   3.486   1.718   2.575
 4865SOL     OW15493   2.224   6.488   4.474
 4865SOL    HW115494   2.322   6.482   4.492
 4865SOL    HW215495   2.180   6.403   4.502
 4866SOL     OW15496   6.406   4.388   1.362
 4866SOL    HW115497   6.320   4.438   1.373
 4866SOL    HW215498   6.415   4.358   1.267
 4867SOL     OW15499   4.800   5.619   2.060
 4867SOL    HW115500   4.856   5.582   1.986
 4867SOL    HW215501   4.809   5.719   2.062
 4868SOL     OW15502   0.273   4.860   1.934
 4868SOL    HW115503   0.234   4.803   1.862
 4868SOL    HW215504   0.355   4.905   1.899
 4869SOL     OW15505   0.159   2.117   2.096
 4869SOL    HW115506   0.101   2.148   2.020
 4869SOL    HW215507   0.252   2.103   2.062
 4870SOL     OW15508   6.775   5.917   1.908
 4870SOL    HW115509   6.810   5.838   1.959
 4870SOL    HW215510   6.849   5.954   1.851
 4871SOL     OW15511   0.677   1.661   4.686
 4871SOL    HW115512   0.771   1.694   4.699
 4871SOL    HW215513   0.641   1.697   4.600
 4872SOL     OW15514   0.115   5.787   4.432
 4872SOL    HW115515   0.107   5.781   4.532
 4872SOL    HW215516   0.030   5.822   4.393
 4873SOL     OW15517   6.765   4.763   3.978
 4873SOL    HW115518   6.740   4.765   4.075
 4873SOL    HW215519   6.852   4.811   3.965
 4874SOL     OW15520   5.844   3.462   3.258
 4874SOL    HW115521   5.930   3.430   3.298
 4874SOL    HW215522   5.818   3.401   3.182
 4875SOL     OW15523   5.405   3.178   1.546
 4875SOL    HW115524   5.461   3.174   1.464
 4875SOL    HW215525   5.463   3.177   1.627
 4876SOL     OW15526   5.567   0.985   4.508
 4876SOL    HW115527   5.521   0.956   4.424
 4876SOL    HW215528   5.547   1.082   4.525
 4877SOL     OW15529   0.138   1.696   0.230
 4877SOL    HW115530   0.071   1.646   0.174
 4877SOL    HW215531   0.089   1.752   0.297
 4878SOL     OW15532   6.133   0.950   3.181
 4878SOL    HW115533   6.098   1.018   3.118
 4878SOL    HW215534   6.057   0.909   3.232
 4879SOL     OW15535   4.816   5.382   3.342
 4879SOL    HW115536   4.797   5.333   3.256
 4879SOL    HW215537   4.732   5.424   3.375
 4880SOL     OW15538   6.159   3.373   6.610
 4880SOL    HW115539   6.257   3.394   6.608
 4880SOL    HW215540   6.112   3.440   6.667
 4881SOL     OW15541   2.096   6.771   6.794
 4881SOL    HW115542   2.114   6.688   6.847
 4881SOL    HW215543   2.127   6.758   6.700
 4882SOL     OW15544   5.595   1.479   4.079
 4882SOL    HW115545   5.674   1.511   4.132
 4882SOL    HW215546   5.625   1.453   3.987
 4883SOL     OW15547   4.879   5.093   2.256
 4883SOL    HW115548   4.920   5.091   2.347
 4883SOL    HW215549   4.779   5.088   2.264
 4884SOL     OW15550   3.996   0.254   0.921
 4884SOL    HW115551   3.976   0.345   0.883
 4884SOL    HW215552   4.087   0.255   0.962
 4885SOL     OW15553   2.704   5.842   1.995
 4885SOL    HW115554   2.715   5.751   2.036
 4885SOL    HW215555   2.644   5.835   1.916
 4886SOL     OW15556   6.794   5.859   6.566
 4886SOL    HW115557   6.739   5.777   6.584
 4886SOL    HW215558   6.796   5.916   6.649
 4887SOL     OW15559   6.957   0.327   3.510
 4887SOL    HW115560   0.018   0.388   3.502
 4887SOL    HW215561   6.925   0.327   3.604
 4888SOL     OW15562   2.133   6.718   4.356
 4888SOL    HW115563   2.150   6.623   4.385
 4888SOL    HW215564   2.043   6.747   4.387
 4889SOL     OW15565   6.264   0.788   6.626
 4889SOL    HW115566   6.269   0.817   6.722
 4889SOL    HW215567   6.170   0.763   6.604
 4890SOL     OW15568   0.278   1.975   5.734
 4890SOL    HW115569   0.216   2.051   5.711
 4890SOL    HW215570   0.279   1.910   5.658
 4891SOL     OW15571   1.798   5.681   0.594
 4891SOL    HW115572   1.816   5.626   0.513
 4891SOL    HW215573   1.854   5.649   0.670
 4892SOL     OW15574   2.244   6.189   1.833
 4892SOL    HW115575   2.199   6.226   1.914
 4892SOL    HW215576   2.328   6.240   1.815
 4893SOL     OW15577   7.004   4.071   0.773
 4893SOL    HW115578   6.946   4.079   0.854
 4893SOL    HW215579   0.063   4.135   0.781
 4894SOL     OW15580   2.383   1.992   2.271
 4894SOL    HW115581   2.378   2.071   2.210
 4894SOL    HW215582   2.448   2.012   2.345
 4895SOL     OW15583   0.765   5.018   2.649
 4895SOL    HW115584   0.769   4.955   2.572
 4895SOL    HW215585   0.849   5.073   2.653
 4896SOL     OW15586   2.334   4.949   1.835
 4896SOL    HW115587   2.430   4.971   1.820
 4896SOL    HW215588   2.277   5.023   1.798
 4897SOL     OW15589   2.537   4.940   5.488
 4897SOL    HW115590   2.574   4.883   5.561
 4897SOL    HW215591   2.466   5.000   5.526
 4898SOL     OW15592   4.355   0.892   4.374
 4898SOL    HW115593   4.428   0.858   4.434
 4898SOL    HW215594   4.382   0.880   4.278
 4899SOL     OW15595   6.148   5.090   3.339
 4899SOL    HW115596   6.188   5.000   3.319
 4899SOL    HW215597   6.050   5.078   3.358
 4900SOL     OW15598   1.712   5.548   4.901
 4900SOL    HW115599   1.732   5.528   4.805
 4900SOL    HW215600   1.734   5.468   4.958
 4901SOL     OW15601   2.788   6.548   5.483
 4901SOL    HW115602   2.767   6.573   5.577
 4901SOL    HW215603   2.861   6.607   5.448
 4902SOL     OW15604   2.607   2.496   4.932
 4902SOL    HW115605   2.674   2.511   5.005
 4902SOL    HW215606   2.652   2.455   4.853
 4903SOL     OW15607   2.810   6.098   6.311
 4903SOL    HW115608   2.827   5.999   6.312
 4903SOL    HW215609   2.821   6.133   6.218
 4904SOL     OW15610   1.180   0.308   4.038
 4904SOL    HW115611   1.132   0.352   4.113
 4904SOL    HW215612   1.183   0.209   4.053
 4905SOL     OW15613   4.013   1.049   2.090
 4905SOL    HW115614   3.999   1.146   2.069
 4905SOL    HW215615   3.980   0.993   2.014
 4906SOL     OW15616   4.340   1.524   6.686
 4906SOL    HW115617   4.430   1.485   6.706
 4906SOL    HW215618   4.314   1.502   6.592
 4907SOL     OW15619   4.987   5.950   1.214
 4907SOL    HW115620   4.914   5.986   1.155
 4907SOL    HW215621   4.947   5.908   1.295
 4908SOL     OW15622   4.995   4.966   6.255
 4908SOL    HW115623   4.985   4.914   6.340
 4908SOL    HW215624   4.935   4.926   6.185
 4909SOL     OW15625   6.800   0.271   5.036
 4909SOL    HW115626   6.700   0.264   5.028
 4909SOL    HW215627   6.838   0.182   5.060
 4910SOL     OW15628   5.423   6.325   4.326
 4910SOL    HW115629   5.374   6.409   4.350
 4910SOL    HW215630   5.519   6.334   4.354
 4911SOL     OW15631   6.740   2.777   5.556
 4911SOL    HW115632   6.684   2.846   5.601
 4911SOL    HW215633   6.715   2.771   5.459
 4912SOL     OW15634   5.347   2.693   1.792
 4912SOL    HW115635   5.327   2.608   1.745
 4912SOL    HW215636   5.396   2.755   1.730
 4913SOL     OW15637   4.103   3.394   3.692
 4913SOL    HW115638   4.142   3.445   3.769
 4913SOL    HW215639   4.020   3.441   3.660
 4914SOL     OW15640   3.168   6.954   5.032
 4914SOL    HW115641   3.261   6.973   5.003
 4914SOL    HW215642   3.169   6.883   5.102
 4915SOL     OW15643   4.515   0.636   4.384
 4915SOL    HW115644   4.424   0.595   4.377
 4915SOL    HW215645   4.552   0.620   4.476
 4916SOL     OW15646   1.973   1.842   3.969
 4916SOL    HW115647   1.972   1.891   3.882
 4916SOL    HW215648   1.920   1.757   3.960
 4917SOL     OW15649   1.433   4.787   0.606
 4917SOL    HW115650   1.414   4.689   0.599
 4917SOL    HW215651   1.531   4.802   0.611
 4918SOL     OW15652   2.811   6.622   2.512
 4918SOL    HW115653   2.868   6.556   2.561
 4918SOL    HW215654   2.854   6.646   2.425
 4919SOL     OW15655   1.905   1.498   0.254
 4919SOL    HW115656   1.988   1.537   0.292
 4919SOL    HW215657   1.898   1.522   0.157
 4920SOL     OW15658   4.837   0.434   6.120
 4920SOL    HW115659   4.800   0.391   6.037
 4920SOL    HW215660   4.840   0.533   6.106
 4921SOL     OW15661   1.865   4.135   0.866
 4921SOL    HW115662   1.900   4.192   0.792
 4921SOL    HW215663   1.894   4.172   0.954
 4922SOL     OW15664   1.977   2.920   4.704
 4922SOL    HW115665   2.063   2.969   4.708
 4922SOL    HW215666   1.938   2.927   4.612
 4923SOL     OW15667   3.368   1.393   0.506
 4923SOL    HW115668   3.393   1.414   0.600
 4923SOL    HW215669   3.271   1.371   0.501
 4924SOL     OW15670   1.882   2.387   6.072
 4924SOL    HW115671   1.960   2.326   6.085
 4924SOL    HW215672   1.900   2.448   5.994
 4925SOL     OW15673   5.727   6.694   1.541
 4925SOL    HW115674   5.686   6.744   1.617
 4925SOL    HW215675   5.726   6.751   1.459
 4926SOL     OW15676   5.287   2.684   0.818
 4926SOL    HW115677   5.377   2.651   0.847
 4926SOL    HW215678   5.290   2.782   0.801
 4927SOL     OW15679   3.813   3.916   4.539
 4927SOL    HW115680   3.908   3.924   4.569
 4927SOL    HW215681   3.754   3.970   4.600
 4928SOL     OW15682   0.193   0.713   6.473
 4928SOL    HW115683   0.244   0.793   6.504
 4928SOL    HW215684   0.143   0.735   6.389
 4929SOL     OW15685   1.546   4.299   4.757
 4929SOL    HW115686   1.508   4.367   4.820
 4929SOL    HW215687   1.646   4.305   4.760
 4930SOL     OW15688   5.209   1.136   1.795
 4930SOL    HW115689   5.130   1.075   1.807
 4930SOL    HW215690   5.291   1.092   1.831
 4931SOL     OW15691   6.610   6.877   1.519
 4931SOL    HW115692   6.541   6.854   1.450
 4931SOL    HW215693   6.700   6.884   1.476
 4932SOL     OW15694   2.291   2.768   2.053
 4932SOL    HW115695   2.323   2.778   1.959
 4932SOL    HW215696   2.333   2.839   2.110
 4933SOL     OW15697   2.664   6.600   3.978
 4933SOL    HW115698   2.607   6.546   3.916
 4933SOL    HW215699   2.714   6.669   3.925
 4934SOL     OW15700   1.276   4.609   3.265
 4934SOL    HW115701   1.180   4.582   3.256
 4934SOL    HW215702   1.323   4.546   3.327
 4935SOL     OW15703   1.183   1.381   6.654
 4935SOL    HW115704   1.258   1.350   6.713
 4935SOL    HW215705   1.099   1.388   6.707
 4936SOL     OW15706   2.132   5.188   1.844
 4936SOL    HW115707   2.047   5.220   1.801
 4936SOL    HW215708   2.119   5.185   1.943
 4937SOL     OW15709   6.799   3.199   6.195
 4937SOL    HW115710   6.762   3.142   6.122
 4937SOL    HW215711   6.850   3.275   6.155
 4938SOL     OW15712   2.368   5.915   0.218
 4938SOL    HW115713   2.463   5.945   0.215
 4938SOL    HW215714   2.307   5.994   0.211
 4939SOL     OW15715   0.853   1.545   3.977
 4939SOL    HW115716   0.821   1.460   4.019
 4939SOL    HW215717   0.926   1.585   4.033
 4940SOL     OW15718   0.725   1.501   5.466
 4940SOL    HW115719   0.772   1.442   5.531
 4940SOL    HW215720   0.777   1.585   5.453
 4941SOL     OW15721   4.348   2.443   5.507
 4941SOL    HW115722   4.428   2.491   5.543
 4941SOL    HW215723   4.301   2.502   5.442
 4942SOL     OW15724   5.583   2.930   5.030
 4942SOL    HW115725   5.562   2.836   5.004
 4942SOL    HW215726   5.681   2.947   5.017
 4943SOL     OW15727   5.299   4.146   5.855
 4943SOL    HW115728   5.392   4.180   5.847
 4943SOL    HW215729   5.295   4.050   5.828
 4944SOL     OW15730   2.619   4.113   1.562
 4944SOL    HW115731   2.644   4.196   1.612
 4944SOL    HW215732   2.582   4.137   1.472
 4945SOL     OW15733   1.112   6.727   4.923
 4945SOL    HW115734   1.185   6.794   4.905
 4945SOL    HW215735   1.128   6.644   4.869
 4946SOL     OW15736   0.926   5.431   6.738
 4946SOL    HW115737   0.873   5.376   6.803
 4946SOL    HW215738   0.877   5.517   6.721
 4947SOL     OW15739   2.182   0.198   1.012
 4947SOL    HW115740   2.093   0.181   0.969
 4947SOL    HW215741   2.177   0.179   1.109
 4948SOL     OW15742   2.351   2.287   2.261
 4948SOL    HW115743   2.270   2.333   2.226
 4948SOL    HW215744   2.423   2.355   2.278
 4949SOL     OW15745   6.547   4.549   5.345
 4949SOL    HW115746   6.603   4.576   5.424
 4949SOL    HW215747   6.490   4.470   5.370
 4950SOL     OW15748   2.158   4.724   4.823
 4950SOL    HW115749   2.232   4.742   4.888
 4950SOL    HW215750   2.196   4.714   4.731
 4951SOL     OW15751   5.954   1.319   4.001
 4951SOL    HW115752   5.985   1.231   3.964
 4951SOL    HW215753   5.867   1.343   3.958
 4952SOL     OW15754   6.991   0.187   6.129
 4952SOL    HW115755   7.012   0.255   6.200
 4952SOL    HW215756   6.963   0.101   6.173
 4953SOL     OW15757   1.583   0.055   3.464
 4953SOL    HW115758   1.507   0.118   3.477
 4953SOL    HW215759   1.560   7.006   3.392
 4954SOL     OW15760   2.716   3.177   6.869
 4954SOL    HW115761   2.713   3.213   6.775
 4954SOL    HW215762   2.732   3.253   6.932
 4955SOL     OW15763   2.934   6.609   6.924
 4955SOL    HW115764   2.895   6.673   6.991
 4955SOL    HW215765   3.027   6.585   6.953
 4956SOL     OW15766   2.579   0.176   5.779
 4956SOL    HW115767   2.524   0.112   5.832
 4956SOL    HW215768   2.604   0.134   5.692
 4957SOL     OW15769   5.889   2.252   1.956
 4957SOL    HW115770   5.930   2.340   1.932
 4957SOL    HW215771   5.851   2.258   2.049
 4958SOL     OW15772   0.765   5.138   5.785
 4958SOL    HW115773   0.762   5.166   5.689
 4958SOL    HW215774   0.772   5.219   5.843
 4959SOL     OW15775   6.141   1.972   0.565
 4959SOL    HW115776   6.128   1.879   0.600
 4959SOL    HW215777   6.107   2.037   0.632
 4960SOL     OW15778   3.883   4.839   3.606
 4960SOL    HW115779   3.907   4.785   3.525
 4960SOL    HW215780   3.797   4.887   3.590
 4961SOL     OW15781   3.865   0.679   5.645
 4961SOL    HW115782   3.873   0.623   5.727
 4961SOL    HW215783   3.945   0.665   5.587
 4962SOL     OW15784   6.085   3.035   0.644
 4962SOL    HW115785   6.107   3.125   0.681
 4962SOL    HW215786   6.135   2.965   0.695
 4963SOL     OW15787   0.575   6.012   0.647
 4963SOL    HW115788   0.523   6.022   0.562
 4963SOL    HW215789   0.658   6.068   0.642
 4964SOL     OW15790   2.294   0.098   4.873
 4964SOL    HW115791   2.338   0.038   4.806
 4964SOL    HW215792   2.218   0.050   4.917
 4965SOL     OW15793   0.825   0.298   2.067
 4965SOL    HW115794   0.813   0.242   2.148
 4965SOL    HW215795   0.764   0.377   2.073
 4966SOL     OW15796   3.018   6.512   5.038
 4966SOL    HW115797   3.024   6.421   5.080
 4966SOL    HW215798   2.938   6.516   4.978
 4967SOL     OW15799   3.916   4.884   5.432
 4967SOL    HW115800   4.001   4.831   5.424
 4967SOL    HW215801   3.937   4.976   5.466
 4968SOL     OW15802   0.286   1.294   3.452
 4968SOL    HW115803   0.296   1.367   3.385
 4968SOL    HW215804   0.269   1.207   3.406
 4969SOL     OW15805   1.758   5.663   3.048
 4969SOL    HW115806   1.683   5.640   2.986
 4969SOL    HW215807   1.839   5.688   2.994
 4970SOL     OW15808   2.348   1.953   1.352
 4970SOL    HW115809   2.354   2.052   1.343
 4970SOL    HW215810   2.397   1.924   1.434
 4971SOL     OW15811   5.691   5.496   3.097
 4971SOL    HW115812   5.781   5.461   3.075
 4971SOL    HW215813   5.663   5.463   3.187
 4972SOL     OW15814   0.757   3.251   1.201
 4972SOL    HW115815   0.692   3.261   1.276
 4972SOL    HW215816   0.824   3.325   1.205
 4973SOL     OW15817   1.230   6.697   1.785
 4973SOL    HW115818   1.233   6.750   1.870
 4973SOL    HW215819   1.180   6.612   1.801
 4974SOL     OW15820   0.104   4.591   1.080
 4974SOL    HW115821   0.017   4.546   1.103
 4974SOL    HW215822   0.119   4.667   1.143
 4975SOL     OW15823   5.898   4.116   6.037
 4975SOL    HW115824   5.932   4.063   6.115
 4975SOL    HW215825   5.905   4.061   5.954
 4976SOL     OW15826   2.301   1.863   4.089
 4976SOL    HW115827   2.305   1.881   4.188
 4976SOL    HW215828   2.351   1.779   4.069
 4977SOL     OW15829   4.557   4.658   0.013
 4977SOL    HW115830   4.517   4.575   6.992
 4977SOL    HW215831   4.647   4.638   0.052
 4978SOL     OW15832   6.177   4.611   5.260
 4978SOL    HW115833   6.097   4.664   5.289
 4978SOL    HW215834   6.254   4.673   5.245
 4979SOL     OW15835   6.719   6.893   5.551
 4979SOL    HW115836   6.789   6.927   5.614
 4979SOL    HW215837   6.637   6.951   5.557
 4980SOL     OW15838   5.635   5.750   3.047
 4980SOL    HW115839   5.725   5.793   3.043
 4980SOL    HW215840   5.645   5.653   3.071
 4981SOL     OW15841   4.020   5.226   0.721
 4981SOL    HW115842   4.088   5.298   0.712
 4981SOL    HW215843   4.062   5.137   0.699
 4982SOL     OW15844   3.180   1.140   5.779
 4982SOL    HW115845   3.125   1.224   5.782
 4982SOL    HW215846   3.250   1.143   5.850
 4983SOL     OW15847   6.652   3.406   5.902
 4983SOL    HW115848   6.685   3.427   5.810
 4983SOL    HW215849   6.717   3.345   5.948
 4984SOL     OW15850   5.622   4.332   3.422
 4984SOL    HW115851   5.678   4.388   3.362
 4984SOL    HW215852   5.646   4.352   3.518
 4985SOL     OW15853   5.634   0.104   2.923
 4985SOL    HW115854   5.670   0.079   2.833
 4985SOL    HW215855   5.555   0.164   2.911
 4986SOL     OW15856   0.284   4.703   1.456
 4986SOL    HW115857   0.189   4.727   1.438
 4986SOL    HW215858   0.333   4.692   1.370
 4987SOL     OW15859   0.641   6.958   2.548
 4987SOL    HW115860   0.628   6.862   2.571
 4987SOL    HW215861   0.737   6.982   2.560
 4988SOL     OW15862   4.929   0.674   2.771
 4988SOL    HW115863   4.858   0.637   2.831
 4988SOL    HW215864   4.918   0.773   2.764
 4989SOL     OW15865   5.328   6.653   1.696
 4989SOL    HW115866   5.400   6.710   1.735
 4989SOL    HW215867   5.370   6.577   1.645
 4990SOL     OW15868   2.766   2.094   5.980
 4990SOL    HW115869   2.791   2.182   5.941
 4990SOL    HW215870   2.704   2.047   5.918
 4991SOL     OW15871   6.495   5.689   3.570
 4991SOL    HW115872   6.544   5.659   3.652
 4991SOL    HW215873   6.495   5.615   3.502
 4992SOL     OW15874   4.981   0.954   1.853
 4992SOL    HW115875   4.900   1.004   1.885
 4992SOL    HW215876   4.957   0.859   1.836
 4993SOL     OW15877   3.595   5.650   4.782
 4993SOL    HW115878   3.622   5.696   4.698
 4993SOL    HW215879   3.495   5.645   4.786
 4994SOL     OW15880   1.992   0.298   4.439
 4994SOL    HW115881   1.916   0.249   4.396
 4994SOL    HW215882   1.974   0.307   4.537
 4995SOL     OW15883   0.594   1.852   5.272
 4995SOL    HW115884   0.681   1.900   5.280
 4995SOL    HW215885   0.570   1.810   5.359
 4996SOL     OW15886   0.279   0.757   3.086
 4996SOL    HW115887   0.343   0.708   3.145
 4996SOL    HW215888   0.252   0.698   3.009
 4997SOL     OW15889   4.654   2.664   2.278
 4997SOL    HW115890   4.644   2.686   2.375
 4997SOL    HW215891   4.578   2.607   2.249
 4998SOL     OW15892   2.135   3.519   5.119
 4998SOL    HW115893   2.074   3.483   5.189
 4998SOL    HW215894   2.117   3.617   5.106
 4999SOL     OW15895   6.828   3.914   6.223
 4999SOL    HW115896   6.746   3.878   6.267
 4999SOL    HW215897   6.826   3.893   6.125
 5000SOL     OW15898   3.978   6.703   3.348
 5000SOL    HW115899   3.957   6.795   3.313
 5000SOL    HW215900   4.074   6.698   3.374
 5001SOL     OW15901   0.399   4.114   2.114
 5001SOL    HW115902   0.383   4.079   2.021
 5001SOL    HW215903   0.315   4.104   2.168
 5002SOL     OW15904   0.600   3.236   1.845
 5002SOL    HW115905   0.539   3.302   1.889
 5002SOL    HW215906   0.546   3.166   1.799
 5003SOL     OW15907   2.933   5.475   2.492
 5003SOL    HW115908   2.992   5.433   2.561
 5003SOL    HW215909   2.840   5.440   2.502
 5004SOL     OW15910   2.791   5.071   5.457
 5004SOL    HW115911   2.697   5.043   5.439
 5004SOL    HW215912   2.790   5.153   5.516
 5005SOL     OW15913   3.230   3.063   0.963
 5005SOL    HW115914   3.265   3.156   0.964
 5005SOL    HW215915   3.222   3.030   1.057
 5006SOL     OW15916   4.835   0.384   0.944
 5006SOL    HW115917   4.787   0.472   0.936
 5006SOL    HW215918   4.770   0.313   0.969
 5007SOL     OW15919   0.870   6.352   0.881
 5007SOL    HW115920   0.892   6.317   0.790
 5007SOL    HW215921   0.892   6.450   0.886
 5008SOL     OW15922   5.501   6.219   1.657
 5008SOL    HW115923   5.566   6.143   1.648
 5008SOL    HW215924   5.420   6.201   1.601
 5009SOL     OW15925   0.472   1.421   0.803
 5009SOL    HW115926   0.498   1.325   0.798
 5009SOL    HW215927   0.397   1.432   0.868
 5010SOL     OW15928   4.023   3.163   2.355
 5010SOL    HW115929   4.084   3.211   2.418
 5010SOL    HW215930   3.935   3.212   2.351
 5011SOL     OW15931   1.338   4.151   1.911
 5011SOL    HW115932   1.248   4.195   1.915
 5011SOL    HW215933   1.343   4.080   1.981
 5012SOL     OW15934   5.548   4.233   5.807
 5012SOL    HW115935   5.621   4.297   5.835
 5012SOL    HW215936   5.589   4.152   5.766
 5013SOL     OW15937   5.210   1.107   0.426
 5013SOL    HW115938   5.229   1.025   0.479
 5013SOL    HW215939   5.113   1.130   0.432
 5014SOL     OW15940   6.358   4.523   0.939
 5014SOL    HW115941   6.280   4.486   0.888
 5014SOL    HW215942   6.336   4.616   0.970
 5015SOL     OW15943   4.813   1.744   4.652
 5015SOL    HW115944   4.778   1.675   4.589
 5015SOL    HW215945   4.815   1.707   4.745
 5016SOL     OW15946   1.508   2.815   6.816
 5016SOL    HW115947   1.544   2.816   6.723
 5016SOL    HW215948   1.409   2.802   6.813
 5017SOL     OW15949   2.478   2.795   0.831
 5017SOL    HW115950   2.538   2.843   0.766
 5017SOL    HW215951   2.520   2.796   0.922
 5018SOL     OW15952   1.296   3.553   2.291
 5018SOL    HW115953   1.360   3.628   2.311
 5018SOL    HW215954   1.210   3.591   2.256
 5019SOL     OW15955   1.129   4.876   5.697
 5019SOL    HW115956   1.100   4.866   5.602
 5019SOL    HW215957   1.133   4.786   5.740
 5020SOL     OW15958   5.238   0.142   6.619
 5020SOL    HW115959   5.220   0.130   6.716
 5020SOL    HW215960   5.302   0.217   6.605
 5021SOL     OW15961   0.676   1.316   0.395
 5021SOL    HW115962   0.622   1.237   0.424
 5021SOL    HW215963   0.685   1.380   0.472
 5022SOL     OW15964   1.438   1.304   0.416
 5022SOL    HW115965   1.344   1.304   0.452
 5022SOL    HW215966   1.435   1.298   0.316
 5023SOL     OW15967   0.081   3.296   1.426
 5023SOL    HW115968   0.076   3.372   1.362
 5023SOL    HW215969   0.028   3.317   1.508
 5024SOL     OW15970   6.499   5.534   1.917
 5024SOL    HW115971   6.527   5.484   1.835
 5024SOL    HW215972   6.578   5.547   1.977
 5025SOL     OW15973   3.570   1.771   2.145
 5025SOL    HW115974   3.523   1.725   2.069
 5025SOL    HW215975   3.528   1.860   2.162
 5026SOL     OW15976   6.002   6.017   5.480
 5026SOL    HW115977   6.098   6.032   5.456
 5026SOL    HW215978   5.977   6.076   5.557
 5027SOL     OW15979   0.323   6.382   1.497
 5027SOL    HW115980   0.257   6.429   1.439
 5027SOL    HW215981   0.318   6.419   1.590
 5028SOL     OW15982   0.190   2.197   2.343
 5028SOL    HW115983   0.204   2.152   2.255
 5028SOL    HW215984   0.152   2.288   2.329
 5029SOL     OW15985   6.520   1.900   2.135
 5029SOL    HW115986   6.610   1.917   2.174
 5029SOL    HW215987   6.468   1.838   2.194
 5030SOL     OW15988   0.032   6.651   0.203
 5030SOL    HW115989   0.117   6.703   0.212
 5030SOL    HW215990   7.010   6.665   0.113
 5031SOL     OW15991   6.123   0.316   5.570
 5031SOL    HW115992   6.181   0.392   5.540
 5031SOL    HW215993   6.129   0.241   5.504
 5032SOL     OW15994   1.907   1.894   0.325
 5032SOL    HW115995   1.830   1.836   0.299
 5032SOL    HW215996   1.906   1.910   0.424
 5033SOL     OW15997   2.080   0.045   5.557
 5033SOL    HW115998   2.085   7.009   5.641
 5033SOL    HW215999   2.173   0.062   5.523
 5034SOL     OW16000   5.732   0.479   3.384
 5034SOL    HW116001   5.697   0.508   3.295
 5034SOL    HW216002   5.662   0.424   3.430
 5035SOL     OW16003   0.941   3.690   0.106
 5035SOL    HW116004   0.904   3.760   0.167
 5035SOL    HW216005   1.020   3.727   0.058
 5036SOL     OW16006   0.737   4.751   6.467
 5036SOL    HW116007   0.835   4.743   6.481
 5036SOL    HW216008   0.709   4.695   6.390
 5037SOL     OW16009   5.473   4.158   2.189
 5037SOL    HW116010   5.449   4.077   2.135
 5037SOL    HW216011   5.561   4.143   2.235
 5038SOL     OW16012   3.704   3.806   6.361
 5038SOL    HW116013   3.693   3.753   6.446
 5038SOL    HW216014   3.715   3.903   6.383
 5039SOL     OW16015   3.046   4.354   5.580
 5039SOL    HW116016   2.958   4.311   5.603
 5039SOL    HW216017   3.121   4.298   5.616
 5040SOL     OW16018   1.652   6.151   5.555
 5040SOL    HW116019   1.665   6.153   5.456
 5040SOL    HW216020   1.688   6.065   5.592
 5041SOL     OW16021   2.475   1.705   2.766
 5041SOL    HW116022   2.428   1.697   2.678
 5041SOL    HW216023   2.442   1.785   2.815
 5042SOL     OW16024   6.712   2.846   0.214
 5042SOL    HW116025   6.778   2.803   0.276
 5042SOL    HW216026   6.621   2.844   0.257
 5043SOL     OW16027   3.108   6.955   6.171
 5043SOL    HW116028   3.196   6.909   6.162
 5043SOL    HW216029   3.039   6.889   6.202
 5044SOL     OW16030   0.419   6.778   6.937
 5044SOL    HW116031   0.388   6.694   6.892
 5044SOL    HW216032   0.394   6.774   0.016
 5045SOL     OW16033   4.933   0.508   6.668
 5045SOL    HW116034   4.984   0.525   6.753
 5045SOL    HW216035   4.976   0.434   6.617
 5046SOL     OW16036   3.127   4.059   2.890
 5046SOL    HW116037   3.195   4.120   2.929
 5046SOL    HW216038   3.132   4.062   2.790
 5047SOL     OW16039   0.653   4.327   2.067
 5047SOL    HW116040   0.697   4.274   1.995
 5047SOL    HW216041   0.569   4.281   2.096
 5048SOL     OW16042   0.827   1.561   2.147
 5048SOL    HW116043   0.792   1.542   2.239
 5048SOL    HW216044   0.906   1.502   2.129
 5049SOL     OW16045   5.705   2.446   5.886
 5049SOL    HW116046   5.739   2.457   5.793
 5049SOL    HW216047   5.664   2.356   5.897
 5050SOL     OW16048   1.487   1.604   1.457
 5050SOL    HW116049   1.515   1.590   1.552
 5050SOL    HW216050   1.555   1.659   1.409
 5051SOL     OW16051   4.748   4.744   0.921
 5051SOL    HW116052   4.784   4.825   0.968
 5051SOL    HW216053   4.655   4.763   0.890
 5052SOL     OW16054   2.568   0.945   6.605
 5052SOL    HW116055   2.639   0.951   6.675
 5052SOL    HW216056   2.500   1.016   6.621
 5053SOL     OW16057   2.168   4.033   3.418
 5053SOL    HW116058   2.208   4.024   3.509
 5053SOL    HW216059   2.241   4.053   3.352
 5054SOL     OW16060   3.644   5.281   5.517
 5054SOL    HW116061   3.611   5.190   5.545
 5054SOL    HW216062   3.565   5.341   5.502
 5055SOL     OW16063   1.903   1.982   6.060
 5055SOL    HW116064   1.988   2.015   6.101
 5055SOL    HW216065   1.827   2.037   6.094
 5056SOL     OW16066   6.605   4.194   6.707
 5056SOL    HW116067   6.629   4.194   6.804
 5056SOL    HW216068   6.588   4.100   6.677
 5057SOL     OW16069   0.403   5.912   3.981
 5057SOL    HW116070   0.380   5.984   3.915
 5057SOL    HW216071   0.345   5.832   3.965
 5058SOL     OW16072   2.866   3.269   5.625
 5058SOL    HW116073   2.827   3.281   5.533
 5058SOL    HW216074   2.804   3.309   5.693
 5059SOL     OW16075   5.716   1.054   3.632
 5059SOL    HW116076   5.655   1.065   3.554
 5059SOL    HW216077   5.799   1.109   3.617
 5060SOL     OW16078   0.824   1.993   5.593
 5060SOL    HW116079   0.786   1.904   5.618
 5060SOL    HW216080   0.893   2.020   5.660
 5061SOL     OW16081   3.810   2.651   1.659
 5061SOL    HW116082   3.852   2.735   1.628
 5061SOL    HW216083   3.880   2.579   1.665
 5062SOL     OW16084   4.677   1.334   3.300
 5062SOL    HW116085   4.740   1.348   3.224
 5062SOL    HW216086   4.598   1.396   3.290
 5063SOL     OW16087   1.018   6.508   2.174
 5063SOL    HW116088   1.030   6.513   2.273
 5063SOL    HW216089   0.996   6.415   2.147
 5064SOL     OW16090   5.097   4.435   1.665
 5064SOL    HW116091   5.038   4.508   1.631
 5064SOL    HW216092   5.041   4.360   1.701
 5065SOL     OW16093   2.060   1.019   3.547
 5065SOL    HW116094   2.086   0.941   3.490
 5065SOL    HW216095   2.135   1.041   3.609
 5066SOL     OW16096   4.380   4.926   2.014
 5066SOL    HW116097   4.370   4.827   2.011
 5066SOL    HW216098   4.333   4.967   1.936
 5067SOL     OW16099   4.888   0.915   1.438
 5067SOL    HW116100   4.803   0.962   1.460
 5067SOL    HW216101   4.924   0.949   1.351
 5068SOL     OW16102   2.991   5.071   0.157
 5068SOL    HW116103   2.908   5.112   0.119
 5068SOL    HW216104   3.066   5.083   0.092
 5069SOL     OW16105   2.435   3.708   5.784
 5069SOL    HW116106   2.493   3.648   5.728
 5069SOL    HW216107   2.479   3.797   5.793
 5070SOL     OW16108   4.624   5.035   3.846
 5070SOL    HW116109   4.600   5.025   3.749
 5070SOL    HW216110   4.651   4.945   3.882
 5071SOL     OW16111   3.991   2.023   3.224
 5071SOL    HW116112   4.006   2.098   3.289
 5071SOL    HW216113   3.911   2.044   3.168
 5072SOL     OW16114   0.901   0.268   1.328
 5072SOL    HW116115   0.876   0.343   1.266
 5072SOL    HW216116   0.986   0.291   1.375
 5073SOL     OW16117   0.175   5.586   1.853
 5073SOL    HW116118   0.102   5.565   1.919
 5073SOL    HW216119   0.257   5.533   1.877
 5074SOL     OW16120   3.290   2.709   1.206
 5074SOL    HW116121   3.385   2.679   1.203
 5074SOL    HW216122   3.240   2.654   1.274
 5075SOL     OW16123   0.965   1.701   6.384
 5075SOL    HW116124   0.916   1.787   6.369
 5075SOL    HW216125   1.023   1.710   6.465
 5076SOL     OW16126   4.344   1.136   0.520
 5076SOL    HW116127   4.423   1.149   0.580
 5076SOL    HW216128   4.358   1.187   0.436
 5077SOL     OW16129   2.241   4.711   5.223
 5077SOL    HW116130   2.266   4.730   5.128
 5077SOL    HW216131   2.323   4.692   5.276
 5078SOL     OW16132   0.827   1.068   4.199
 5078SOL    HW116133   0.810   1.028   4.289
 5078SOL    HW216134   0.848   0.995   4.134
 5079SOL     OW16135   2.015   2.948   5.873
 5079SOL    HW116136   2.112   2.922   5.872
 5079SOL    HW216137   1.960   2.868   5.897
 5080SOL     OW16138   6.151   6.704   6.087
 5080SOL    HW116139   6.216   6.636   6.119
 5080SOL    HW216140   6.072   6.707   6.149
 5081SOL     OW16141   3.035   3.271   4.493
 5081SOL    HW116142   3.103   3.198   4.497
 5081SOL    HW216143   2.975   3.258   4.414
 5082SOL     OW16144   4.837   5.695   0.625
 5082SOL    HW116145   4.760   5.702   0.562
 5082SOL    HW216146   4.819   5.624   0.692
 5083SOL     OW16147   2.366   6.536   2.332
 5083SOL    HW116148   2.308   6.466   2.290
 5083SOL    HW216149   2.333   6.627   2.304
 5084SOL     OW16150   0.378   4.762   4.560
 5084SOL    HW116151   0.316   4.792   4.488
 5084SOL    HW216152   0.373   4.663   4.569
 5085SOL     OW16153   5.247   3.182   6.465
 5085SOL    HW116154   5.322   3.180   6.532
 5085SOL    HW216155   5.215   3.090   6.447
 5086SOL     OW16156   1.183   5.854   3.266
 5086SOL    HW116157   1.147   5.813   3.350
 5086SOL    HW216158   1.238   5.935   3.289
 5087SOL     OW16159   1.741   5.049   2.456
 5087SOL    HW116160   1.666   5.041   2.390
 5087SOL    HW216161   1.827   5.027   2.412
 5088SOL     OW16162   6.333   1.229   4.785
 5088SOL    HW116163   6.423   1.247   4.746
 5088SOL    HW216164   6.265   1.288   4.740
 5089SOL     OW16165   4.893   3.882   4.361
 5089SOL    HW116166   4.864   3.804   4.307
 5089SOL    HW216167   4.890   3.965   4.305
 5090SOL     OW16168   1.804   3.931   2.376
 5090SOL    HW116169   1.884   3.901   2.324
 5090SOL    HW216170   1.730   3.955   2.313
 5091SOL     OW16171   0.792   0.153   2.747
 5091SOL    HW116172   0.761   0.211   2.671
 5091SOL    HW216173   0.719   0.146   2.815
 5092SOL     OW16174   3.457   3.397   1.496
 5092SOL    HW116175   3.549   3.384   1.533
 5092SOL    HW216176   3.464   3.420   1.399
 5093SOL     OW16177   2.644   1.287   1.552
 5093SOL    HW116178   2.618   1.377   1.586
 5093SOL    HW216179   2.568   1.223   1.565
 5094SOL     OW16180   2.328   5.690   5.872
 5094SOL    HW116181   2.337   5.770   5.932
 5094SOL    HW216182   2.310   5.721   5.778
 5095SOL     OW16183   6.158   2.037   4.718
 5095SOL    HW116184   6.165   1.952   4.664
 5095SOL    HW216185   6.123   2.015   4.809
 5096SOL     OW16186   4.198   4.284   0.425
 5096SOL    HW116187   4.272   4.313   0.485
 5096SOL    HW216188   4.126   4.354   0.425
 5097SOL     OW16189   1.155   0.615   6.382
 5097SOL    HW116190   1.110   0.577   6.300
 5097SOL    HW216191   1.140   0.713   6.386
 5098SOL     OW16192   1.911   0.466   1.736
 5098SOL    HW116193   1.818   0.496   1.758
 5098SOL    HW216194   1.958   0.539   1.685
 5099SOL     OW16195   0.555   6.192   6.635
 5099SOL    HW116196   0.594   6.167   6.724
 5099SOL    HW216197   0.584   6.284   6.611
 5100SOL     OW16198   3.804   5.506   5.582
 5100SOL    HW116199   3.746   5.425   5.575
 5100SOL    HW216200   3.772   5.563   5.658
 5101SOL     OW16201   4.866   6.379   7.006
 5101SOL    HW116202   4.879   6.410   0.083
 5101SOL    HW216203   4.931   6.426   6.947
 5102SOL     OW16204   5.298   0.395   4.160
 5102SOL    HW116205   5.334   0.336   4.233
 5102SOL    HW216206   5.284   0.342   4.077
 5103SOL     OW16207   0.194   1.669   3.695
 5103SOL    HW116208   0.253   1.731   3.642
 5103SOL    HW216209   0.244   1.639   3.776
 5104SOL     OW16210   1.598   6.697   2.908
 5104SOL    HW116211   1.622   6.612   2.955
 5104SOL    HW216212   1.680   6.755   2.901
 5105SOL     OW16213   3.534   3.041   0.286
 5105SOL    HW116214   3.462   3.091   0.239
 5105SOL    HW216215   3.526   2.944   0.264
 5106SOL     OW16216   3.493   0.940   0.349
 5106SOL    HW116217   3.443   1.027   0.344
 5106SOL    HW216218   3.589   0.955   0.327
 5107SOL     OW16219   3.166   0.937   0.406
 5107SOL    HW116220   3.159   0.918   0.308
 5107SOL    HW216221   3.183   0.851   0.455
 5108SOL     OW16222   2.915   3.667   4.265
 5108SOL    HW116223   2.910   3.638   4.361
 5108SOL    HW216224   2.974   3.747   4.258
 5109SOL     OW16225   1.271   1.036   0.463
 5109SOL    HW116226   1.353   1.030   0.520
 5109SOL    HW216227   1.291   1.004   0.371
 5110SOL     OW16228   0.362   0.924   6.502
 5110SOL    HW116229   0.344   1.019   6.525
 5110SOL    HW216230   0.461   0.908   6.498
 5111SOL     OW16231   2.874   1.435   5.568
 5111SOL    HW116232   2.798   1.375   5.594
 5111SOL    HW216233   2.881   1.437   5.468
 5112SOL     OW16234   1.108   6.956   2.886
 5112SOL    HW116235   1.207   6.944   2.883
 5112SOL    HW216236   1.086   0.025   2.931
 5113SOL     OW16237   2.276   6.318   1.159
 5113SOL    HW116238   2.366   6.359   1.169
 5113SOL    HW216239   2.210   6.388   1.132
 5114SOL     OW16240   2.929   1.445   0.140
 5114SOL    HW116241   3.002   1.402   0.192
 5114SOL    HW216242   2.968   1.513   0.077
 5115SOL     OW16243   2.164   5.242   4.388
 5115SOL    HW116244   2.188   5.192   4.471
 5115SOL    HW216245   2.073   5.215   4.357
 5116SOL     OW16246   6.107   0.056   0.113
 5116SOL    HW116247   6.115   0.114   0.194
 5116SOL    HW216248   6.087   6.979   0.141
 5117SOL     OW16249   2.921   4.797   4.793
 5117SOL    HW116250   2.882   4.735   4.862
 5117SOL    HW216251   2.879   4.779   4.704
 5118SOL     OW16252   4.820   0.761   0.140
 5118SOL    HW116253   4.894   0.792   0.082
 5118SOL    HW216254   4.820   0.661   0.145
 5119SOL     OW16255   5.431   0.873   1.580
 5119SOL    HW116256   5.436   0.805   1.506
 5119SOL    HW216257   5.336   0.895   1.598
 5120SOL     OW16258   4.068   1.747   4.233
 5120SOL    HW116259   4.158   1.711   4.210
 5120SOL    HW216260   4.016   1.677   4.282
 5121SOL     OW16261   2.728   1.936   0.054
 5121SOL    HW116262   2.649   1.906   0.002
 5121SOL    HW216263   2.735   1.881   0.138
 5122SOL     OW16264   2.974   6.660   2.848
 5122SOL    HW116265   3.019   6.571   2.837
 5122SOL    HW216266   2.959   6.679   2.945
 5123SOL     OW16267   5.417   1.375   5.213
 5123SOL    HW116268   5.380   1.293   5.169
 5123SOL    HW216269   5.454   1.351   5.302
 5124SOL     OW16270   3.153   4.931   4.697
 5124SOL    HW116271   3.078   4.877   4.734
 5124SOL    HW216272   3.240   4.899   4.735
 5125SOL     OW16273   6.725   3.047   3.730
 5125SOL    HW116274   6.629   3.035   3.755
 5125SOL    HW216275   6.746   2.995   3.647
 5126SOL     OW16276   6.081   5.552   5.722
 5126SOL    HW116277   6.017   5.628   5.736
 5126SOL    HW216278   6.161   5.563   5.781
 5127SOL     OW16279   0.625   3.728   0.259
 5127SOL    HW116280   0.670   3.641   0.238
 5127SOL    HW216281   0.531   3.712   0.287
 5128SOL     OW16282   6.657   0.746   6.807
 5128SOL    HW116283   6.695   0.654   6.814
 5128SOL    HW216284   6.647   0.770   6.710
 5129SOL     OW16285   4.731   0.340   2.997
 5129SOL    HW116286   4.828   0.316   2.994
 5129SOL    HW216287   4.678   0.273   2.946
 5130SOL     OW16288   1.744   5.332   4.113
 5130SOL    HW116289   1.680   5.260   4.141
 5130SOL    HW216290   1.701   5.388   4.042
 5131SOL     OW16291   2.666   4.979   4.100
 5131SOL    HW116292   2.615   4.941   4.177
 5131SOL    HW216293   2.615   5.057   4.062
 5132SOL     OW16294   3.348   1.978   6.322
 5132SOL    HW116295   3.377   2.035   6.246
 5132SOL    HW216296   3.418   1.909   6.343
 5133SOL     OW16297   1.789   5.000   6.433
 5133SOL    HW116298   1.765   5.084   6.385
 5133SOL    HW216299   1.741   4.997   6.521
 5134SOL     OW16300   6.484   1.001   2.150
 5134SOL    HW116301   6.499   0.999   2.248
 5134SOL    HW216302   6.434   1.084   2.125
 5135SOL     OW16303   5.258   3.601   4.495
 5135SOL    HW116304   5.238   3.669   4.424
 5135SOL    HW216305   5.264   3.647   4.584
 5136SOL     OW16306   5.506   0.574   6.568
 5136SOL    HW116307   5.593   0.584   6.616
 5136SOL    HW216308   5.456   0.661   6.572
 5137SOL     OW16309   5.261   3.300   5.445
 5137SOL    HW116310   5.348   3.262   5.413
 5137SOL    HW216311   5.187   3.269   5.385
 5138SOL     OW16312   4.064   3.805   4.311
 5138SOL    HW116313   4.094   3.820   4.406
 5138SOL    HW216314   3.982   3.858   4.293
 5139SOL     OW16315   1.102   0.115   4.214
 5139SOL    HW116316   1.090   0.201   4.265
 5139SOL    HW216317   1.167   0.057   4.262
 5140SOL     OW16318   3.883   1.709   5.601
 5140SOL    HW116319   3.801   1.659   5.629
 5140SOL    HW216320   3.869   1.807   5.614
 5141SOL     OW16321   6.185   3.928   0.991
 5141SOL    HW116322   6.257   3.883   0.939
 5141SOL    HW216323   6.115   3.861   1.015
 5142SOL     OW16324   5.593   6.124   3.914
 5142SOL    HW116325   5.611   6.081   4.002
 5142SOL    HW216326   5.552   6.057   3.852
 5143SOL     OW16327   0.268   4.760   4.286
 5143SOL    HW116328   0.170   4.741   4.286
 5143SOL    HW216329   0.319   4.674   4.287
 5144SOL     OW16330   1.451   4.863   5.376
 5144SOL    HW116331   1.377   4.895   5.436
 5144SOL    HW216332   1.521   4.934   5.369
 5145SOL     OW16333   3.484   5.867   6.447
 5145SOL    HW116334   3.440   5.945   6.403
 5145SOL    HW216335   3.488   5.883   6.546
 5146SOL     OW16336   3.278   3.577   5.544
 5146SOL    HW116337   3.306   3.517   5.470
 5146SOL    HW216338   3.202   3.635   5.514
 5147SOL     OW16339   6.803   5.830   3.822
 5147SOL    HW116340   6.761   5.904   3.875
 5147SOL    HW216341   6.895   5.858   3.794
 5148SOL     OW16342   0.072   1.064   2.078
 5148SOL    HW116343   0.062   1.136   2.009
 5148SOL    HW216344   0.131   0.992   2.043
 5149SOL     OW16345   6.500   5.175   4.373
 5149SOL    HW116346   6.479   5.123   4.291
 5149SOL    HW216347   6.483   5.119   4.454
 5150SOL     OW16348   2.188   5.474   3.548
 5150SOL    HW116349   2.190   5.517   3.638
 5150SOL    HW216350   2.242   5.528   3.484
 5151SOL     OW16351   0.162   3.742   2.071
 5151SOL    HW116352   0.098   3.794   2.014
 5151SOL    HW216353   0.111   3.695   2.143
 5152SOL     OW16354   1.405   5.133   6.861
 5152SOL    HW116355   1.404   5.037   6.833
 5152SOL    HW216356   1.385   5.139   6.959
 5153SOL     OW16357   0.618   2.317   0.906
 5153SOL    HW116358   0.623   2.219   0.923
 5153SOL    HW216359   0.697   2.346   0.853
 5154SOL     OW16360   1.085   2.681   5.942
 5154SOL    HW116361   1.087   2.749   6.016
 5154SOL    HW216362   1.068   2.726   5.855
 5155SOL     OW16363   3.941   6.933   2.053
 5155SOL    HW116364   4.004   6.937   2.130
 5155SOL    HW216365   3.851   6.964   2.081
 5156SOL     OW16366   5.430   4.867   5.504
 5156SOL    HW116367   5.513   4.814   5.522
 5156SOL    HW216368   5.453   4.947   5.449
 5157SOL     OW16369   3.241   1.980   2.867
 5157SOL    HW116370   3.305   2.027   2.807
 5157SOL    HW216371   3.254   2.011   2.961
 5158SOL     OW16372   4.142   2.169   1.155
 5158SOL    HW116373   4.099   2.259   1.154
 5158SOL    HW216374   4.071   2.099   1.152
 5159SOL     OW16375   5.736   3.078   5.967
 5159SOL    HW116376   5.682   2.993   5.969
 5159SOL    HW216377   5.832   3.056   5.983
 5160SOL     OW16378   0.111   4.826   3.313
 5160SOL    HW116379   0.096   4.779   3.226
 5160SOL    HW216380   0.034   4.807   3.374
 5161SOL     OW16381   1.637   3.443   6.669
 5161SOL    HW116382   1.734   3.462   6.679
 5161SOL    HW216383   1.625   3.357   6.619
 5162SOL     OW16384   0.978   5.417   3.003
 5162SOL    HW116385   0.943   5.474   3.077
 5162SOL    HW216386   0.931   5.328   3.005
 5163SOL     OW16387   2.883   6.718   0.949
 5163SOL    HW116388   2.793   6.762   0.944
 5163SOL    HW216389   2.950   6.782   0.987
 5164SOL     OW16390   3.810   2.752   0.103
 5164SOL    HW116391   3.713   2.757   0.125
 5164SOL    HW216392   3.825   2.790   0.012
 5165SOL     OW16393   0.789   3.840   5.956
 5165SOL    HW116394   0.809   3.746   5.928
 5165SOL    HW216395   0.775   3.843   6.055
 5166SOL     OW16396   1.875   5.267   2.559
 5166SOL    HW116397   1.809   5.192   2.550
 5166SOL    HW216398   1.968   5.230   2.564
 5167SOL     OW16399   6.176   4.502   5.550
 5167SOL    HW116400   6.198   4.494   5.453
 5167SOL    HW216401   6.260   4.512   5.603
 5168SOL     OW16402   5.383   3.503   2.347
 5168SOL    HW116403   5.325   3.472   2.422
 5168SOL    HW216404   5.479   3.482   2.368
 5169SOL     OW16405   3.681   1.910   3.339
 5169SOL    HW116406   3.699   1.950   3.429
 5169SOL    HW216407   3.764   1.867   3.304
 5170SOL     OW16408   1.443   3.724   4.880
 5170SOL    HW116409   1.422   3.734   4.977
 5170SOL    HW216410   1.438   3.628   4.854
 5171SOL     OW16411   0.271   4.141   5.979
 5171SOL    HW116412   0.186   4.092   5.959
 5171SOL    HW216413   0.318   4.162   5.893
 5172SOL     OW16414   1.798   3.214   2.392
 5172SOL    HW116415   1.763   3.155   2.320
 5172SOL    HW216416   1.752   3.302   2.388
 5173SOL     OW16417   4.160   5.274   5.236
 5173SOL    HW116418   4.113   5.211   5.173
 5173SOL    HW216419   4.258   5.255   5.235
 5174SOL     OW16420   2.586   4.679   3.174
 5174SOL    HW116421   2.624   4.647   3.260
 5174SOL    HW216422   2.580   4.779   3.174
 5175SOL     OW16423   3.145   3.868   6.761
 5175SOL    HW116424   3.069   3.828   6.813
 5175SOL    HW216425   3.128   3.857   6.663
 5176SOL     OW16426   5.164   3.804   0.203
 5176SOL    HW116427   5.260   3.831   0.205
 5176SOL    HW216428   5.129   3.799   0.297
 5177SOL     OW16429   5.797   6.583   0.677
 5177SOL    HW116430   5.735   6.556   0.603
 5177SOL    HW216431   5.852   6.661   0.648
 5178SOL     OW16432   1.289   3.453   2.542
 5178SOL    HW116433   1.301   3.460   2.443
 5178SOL    HW216434   1.236   3.371   2.564
 5179SOL     OW16435   4.602   4.465   4.176
 5179SOL    HW116436   4.533   4.476   4.104
 5179SOL    HW216437   4.561   4.485   4.265
 5180SOL     OW16438   3.062   1.114   1.287
 5180SOL    HW116439   2.971   1.099   1.325
 5180SOL    HW216440   3.113   1.028   1.289
 5181SOL     OW16441   5.117   0.992   2.329
 5181SOL    HW116442   5.136   1.076   2.379
 5181SOL    HW216443   5.113   1.011   2.231
 5182SOL     OW16444   4.260   4.655   1.803
 5182SOL    HW116445   4.350   4.658   1.847
 5182SOL    HW216446   4.259   4.716   1.724
 5183SOL     OW16447   3.438   1.758   2.908
 5183SOL    HW116448   3.349   1.795   2.880
 5183SOL    HW216449   3.468   1.690   2.841
 5184SOL     OW16450   0.951   2.405   3.639
 5184SOL    HW116451   0.877   2.376   3.579
 5184SOL    HW216452   0.968   2.503   3.627
 5185SOL     OW16453   4.831   1.239   3.055
 5185SOL    HW116454   4.735   1.251   3.029
 5185SOL    HW216455   4.888   1.236   2.973
 5186SOL     OW16456   5.869   1.390   0.266
 5186SOL    HW116457   5.946   1.375   0.205
 5186SOL    HW216458   5.784   1.389   0.214
 5187SOL     OW16459   1.151   6.134   4.604
 5187SOL    HW116460   1.119   6.041   4.619
 5187SOL    HW216461   1.089   6.198   4.648
 5188SOL     OW16462   6.610   5.431   1.672
 5188SOL    HW116463   6.702   5.443   1.635
 5188SOL    HW216464   6.543   5.467   1.607
 5189SOL     OW16465   4.494   5.549   0.743
 5189SOL    HW116466   4.457   5.542   0.650
 5189SOL    HW216467   4.441   5.491   0.804
 5190SOL     OW16468   0.508   3.314   4.378
 5190SOL    HW116469   0.429   3.272   4.423
 5190SOL    HW216470   0.592   3.278   4.420
 5191SOL     OW16471   3.861   6.730   2.528
 5191SOL    HW116472   3.957   6.730   2.554
 5191SOL    HW216473   3.814   6.806   2.572
 5192SOL     OW16474   1.774   5.685   1.485
 5192SOL    HW116475   1.858   5.645   1.448
 5192SOL    HW216476   1.795   5.731   1.572
 5193SOL     OW16477   5.396   5.764   5.636
 5193SOL    HW116478   5.398   5.745   5.734
 5193SOL    HW216479   5.381   5.678   5.586
 5194SOL     OW16480   4.257   1.879   6.925
 5194SOL    HW116481   4.289   1.950   6.988
 5194SOL    HW216482   4.171   1.908   6.884
 5195SOL     OW16483   0.178   0.330   4.214
 5195SOL    HW116484   0.270   0.299   4.188
 5195SOL    HW216485   0.130   0.256   4.261
 5196SOL     OW16486   4.808   0.016   1.937
 5196SOL    HW116487   4.903   0.049   1.934
 5196SOL    HW216488   4.799   6.953   1.879
 5197SOL     OW16489   1.993   3.972   6.385
 5197SOL    HW116490   2.056   4.049   6.378
 5197SOL    HW216491   2.035   3.890   6.345
 5198SOL     OW16492   4.831   6.285   3.294
 5198SOL    HW116493   4.852   6.220   3.220
 5198SOL    HW216494   4.887   6.367   3.283
 5199SOL     OW16495   0.836   6.021   0.192
 5199SOL    HW116496   0.737   6.010   0.178
 5199SOL    HW216497   0.882   5.935   0.172
 5200SOL     OW16498   6.752   3.895   5.322
 5200SOL    HW116499   6.829   3.921   5.263
 5200SOL    HW216500   6.754   3.797   5.338
 5201SOL     OW16501   0.572   6.890   2.938
 5201SOL    HW116502   0.655   6.877   2.992
 5201SOL    HW216503   0.517   6.806   2.940
 5202SOL     OW16504   5.110   2.605   6.486
 5202SOL    HW116505   5.156   2.574   6.569
 5202SOL    HW216506   5.025   2.652   6.510
 5203SOL     OW16507   2.225   2.514   6.665
 5203SOL    HW116508   2.195   2.596   6.715
 5203SOL    HW216509   2.203   2.433   6.719
 5204SOL     OW16510   3.180   5.217   6.429
 5204SOL    HW116511   3.245   5.141   6.437
 5204SOL    HW216512   3.090   5.187   6.460
 5205SOL     OW16513   0.466   6.445   1.038
 5205SOL    HW116514   0.373   6.472   1.011
 5205SOL    HW216515   0.519   6.420   0.957
 5206SOL     OW16516   0.607   3.997   5.773
 5206SOL    HW116517   0.664   4.031   5.698
 5206SOL    HW216518   0.662   3.939   5.832
 5207SOL     OW16519   0.922   5.968   3.831
 5207SOL    HW116520   0.969   6.044   3.786
 5207SOL    HW216521   0.878   6.001   3.914
 5208SOL     OW16522   3.530   1.783   6.399
 5208SOL    HW116523   3.565   1.773   6.305
 5208SOL    HW216524   3.582   1.722   6.459
 5209SOL     OW16525   5.776   5.868   3.320
 5209SOL    HW116526   5.751   5.924   3.399
 5209SOL    HW216527   5.696   5.820   3.286
 5210SOL     OW16528   5.251   2.965   5.361
 5210SOL    HW116529   5.193   3.027   5.309
 5210SOL    HW216530   5.238   2.871   5.328
 5211SOL     OW16531   3.336   3.058   4.761
 5211SOL    HW116532   3.317   3.018   4.850
 5211SOL    HW216533   3.260   3.042   4.699
 5212SOL     OW16534   6.187   2.357   0.784
 5212SOL    HW116535   6.204   2.259   0.785
 5212SOL    HW216536   6.150   2.386   0.872
 5213SOL     OW16537   4.453   3.907   6.781
 5213SOL    HW116538   4.379   3.840   6.790
 5213SOL    HW216539   4.414   3.997   6.761
 5214SOL     OW16540   4.638   1.724   5.722
 5214SOL    HW116541   4.689   1.802   5.759
 5214SOL    HW216542   4.596   1.750   5.635
 5215SOL     OW16543   6.088   4.819   3.551
 5215SOL    HW116544   6.167   4.881   3.549
 5215SOL    HW216545   6.102   4.751   3.622
 5216SOL     OW16546   4.372   5.091   1.459
 5216SOL    HW116547   4.403   5.170   1.512
 5216SOL    HW216548   4.272   5.091   1.454
 5217SOL     OW16549   3.613   5.450   4.447
 5217SOL    HW116550   3.610   5.424   4.544
 5217SOL    HW216551   3.655   5.541   4.439
 5218SOL     OW16552   0.891   0.813   3.931
 5218SOL    HW116553   0.860   0.767   4.013
 5218SOL    HW216554   0.985   0.786   3.910
 5219SOL     OW16555   3.909   0.580   5.907
 5219SOL    HW116556   4.000   0.549   5.934
 5219SOL    HW216557   3.869   0.634   5.980
 5220SOL     OW16558   1.616   5.776   2.664
 5220SOL    HW116559   1.658   5.786   2.573
 5220SOL    HW216560   1.517   5.772   2.654
 5221SOL     OW16561   5.474   2.360   3.954
 5221SOL    HW116562   5.436   2.277   3.914
 5221SOL    HW216563   5.548   2.394   3.896
 5222SOL     OW16564   3.438   5.872   3.429
 5222SOL    HW116565   3.375   5.912   3.362
 5222SOL    HW216566   3.471   5.783   3.395
 5223SOL     OW16567   6.102   2.093   0.796
 5223SOL    HW116568   6.137   2.036   0.870
 5223SOL    HW216569   6.017   2.137   0.825
 5224SOL     OW16570   0.101   2.496   4.106
 5224SOL    HW116571   0.049   2.577   4.133
 5224SOL    HW216572   0.151   2.514   4.021
 5225SOL     OW16573   0.433   0.086   3.480
 5225SOL    HW116574   0.504   0.148   3.445
 5225SOL    HW216575   0.349   0.138   3.495
 5226SOL     OW16576   0.484   6.227   4.725
 5226SOL    HW116577   0.394   6.264   4.703
 5226SOL    HW216578   0.475   6.130   4.748
 5227SOL     OW16579   1.171   3.379   3.955
 5227SOL    HW116580   1.230   3.308   3.995
 5227SOL    HW216581   1.228   3.454   3.920
 5228SOL     OW16582   6.248   2.313   1.508
 5228SOL    HW116583   6.254   2.356   1.598
 5228SOL    HW216584   6.263   2.215   1.517
 5229SOL     OW16585   1.672   5.705   0.108
 5229SOL    HW116586   1.630   5.696   0.018
 5229SOL    HW216587   1.609   5.670   0.178
 5230SOL     OW16588   0.604   6.238   0.852
 5230SOL    HW116589   0.682   6.299   0.864
 5230SOL    HW216590   0.613   6.159   0.912
 5231SOL     OW16591   4.122   3.569   5.603
 5231SOL    HW116592   4.204   3.553   5.657
 5231SOL    HW216593   4.147   3.586   5.508
 5232SOL     OW16594   3.609   1.886   5.471
 5232SOL    HW116595   3.543   1.811   5.477
 5232SOL    HW216596   3.564   1.973   5.492
 5233SOL     OW16597   5.186   0.800   2.015
 5233SOL    HW116598   5.153   0.894   2.023
 5233SOL    HW216599   5.136   0.753   1.943
 5234SOL     OW16600   2.615   0.733   0.455
 5234SOL    HW116601   2.697   0.721   0.400
 5234SOL    HW216602   2.547   0.665   0.430
 5235SOL     OW16603   2.161   3.045   1.160
 5235SOL    HW116604   2.156   3.045   1.260
 5235SOL    HW216605   2.068   3.045   1.122
 5236SOL     OW16606   5.955   4.146   2.786
 5236SOL    HW116607   5.974   4.048   2.791
 5236SOL    HW216608   6.020   4.189   2.723
 5237SOL     OW16609   2.234   0.793   4.993
 5237SOL    HW116610   2.155   0.837   4.950
 5237SOL    HW216611   2.225   0.799   5.093
 5238SOL     OW16612   1.214   4.101   0.440
 5238SOL    HW116613   1.218   4.013   0.488
 5238SOL    HW216614   1.298   4.114   0.387
 5239SOL     OW16615   3.890   3.000   4.262
 5239SOL    HW116616   3.936   2.989   4.174
 5239SOL    HW216617   3.940   3.065   4.319
 5240SOL     OW16618   3.334   1.583   6.364
 5240SOL    HW116619   3.241   1.603   6.395
 5240SOL    HW216620   3.395   1.656   6.393
 5241SOL     OW16621   0.807   5.208   5.523
 5241SOL    HW116622   0.801   5.300   5.484
 5241SOL    HW216623   0.890   5.163   5.489
 5242SOL     OW16624   6.709   5.883   6.270
 5242SOL    HW116625   6.612   5.900   6.252
 5242SOL    HW216626   6.724   5.872   6.368
 5243SOL     OW16627   1.402   5.615   1.661
 5243SOL    HW116628   1.334   5.582   1.596
 5243SOL    HW216629   1.401   5.557   1.743
 5244SOL     OW16630   3.513   4.358   6.503
 5244SOL    HW116631   3.415   4.374   6.505
 5244SOL    HW216632   3.536   4.302   6.423
 5245SOL     OW16633   4.756   4.249   0.623
 5245SOL    HW116634   4.829   4.241   0.690
 5245SOL    HW216635   4.783   4.312   0.550
 5246SOL     OW16636   5.819   4.266   2.549
 5246SOL    HW116637   5.848   4.182   2.596
 5246SOL    HW216638   5.723   4.284   2.570
 5247SOL     OW16639   0.765   0.157   0.429
 5247SOL    HW116640   0.807   0.117   0.510
 5247SOL    HW216641   0.709   0.089   0.382
 5248SOL     OW16642   5.419   1.027   4.051
 5248SOL    HW116643   5.455   0.987   3.967
 5248SOL    HW216644   5.479   1.101   4.081
 5249SOL     OW16645   6.727   4.658   5.082
 5249SOL    HW116646   6.711   4.623   4.989
 5249SOL    HW216647   6.795   4.600   5.127
 5250SOL     OW16648   1.272   1.002   5.467
 5250SOL    HW116649   1.303   1.062   5.393
 5250SOL    HW216650   1.229   1.056   5.539
 5251SOL     OW16651   0.577   3.234   0.330
 5251SOL    HW116652   0.529   3.272   0.251
 5251SOL    HW216653   0.511   3.211   0.402
 5252SOL     OW16654   2.290   5.756   0.700
 5252SOL    HW116655   2.211   5.730   0.644
 5252SOL    HW216656   2.280   5.719   0.792
 5253SOL     OW16657   5.551   3.923   4.538
 5253SOL    HW116658   5.577   3.838   4.493
 5253SOL    HW216659   5.531   3.905   4.635
 5254SOL     OW16660   4.377   1.736   2.881
 5254SOL    HW116661   4.427   1.670   2.938
 5254SOL    HW216662   4.333   1.688   2.805
 5255SOL     OW16663   4.645   0.593   6.025
 5255SOL    HW116664   4.707   0.652   5.973
 5255SOL    HW216665   4.587   0.648   6.084
 5256SOL     OW16666   4.357   0.743   3.298
 5256SOL    HW116667   4.376   0.810   3.370
 5256SOL    HW216668   4.269   0.699   3.317
 5257SOL     OW16669   4.755   6.241   2.194
 5257SOL    HW116670   4.852   6.247   2.170
 5257SOL    HW216671   4.704   6.309   2.142
 5258SOL     OW16672   5.487   3.663   1.861
 5258SOL    HW116673   5.456   3.757   1.848
 5258SOL    HW216674   5.415   3.609   1.903
 5259SOL     OW16675   4.820   5.962   0.714
 5259SOL    HW116676   4.857   5.876   0.678
 5259SOL    HW216677   4.729   5.945   0.752
 5260SOL     OW16678   5.653   3.803   1.105
 5260SOL    HW116679   5.701   3.738   1.164
 5260SOL    HW216680   5.562   3.820   1.142
 5261SOL     OW16681   1.364   3.561   6.763
 5261SOL    HW116682   1.432   3.536   6.693
 5261SOL    HW216683   1.392   3.646   6.808
 5262SOL     OW16684   2.771   0.532   3.175
 5262SOL    HW116685   2.778   0.496   3.268
 5262SOL    HW216686   2.685   0.582   3.165
 5263SOL     OW16687   1.357   0.816   5.294
 5263SOL    HW116688   1.314   0.863   5.372
 5263SOL    HW216689   1.396   0.884   5.232
 5264SOL     OW16690   5.569   1.333   2.581
 5264SOL    HW116691   5.620   1.416   2.560
 5264SOL    HW216692   5.473   1.356   2.596
 5265SOL     OW16693   5.304   4.080   3.562
 5265SOL    HW116694   5.282   4.163   3.511
 5265SOL    HW216695   5.253   4.003   3.522
 5266SOL     OW16696   2.811   6.641   1.875
 5266SOL    HW116697   2.895   6.683   1.839
 5266SOL    HW216698   2.732   6.679   1.826
 5267SOL     OW16699   5.106   4.187   5.419
 5267SOL    HW116700   5.086   4.095   5.452
 5267SOL    HW216701   5.095   4.252   5.495
 5268SOL     OW16702   6.257   0.483   6.326
 5268SOL    HW116703   6.184   0.440   6.379
 5268SOL    HW216704   6.247   0.458   6.230
 5269SOL     OW16705   2.089   6.956   4.191
 5269SOL    HW116706   2.148   6.880   4.164
 5269SOL    HW216707   2.029   6.980   4.115
 5270SOL     OW16708   5.466   1.845   2.031
 5270SOL    HW116709   5.408   1.895   2.095
 5270SOL    HW216710   5.443   1.870   1.937
 5271SOL     OW16711   5.900   5.684   5.134
 5271SOL    HW116712   5.915   5.587   5.153
 5271SOL    HW216713   5.924   5.738   5.214
 5272SOL     OW16714   2.043   6.311   1.986
 5272SOL    HW116715   1.980   6.266   1.922
 5272SOL    HW216716   2.026   6.410   1.986
 5273SOL     OW16717   6.733   3.132   3.415
 5273SOL    HW116718   6.717   3.037   3.388
 5273SOL    HW216719   6.651   3.187   3.398
 5274SOL     OW16720   6.592   6.089   2.051
 5274SOL    HW116721   6.661   6.033   2.004
 5274SOL    HW216722   6.501   6.057   2.027
 5275SOL     OW16723   3.876   1.890   6.455
 5275SOL    HW116724   3.919   1.972   6.418
 5275SOL    HW216725   3.793   1.915   6.503
 5276SOL     OW16726   1.186   0.860   0.931
 5276SOL    HW116727   1.149   0.900   0.847
 5276SOL    HW216728   1.274   0.818   0.911
 5277SOL     OW16729   1.402   2.024   3.108
 5277SOL    HW116730   1.373   2.093   3.174
 5277SOL    HW216731   1.401   1.934   3.152
 5278SOL     OW16732   4.656   0.340   4.020
 5278SOL    HW116733   4.643   0.427   4.067
 5278SOL    HW216734   4.732   0.347   3.956
 5279SOL     OW16735   1.465   5.262   6.628
 5279SOL    HW116736   1.475   5.203   6.708
 5279SOL    HW216737   1.394   5.330   6.646
 5280SOL     OW16738   3.372   6.294   5.424
 5280SOL    HW116739   3.291   6.244   5.456
 5280SOL    HW216740   3.353   6.332   5.333
 5281SOL     OW16741   0.666   1.648   3.033
 5281SOL    HW116742   0.728   1.680   2.961
 5281SOL    HW216743   0.711   1.577   3.086
 5282SOL     OW16744   2.201   1.702   3.045
 5282SOL    HW116745   2.219   1.768   2.972
 5282SOL    HW216746   2.277   1.705   3.111
 5283SOL     OW16747   3.680   0.027   2.125
 5283SOL    HW116748   3.687   0.096   2.197
 5283SOL    HW216749   3.665   0.072   2.037
 5284SOL     OW16750   5.496   3.739   3.034
 5284SOL    HW116751   5.430   3.732   3.109
 5284SOL    HW216752   5.456   3.699   2.951
 5285SOL     OW16753   1.892   3.940   4.266
 5285SOL    HW116754   1.938   3.864   4.220
 5285SOL    HW216755   1.793   3.925   4.264
 5286SOL     OW16756   0.257   3.683   1.125
 5286SOL    HW116757   0.269   3.653   1.031
 5286SOL    HW216758   0.217   3.774   1.127
 5287SOL     OW16759   1.489   5.915   1.913
 5287SOL    HW116760   1.585   5.926   1.940
 5287SOL    HW216761   1.433   5.905   1.996
 5288SOL     OW16762   3.763   0.511   2.665
 5288SOL    HW116763   3.693   0.506   2.736
 5288SOL    HW216764   3.721   0.500   2.575
 5289SOL     OW16765   1.634   5.703   6.059
 5289SOL    HW116766   1.683   5.770   6.114
 5289SOL    HW216767   1.538   5.731   6.050
 5290SOL     OW16768   1.793   4.635   5.326
 5290SOL    HW116769   1.796   4.671   5.232
 5290SOL    HW216770   1.815   4.538   5.324
 5291SOL     OW16771   2.924   4.938   5.684
 5291SOL    HW116772   2.912   5.005   5.610
 5291SOL    HW216773   3.016   4.901   5.681
 5292SOL     OW16774   6.480   4.582   0.337
 5292SOL    HW116775   6.524   4.653   0.282
 5292SOL    HW216776   6.395   4.553   0.293
 5293SOL     OW16777   1.423   0.693   4.058
 5293SOL    HW116778   1.446   0.782   4.020
 5293SOL    HW216779   1.335   0.663   4.022
 5294SOL     OW16780   5.872   2.904   4.989
 5294SOL    HW116781   5.878   2.818   4.939
 5294SOL    HW216782   5.826   2.973   4.933
 5295SOL     OW16783   4.179   0.889   2.510
 5295SOL    HW116784   4.154   0.899   2.606
 5295SOL    HW216785   4.226   0.972   2.479
 5296SOL     OW16786   2.034   5.346   0.607
 5296SOL    HW116787   1.977   5.319   0.530
 5296SOL    HW216788   2.079   5.265   0.645
 5297SOL     OW16789   3.090   1.973   0.573
 5297SOL    HW116790   3.117   2.058   0.528
 5297SOL    HW216791   3.038   1.994   0.656
 5298SOL     OW16792   1.332   6.089   6.488
 5298SOL    HW116793   1.250   6.073   6.432
 5298SOL    HW216794   1.386   6.005   6.491
 5299SOL     OW16795   2.751   2.407   0.753
 5299SOL    HW116796   2.809   2.369   0.825
 5299SOL    HW216797   2.797   2.401   0.665
 5300SOL     OW16798   0.725   6.066   1.683
 5300SOL    HW116799   0.706   5.970   1.666
 5300SOL    HW216800   0.822   6.085   1.667
 5301SOL     OW16801   3.726   2.373   6.295
 5301SOL    HW116802   3.704   2.284   6.253
 5301SOL    HW216803   3.822   2.395   6.278
 5302SOL     OW16804   5.885   5.387   3.800
 5302SOL    HW116805   5.825   5.438   3.861
 5302SOL    HW216806   5.955   5.340   3.854
 5303SOL     OW16807   6.682   5.761   2.804
 5303SOL    HW116808   6.772   5.716   2.805
 5303SOL    HW216809   6.612   5.695   2.833
 5304SOL     OW16810   5.540   1.523   6.755
 5304SOL    HW116811   5.577   1.616   6.756
 5304SOL    HW216812   5.451   1.522   6.800
 5305SOL     OW16813   1.404   5.351   3.807
 5305SOL    HW116814   1.313   5.327   3.841
 5305SOL    HW216815   1.397   5.392   3.716
 5306SOL     OW16816   0.703   4.802   5.022
 5306SOL    HW116817   0.605   4.787   5.012
 5306SOL    HW216818   0.739   4.847   4.940
 5307SOL     OW16819   4.194   0.055   0.607
 5307SOL    HW116820   4.178   6.974   0.615
 5307SOL    HW216821   4.177   0.083   0.513
 5308SOL     OW16822   0.964   6.557   3.330
 5308SOL    HW116823   0.991   6.470   3.290
 5308SOL    HW216824   0.873   6.548   3.371
 5309SOL     OW16825   3.854   4.649   1.697
 5309SOL    HW116826   3.760   4.630   1.728
 5309SOL    HW216827   3.898   4.711   1.761
 5310SOL     OW16828   6.267   3.513   1.677
 5310SOL    HW116829   6.204   3.584   1.707
 5310SOL    HW216830   6.238   3.478   1.588
 5311SOL     OW16831   0.342   6.404   0.086
 5311SOL    HW116832   0.257   6.451   0.063
 5311SOL    HW216833   0.329   6.305   0.082
 5312SOL     OW16834   0.501   4.614   1.593
 5312SOL    HW116835   0.420   4.664   1.563
 5312SOL    HW216836   0.506   4.526   1.546
 5313SOL     OW16837   1.354   4.894   6.308
 5313SOL    HW116838   1.378   4.991   6.300
 5313SOL    HW216839   1.312   4.864   6.223
 5314SOL     OW16840   3.705   6.156   6.992
 5314SOL    HW116841   3.667   6.199   6.910
 5314SOL    HW216842   3.732   6.227   0.040
 5315SOL     OW16843   5.001   3.459   1.834
 5315SOL    HW116844   4.965   3.538   1.785
 5315SOL    HW216845   4.937   3.383   1.826
 5316SOL     OW16846   0.061   4.602   5.109
 5316SOL    HW116847   0.084   4.512   5.072
 5316SOL    HW216848   0.001   4.591   5.189
 5317SOL     OW16849   6.665   6.835   5.071
 5317SOL    HW116850   6.685   6.811   5.166
 5317SOL    HW216851   6.644   6.753   5.019
 5318SOL     OW16852   0.044   2.310   6.238
 5318SOL    HW116853   0.051   2.288   6.140
 5318SOL    HW216854   6.976   2.272   6.274
 5319SOL     OW16855   4.504   6.722   6.760
 5319SOL    HW116856   4.444   6.703   6.838
 5319SOL    HW216857   4.514   6.639   6.705
 5320SOL     OW16858   6.160   4.957   0.253
 5320SOL    HW116859   6.107   5.041   0.250
 5320SOL    HW216860   6.132   4.896   0.179
 5321SOL     OW16861   0.984   4.085   3.381
 5321SOL    HW116862   0.912   4.068   3.448
 5321SOL    HW216863   0.979   4.016   3.309
 5322SOL     OW16864   4.228   6.111   6.498
 5322SOL    HW116865   4.213   6.142   6.404
 5322SOL    HW216866   4.179   6.172   6.561
 5323SOL     OW16867   3.561   2.906   6.950
 5323SOL    HW116868   3.494   2.917   0.006
 5323SOL    HW216869   3.535   2.963   6.872
 5324SOL     OW16870   3.978   2.405   1.192
 5324SOL    HW116871   3.897   2.381   1.246
 5324SOL    HW216872   4.012   2.494   1.220
 5325SOL     OW16873   4.613   0.588   4.130
 5325SOL    HW116874   4.588   0.624   4.220
 5325SOL    HW216875   4.705   0.619   4.106
 5326SOL     OW16876   0.202   5.345   4.083
 5326SOL    HW116877   0.194   5.257   4.131
 5326SOL    HW216878   0.290   5.349   4.037
 5327SOL     OW16879   5.588   3.948   5.141
 5327SOL    HW116880   5.651   3.875   5.118
 5327SOL    HW216881   5.622   3.997   5.222
 5328SOL     OW16882   3.742   3.237   5.823
 5328SOL    HW116883   3.803   3.241   5.902
 5328SOL    HW216884   3.668   3.303   5.834
 5329SOL     OW16885   6.750   4.354   0.236
 5329SOL    HW116886   6.777   4.298   0.157
 5329SOL    HW216887   6.699   4.299   0.301
 5330SOL     OW16888   3.742   4.106   6.107
 5330SOL    HW116889   3.807   4.030   6.103
 5330SOL    HW216890   3.789   4.192   6.083
 5331SOL     OW16891   5.361   1.243   1.105
 5331SOL    HW116892   5.383   1.293   1.189
 5331SOL    HW216893   5.267   1.261   1.079
 5332SOL     OW16894   0.541   3.777   1.031
 5332SOL    HW116895   0.627   3.799   1.077
 5332SOL    HW216896   0.470   3.764   1.100
 5333SOL     OW16897   0.974   0.545   3.507
 5333SOL    HW116898   1.050   0.484   3.534
 5333SOL    HW216899   0.938   0.590   3.589
 5334SOL     OW16900   3.834   6.723   4.309
 5334SOL    HW116901   3.864   6.690   4.219
 5334SOL    HW216902   3.914   6.731   4.369
 5335SOL     OW16903   6.560   5.454   2.662
 5335SOL    HW116904   6.498   5.377   2.676
 5335SOL    HW216905   6.595   5.452   2.569
 5336SOL     OW16906   1.632   1.985   2.951
 5336SOL    HW116907   1.542   1.991   2.993
 5336SOL    HW216908   1.656   1.889   2.936
 5337SOL     OW16909   5.394   4.421   2.216
 5337SOL    HW116910   5.458   4.485   2.173
 5337SOL    HW216911   5.421   4.327   2.193
 5338SOL     OW16912   6.082   0.551   5.850
 5338SOL    HW116913   6.049   0.459   5.826
 5338SOL    HW216914   6.149   0.581   5.782
 5339SOL     OW16915   6.206   2.068   3.329
 5339SOL    HW116916   6.274   2.013   3.281
 5339SOL    HW216917   6.180   2.145   3.271
 5340SOL     OW16918   5.565   3.586   1.564
 5340SOL    HW116919   5.526   3.545   1.647
 5340SOL    HW216920   5.591   3.681   1.582
 5341SOL     OW16921   3.245   5.051   6.001
 5341SOL    HW116922   3.279   4.984   6.066
 5341SOL    HW216923   3.320   5.082   5.942
 5342SOL     OW16924   4.425   6.881   4.331
 5342SOL    HW116925   4.383   6.953   4.386
 5342SOL    HW216926   4.522   6.872   4.356
 5343SOL     OW16927   3.692   3.661   4.872
 5343SOL    HW116928   3.669   3.563   4.873
 5343SOL    HW216929   3.615   3.714   4.905
 5344SOL     OW16930   1.811   1.853   0.828
 5344SOL    HW116931   1.788   1.760   0.800
 5344SOL    HW216932   1.873   1.849   0.907
 5345SOL     OW16933   4.274   6.293   0.462
 5345SOL    HW116934   4.278   6.287   0.562
 5345SOL    HW216935   4.297   6.203   0.423
 5346SOL     OW16936   3.347   5.376   3.935
 5346SOL    HW116937   3.407   5.302   3.963
 5346SOL    HW216938   3.401   5.452   3.899
 5347SOL     OW16939   6.853   3.004   2.183
 5347SOL    HW116940   6.788   2.980   2.112
 5347SOL    HW216941   6.810   3.068   2.247
 5348SOL     OW16942   6.765   1.913   0.636
 5348SOL    HW116943   6.732   1.831   0.682
 5348SOL    HW216944   6.760   1.991   0.698
 5349SOL     OW16945   2.363   2.657   0.246
 5349SOL    HW116946   2.371   2.706   0.160
 5349SOL    HW216947   2.396   2.563   0.234
 5350SOL     OW16948   1.257   6.945   4.786
 5350SOL    HW116949   1.294   6.958   4.879
 5350SOL    HW216950   1.333   6.937   4.721
 5351SOL     OW16951   6.683   5.136   2.038
 5351SOL    HW116952   6.657   5.175   1.950
 5351SOL    HW216953   6.752   5.065   2.024
 5352SOL     OW16954   1.961   4.983   3.136
 5352SOL    HW116955   2.030   4.962   3.067
 5352SOL    HW216956   1.942   5.081   3.135
 5353SOL     OW16957   3.798   5.223   4.358
 5353SOL    HW116958   3.712   5.263   4.389
 5353SOL    HW216959   3.795   5.124   4.369
 5354SOL     OW16960   2.014   4.615   0.688
 5354SOL    HW116961   1.935   4.639   0.746
 5354SOL    HW216962   2.028   4.686   0.619
 5355SOL     OW16963   6.284   4.376   4.595
 5355SOL    HW116964   6.307   4.466   4.557
 5355SOL    HW216965   6.187   4.358   4.579
 5356SOL     OW16966   6.575   3.714   2.349
 5356SOL    HW116967   6.577   3.620   2.315
 5356SOL    HW216968   6.662   3.759   2.328
 5357SOL     OW16969   2.814   5.929   6.990
 5357SOL    HW116970   2.871   5.941   0.054
 5357SOL    HW216971   2.736   5.871   7.013
 5358SOL     OW16972   4.755   1.575   0.460
 5358SOL    HW116973   4.658   1.599   0.465
 5358SOL    HW216974   4.776   1.505   0.529
 5359SOL     OW16975   2.297   1.081   6.046
 5359SOL    HW116976   2.354   1.160   6.068
 5359SOL    HW216977   2.228   1.107   5.979
 5360SOL     OW16978   3.535   6.113   3.517
 5360SOL    HW116979   3.467   6.103   3.590
 5360SOL    HW216980   3.554   6.024   3.476
 5361SOL     OW16981   2.423   0.787   4.592
 5361SOL    HW116982   2.428   0.701   4.642
 5361SOL    HW216983   2.480   0.855   4.637
 5362SOL     OW16984   6.059   6.296   2.473
 5362SOL    HW116985   6.145   6.342   2.500
 5362SOL    HW216986   6.016   6.257   2.554
 5363SOL     OW16987   6.436   6.619   5.492
 5363SOL    HW116988   6.478   6.650   5.577
 5363SOL    HW216989   6.444   6.520   5.485
 5364SOL     OW16990   6.543   0.349   2.036
 5364SOL    HW116991   6.609   0.372   1.964
 5364SOL    HW216992   6.475   0.286   1.999
 5365SOL     OW16993   3.873   2.992   1.147
 5365SOL    HW116994   3.946   3.023   1.206
 5365SOL    HW216995   3.804   2.943   1.201
 5366SOL     OW16996   6.111   6.042   0.752
 5366SOL    HW116997   6.163   5.970   0.706
 5366SOL    HW216998   6.047   6.083   0.688
 5367SOL     OW16999   0.337   7.009   1.448
 5367SOL    HW117000   0.318   0.037   1.361
 5367SOL    HW217001   0.279   0.031   1.520
 5368SOL     OW17002   5.636   0.134   1.991
 5368SOL    HW117003   5.709   0.116   2.056
 5368SOL    HW217004   5.559   0.073   2.010
 5369SOL     OW17005   2.590   6.549   0.764
 5369SOL    HW117006   2.595   6.480   0.837
 5369SOL    HW217007   2.512   6.608   0.780
 5370SOL     OW17008   4.858   2.728   0.840
 5370SOL    HW117009   4.844   2.710   0.743
 5370SOL    HW217010   4.771   2.755   0.881
 5371SOL     OW17011   0.327   3.947   5.680
 5371SOL    HW117012   0.258   4.018   5.695
 5371SOL    HW217013   0.417   3.983   5.707
 5372SOL     OW17014   1.336   5.682   3.115
 5372SOL    HW117015   1.425   5.723   3.137
 5372SOL    HW217016   1.265   5.729   3.167
 5373SOL     OW17017   3.933   6.609   4.930
 5373SOL    HW117018   3.869   6.678   4.896
 5373SOL    HW217019   3.885   6.548   4.993
 5374SOL     OW17020   2.182   3.885   0.585
 5374SOL    HW117021   2.236   3.941   0.649
 5374SOL    HW217022   2.094   3.863   0.626
 5375SOL     OW17023   0.668   6.321   4.524
 5375SOL    HW117024   0.607   6.357   4.453
 5375SOL    HW217025   0.612   6.279   4.596
 5376SOL     OW17026   1.166   2.311   1.298
 5376SOL    HW117027   1.265   2.301   1.288
 5376SOL    HW217028   1.136   2.263   1.381
 5377SOL     OW17029   0.235   0.014   2.342
 5377SOL    HW117030   0.232   0.114   2.342
 5377SOL    HW217031   0.260   7.000   2.433
 5378SOL     OW17032   6.861   0.136   2.357
 5378SOL    HW117033   6.931   0.193   2.399
 5378SOL    HW217034   6.774   0.186   2.357
 5379SOL     OW17035   0.481   4.042   4.991
 5379SOL    HW117036   0.443   4.114   4.933
 5379SOL    HW217037   0.434   4.041   5.079
 5380SOL     OW17038   2.774   0.383   2.681
 5380SOL    HW117039   2.690   0.359   2.632
 5380SOL    HW217040   2.851   0.381   2.617
 5381SOL     OW17041   6.185   5.178   2.041
 5381SOL    HW117042   6.167   5.211   2.134
 5381SOL    HW217043   6.161   5.250   1.976
 5382SOL     OW17044   2.712   1.457   2.083
 5382SOL    HW117045   2.769   1.516   2.025
 5382SOL    HW217046   2.730   1.479   2.179
 5383SOL     OW17047   2.012   2.227   5.074
 5383SOL    HW117048   1.942   2.224   5.145
 5383SOL    HW217049   1.979   2.280   4.996
 5384SOL     OW17050   5.560   0.224   4.842
 5384SOL    HW117051   5.636   0.171   4.881
 5384SOL    HW217052   5.531   0.182   4.757
 5385SOL     OW17053   3.718   3.646   4.496
 5385SOL    HW117054   3.792   3.704   4.529
 5385SOL    HW217055   3.706   3.658   4.398
 5386SOL     OW17056   4.677   1.203   4.240
 5386SOL    HW117057   4.593   1.248   4.271
 5386SOL    HW217058   4.658   1.153   4.155
 5387SOL     OW17059   1.890   6.767   3.622
 5387SOL    HW117060   1.826   6.702   3.584
 5387SOL    HW217061   1.921   6.736   3.712
 5388SOL     OW17062   0.395   0.992   3.183
 5388SOL    HW117063   0.335   0.922   3.146
 5388SOL    HW217064   0.365   1.082   3.150
 5389SOL     OW17065   3.240   1.567   3.331
 5389SOL    HW117066   3.321   1.510   3.319
 5389SOL    HW217067   3.255   1.655   3.285
 5390SOL     OW17068   4.870   3.969   3.631
 5390SOL    HW117069   4.857   3.978   3.730
 5390SOL    HW217070   4.823   4.044   3.584
 5391SOL     OW17071   2.846   1.209   0.895
 5391SOL    HW117072   2.812   1.237   0.806
 5391SOL    HW217073   2.781   1.147   0.938
 5392SOL     OW17074   5.958   3.710   1.452
 5392SOL    HW117075   5.994   3.617   1.438
 5392SOL    HW217076   6.032   3.776   1.437
 5393SOL     OW17077   5.162   0.439   5.381
 5393SOL    HW117078   5.098   0.375   5.424
 5393SOL    HW217079   5.256   0.413   5.403
 5394SOL     OW17080   0.333   5.678   1.201
 5394SOL    HW117081   0.305   5.726   1.284
 5394SOL    HW217082   0.364   5.744   1.133
 5395SOL     OW17083   5.053   0.981   1.219
 5395SOL    HW117084   5.006   0.966   1.133
 5395SOL    HW217085   5.149   0.956   1.209
 5396SOL     OW17086   5.640   4.439   1.833
 5396SOL    HW117087   5.581   4.376   1.783
 5396SOL    HW217088   5.584   4.511   1.874
 5397SOL     OW17089   0.098   2.681   1.620
 5397SOL    HW117090   0.188   2.642   1.636
 5397SOL    HW217091   0.074   2.742   1.696
 5398SOL     OW17092   2.661   2.315   3.658
 5398SOL    HW117093   2.694   2.331   3.751
 5398SOL    HW217094   2.585   2.377   3.639
 5399SOL     OW17095   2.593   6.474   0.483
 5399SOL    HW117096   2.614   6.487   0.580
 5399SOL    HW217097   2.656   6.528   0.427
 5400SOL     OW17098   3.332   3.528   6.932
 5400SOL    HW117099   3.375   3.440   6.953
 5400SOL    HW217100   3.247   3.513   6.881
 5401SOL     OW17101   6.606   4.827   2.347
 5401SOL    HW117102   6.524   4.799   2.397
 5401SOL    HW217103   6.686   4.784   2.388
 5402SOL     OW17104   2.131   6.033   1.638
 5402SOL    HW117105   2.165   6.052   1.545
 5402SOL    HW217106   2.183   6.088   1.704
 5403SOL     OW17107   5.602   2.845   5.661
 5403SOL    HW117108   5.662   2.846   5.580
 5403SOL    HW217109   5.507   2.856   5.631
 5404SOL     OW17110   0.623   0.471   3.148
 5404SOL    HW117111   0.717   0.465   3.183
 5404SOL    HW217112   0.624   0.467   3.048
 5405SOL     OW17113   5.587   5.857   6.797
 5405SOL    HW117114   5.551   5.927   6.736
 5405SOL    HW217115   5.511   5.809   6.842
 5406SOL     OW17116   1.957   0.050   5.310
 5406SOL    HW117117   1.869   0.012   5.337
 5406SOL    HW217118   2.026   0.030   5.379
 5407SOL     OW17119   3.488   1.598   1.076
 5407SOL    HW117120   3.444   1.510   1.061
 5407SOL    HW217121   3.586   1.590   1.060
 5408SOL     OW17122   3.790   0.435   6.131
 5408SOL    HW117123   3.774   0.336   6.131
 5408SOL    HW217124   3.838   0.461   6.215
 5409SOL     OW17125   6.999   1.567   3.159
 5409SOL    HW117126   6.926   1.635   3.153
 5409SOL    HW217127   0.010   1.540   3.067
 5410SOL     OW17128   1.176   2.343   6.350
 5410SOL    HW117129   1.100   2.311   6.293
 5410SOL    HW217130   1.260   2.346   6.296
 5411SOL     OW17131   5.973   5.572   6.147
 5411SOL    HW117132   5.975   5.495   6.084
 5411SOL    HW217133   5.899   5.558   6.213
 5412SOL     OW17134   3.634   1.250   6.742
 5412SOL    HW117135   3.580   1.174   6.777
 5412SOL    HW217136   3.582   1.298   6.671
 5413SOL     OW17137   0.148   0.354   1.017
 5413SOL    HW117138   0.073   0.335   0.953
 5413SOL    HW217139   0.110   0.387   1.103
 5414SOL     OW17140   6.241   3.728   4.643
 5414SOL    HW117141   6.236   3.820   4.684
 5414SOL    HW217142   6.280   3.664   4.710
 5415SOL     OW17143   1.319   5.918   2.132
 5415SOL    HW117144   1.308   5.945   2.227
 5415SOL    HW217145   1.230   5.916   2.087
 5416SOL     OW17146   3.189   4.908   5.608
 5416SOL    HW117147   3.203   4.989   5.665
 5416SOL    HW217148   3.222   4.926   5.516
 5417SOL     OW17149   4.420   6.563   4.613
 5417SOL    HW117150   4.424   6.562   4.514
 5417SOL    HW217151   4.424   6.470   4.648
 5418SOL     OW17152   5.054   0.515   4.224
 5418SOL    HW117153   5.081   0.607   4.250
 5418SOL    HW217154   5.134   0.455   4.222
 5419SOL     OW17155   3.543   5.513   6.978
 5419SOL    HW117156   3.609   5.448   7.013
 5419SOL    HW217157   3.489   5.470   6.905
 5420SOL     OW17158   2.053   2.737   1.749
 5420SOL    HW117159   2.041   2.774   1.656
 5420SOL    HW217160   2.151   2.736   1.771
 5421SOL     OW17161   2.732   5.170   3.024
 5421SOL    HW117162   2.783   5.114   2.960
 5421SOL    HW217163   2.683   5.111   3.089
 5422SOL     OW17164   1.195   5.739   4.610
 5422SOL    HW117165   1.213   5.661   4.670
 5422SOL    HW217166   1.163   5.706   4.521
 5423SOL     OW17167   5.927   4.321   0.023
 5423SOL    HW117168   5.827   4.318   0.027
 5423SOL    HW217169   5.956   4.371   6.959
 5424SOL     OW17170   5.603   3.678   4.403
 5424SOL    HW117171   5.531   3.701   4.338
 5424SOL    HW217172   5.580   3.593   4.450
 5425SOL     OW17173   5.200   2.289   4.602
 5425SOL    HW117174   5.121   2.304   4.660
 5425SOL    HW217175   5.278   2.342   4.635
 5426SOL     OW17176   6.353   5.410   3.885
 5426SOL    HW117177   6.325   5.427   3.980
 5426SOL    HW217178   6.352   5.496   3.834
 5427SOL     OW17179   5.243   4.340   0.692
 5427SOL    HW117180   5.246   4.348   0.792
 5427SOL    HW217181   5.253   4.244   0.667
 5428SOL     OW17182   6.013   6.825   2.140
 5428SOL    HW117183   5.958   6.909   2.146
 5428SOL    HW217184   6.069   6.816   2.223
 5429SOL     OW17185   1.651   0.962   5.387
 5429SOL    HW117186   1.713   0.997   5.456
 5429SOL    HW217187   1.580   1.029   5.368
 5430SOL     OW17188   2.380   2.641   6.286
 5430SOL    HW117189   2.284   2.669   6.284
 5430SOL    HW217190   2.419   2.651   6.194
 5431SOL     OW17191   3.543   4.222   6.268
 5431SOL    HW117192   3.501   4.141   6.307
 5431SOL    HW217193   3.599   4.196   6.189
 5432SOL     OW17194   3.414   5.599   6.423
 5432SOL    HW117195   3.426   5.696   6.442
 5432SOL    HW217196   3.487   5.546   6.466
 5433SOL     OW17197   0.248   0.565   2.877
 5433SOL    HW117198   0.150   0.544   2.878
 5433SOL    HW217199   0.286   0.542   2.787
 5434SOL     OW17200   4.321   0.989   4.705
 5434SOL    HW117201   4.376   1.072   4.692
 5434SOL    HW217202   4.377   0.908   4.686
 5435SOL     OW17203   6.108   1.888   1.508
 5435SOL    HW117204   6.044   1.930   1.572
 5435SOL    HW217205   6.103   1.789   1.517
 5436SOL     OW17206   5.743   4.346   4.268
 5436SOL    HW117207   5.787   4.271   4.318
 5436SOL    HW217208   5.813   4.400   4.221
 5437SOL     OW17209   2.998   5.480   5.876
 5437SOL    HW117210   3.049   5.509   5.795
 5437SOL    HW217211   3.028   5.389   5.903
 5438SOL     OW17212   6.292   3.725   2.207
 5438SOL    HW117213   6.336   3.776   2.280
 5438SOL    HW217214   6.193   3.729   2.217
 5439SOL     OW17215   6.894   2.261   0.418
 5439SOL    HW117216   6.972   2.205   0.445
 5439SOL    HW217217   6.897   2.277   0.319
 5440SOL     OW17218   6.602   0.207   3.550
 5440SOL    HW117219   6.640   0.129   3.600
 5440SOL    HW217220   6.605   0.189   3.452
 5441SOL     OW17221   4.786   2.714   3.233
 5441SOL    HW117222   4.780   2.811   3.255
 5441SOL    HW217223   4.721   2.662   3.289
 5442SOL     OW17224   2.860   6.755   3.078
 5442SOL    HW117225   2.779   6.805   3.049
 5442SOL    HW217226   2.871   6.764   3.177
 5443SOL     OW17227   3.346   5.486   4.381
 5443SOL    HW117228   3.292   5.528   4.308
 5443SOL    HW217229   3.442   5.481   4.354
 5444SOL     OW17230   0.157   0.465   3.596
 5444SOL    HW117231   0.247   0.460   3.555
 5444SOL    HW217232   0.138   0.559   3.626
 5445SOL     OW17233   6.033   4.164   3.816
 5445SOL    HW117234   6.014   4.222   3.736
 5445SOL    HW217235   6.131   4.146   3.822
 5446SOL     OW17236   5.616   5.497   4.880
 5446SOL    HW117237   5.640   5.429   4.950
 5446SOL    HW217238   5.697   5.518   4.826
 5447SOL     OW17239   1.243   1.588   0.551
 5447SOL    HW117240   1.144   1.601   0.550
 5447SOL    HW217241   1.264   1.494   0.580
 5448SOL     OW17242   5.909   4.505   4.625
 5448SOL    HW117243   5.947   4.445   4.555
 5448SOL    HW217244   5.970   4.508   4.704
 5449SOL     OW17245   1.987   1.588   0.584
 5449SOL    HW117246   2.056   1.660   0.585
 5449SOL    HW217247   1.923   1.601   0.659
 5450SOL     OW17248   2.865   0.457   0.885
 5450SOL    HW117249   2.795   0.480   0.818
 5450SOL    HW217250   2.950   0.503   0.862
 5451SOL     OW17251   2.518   6.366   3.899
 5451SOL    HW117252   2.431   6.347   3.944
 5451SOL    HW217253   2.510   6.343   3.802
 5452SOL     OW17254   2.887   4.000   6.670
 5452SOL    HW117255   2.962   3.939   6.643
 5452SOL    HW217256   2.844   4.039   6.589
 5453SOL     OW17257   5.248   4.196   1.967
 5453SOL    HW117258   5.176   4.256   2.002
 5453SOL    HW217259   5.315   4.178   2.040
 5454SOL     OW17260   5.138   5.567   6.515
 5454SOL    HW117261   5.152   5.483   6.462
 5454SOL    HW217262   5.210   5.574   6.584
 5455SOL     OW17263   0.020   2.165   2.758
 5455SOL    HW117264   6.980   2.136   2.682
 5455SOL    HW217265   0.042   2.087   2.816
 5456SOL     OW17266   2.826   6.817   0.076
 5456SOL    HW117267   2.750   6.850   0.020
 5456SOL    HW217268   2.791   6.771   0.158
 5457SOL     OW17269   6.227   2.044   1.775
 5457SOL    HW117270   6.268   2.030   1.684
 5457SOL    HW217271   6.257   2.132   1.811
 5458SOL     OW17272   0.658   5.125   0.651
 5458SOL    HW117273   0.744   5.127   0.600
 5458SOL    HW217274   0.677   5.137   0.749
 5459SOL     OW17275   3.694   3.615   6.574
 5459SOL    HW117276   3.788   3.582   6.569
 5459SOL    HW217277   3.651   3.585   6.659
 5460SOL     OW17278   3.440   6.091   2.891
 5460SOL    HW117279   3.501   6.132   2.824
 5460SOL    HW217280   3.493   6.052   2.966
 5461SOL     OW17281   0.272   0.873   5.521
 5461SOL    HW117282   0.339   0.820   5.470
 5461SOL    HW217283   0.309   0.963   5.543
 5462SOL     OW17284   5.551   6.646   6.948
 5462SOL    HW117285   5.625   6.637   6.883
 5462SOL    HW217286   5.584   6.621   0.022
 5463SOL     OW17287   0.079   1.386   6.927
 5463SOL    HW117288   0.110   1.317   6.992
 5463SOL    HW217289   0.005   1.348   6.871
 5464SOL     OW17290   6.247   0.262   4.344
 5464SOL    HW117291   6.277   0.241   4.436
 5464SOL    HW217292   6.293   0.344   4.311
 5465SOL     OW17293   4.848   0.517   4.376
 5465SOL    HW117294   4.942   0.531   4.347
 5465SOL    HW217295   4.793   0.596   4.349
 5466SOL     OW17296   5.152   3.005   5.023
 5466SOL    HW117297   5.098   2.925   4.996
 5466SOL    HW217298   5.242   3.001   4.979
 5467SOL     OW17299   5.466   3.863   3.652
 5467SOL    HW117300   5.412   3.928   3.599
 5467SOL    HW217301   5.513   3.800   3.590
 5468SOL     OW17302   6.418   2.615   3.457
 5468SOL    HW117303   6.502   2.625   3.404
 5468SOL    HW217304   6.373   2.529   3.432
 5469SOL     OW17305   2.726   6.631   5.749
 5469SOL    HW117306   2.822   6.658   5.747
 5469SOL    HW217307   2.698   6.613   5.843
 5470SOL     OW17308   3.749   5.494   3.468
 5470SOL    HW117309   3.702   5.581   3.459
 5470SOL    HW217310   3.683   5.419   3.456
 5471SOL     OW17311   5.978   0.353   3.400
 5471SOL    HW117312   5.904   0.419   3.390
 5471SOL    HW217313   6.010   0.352   3.495
 5472SOL     OW17314   3.056   3.540   6.359
 5472SOL    HW117315   3.131   3.477   6.339
 5472SOL    HW217316   2.975   3.513   6.308
 5473SOL     OW17317   1.338   3.314   1.774
 5473SOL    HW117318   1.267   3.317   1.845
 5473SOL    HW217319   1.418   3.267   1.809
 5474SOL     OW17320   1.030   4.365   4.228
 5474SOL    HW117321   1.115   4.315   4.212
 5474SOL    HW217322   0.954   4.301   4.235
 5475SOL     OW17323   2.078   2.625   1.012
 5475SOL    HW117324   2.073   2.527   1.029
 5475SOL    HW217325   2.150   2.665   1.069
 5476SOL     OW17326   2.063   4.989   4.935
 5476SOL    HW117327   2.090   4.896   4.911
 5476SOL    HW217328   2.067   5.001   5.034
 5477SOL     OW17329   2.279   4.185   2.435
 5477SOL    HW117330   2.199   4.127   2.452
 5477SOL    HW217331   2.312   4.222   2.522
 5478SOL     OW17332   3.062   6.319   4.573
 5478SOL    HW117333   3.001   6.272   4.510
 5478SOL    HW217334   3.027   6.312   4.666
 5479SOL     OW17335   5.473   1.243   5.804
 5479SOL    HW117336   5.530   1.283   5.877
 5479SOL    HW217337   5.523   1.168   5.761
 5480SOL     OW17338   5.918   5.774   4.000
 5480SOL    HW117339   5.852   5.763   3.925
 5480SOL    HW217340   5.891   5.716   4.076
 5481SOL     OW17341   4.458   1.456   4.502
 5481SOL    HW117342   4.528   1.523   4.477
 5481SOL    HW217343   4.381   1.503   4.546
 5482SOL     OW17344   3.690   4.472   1.481
 5482SOL    HW117345   3.756   4.397   1.474
 5482SOL    HW217346   3.672   4.492   1.577
 5483SOL     OW17347   6.971   2.300   5.347
 5483SOL    HW117348   0.023   2.264   5.285
 5483SOL    HW217349   6.880   2.291   5.304
 5484SOL     OW17350   3.885   1.144   3.867
 5484SOL    HW117351   3.927   1.093   3.942
 5484SOL    HW217352   3.950   1.150   3.790
 5485SOL     OW17353   3.546   7.006   4.370
 5485SOL    HW117354   3.545   6.945   4.449
 5485SOL    HW217355   3.521   0.081   4.398
 5486SOL     OW17356   1.666   6.203   5.278
 5486SOL    HW117357   1.599   6.220   5.205
 5486SOL    HW217358   1.724   6.126   5.252
 5487SOL     OW17359   5.816   3.471   6.937
 5487SOL    HW117360   5.846   3.400   6.874
 5487SOL    HW217361   5.779   3.430   0.003
 5488SOL     OW17362   6.004   0.241   1.041
 5488SOL    HW117363   6.056   0.310   1.092
 5488SOL    HW217364   6.049   0.152   1.051
 5489SOL     OW17365   0.824   4.225   1.278
 5489SOL    HW117366   0.810   4.182   1.189
 5489SOL    HW217367   0.892   4.173   1.330
 5490SOL     OW17368   3.048   6.921   1.088
 5490SOL    HW117369   3.089   6.872   1.166
 5490SOL    HW217370   3.121   6.955   1.029
 5491SOL     OW17371   1.611   3.936   0.817
 5491SOL    HW117372   1.633   3.846   0.780
 5491SOL    HW217373   1.694   3.991   0.822
 5492SOL     OW17374   0.138   2.905   5.970
 5492SOL    HW117375   0.231   2.892   5.937
 5492SOL    HW217376   0.138   2.969   6.047
 5493SOL     OW17377   3.133   4.009   4.062
 5493SOL    HW117378   3.074   3.954   4.003
 5493SOL    HW217379   3.116   3.986   4.158
 5494SOL     OW17380   6.817   3.061   6.505
 5494SOL    HW117381   6.907   3.071   6.548
 5494SOL    HW217382   6.826   3.080   6.407
 5495SOL     OW17383   3.781   1.301   0.719
 5495SOL    HW117384   3.840   1.233   0.677
 5495SOL    HW217385   3.715   1.256   0.780
 5496SOL     OW17386   3.584   0.978   3.574
 5496SOL    HW117387   3.587   0.881   3.551
 5496SOL    HW217388   3.613   0.990   3.669
 5497SOL     OW17389   0.522   2.009   4.703
 5497SOL    HW117390   0.507   1.922   4.655
 5497SOL    HW217391   0.477   2.005   4.792
 5498SOL     OW17392   6.369   5.925   1.144
 5498SOL    HW117393   6.450   5.926   1.203
 5498SOL    HW217394   6.384   5.987   1.066
 5499SOL     OW17395   0.482   0.513   4.682
 5499SOL    HW117396   0.418   0.505   4.759
 5499SOL    HW217397   0.576   0.513   4.718
 5500SOL     OW17398   1.080   0.604   0.738
 5500SOL    HW117399   1.060   0.696   0.704
 5500SOL    HW217400   1.176   0.600   0.766
 5501SOL     OW17401   3.498   0.848   0.610
 5501SOL    HW117402   3.544   0.759   0.611
 5501SOL    HW217403   3.498   0.883   0.516
 5502SOL     OW17404   5.270   3.548   0.359
 5502SOL    HW117405   5.311   3.573   0.272
 5502SOL    HW217406   5.195   3.611   0.380
 5503SOL     OW17407   0.802   4.805   2.429
 5503SOL    HW117408   0.837   4.765   2.514
 5503SOL    HW217409   0.763   4.733   2.372
 5504SOL     OW17410   4.148   0.789   5.317
 5504SOL    HW117411   4.246   0.794   5.298
 5504SOL    HW217412   4.101   0.861   5.266
 5505SOL     OW17413   2.296   5.070   4.156
 5505SOL    HW117414   2.275   5.064   4.059
 5505SOL    HW217415   2.233   5.135   4.200
 5506SOL     OW17416   1.179   2.227   0.240
 5506SOL    HW117417   1.188   2.319   0.278
 5506SOL    HW217418   1.151   2.163   0.312
 5507SOL     OW17419   3.711   1.206   4.436
 5507SOL    HW117420   3.722   1.150   4.354
 5507SOL    HW217421   3.646   1.280   4.417
 5508SOL     OW17422   1.440   0.891   6.635
 5508SOL    HW117423   1.477   0.856   6.548
 5508SOL    HW217424   1.448   0.991   6.636
 5509SOL     OW17425   0.379   6.573   6.746
 5509SOL    HW117426   0.447   6.506   6.777
 5509SOL    HW217427   0.387   6.586   6.647
 5510SOL     OW17428   4.829   5.548   7.005
 5510SOL    HW117429   4.762   5.613   6.969
 5510SOL    HW217430   4.860   5.578   0.077
 5511SOL     OW17431   1.787   1.296   3.675
 5511SOL    HW117432   1.812   1.239   3.754
 5511SOL    HW217433   1.736   1.376   3.707
 5512SOL     OW17434   5.362   2.134   1.350
 5512SOL    HW117435   5.344   2.211   1.289
 5512SOL    HW217436   5.460   2.114   1.349
 5513SOL     OW17437   4.585   4.310   6.068
 5513SOL    HW117438   4.664   4.295   6.009
 5513SOL    HW217439   4.502   4.281   6.021
 5514SOL     OW17440   4.167   6.780   3.904
 5514SOL    HW117441   4.121   6.851   3.851
 5514SOL    HW217442   4.102   6.735   3.964
 5515SOL     OW17443   1.217   5.950   2.407
 5515SOL    HW117444   1.202   6.048   2.422
 5515SOL    HW217445   1.130   5.904   2.390
 5516SOL     OW17446   1.772   3.938   6.544
 5516SOL    HW117447   1.768   4.010   6.613
 5516SOL    HW217448   1.854   3.950   6.488
 5517SOL     OW17449   2.345   2.766   1.781
 5517SOL    HW117450   2.378   2.853   1.745
 5517SOL    HW217451   2.396   2.691   1.739
 5518SOL     OW17452   6.017   6.846   6.743
 5518SOL    HW117453   6.092   6.803   6.793
 5518SOL    HW217454   5.931   6.799   6.763
 5519SOL     OW17455   5.635   3.773   3.457
 5519SOL    HW117456   5.681   3.701   3.508
 5519SOL    HW217457   5.702   3.842   3.430
 5520SOL     OW17458   6.354   6.939   2.410
 5520SOL    HW117459   6.331   6.943   2.507
 5520SOL    HW217460   6.343   6.845   2.377
 5521SOL     OW17461   5.764   5.963   1.978
 5521SOL    HW117462   5.765   5.863   1.981
 5521SOL    HW217463   5.670   5.995   1.967
 5522SOL     OW17464   6.593   5.217   0.169
 5522SOL    HW117465   6.663   5.198   0.238
 5522SOL    HW217466   6.523   5.145   0.171
 5523SOL     OW17467   3.459   0.959   2.104
 5523SOL    HW117468   3.393   0.993   2.037
 5523SOL    HW217469   3.474   1.028   2.175
 5524SOL     OW17470   5.373   0.251   4.378
 5524SOL    HW117471   5.325   0.173   4.418
 5524SOL    HW217472   5.379   0.325   4.446
 5525SOL     OW17473   0.229   1.833   1.345
 5525SOL    HW117474   0.258   1.909   1.403
 5525SOL    HW217475   0.137   1.852   1.310
 5526SOL     OW17476   4.620   5.692   3.578
 5526SOL    HW117477   4.687   5.766   3.574
 5526SOL    HW217478   4.636   5.628   3.503
 5527SOL     OW17479   5.083   3.817   4.026
 5527SOL    HW117480   5.097   3.788   3.932
 5527SOL    HW217481   5.006   3.766   4.066
 5528SOL     OW17482   1.419   0.978   0.211
 5528SOL    HW117483   1.361   0.970   0.130
 5528SOL    HW217484   1.496   1.039   0.192
 5529SOL     OW17485   3.257   6.961   3.260
 5529SOL    HW117486   3.159   6.953   3.277
 5529SOL    HW217487   3.281   0.040   3.250
 5530SOL     OW17488   5.779   2.304   1.405
 5530SOL    HW117489   5.826   2.222   1.371
 5530SOL    HW217490   5.769   2.297   1.504
 5531SOL     OW17491   3.296   3.540   2.185
 5531SOL    HW117492   3.213   3.485   2.185
 5531SOL    HW217493   3.348   3.521   2.101
 5532SOL     OW17494   0.946   3.347   0.773
 5532SOL    HW117495   0.990   3.427   0.815
 5532SOL    HW217496   0.901   3.375   0.688
 5533SOL     OW17497   3.709   1.791   2.990
 5533SOL    HW117498   3.609   1.799   2.993
 5533SOL    HW217499   3.743   1.769   3.082
 5534SOL     OW17500   6.909   1.772   6.376
 5534SOL    HW117501   6.829   1.728   6.335
 5534SOL    HW217502   6.973   1.701   6.407
 5535SOL     OW17503   0.247   3.053   3.050
 5535SOL    HW117504   0.194   3.115   3.108
 5535SOL    HW217505   0.338   3.040   3.090
 5536SOL     OW17506   3.187   0.980   4.396
 5536SOL    HW117507   3.165   0.883   4.404
 5536SOL    HW217508   3.115   1.027   4.345
 5537SOL     OW17509   2.621   1.078   2.842
 5537SOL    HW117510   2.608   1.171   2.808
 5537SOL    HW217511   2.585   1.013   2.776
 5538SOL     OW17512   2.417   5.962   5.919
 5538SOL    HW117513   2.354   6.007   5.856
 5538SOL    HW217514   2.511   5.991   5.899
 5539SOL     OW17515   1.278   3.477   1.296
 5539SOL    HW117516   1.246   3.442   1.384
 5539SOL    HW217517   1.234   3.427   1.222
 5540SOL     OW17518   4.657   4.682   3.389
 5540SOL    HW117519   4.646   4.593   3.345
 5540SOL    HW217520   4.654   4.671   3.488
 5541SOL     OW17521   5.851   0.431   6.026
 5541SOL    HW117522   5.910   0.353   6.003
 5541SOL    HW217523   5.902   0.516   6.012
 5542SOL     OW17524   5.458   3.486   6.176
 5542SOL    HW117525   5.395   3.410   6.193
 5542SOL    HW217526   5.534   3.453   6.119
 5543SOL     OW17527   3.906   4.804   5.752
 5543SOL    HW117528   3.857   4.732   5.703
 5543SOL    HW217529   3.853   4.832   5.831
 5544SOL     OW17530   4.744   6.036   6.191
 5544SOL    HW117531   4.837   6.017   6.160
 5544SOL    HW217532   4.695   5.950   6.206
 5545SOL     OW17533   4.060   1.337   1.986
 5545SOL    HW117534   4.159   1.353   1.995
 5545SOL    HW217535   4.033   1.345   1.891
 5546SOL     OW17536   0.560   4.995   4.549
 5546SOL    HW117537   0.496   4.931   4.592
 5546SOL    HW217538   0.547   4.994   4.450
 5547SOL     OW17539   2.683   6.281   5.235
 5547SOL    HW117540   2.716   6.313   5.324
 5547SOL    HW217541   2.652   6.359   5.181
 5548SOL     OW17542   6.211   2.550   4.767
 5548SOL    HW117543   6.237   2.646   4.774
 5548SOL    HW217544   6.274   2.503   4.706
 5549SOL     OW17545   4.572   4.262   6.341
 5549SOL    HW117546   4.535   4.175   6.372
 5549SOL    HW217547   4.566   4.268   6.241
 5550SOL     OW17548   2.705   5.451   1.809
 5550SOL    HW117549   2.709   5.533   1.752
 5550SOL    HW217550   2.612   5.437   1.842
 5551SOL     OW17551   2.142   0.853   3.009
 5551SOL    HW117552   2.050   0.892   2.999
 5551SOL    HW217553   2.209   0.926   3.021
 5552SOL     OW17554   6.549   0.958   6.961
 5552SOL    HW117555   6.585   0.881   6.908
 5552SOL    HW217556   6.526   1.033   6.900
 5553SOL     OW17557   4.487   6.477   6.921
 5553SOL    HW117558   4.560   6.438   6.865
 5553SOL    HW217559   4.487   6.434   7.011
 5554SOL     OW17560   3.756   0.887   5.463
 5554SOL    HW117561   3.832   0.951   5.454
 5554SOL    HW217562   3.778   0.818   5.531
 5555SOL     OW17563   0.850   4.269   3.970
 5555SOL    HW117564   0.848   4.258   4.070
 5555SOL    HW217565   0.841   4.366   3.948
 5556SOL     OW17566   0.243   2.243   3.930
 5556SOL    HW117567   0.182   2.259   3.852
 5556SOL    HW217568   0.333   2.214   3.897
 5557SOL     OW17569   3.629   6.058   3.089
 5557SOL    HW117570   3.615   5.963   3.117
 5557SOL    HW217571   3.721   6.087   3.116
 5558SOL     OW17572   4.931   3.701   6.391
 5558SOL    HW117573   4.957   3.628   6.454
 5558SOL    HW217574   5.006   3.768   6.385
 5559SOL     OW17575   2.791   6.926   2.250
 5559SOL    HW117576   2.822   7.001   2.308
 5559SOL    HW217577   2.694   6.938   2.227
 5560SOL     OW17578   0.449   6.665   3.782
 5560SOL    HW117579   0.417   6.631   3.694
 5560SOL    HW217580   0.447   6.590   3.849
 5561SOL     OW17581   2.206   2.554   4.097
 5561SOL    HW117582   2.291   2.532   4.145
 5561SOL    HW217583   2.130   2.555   4.162
 5562SOL     OW17584   3.015   2.417   7.012
 5562SOL    HW117585   2.994   2.506   6.972
 5562SOL    HW217586   2.931   2.363   0.001
 5563SOL     OW17587   4.567   6.374   2.729
 5563SOL    HW117588   4.612   6.346   2.644
 5563SOL    HW217589   4.507   6.300   2.760
 5564SOL     OW17590   4.411   1.707   1.620
 5564SOL    HW117591   4.367   1.624   1.587
 5564SOL    HW217592   4.341   1.776   1.639
 5565SOL     OW17593   5.278   1.682   6.681
 5565SOL    HW117594   5.281   1.612   6.753
 5565SOL    HW217595   5.220   1.650   6.607
 5566SOL     OW17596   1.722   5.088   0.597
 5566SOL    HW117597   1.772   5.091   0.510
 5566SOL    HW217598   1.707   4.993   0.623
 5567SOL     OW17599   0.650   4.650   1.984
 5567SOL    HW117600   0.667   4.681   1.891
 5567SOL    HW217601   0.673   4.553   1.991
 5568SOL     OW17602   4.683   2.418   2.447
 5568SOL    HW117603   4.640   2.412   2.537
 5568SOL    HW217604   4.779   2.442   2.458
 5569SOL     OW17605   2.884   1.166   1.653
 5569SOL    HW117606   2.946   1.240   1.681
 5569SOL    HW217607   2.797   1.206   1.623
 5570SOL     OW17608   5.899   4.557   5.083
 5570SOL    HW117609   5.821   4.620   5.090
 5570SOL    HW217610   5.865   4.462   5.086
 5571SOL     OW17611   0.539   6.993   6.836
 5571SOL    HW117612   0.478   6.915   6.851
 5571SOL    HW217613   0.505   0.031   6.760
 5572SOL     OW17614   2.116   2.676   6.181
 5572SOL    HW117615   2.031   2.728   6.174
 5572SOL    HW217616   2.133   2.629   6.094
 5573SOL     OW17617   1.904   3.044   0.083
 5573SOL    HW117618   1.846   3.075   0.158
 5573SOL    HW217619   1.992   3.092   0.085
 5574SOL     OW17620   6.450   1.287   4.054
 5574SOL    HW117621   6.377   1.356   4.051
 5574SOL    HW217622   6.539   1.332   4.059
 5575SOL     OW17623   0.921   1.198   1.922
 5575SOL    HW117624   0.838   1.217   1.869
 5575SOL    HW217625   0.950   1.103   1.906
 5576SOL     OW17626   0.044   6.188   2.103
 5576SOL    HW117627   0.060   6.285   2.082
 5576SOL    HW217628   0.047   6.175   2.202
 5577SOL     OW17629   2.935   2.531   6.448
 5577SOL    HW117630   2.878   2.592   6.503
 5577SOL    HW217631   2.926   2.438   6.483
 5578SOL     OW17632   4.459   3.729   0.666
 5578SOL    HW117633   4.362   3.737   0.690
 5578SOL    HW217634   4.491   3.637   0.689
 5579SOL     OW17635   6.204   4.095   0.023
 5579SOL    HW117636   6.118   4.134   7.008
 5579SOL    HW217637   6.217   4.005   6.999
 5580SOL     OW17638   4.898   1.868   6.254
 5580SOL    HW117639   4.865   1.803   6.186
 5580SOL    HW217640   4.834   1.944   6.261
 5581SOL     OW17641   2.248   6.759   1.078
 5581SOL    HW117642   2.217   6.789   1.168
 5581SOL    HW217643   2.265   6.840   1.020
 5582SOL     OW17644   3.463   2.981   3.716
 5582SOL    HW117645   3.513   2.941   3.792
 5582SOL    HW217646   3.366   2.987   3.739
 5583SOL     OW17647   3.708   6.604   2.747
 5583SOL    HW117648   3.760   6.644   2.672
 5583SOL    HW217649   3.658   6.676   2.796
 5584SOL     OW17650   5.744   4.085   4.372
 5584SOL    HW117651   5.675   4.072   4.444
 5584SOL    HW217652   5.794   4.000   4.358
 5585SOL     OW17653   4.863   0.361   3.845
 5585SOL    HW117654   4.883   0.283   3.786
 5585SOL    HW217655   4.901   0.444   3.804
 5586SOL     OW17656   1.322   2.177   7.003
 5586SOL    HW117657   1.387   2.102   6.995
 5586SOL    HW217658   1.292   2.186   0.081
 5587SOL     OW17659   4.749   6.537   1.874
 5587SOL    HW117660   4.713   6.501   1.960
 5587SOL    HW217661   4.742   6.637   1.875
 5588SOL     OW17662   1.110   6.730   3.889
 5588SOL    HW117663   1.132   6.637   3.917
 5588SOL    HW217664   1.128   6.741   3.791
 5589SOL     OW17665   5.159   2.955   6.411
 5589SOL    HW117666   5.237   2.908   6.452
 5589SOL    HW217667   5.084   2.959   6.477
 5590SOL     OW17668   6.970   5.420   3.034
 5590SOL    HW117669   6.893   5.439   2.973
 5590SOL    HW217670   0.033   5.468   3.002
 5591SOL     OW17671   5.761   1.428   6.467
 5591SOL    HW117672   5.796   1.386   6.551
 5591SOL    HW217673   5.691   1.496   6.490
 5592SOL     OW17674   2.147   4.857   2.967
 5592SOL    HW117675   2.152   4.774   3.023
 5592SOL    HW217676   2.085   4.843   2.891
 5593SOL     OW17677   0.014   2.460   5.542
 5593SOL    HW117678   6.941   2.495   5.567
 5593SOL    HW217679   0.003   2.384   5.478
 5594SOL     OW17680   2.853   1.068   6.598
 5594SOL    HW117681   2.808   1.156   6.582
 5594SOL    HW217682   2.832   1.037   6.691
 5595SOL     OW17683   5.931   0.835   5.281
 5595SOL    HW117684   5.982   0.759   5.322
 5595SOL    HW217685   5.943   0.834   5.182
 5596SOL     OW17686   5.276   0.227   2.461
 5596SOL    HW117687   5.190   0.277   2.468
 5596SOL    HW217688   5.333   0.268   2.390
 5597SOL     OW17689   5.236   2.289   5.146
 5597SOL    HW117690   5.166   2.221   5.125
 5597SOL    HW217691   5.194   2.380   5.149
 5598SOL     OW17692   5.201   2.430   4.038
 5598SOL    HW117693   5.296   2.456   4.019
 5598SOL    HW217694   5.196   2.384   4.127
 5599SOL     OW17695   6.347   3.759   2.497
 5599SOL    HW117696   6.281   3.684   2.500
 5599SOL    HW217697   6.429   3.729   2.448
 5600SOL     OW17698   2.132   0.134   2.340
 5600SOL    HW117699   2.133   0.063   2.270
 5600SOL    HW217700   2.090   0.217   2.304
 5601SOL     OW17701   4.312   1.926   5.778
 5601SOL    HW117702   4.323   2.020   5.810
 5601SOL    HW217703   4.343   1.920   5.683
 5602SOL     OW17704   6.997   0.616   3.219
 5602SOL    HW117705   0.022   0.691   3.269
 5602SOL    HW217706   6.898   0.617   3.233
 5603SOL     OW17707   4.808   2.337   5.124
 5603SOL    HW117708   4.749   2.290   5.190
 5603SOL    HW217709   4.896   2.357   5.166
 5604SOL     OW17710   1.102   1.911   4.496
 5604SOL    HW117711   1.089   1.996   4.446
 5604SOL    HW217712   1.176   1.921   4.562
 5605SOL     OW17713   1.237   6.909   5.324
 5605SOL    HW117714   1.217   6.812   5.311
 5605SOL    HW217715   1.176   6.946   5.395
 5606SOL     OW17716   4.362   0.863   0.557
 5606SOL    HW117717   4.332   0.822   0.643
 5606SOL    HW217718   4.327   0.956   0.550
 5607SOL     OW17719   5.720   2.254   3.615
 5607SOL    HW117720   5.740   2.184   3.684
 5607SOL    HW217721   5.655   2.218   3.548
 5608SOL     OW17722   5.819   1.470   3.222
 5608SOL    HW117723   5.745   1.406   3.241
 5608SOL    HW217724   5.813   1.501   3.127
 5609SOL     OW17725   4.728   5.924   0.032
 5609SOL    HW117726   4.784   6.004   0.011
 5609SOL    HW217727   4.644   5.954   0.078
 5610SOL     OW17728   5.743   3.607   1.286
 5610SOL    HW117729   5.816   3.604   1.354
 5610SOL    HW217730   5.666   3.552   1.316
 5611SOL     OW17731   0.825   4.878   1.994
 5611SOL    HW117732   0.759   4.804   1.983
 5611SOL    HW217733   0.839   4.896   2.091
 5612SOL     OW17734   3.329   2.905   0.537
 5612SOL    HW117735   3.396   2.938   0.603
 5612SOL    HW217736   3.263   2.845   0.583
 5613SOL     OW17737   6.965   4.937   5.367
 5613SOL    HW117738   6.916   4.906   5.286
 5613SOL    HW217739   6.900   4.955   5.441
 5614SOL     OW17740   6.097   2.504   4.199
 5614SOL    HW117741   6.161   2.545   4.135
 5614SOL    HW217742   6.024   2.568   4.220
 5615SOL     OW17743   0.317   1.268   3.103
 5615SOL    HW117744   0.405   1.306   3.074
 5615SOL    HW217745   0.251   1.342   3.116
 5616SOL     OW17746   2.399   2.516   5.120
 5616SOL    HW117747   2.469   2.472   5.064
 5616SOL    HW217748   2.384   2.609   5.087
 5617SOL     OW17749   1.787   4.004   4.931
 5617SOL    HW117750   1.813   3.919   4.978
 5617SOL    HW217751   1.866   4.038   4.881
 5618SOL     OW17752   6.609   5.091   3.318
 5618SOL    HW117753   6.651   5.180   3.302
 5618SOL    HW217754   6.678   5.026   3.350
 5619SOL     OW17755   3.633   3.164   3.606
 5619SOL    HW117756   3.584   3.090   3.652
 5619SOL    HW217757   3.685   3.127   3.529
 5620SOL     OW17758   5.123   3.854   6.274
 5620SOL    HW117759   5.110   3.945   6.236
 5620SOL    HW217760   5.173   3.797   6.209
 5621SOL     OW17761   1.182   2.975   6.401
 5621SOL    HW117762   1.237   2.968   6.484
 5621SOL    HW217763   1.114   3.049   6.412
 5622SOL     OW17764   4.782   6.940   5.249
 5622SOL    HW117765   4.855   6.992   5.206
 5622SOL    HW217766   4.783   6.956   5.348
 5623SOL     OW17767   4.968   6.276   5.336
 5623SOL    HW117768   4.937   6.294   5.242
 5623SOL    HW217769   4.965   6.360   5.389
 5624SOL     OW17770   1.098   5.281   3.690
 5624SOL    HW117771   1.126   5.208   3.628
 5624SOL    HW217772   0.999   5.280   3.701
 5625SOL     OW17773   0.433   4.807   5.430
 5625SOL    HW117774   0.447   4.708   5.429
 5625SOL    HW217775   0.513   4.853   5.391
 5626SOL     OW17776   2.771   5.356   4.461
 5626SOL    HW117777   2.789   5.302   4.543
 5626SOL    HW217778   2.685   5.406   4.473
 5627SOL     OW17779   6.898   5.727   5.987
 5627SOL    HW117780   6.986   5.678   5.991
 5627SOL    HW217781   6.846   5.710   6.070
 5628SOL     OW17782   2.922   2.745   1.474
 5628SOL    HW117783   2.944   2.727   1.570
 5628SOL    HW217784   2.977   2.821   1.441
 5629SOL     OW17785   4.170   2.721   1.698
 5629SOL    HW117786   4.106   2.786   1.739
 5629SOL    HW217787   4.209   2.760   1.615
 5630SOL     OW17788   1.928   3.842   5.886
 5630SOL    HW117789   2.023   3.845   5.855
 5630SOL    HW217790   1.911   3.917   5.950
 5631SOL     OW17791   5.177   1.503   1.752
 5631SOL    HW117792   5.168   1.603   1.752
 5631SOL    HW217793   5.100   1.462   1.801
 5632SOL     OW17794   5.246   1.797   5.331
 5632SOL    HW117795   5.232   1.887   5.373
 5632SOL    HW217796   5.158   1.763   5.297
 5633SOL     OW17797   6.678   5.155   4.704
 5633SOL    HW117798   6.739   5.179   4.629
 5633SOL    HW217799   6.596   5.110   4.668
 5634SOL     OW17800   1.825   4.738   3.597
 5634SOL    HW117801   1.751   4.683   3.635
 5634SOL    HW217802   1.808   4.835   3.616
 5635SOL     OW17803   2.587   6.276   0.041
 5635SOL    HW117804   2.609   6.224   6.976
 5635SOL    HW217805   2.635   6.238   0.119
 5636SOL     OW17806   5.826   1.061   5.496
 5636SOL    HW117807   5.837   0.971   5.454
 5636SOL    HW217808   5.822   1.131   5.424
 5637SOL     OW17809   5.149   6.880   3.810
 5637SOL    HW117810   5.163   6.788   3.846
 5637SOL    HW217811   5.216   6.942   3.849
 5638SOL     OW17812   6.145   5.541   1.094
 5638SOL    HW117813   6.129   5.456   1.145
 5638SOL    HW217814   6.236   5.577   1.117
 5639SOL     OW17815   1.534   0.657   1.645
 5639SOL    HW117816   1.582   0.618   1.723
 5639SOL    HW217817   1.484   0.585   1.597
 5640SOL     OW17818   2.885   0.059   2.438
 5640SOL    HW117819   2.940   0.017   2.510
 5640SOL    HW217820   2.935   0.137   2.399
 5641SOL     OW17821   0.474   4.422   6.269
 5641SOL    HW117822   0.414   4.354   6.227
 5641SOL    HW217823   0.418   4.497   6.305
 5642SOL     OW17824   1.358   5.038   5.603
 5642SOL    HW117825   1.326   5.128   5.575
 5642SOL    HW217826   1.287   4.992   5.657
 5643SOL     OW17827   3.851   0.766   4.893
 5643SOL    HW117828   3.798   0.841   4.933
 5643SOL    HW217829   3.943   0.798   4.871
 5644SOL     OW17830   3.832   0.450   3.729
 5644SOL    HW117831   3.918   0.499   3.742
 5644SOL    HW217832   3.804   0.407   3.815
 5645SOL     OW17833   6.717   4.377   3.165
 5645SOL    HW117834   6.662   4.409   3.087
 5645SOL    HW217835   6.719   4.448   3.235
 5646SOL     OW17836   2.595   5.782   3.262
 5646SOL    HW117837   2.629   5.874   3.248
 5646SOL    HW217838   2.657   5.716   3.219
 5647SOL     OW17839   6.222   6.618   0.077
 5647SOL    HW117840   6.148   6.552   0.066
 5647SOL    HW217841   6.185   6.707   0.103
 5648SOL     OW17842   1.414   1.539   2.585
 5648SOL    HW117843   1.398   1.463   2.521
 5648SOL    HW217844   1.511   1.561   2.587
 5649SOL     OW17845   0.479   6.801   5.753
 5649SOL    HW117846   0.575   6.826   5.760
 5649SOL    HW217847   0.423   6.869   5.801
 5650SOL     OW17848   0.830   5.576   1.075
 5650SOL    HW117849   0.858   5.615   1.163
 5650SOL    HW217850   0.900   5.595   1.006
 5651SOL     OW17851   0.693   0.998   1.655
 5651SOL    HW117852   0.672   0.930   1.585
 5651SOL    HW217853   0.749   1.071   1.614
 5652SOL     OW17854   5.663   6.559   2.168
 5652SOL    HW117855   5.582   6.550   2.111
 5652SOL    HW217856   5.740   6.590   2.112
 5653SOL     OW17857   0.455   6.485   6.482
 5653SOL    HW117858   0.412   6.418   6.422
 5653SOL    HW217859   0.427   6.577   6.455
 5654SOL     OW17860   6.507   0.054   5.369
 5654SOL    HW117861   6.468   0.034   5.459
 5654SOL    HW217862   6.469   7.009   5.301
 5655SOL     OW17863   0.971   3.345   4.381
 5655SOL    HW117864   1.022   3.360   4.466
 5655SOL    HW217865   1.028   3.295   4.315
 5656SOL     OW17866   1.589   3.620   0.203
 5656SOL    HW117867   1.623   3.596   0.113
 5656SOL    HW217868   1.627   3.557   0.271
 5657SOL     OW17869   5.463   0.616   1.012
 5657SOL    HW117870   5.385   0.579   1.062
 5657SOL    HW217871   5.539   0.551   1.015
 5658SOL     OW17872   3.339   5.629   5.852
 5658SOL    HW117873   3.352   5.538   5.893
 5658SOL    HW217874   3.423   5.682   5.863
 5659SOL     OW17875   3.637   4.104   3.486
 5659SOL    HW117876   3.548   4.103   3.441
 5659SOL    HW217877   3.708   4.122   3.418
 5660SOL     OW17878   5.873   0.421   5.611
 5660SOL    HW117879   5.795   0.367   5.641
 5660SOL    HW217880   5.957   0.366   5.622
 5661SOL     OW17881   0.153   4.134   5.710
 5661SOL    HW117882   0.065   4.087   5.697
 5661SOL    HW217883   0.145   4.228   5.676
 5662SOL     OW17884   2.974   5.459   3.383
 5662SOL    HW117885   2.878   5.458   3.409
 5662SOL    HW217886   3.020   5.379   3.421
 5663SOL     OW17887   2.129   3.819   6.666
 5663SOL    HW117888   2.135   3.757   6.588
 5663SOL    HW217889   2.123   3.766   6.751
 5664SOL     OW17890   6.747   4.059   4.231
 5664SOL    HW117891   6.703   4.092   4.147
 5664SOL    HW217892   6.677   4.033   4.298
 5665SOL     OW17893   1.508   1.983   6.924
 5665SOL    HW117894   1.468   1.914   6.863
 5665SOL    HW217895   1.607   1.973   6.924
 5666SOL     OW17896   5.613   5.966   0.724
 5666SOL    HW117897   5.678   5.901   0.685
 5666SOL    HW217898   5.594   6.037   0.657
 5667SOL     OW17899   1.016   4.172   3.742
 5667SOL    HW117900   0.946   4.198   3.809
 5667SOL    HW217901   1.053   4.083   3.766
 5668SOL     OW17902   5.249   1.918   4.925
 5668SOL    HW117903   5.241   1.956   4.833
 5668SOL    HW217904   5.190   1.969   4.988
 5669SOL     OW17905   0.503   2.837   6.867
 5669SOL    HW117906   0.444   2.872   6.940
 5669SOL    HW217907   0.598   2.834   6.899
 5670SOL     OW17908   0.126   2.851   3.742
 5670SOL    HW117909   0.213   2.895   3.764
 5670SOL    HW217910   0.060   2.868   3.815
 5671SOL     OW17911   0.771   6.478   6.273
 5671SOL    HW117912   0.823   6.530   6.341
 5671SOL    HW217913   0.680   6.520   6.261
 5672SOL     OW17914   4.371   4.621   6.595
 5672SOL    HW117915   4.272   4.634   6.598
 5672SOL    HW217916   4.400   4.613   6.499
 5673SOL     OW17917   1.085   5.936   1.995
 5673SOL    HW117918   0.996   5.981   1.994
 5673SOL    HW217919   1.074   5.839   1.973
 5674SOL     OW17920   6.621   4.181   3.988
 5674SOL    HW117921   6.578   4.263   3.950
 5674SOL    HW217922   6.656   4.124   3.914
 5675SOL     OW17923   4.384   2.191   5.851
 5675SOL    HW117924   4.462   2.234   5.806
 5675SOL    HW217925   4.356   2.246   5.930
 5676SOL     OW17926   2.313   2.140   2.521
 5676SOL    HW117927   2.287   2.150   2.425
 5676SOL    HW217928   2.251   2.195   2.577
 5677SOL     OW17929   0.613   2.671   2.714
 5677SOL    HW117930   0.620   2.577   2.681
 5677SOL    HW217931   0.701   2.699   2.755
 5678SOL     OW17932   2.985   6.434   2.610
 5678SOL    HW117933   2.972   6.355   2.550
 5678SOL    HW217934   3.024   6.404   2.697
 5679SOL     OW17935   1.273   0.698   3.606
 5679SOL    HW117936   1.251   0.648   3.523
 5679SOL    HW217937   1.336   0.772   3.585
 5680SOL     OW17938   1.381   5.729   0.741
 5680SOL    HW117939   1.475   5.762   0.750
 5680SOL    HW217940   1.378   5.657   0.672
 5681SOL     OW17941   0.122   3.522   7.005
 5681SOL    HW117942   0.025   3.537   0.005
 5681SOL    HW217943   0.159   3.458   0.055
 5682SOL     OW17944   2.527   4.699   5.346
 5682SOL    HW117945   2.506   4.768   5.415
 5682SOL    HW217946   2.622   4.709   5.317
 5683SOL     OW17947   3.284   1.133   0.169
 5683SOL    HW117948   3.312   1.146   0.074
 5683SOL    HW217949   3.187   1.152   0.179
 5684SOL     OW17950   3.661   2.862   4.937
 5684SOL    HW117951   3.651   2.929   4.864
 5684SOL    HW217952   3.630   2.773   4.905
 5685SOL     OW17953   1.809   3.394   1.975
 5685SOL    HW117954   1.779   3.299   1.975
 5685SOL    HW217955   1.900   3.401   2.016
 5686SOL     OW17956   2.536   6.797   6.206
 5686SOL    HW117957   2.531   6.850   6.291
 5686SOL    HW217958   2.496   6.707   6.221
 5687SOL     OW17959   0.628   4.017   5.469
 5687SOL    HW117960   0.711   4.064   5.500
 5687SOL    HW217961   0.630   3.922   5.501
 5688SOL     OW17962   0.060   2.051   0.168
 5688SOL    HW117963   0.096   2.072   0.259
 5688SOL    HW217964   0.107   1.970   0.131
 5689SOL     OW17965   4.478   0.510   0.671
 5689SOL    HW117966   4.550   0.447   0.701
 5689SOL    HW217967   4.391   0.460   0.664
 5690SOL     OW17968   2.172   6.102   0.565
 5690SOL    HW117969   2.146   6.138   0.654
 5690SOL    HW217970   2.267   6.127   0.545
 5691SOL     OW17971   2.569   6.094   1.696
 5691SOL    HW117972   2.587   6.152   1.775
 5691SOL    HW217973   2.506   6.021   1.723
 5692SOL     OW17974   0.089   3.198   6.070
 5692SOL    HW117975   0.033   3.265   6.120
 5692SOL    HW217976   0.162   3.246   6.021
 5693SOL     OW17977   6.068   2.378   2.445
 5693SOL    HW117978   5.987   2.428   2.416
 5693SOL    HW217979   6.139   2.385   2.374
 5694SOL     OW17980   1.104   1.924   3.886
 5694SOL    HW117981   1.117   1.909   3.788
 5694SOL    HW217982   1.165   1.996   3.918
 5695SOL     OW17983   0.989   2.694   3.164
 5695SOL    HW117984   0.944   2.776   3.198
 5695SOL    HW217985   1.069   2.720   3.110
 5696SOL     OW17986   1.539   0.842   3.234
 5696SOL    HW117987   1.631   0.883   3.237
 5696SOL    HW217988   1.547   0.746   3.205
 5697SOL     OW17989   6.199   2.398   1.248
 5697SOL    HW117990   6.262   2.474   1.232
 5697SOL    HW217991   6.219   2.357   1.337
 5698SOL     OW17992   0.651   3.024   2.502
 5698SOL    HW117993   0.718   3.047   2.431
 5698SOL    HW217994   0.670   3.077   2.585
 5699SOL     OW17995   6.190   1.821   2.917
 5699SOL    HW117996   6.172   1.815   2.819
 5699SOL    HW217997   6.154   1.907   2.953
 5700SOL     OW17998   6.690   6.466   4.484
 5700SOL    HW117999   6.663   6.434   4.575
 5700SOL    HW218000   6.648   6.555   4.466
 5701SOL     OW18001   1.257   6.557   3.420
 5701SOL    HW118002   1.251   6.462   3.451
 5701SOL    HW218003   1.188   6.612   3.467
 5702SOL     OW18004   1.694   6.964   5.319
 5702SOL    HW118005   1.663   6.875   5.286
 5702SOL    HW218006   1.615   0.004   5.342
 5703SOL     OW18007   5.385   4.476   1.332
 5703SOL    HW118008   5.386   4.380   1.358
 5703SOL    HW218009   5.292   4.503   1.307
 5704SOL     OW18010   4.237   5.733   1.911
 5704SOL    HW118011   4.204   5.679   1.833
 5704SOL    HW218012   4.289   5.673   1.972
 5705SOL     OW18013   5.065   1.125   0.836
 5705SOL    HW118014   5.135   1.088   0.774
 5705SOL    HW218015   5.012   1.050   0.875
 5706SOL     OW18016   0.529   2.401   0.321
 5706SOL    HW118017   0.493   2.427   0.231
 5706SOL    HW218018   0.553   2.304   0.321
 5707SOL     OW18019   0.207   0.134   0.327
 5707SOL    HW118020   0.165   0.185   0.252
 5707SOL    HW218021   0.269   0.193   0.377
 5708SOL     OW18022   5.208   6.271   1.234
 5708SOL    HW118023   5.229   6.368   1.243
 5708SOL    HW218024   5.293   6.220   1.220
 5709SOL     OW18025   1.362   0.372   3.546
 5709SOL    HW118026   1.430   0.410   3.608
 5709SOL    HW218027   1.334   0.442   3.480
 5710SOL     OW18028   2.572   3.230   6.471
 5710SOL    HW118029   2.554   3.328   6.462
 5710SOL    HW218030   2.551   3.184   6.385
 5711SOL     OW18031   4.461   0.686   3.057
 5711SOL    HW118032   4.477   0.594   3.021
 5711SOL    HW218033   4.437   0.680   3.154
 5712SOL     OW18034   0.683   5.562   5.703
 5712SOL    HW118035   0.692   5.533   5.798
 5712SOL    HW218036   0.676   5.662   5.699
 5713SOL     OW18037   1.887   2.112   1.677
 5713SOL    HW118038   1.815   2.066   1.728
 5713SOL    HW218039   1.859   2.206   1.657
 5714SOL     OW18040   0.375   6.255   6.349
 5714SOL    HW118041   0.291   6.226   6.395
 5714SOL    HW218042   0.438   6.176   6.342
 5715SOL     OW18043   1.509   6.556   3.282
 5715SOL    HW118044   1.411   6.574   3.294
 5715SOL    HW218045   1.524   6.519   3.190
 5716SOL     OW18046   1.433   4.765   0.026
 5716SOL    HW118047   1.516   4.712   0.011
 5716SOL    HW218048   1.382   4.771   6.958
 5717SOL     OW18049   2.081   6.242   0.781
 5717SOL    HW118050   2.171   6.223   0.820
 5717SOL    HW218051   2.068   6.340   0.772
 5718SOL     OW18052   1.594   3.628   5.958
 5718SOL    HW118053   1.690   3.625   5.984
 5718SOL    HW218054   1.577   3.709   5.902
 5719SOL     OW18055   2.411   1.392   6.290
 5719SOL    HW118056   2.475   1.335   6.238
 5719SOL    HW218057   2.335   1.419   6.230
 5720SOL     OW18058   0.871   4.808   4.551
 5720SOL    HW118059   0.899   4.890   4.501
 5720SOL    HW218060   0.924   4.730   4.519
 5721SOL     OW18061   0.504   3.503   0.489
 5721SOL    HW118062   0.600   3.523   0.466
 5721SOL    HW218063   0.446   3.578   0.457
 5722SOL     OW18064   6.406   1.750   4.870
 5722SOL    HW118065   6.484   1.689   4.884
 5722SOL    HW218066   6.349   1.750   4.953
 5723SOL     OW18067   4.634   3.457   6.824
 5723SOL    HW118068   4.696   3.503   6.888
 5723SOL    HW218069   4.657   3.484   6.730
 5724SOL     OW18070   4.204   2.668   5.389
 5724SOL    HW118071   4.134   2.680   5.459
 5724SOL    HW218072   4.165   2.622   5.309
 5725SOL     OW18073   6.617   5.783   4.193
 5725SOL    HW118074   6.552   5.822   4.258
 5725SOL    HW218075   6.597   5.818   4.101
 5726SOL     OW18076   6.561   3.812   3.921
 5726SOL    HW118077   6.626   3.869   3.870
 5726SOL    HW218078   6.573   3.716   3.896
 5727SOL     OW18079   0.654   2.803   4.104
 5727SOL    HW118080   0.707   2.884   4.131
 5727SOL    HW218081   0.716   2.732   4.071
 5728SOL     OW18082   4.615   1.298   6.976
 5728SOL    HW118083   4.644   1.204   6.955
 5728SOL    HW218084   4.520   1.297   7.007
 5729SOL     OW18085   0.904   1.474   0.298
 5729SOL    HW118086   0.898   1.465   0.198
 5729SOL    HW218087   0.848   1.403   0.341
 5730SOL     OW18088   4.581   5.302   5.860
 5730SOL    HW118089   4.606   5.335   5.769
 5730SOL    HW218090   4.508   5.235   5.852
 5731SOL     OW18091   2.237   6.720   4.105
 5731SOL    HW118092   2.198   6.665   4.031
 5731SOL    HW218093   2.186   6.703   4.189
 5732SOL     OW18094   6.779   4.999   5.543
 5732SOL    HW118095   6.703   5.019   5.481
 5732SOL    HW218096   6.770   5.052   5.626
 5733SOL     OW18097   3.387   0.256   5.701
 5733SOL    HW118098   3.451   0.332   5.709
 5733SOL    HW218099   3.431   0.173   5.735
 5734SOL     OW18100   1.485   6.179   5.927
 5734SOL    HW118101   1.537   6.191   6.012
 5734SOL    HW218102   1.546   6.193   5.849
 5735SOL     OW18103   4.111   1.358   2.571
 5735SOL    HW118104   4.076   1.371   2.479
 5735SOL    HW218105   4.042   1.311   2.627
 5736SOL     OW18106   6.005   4.503   1.376
 5736SOL    HW118107   5.925   4.444   1.392
 5736SOL    HW218108   6.051   4.474   1.292
 5737SOL     OW18109   5.326   5.769   6.846
 5737SOL    HW118110   5.288   5.691   6.896
 5737SOL    HW218111   5.252   5.826   6.812
 5738SOL     OW18112   3.289   2.337   6.661
 5738SOL    HW118113   3.217   2.295   6.716
 5738SOL    HW218114   3.247   2.395   6.591
 5739SOL     OW18115   0.902   6.248   5.254
 5739SOL    HW118116   0.952   6.237   5.340
 5739SOL    HW218117   0.808   6.278   5.274
 5740SOL     OW18118   3.815   3.849   1.269
 5740SOL    HW118119   3.888   3.917   1.270
 5740SOL    HW218120   3.729   3.890   1.300
 5741SOL     OW18121   6.602   3.454   4.690
 5741SOL    HW118122   6.540   3.387   4.649
 5741SOL    HW218123   6.697   3.427   4.674
 5742SOL     OW18124   4.660   6.272   2.491
 5742SOL    HW118125   4.591   6.205   2.465
 5742SOL    HW218126   4.730   6.278   2.419
 5743SOL     OW18127   2.251   5.794   5.619
 5743SOL    HW118128   2.318   5.728   5.583
 5743SOL    HW218129   2.248   5.874   5.560
 5744SOL     OW18130   4.898   1.389   1.191
 5744SOL    HW118131   4.883   1.346   1.280
 5744SOL    HW218132   4.978   1.449   1.197
 5745SOL     OW18133   2.048   1.618   3.437
 5745SOL    HW118134   2.065   1.706   3.393
 5745SOL    HW218135   2.042   1.631   3.536
 5746SOL     OW18136   5.156   0.353   1.936
 5746SOL    HW118137   5.106   0.418   1.994
 5746SOL    HW218138   5.162   0.389   1.843
 5747SOL     OW18139   1.656   5.191   1.884
 5747SOL    HW118140   1.595   5.112   1.883
 5747SOL    HW218141   1.606   5.273   1.857
 5748SOL     OW18142   1.193   0.565   1.129
 5748SOL    HW118143   1.236   0.653   1.107
 5748SOL    HW218144   1.123   0.545   1.060
 5749SOL     OW18145   1.167   6.404   4.993
 5749SOL    HW118146   1.176   6.312   4.955
 5749SOL    HW218147   1.150   6.469   4.919
 5750SOL     OW18148   6.659   6.418   5.045
 5750SOL    HW118149   6.650   6.496   4.983
 5750SOL    HW218150   6.645   6.333   4.993
 5751SOL     OW18151   2.206   3.085   4.770
 5751SOL    HW118152   2.261   3.073   4.852
 5751SOL    HW218153   2.258   3.138   4.702
 5752SOL     OW18154   5.516   0.449   0.196
 5752SOL    HW118155   5.445   0.409   0.253
 5752SOL    HW218156   5.544   0.538   0.233
 5753SOL     OW18157   3.640   4.196   4.539
 5753SOL    HW118158   3.644   4.119   4.603
 5753SOL    HW218159   3.603   4.276   4.585
 5754SOL     OW18160   0.185   5.439   2.441
 5754SOL    HW118161   0.220   5.360   2.492
 5754SOL    HW218162   0.261   5.488   2.399
 5755SOL     OW18163   2.192   2.359   6.906
 5755SOL    HW118164   2.173   2.435   6.967
 5755SOL    HW218165   2.127   2.285   6.923
 5756SOL     OW18166   6.548   0.356   3.184
 5756SOL    HW118167   6.623   0.308   3.229
 5756SOL    HW218168   6.469   0.361   3.247
 5757SOL     OW18169   0.592   5.623   2.734
 5757SOL    HW118170   0.680   5.642   2.689
 5757SOL    HW218171   0.519   5.673   2.687
 5758SOL     OW18172   2.470   1.322   3.952
 5758SOL    HW118173   2.539   1.255   3.926
 5758SOL    HW218174   2.487   1.408   3.904
 5759SOL     OW18175   4.964   1.218   6.817
 5759SOL    HW118176   5.052   1.172   6.816
 5759SOL    HW218177   4.946   1.254   6.909
 5760SOL     OW18178   6.922   3.220   0.864
 5760SOL    HW118179   6.988   3.255   0.930
 5760SOL    HW218180   6.858   3.292   0.839
 5761SOL     OW18181   5.824   5.118   5.931
 5761SOL    HW118182   5.795   5.095   5.838
 5761SOL    HW218183   5.871   5.040   5.971
 5762SOL     OW18184   4.931   4.118   0.964
 5762SOL    HW118185   4.966   4.059   0.892
 5762SOL    HW218186   4.921   4.064   1.048
 5763SOL     OW18187   6.572   5.701   0.470
 5763SOL    HW118188   6.671   5.693   0.487
 5763SOL    HW218189   6.524   5.710   0.557
 5764SOL     OW18190   5.190   4.872   5.394
 5764SOL    HW118191   5.276   4.848   5.438
 5764SOL    HW218192   5.161   4.963   5.423
 5765SOL     OW18193   6.510   2.990   0.931
 5765SOL    HW118194   6.600   2.990   0.975
 5765SOL    HW218195   6.439   3.003   1.000
 5766SOL     OW18196   1.630   1.578   5.856
 5766SOL    HW118197   1.680   1.664   5.866
 5766SOL    HW218198   1.575   1.562   5.938
 5767SOL     OW18199   1.946   0.752   0.680
 5767SOL    HW118200   1.963   0.693   0.602
 5767SOL    HW218201   1.964   0.702   0.765
 5768SOL     OW18202   1.266   6.019   3.986
 5768SOL    HW118203   1.240   6.100   3.933
 5768SOL    HW218204   1.340   6.043   4.049
 5769SOL     OW18205   2.570   5.637   4.478
 5769SOL    HW118206   2.647   5.666   4.534
 5769SOL    HW218207   2.513   5.716   4.455
 5770SOL     OW18208   6.339   6.029   6.614
 5770SOL    HW118209   6.243   6.045   6.638
 5770SOL    HW218210   6.398   6.078   6.678
 5771SOL     OW18211   1.349   0.006   4.056
 5771SOL    HW118212   1.301   6.944   4.095
 5771SOL    HW218213   1.393   0.057   4.130
 5772SOL     OW18214   5.186   1.527   2.084
 5772SOL    HW118215   5.265   1.572   2.125
 5772SOL    HW218216   5.113   1.594   2.068
 5773SOL     OW18217   3.859   0.250   3.325
 5773SOL    HW118218   3.871   0.348   3.341
 5773SOL    HW218219   3.890   0.199   3.405
 5774SOL     OW18220   3.114   6.213   3.797
 5774SOL    HW118221   3.165   6.256   3.722
 5774SOL    HW218222   3.175   6.150   3.846
 5775SOL     OW18223   1.572   0.773   2.527
 5775SOL    HW118224   1.623   0.787   2.612
 5775SOL    HW218225   1.590   0.681   2.493
 5776SOL     OW18226   0.154   0.647   4.205
 5776SOL    HW118227   0.088   0.596   4.261
 5776SOL    HW218228   0.104   0.700   4.136
 5777SOL     OW18229   6.840   0.348   4.744
 5777SOL    HW118230   6.751   0.375   4.707
 5777SOL    HW218231   6.830   0.324   4.841
 5778SOL     OW18232   1.233   0.915   1.203
 5778SOL    HW118233   1.284   0.840   1.245
 5778SOL    HW218234   1.254   0.918   1.105
 5779SOL     OW18235   4.261   2.830   0.415
 5779SOL    HW118236   4.200   2.775   0.473
 5779SOL    HW218237   4.265   2.924   0.450
 5780SOL     OW18238   6.137   5.792   4.199
 5780SOL    HW118239   6.092   5.799   4.110
 5780SOL    HW218240   6.149   5.883   4.238
 5781SOL     OW18241   6.515   4.533   4.271
 5781SOL    HW118242   6.504   4.462   4.340
 5781SOL    HW218243   6.425   4.563   4.239
 5782SOL     OW18244   1.529   1.310   0.088
 5782SOL    HW118245   1.462   1.377   0.120
 5782SOL    HW218246   1.603   1.303   0.155
 5783SOL     OW18247   1.655   0.382   1.593
 5783SOL    HW118248   1.571   0.418   1.635
 5783SOL    HW218249   1.714   0.345   1.664
 5784SOL     OW18250   6.918   5.619   6.900
 5784SOL    HW118251   6.821   5.595   6.901
 5784SOL    HW218252   6.929   5.711   6.863
 5785SOL     OW18253   2.565   1.700   0.751
 5785SOL    HW118254   2.510   1.784   0.754
 5785SOL    HW218255   2.656   1.721   0.714
 5786SOL     OW18256   0.809   3.563   0.533
 5786SOL    HW118257   0.801   3.464   0.544
 5786SOL    HW218258   0.870   3.583   0.456
 5787SOL     OW18259   3.552   1.846   4.883
 5787SOL    HW118260   3.518   1.926   4.934
 5787SOL    HW218261   3.531   1.763   4.933
 5788SOL     OW18262   3.111   1.281   1.063
 5788SOL    HW118263   3.029   1.265   1.009
 5788SOL    HW218264   3.105   1.229   1.149
 5789SOL     OW18265   2.944   4.609   6.750
 5789SOL    HW118266   2.970   4.676   6.819
 5789SOL    HW218267   2.871   4.647   6.693
 5790SOL     OW18268   0.693   4.664   4.739
 5790SOL    HW118269   0.647   4.595   4.682
 5790SOL    HW218270   0.745   4.726   4.681
 5791SOL     OW18271   3.271   1.114   2.614
 5791SOL    HW118272   3.232   1.152   2.698
 5791SOL    HW218273   3.245   1.171   2.536
 5792SOL     OW18274   6.182   3.235   2.736
 5792SOL    HW118275   6.222   3.167   2.676
 5792SOL    HW218276   6.085   3.248   2.713
 5793SOL     OW18277   4.994   1.004   3.650
 5793SOL    HW118278   5.035   0.965   3.733
 5793SOL    HW218279   4.959   0.930   3.593
 5794SOL     OW18280   2.538   0.957   0.020
 5794SOL    HW118281   2.484   1.039   0.036
 5794SOL    HW218282   2.479   0.876   0.030
 5795SOL     OW18283   6.403   0.165   6.796
 5795SOL    HW118284   6.349   0.092   6.837
 5795SOL    HW218285   6.362   0.253   6.819
 5796SOL     OW18286   4.909   1.366   6.062
 5796SOL    HW118287   5.000   1.371   6.102
 5796SOL    HW218288   4.889   1.272   6.035
 5797SOL     OW18289   4.913   2.431   6.888
 5797SOL    HW118290   4.857   2.511   6.908
 5797SOL    HW218291   4.909   2.368   6.965
 5798SOL     OW18292   1.205   5.525   4.785
 5798SOL    HW118293   1.173   5.560   4.873
 5798SOL    HW218294   1.161   5.437   4.766
 5799SOL     OW18295   0.363   0.581   3.850
 5799SOL    HW118296   0.447   0.540   3.813
 5799SOL    HW218297   0.296   0.510   3.869
 5800SOL     OW18298   6.372   6.263   2.084
 5800SOL    HW118299   6.333   6.223   2.167
 5800SOL    HW218300   6.455   6.215   2.059
 5801SOL     OW18301   1.568   2.568   3.295
 5801SOL    HW118302   1.650   2.520   3.325
 5801SOL    HW218303   1.589   2.622   3.213
 5802SOL     OW18304   0.493   3.791   2.408
 5802SOL    HW118305   0.446   3.839   2.483
 5802SOL    HW218306   0.437   3.714   2.378
 5803SOL     OW18307   2.607   5.472   1.422
 5803SOL    HW118308   2.649   5.562   1.409
 5803SOL    HW218309   2.544   5.476   1.499
 5804SOL     OW18310   0.697   5.811   3.684
 5804SOL    HW118311   0.767   5.863   3.733
 5804SOL    HW218312   0.648   5.873   3.623
 5805SOL     OW18313   2.220   3.316   0.437
 5805SOL    HW118314   2.231   3.258   0.356
 5805SOL    HW218315   2.274   3.278   0.513
 5806SOL     OW18316   6.746   5.178   5.056
 5806SOL    HW118317   6.822   5.238   5.082
 5806SOL    HW218318   6.714   5.203   4.964
 5807SOL     OW18319   0.866   3.539   1.010
 5807SOL    HW118320   0.783   3.512   0.962
 5807SOL    HW218321   0.843   3.571   1.102
 5808SOL     OW18322   6.346   5.585   4.536
 5808SOL    HW118323   6.386   5.625   4.618
 5808SOL    HW218324   6.324   5.489   4.553
 5809SOL     OW18325   6.388   2.218   4.346
 5809SOL    HW118326   6.403   2.154   4.421
 5809SOL    HW218327   6.307   2.273   4.365
 5810SOL     OW18328   4.216   1.407   4.971
 5810SOL    HW118329   4.247   1.326   4.921
 5810SOL    HW218330   4.275   1.484   4.950
 5811SOL     OW18331   3.243   0.479   5.331
 5811SOL    HW118332   3.309   0.554   5.331
 5811SOL    HW218333   3.171   0.497   5.264
 5812SOL     OW18334   6.120   3.107   4.532
 5812SOL    HW118335   6.082   3.016   4.550
 5812SOL    HW218336   6.159   3.144   4.616
 5813SOL     OW18337   1.805   1.579   0.768
 5813SOL    HW118338   1.868   1.535   0.832
 5813SOL    HW218339   1.711   1.554   0.790
 5814SOL     OW18340   6.295   4.126   2.297
 5814SOL    HW118341   6.272   4.210   2.346
 5814SOL    HW218342   6.349   4.149   2.215
 5815SOL     OW18343   4.074   1.767   4.835
 5815SOL    HW118344   4.051   1.774   4.932
 5815SOL    HW218345   3.999   1.804   4.780
 5816SOL     OW18346   4.729   4.961   0.230
 5816SOL    HW118347   4.729   4.920   0.139
 5816SOL    HW218348   4.822   4.964   0.266
 5817SOL     OW18349   5.698   4.018   5.725
 5817SOL    HW118350   5.778   4.054   5.678
 5817SOL    HW218351   5.727   3.951   5.794
 5818SOL     OW18352   0.073   5.790   5.380
 5818SOL    HW118353   0.172   5.789   5.364
 5818SOL    HW218354   0.032   5.865   5.328
 5819SOL     OW18355   3.274   7.005   6.708
 5819SOL    HW118356   3.267   0.023   6.802
 5819SOL    HW218357   3.367   6.973   6.692
 5820SOL     OW18358   4.585   5.463   3.429
 5820SOL    HW118359   4.537   5.472   3.342
 5820SOL    HW218360   4.522   5.426   3.498
 5821SOL     OW18361   6.878   6.864   1.426
 5821SOL    HW118362   6.945   6.823   1.363
 5821SOL    HW218363   6.925   6.895   1.509
 5822SOL     OW18364   1.472   2.857   1.123
 5822SOL    HW118365   1.473   2.786   1.053
 5822SOL    HW218366   1.479   2.815   1.213
 5823SOL     OW18367   2.124   0.504   5.269
 5823SOL    HW118368   2.153   0.591   5.228
 5823SOL    HW218369   2.087   0.444   5.198
 5824SOL     OW18370   0.057   5.409   2.178
 5824SOL    HW118371   0.135   5.403   2.240
 5824SOL    HW218372   0.016   5.500   2.186
 5825SOL     OW18373   6.768   1.656   5.349
 5825SOL    HW118374   6.803   1.570   5.385
 5825SOL    HW218375   6.756   1.722   5.423
 5826SOL     OW18376   0.149   4.813   6.132
 5826SOL    HW118377   0.150   4.781   6.037
 5826SOL    HW218378   0.240   4.846   6.157
 5827SOL     OW18379   2.012   4.064   4.781
 5827SOL    HW118380   2.017   4.052   4.682
 5827SOL    HW218381   2.081   4.130   4.810
 5828SOL     OW18382   6.322   1.611   1.789
 5828SOL    HW118383   6.353   1.706   1.790
 5828SOL    HW218384   6.225   1.608   1.812
 5829SOL     OW18385   0.866   0.441   3.266
 5829SOL    HW118386   0.941   0.425   3.202
 5829SOL    HW218387   0.895   0.504   3.338
 5830SOL     OW18388   4.941   6.557   5.719
 5830SOL    HW118389   5.015   6.622   5.734
 5830SOL    HW218390   4.853   6.603   5.731
 5831SOL     OW18391   1.413   1.727   5.497
 5831SOL    HW118392   1.351   1.787   5.548
 5831SOL    HW218393   1.407   1.749   5.399
 5832SOL     OW18394   2.541   4.683   6.809
 5832SOL    HW118395   2.562   4.755   6.875
 5832SOL    HW218396   2.497   4.606   6.855
 5833SOL     OW18397   3.735   3.813   5.281
 5833SOL    HW118398   3.813   3.874   5.292
 5833SOL    HW218399   3.659   3.846   5.336
 5834SOL     OW18400   6.915   2.777   0.840
 5834SOL    HW118401   7.000   2.727   0.826
 5834SOL    HW218402   6.904   2.798   0.937
 5835SOL     OW18403   5.472   3.251   3.262
 5835SOL    HW118404   5.372   3.256   3.259
 5835SOL    HW218405   5.510   3.295   3.182
 5836SOL     OW18406   2.537   6.589   1.733
 5836SOL    HW118407   2.488   6.674   1.720
 5836SOL    HW218408   2.578   6.560   1.646
 5837SOL     OW18409   3.600   4.219   6.719
 5837SOL    HW118410   3.521   4.173   6.759
 5837SOL    HW218411   3.567   4.286   6.651
 5838SOL     OW18412   3.150   1.645   0.768
 5838SOL    HW118413   3.248   1.663   0.755
 5838SOL    HW218414   3.101   1.672   0.685
 5839SOL     OW18415   0.682   2.004   2.446
 5839SOL    HW118416   0.753   1.933   2.435
 5839SOL    HW218417   0.617   1.975   2.516
 5840SOL     OW18418   0.473   5.229   6.348
 5840SOL    HW118419   0.492   5.138   6.385
 5840SOL    HW218420   0.405   5.275   6.407
 5841SOL     OW18421   5.231   1.969   2.476
 5841SOL    HW118422   5.178   1.934   2.399
 5841SOL    HW218423   5.262   2.062   2.456
 5842SOL     OW18424   4.999   2.999   1.541
 5842SOL    HW118425   4.982   2.974   1.446
 5842SOL    HW218426   5.046   3.087   1.545
 5843SOL     OW18427   1.263   3.706   3.144
 5843SOL    HW118428   1.191   3.739   3.205
 5843SOL    HW218429   1.344   3.763   3.154
 5844SOL     OW18430   2.069   5.971   5.859
 5844SOL    HW118431   2.130   5.998   5.785
 5844SOL    HW218432   2.123   5.948   5.940
 5845SOL     OW18433   0.631   0.445   2.855
 5845SOL    HW118434   0.603   0.353   2.828
 5845SOL    HW218435   0.613   0.508   2.779
 5846SOL     OW18436   6.248   2.840   5.183
 5846SOL    HW118437   6.174   2.797   5.235
 5846SOL    HW218438   6.320   2.773   5.167
 5847SOL     OW18439   3.063   2.062   1.624
 5847SOL    HW118440   3.047   1.973   1.666
 5847SOL    HW218441   3.089   2.128   1.695
 5848SOL     OW18442   1.576   5.785   3.192
 5848SOL    HW118443   1.557   5.874   3.150
 5848SOL    HW218444   1.655   5.743   3.148
 5849SOL     OW18445   0.753   0.615   5.745
 5849SOL    HW118446   0.700   0.670   5.810
 5849SOL    HW218447   0.722   0.520   5.749
 5850SOL     OW18448   6.628   3.703   1.828
 5850SOL    HW118449   6.676   3.770   1.770
 5850SOL    HW218450   6.554   3.749   1.877
 5851SOL     OW18451   4.872   3.694   3.004
 5851SOL    HW118452   4.971   3.695   2.988
 5851SOL    HW218453   4.835   3.605   2.978
 5852SOL     OW18454   6.213   6.084   3.394
 5852SOL    HW118455   6.146   6.089   3.320
 5852SOL    HW218456   6.284   6.153   3.380
 5853SOL     OW18457   3.759   5.279   4.944
 5853SOL    HW118458   3.781   5.208   5.011
 5853SOL    HW218459   3.818   5.268   4.864
 5854SOL     OW18460   4.823   4.362   5.946
 5854SOL    HW118461   4.832   4.382   6.044
 5854SOL    HW218462   4.839   4.446   5.894
 5855SOL     OW18463   0.847   1.903   4.899
 5855SOL    HW118464   0.870   1.877   4.806
 5855SOL    HW218465   0.752   1.881   4.918
 5856SOL     OW18466   1.986   5.723   3.966
 5856SOL    HW118467   1.976   5.645   4.028
 5856SOL    HW218468   1.956   5.806   4.011
 5857SOL     OW18469   6.242   2.281   6.363
 5857SOL    HW118470   6.246   2.206   6.429
 5857SOL    HW218471   6.281   2.250   6.276
 5858SOL     OW18472   2.986   1.683   2.295
 5858SOL    HW118473   2.914   1.616   2.314
 5858SOL    HW218474   3.062   1.670   2.359
 5859SOL     OW18475   6.020   6.363   1.459
 5859SOL    HW118476   6.055   6.309   1.535
 5859SOL    HW218477   6.004   6.304   1.380
 5860SOL     OW18478   0.376   3.114   1.998
 5860SOL    HW118479   0.440   3.071   2.062
 5860SOL    HW218480   0.310   3.169   2.050
 5861SOL     OW18481   4.473   1.743   4.453
 5861SOL    HW118482   4.424   1.755   4.540
 5861SOL    HW218483   4.528   1.825   4.435
 5862SOL     OW18484   6.277   5.582   1.355
 5862SOL    HW118485   6.326   5.645   1.416
 5862SOL    HW218486   6.308   5.597   1.261
 5863SOL     OW18487   3.257   1.935   5.440
 5863SOL    HW118488   3.176   1.946   5.498
 5863SOL    HW218489   3.246   1.987   5.356
 5864SOL     OW18490   4.045   3.565   2.250
 5864SOL    HW118491   3.964   3.557   2.309
 5864SOL    HW218492   4.120   3.513   2.291
 5865SOL     OW18493   6.087   0.391   4.613
 5865SOL    HW118494   6.144   0.314   4.584
 5865SOL    HW218495   5.991   0.369   4.597
 5866SOL     OW18496   3.944   4.475   6.966
 5866SOL    HW118497   4.038   4.503   6.946
 5866SOL    HW218498   3.944   4.415   0.028
 5867SOL     OW18499   1.969   3.373   0.532
 5867SOL    HW118500   2.058   3.365   0.487
 5867SOL    HW218501   1.944   3.284   0.572
 5868SOL     OW18502   1.179   1.841   5.553
 5868SOL    HW118503   1.090   1.808   5.521
 5868SOL    HW218504   1.165   1.906   5.628
 5869SOL     OW18505   1.738   6.249   3.587
 5869SOL    HW118506   1.759   6.209   3.498
 5869SOL    HW218507   1.666   6.195   3.632
 5870SOL     OW18508   4.627   5.960   4.352
 5870SOL    HW118509   4.633   6.055   4.320
 5870SOL    HW218510   4.657   5.898   4.280
 5871SOL     OW18511   3.702   2.872   1.357
 5871SOL    HW118512   3.632   2.801   1.368
 5871SOL    HW218513   3.680   2.950   1.415
 5872SOL     OW18514   4.150   5.788   0.895
 5872SOL    HW118515   4.052   5.779   0.912
 5872SOL    HW218516   4.169   5.878   0.855
 5873SOL     OW18517   3.013   1.744   1.407
 5873SOL    HW118518   3.065   1.756   1.491
 5873SOL    HW218519   3.050   1.666   1.356
 5874SOL     OW18520   3.366   4.060   6.789
 5874SOL    HW118521   3.276   4.016   6.779
 5874SOL    HW218522   3.434   4.007   6.739
 5875SOL     OW18523   4.567   0.888   6.835
 5875SOL    HW118524   4.495   0.922   6.896
 5875SOL    HW218525   4.527   0.866   6.746
 5876SOL     OW18526   3.562   3.583   0.487
 5876SOL    HW118527   3.534   3.636   0.408
 5876SOL    HW218528   3.530   3.489   0.477
 5877SOL     OW18529   0.292   0.581   1.207
 5877SOL    HW118530   0.361   0.517   1.241
 5877SOL    HW218531   0.201   0.551   1.237
 5878SOL     OW18532   6.033   5.067   3.985
 5878SOL    HW118533   6.049   5.165   3.980
 5878SOL    HW218534   6.114   5.021   4.023
 5879SOL     OW18535   1.815   4.151   6.704
 5879SOL    HW118536   1.883   4.157   6.630
 5879SOL    HW218537   1.846   4.205   6.782
 5880SOL     OW18538   5.091   4.784   6.828
 5880SOL    HW118539   5.095   4.688   6.802
 5880SOL    HW218540   5.116   4.841   6.749
 5881SOL     OW18541   0.874   6.722   2.524
 5881SOL    HW118542   0.941   6.735   2.597
 5881SOL    HW218543   0.845   6.626   2.522
 5882SOL     OW18544   0.532   5.494   6.679
 5882SOL    HW118545   0.619   5.534   6.650
 5882SOL    HW218546   0.456   5.547   6.641
 5883SOL     OW18547   0.249   1.633   6.681
 5883SOL    HW118548   0.223   1.590   6.768
 5883SOL    HW218549   0.249   1.733   6.693
 5884SOL     OW18550   4.974   0.938   4.102
 5884SOL    HW118551   5.043   1.011   4.103
 5884SOL    HW218552   4.883   0.978   4.113
 5885SOL     OW18553   0.202   5.901   2.494
 5885SOL    HW118554   0.202   5.862   2.402
 5885SOL    HW218555   0.252   5.988   2.494
 5886SOL     OW18556   0.479   2.174   3.799
 5886SOL    HW118557   0.516   2.265   3.778
 5886SOL    HW218558   0.546   2.121   3.851
 5887SOL     OW18559   2.476   2.172   1.995
 5887SOL    HW118560   2.468   2.225   2.080
 5887SOL    HW218561   2.462   2.232   1.917
 5888SOL     OW18562   1.820   0.501   1.375
 5888SOL    HW118563   1.784   0.590   1.348
 5888SOL    HW218564   1.778   0.473   1.462
 5889SOL     OW18565   0.083   0.831   0.409
 5889SOL    HW118566   0.134   0.897   0.465
 5889SOL    HW218567   0.147   0.762   0.374
 5890SOL     OW18568   1.956   1.072   2.983
 5890SOL    HW118569   2.022   1.123   3.037
 5890SOL    HW218570   1.870   1.124   2.976
 5891SOL     OW18571   3.136   3.654   0.110
 5891SOL    HW118572   3.160   3.751   0.100
 5891SOL    HW218573   3.185   3.601   0.040
 5892SOL     OW18574   1.290   4.733   2.219
 5892SOL    HW118575   1.268   4.657   2.159
 5892SOL    HW218576   1.213   4.797   2.221
 5893SOL     OW18577   1.543   4.032   3.395
 5893SOL    HW118578   1.518   3.994   3.306
 5893SOL    HW218579   1.643   4.033   3.404
 5894SOL     OW18580   0.529   5.588   4.218
 5894SOL    HW118581   0.436   5.621   4.231
 5894SOL    HW218582   0.564   5.618   4.129
 5895SOL     OW18583   5.006   3.311   3.924
 5895SOL    HW118584   5.090   3.362   3.942
 5895SOL    HW218585   4.964   3.344   3.839
 5896SOL     OW18586   3.526   1.233   1.438
 5896SOL    HW118587   3.541   1.190   1.349
 5896SOL    HW218588   3.480   1.168   1.499
 5897SOL     OW18589   4.115   0.417   1.788
 5897SOL    HW118590   4.073   0.402   1.878
 5897SOL    HW218591   4.043   0.436   1.721
 5898SOL     OW18592   2.732   0.525   4.823
 5898SOL    HW118593   2.682   0.608   4.800
 5898SOL    HW218594   2.790   0.499   4.746
 5899SOL     OW18595   6.715   5.204   6.702
 5899SOL    HW118596   6.810   5.216   6.671
 5899SOL    HW218597   6.710   5.219   6.801
 5900SOL     OW18598   6.365   5.317   3.532
 5900SOL    HW118599   6.286   5.374   3.556
 5900SOL    HW218600   6.390   5.259   3.610
 5901SOL     OW18601   2.999   0.573   0.553
 5901SOL    HW118602   3.083   0.619   0.578
 5901SOL    HW218603   3.007   0.475   0.572
 5902SOL     OW18604   5.933   2.667   5.635
 5902SOL    HW118605   5.889   2.754   5.610
 5902SOL    HW218606   5.870   2.592   5.616
 5903SOL     OW18607   4.778   3.923   6.434
 5903SOL    HW118608   4.843   3.851   6.458
 5903SOL    HW218609   4.776   3.933   6.334
 5904SOL     OW18610   1.391   4.941   0.873
 5904SOL    HW118611   1.417   4.893   0.790
 5904SOL    HW218612   1.335   4.881   0.931
 5905SOL     OW18613   6.020   0.583   4.296
 5905SOL    HW118614   5.973   0.494   4.300
 5905SOL    HW218615   6.069   0.598   4.382
 5906SOL     OW18616   3.787   2.054   3.562
 5906SOL    HW118617   3.799   1.974   3.620
 5906SOL    HW218618   3.873   2.105   3.557
 5907SOL     OW18619   0.995   5.990   0.431
 5907SOL    HW118620   1.041   5.903   0.448
 5907SOL    HW218621   0.952   5.988   0.340
 5908SOL     OW18622   6.733   3.207   0.347
 5908SOL    HW118623   6.831   3.186   0.345
 5908SOL    HW218624   6.701   3.206   0.442
 5909SOL     OW18625   6.846   4.905   0.319
 5909SOL    HW118626   6.790   4.842   0.372
 5909SOL    HW218627   6.818   4.999   0.337
 5910SOL     OW18628   0.454   4.341   2.812
 5910SOL    HW118629   0.411   4.338   2.722
 5910SOL    HW218630   0.458   4.249   2.851
 5911SOL     OW18631   6.727   4.800   6.111
 5911SOL    HW118632   6.678   4.854   6.179
 5911SOL    HW218633   6.817   4.775   6.146
 5912SOL     OW18634   5.926   3.287   6.770
 5912SOL    HW118635   6.017   3.254   6.742
 5912SOL    HW218636   5.856   3.225   6.733
 5913SOL     OW18637   4.470   3.135   6.581
 5913SOL    HW118638   4.509   3.224   6.603
 5913SOL    HW218639   4.453   3.085   6.666
 5914SOL     OW18640   1.742   5.364   6.539
 5914SOL    HW118641   1.739   5.402   6.446
 5914SOL    HW218642   1.655   5.319   6.559
 5915SOL     OW18643   5.404   5.111   1.458
 5915SOL    HW118644   5.308   5.084   1.444
 5915SOL    HW218645   5.410   5.211   1.464
 5916SOL     OW18646   3.820   5.208   5.322
 5916SOL    HW118647   3.906   5.200   5.373
 5916SOL    HW218648   3.745   5.226   5.387
 5917SOL     OW18649   3.791   3.345   3.742
 5917SOL    HW118650   3.736   3.278   3.692
 5917SOL    HW218651   3.803   3.315   3.837
 5918SOL     OW18652   1.870   3.215   5.502
 5918SOL    HW118653   1.798   3.275   5.468
 5918SOL    HW218654   1.957   3.236   5.457
 5919SOL     OW18655   4.089   3.182   1.246
 5919SOL    HW118656   4.032   3.239   1.187
 5919SOL    HW218657   4.072   3.207   1.342
 5920SOL     OW18658   3.981   0.467   6.967
 5920SOL    HW118659   4.022   0.510   6.886
 5920SOL    HW218660   3.915   0.397   6.939
 5921SOL     OW18661   3.963   5.530   5.876
 5921SOL    HW118662   4.033   5.466   5.842
 5921SOL    HW218663   4.005   5.594   5.940
 5922SOL     OW18664   6.605   5.384   3.040
 5922SOL    HW118665   6.536   5.450   3.007
 5922SOL    HW218666   6.565   5.293   3.043
 5923SOL     OW18667   5.560   1.065   1.217
 5923SOL    HW118668   5.477   1.100   1.175
 5923SOL    HW218669   5.555   1.075   1.316
 5924SOL     OW18670   6.937   1.272   3.745
 5924SOL    HW118671   6.997   1.327   3.687
 5924SOL    HW218672   6.925   1.181   3.704
 5925SOL     OW18673   3.776   5.576   1.676
 5925SOL    HW118674   3.849   5.529   1.728
 5925SOL    HW218675   3.702   5.599   1.738
 5926SOL     OW18676   3.958   5.385   1.159
 5926SOL    HW118677   3.972   5.432   1.247
 5926SOL    HW218678   4.031   5.318   1.145
 5927SOL     OW18679   1.042   3.961   2.769
 5927SOL    HW118680   1.119   3.952   2.832
 5927SOL    HW218681   1.019   4.058   2.758
 5928SOL     OW18682   3.345   0.104   0.704
 5928SOL    HW118683   3.363   0.140   0.612
 5928SOL    HW218684   3.288   0.168   0.754
 5929SOL     OW18685   0.536   6.574   6.175
 5929SOL    HW118686   0.451   6.627   6.170
 5929SOL    HW218687   0.523   6.486   6.130
 5930SOL     OW18688   6.667   2.634   3.313
 5930SOL    HW118689   6.688   2.721   3.270
 5930SOL    HW218690   6.750   2.594   3.352
 5931SOL     OW18691   6.930   5.349   3.726
 5931SOL    HW118692   6.998   5.338   3.653
 5931SOL    HW218693   6.839   5.331   3.690
 5932SOL     OW18694   2.024   6.992   0.671
 5932SOL    HW118695   1.932   6.975   0.635
 5932SOL    HW218696   2.092   6.956   0.607
 5933SOL     OW18697   0.229   6.341   3.744
 5933SOL    HW118698   0.276   6.391   3.671
 5933SOL    HW218699   0.135   6.375   3.752
 5934SOL     OW18700   4.052   3.242   4.287
 5934SOL    HW118701   4.055   3.278   4.380
 5934SOL    HW218702   4.066   3.316   4.221
 5935SOL     OW18703   4.929   4.064   5.985
 5935SOL    HW118704   4.899   4.144   5.934
 5935SOL    HW218705   5.014   4.085   6.033
 5936SOL     OW18706   3.855   3.466   0.663
 5936SOL    HW118707   3.846   3.505   0.571
 5936SOL    HW218708   3.898   3.533   0.723
 5937SOL     OW18709   0.974   4.418   2.933
 5937SOL    HW118710   0.884   4.387   2.962
 5937SOL    HW218711   0.974   4.518   2.927
 5938SOL     OW18712   0.703   4.985   4.062
 5938SOL    HW118713   0.746   5.024   4.144
 5938SOL    HW218714   0.705   5.054   3.989
 5939SOL     OW18715   2.729   6.474   3.211
 5939SOL    HW118716   2.687   6.478   3.302
 5939SOL    HW218717   2.827   6.461   3.220
 5940SOL     OW18718   4.748   5.471   0.760
 5940SOL    HW118719   4.655   5.506   0.748
 5940SOL    HW218720   4.765   5.453   0.856
 5941SOL     OW18721   5.750   3.526   1.872
 5941SOL    HW118722   5.669   3.584   1.864
 5941SOL    HW218723   5.830   3.583   1.887
 5942SOL     OW18724   5.143   2.944   0.620
 5942SOL    HW118725   5.150   2.872   0.551
 5942SOL    HW218726   5.226   2.945   0.676
 5943SOL     OW18727   3.643   5.415   0.493
 5943SOL    HW118728   3.627   5.413   0.591
 5943SOL    HW218729   3.741   5.425   0.475
 5944SOL     OW18730   6.439   2.903   1.558
 5944SOL    HW118731   6.403   2.810   1.558
 5944SOL    HW218732   6.487   2.921   1.472
 5945SOL     OW18733   6.465   5.266   5.143
 5945SOL    HW118734   6.462   5.243   5.240
 5945SOL    HW218735   6.523   5.346   5.129
 5946SOL     OW18736   3.485   3.489   6.175
 5946SOL    HW118737   3.546   3.437   6.234
 5946SOL    HW218738   3.455   3.572   6.223
 5947SOL     OW18739   3.875   3.628   1.874
 5947SOL    HW118740   3.912   3.657   1.962
 5947SOL    HW218741   3.943   3.644   1.802
 5948SOL     OW18742   4.373   5.209   3.188
 5948SOL    HW118743   4.409   5.181   3.099
 5948SOL    HW218744   4.364   5.129   3.247
 5949SOL     OW18745   4.680   3.422   1.664
 5949SOL    HW118746   4.718   3.514   1.674
 5949SOL    HW218747   4.745   3.355   1.702
 5950SOL     OW18748   4.613   2.276   5.688
 5950SOL    HW118749   4.623   2.372   5.661
 5950SOL    HW218750   4.638   2.217   5.612
 5951SOL     OW18751   0.846   5.655   4.073
 5951SOL    HW118752   0.809   5.746   4.091
 5951SOL    HW218753   0.851   5.604   4.158
 5952SOL     OW18754   5.611   4.586   4.335
 5952SOL    HW118755   5.678   4.641   4.386
 5952SOL    HW218756   5.654   4.502   4.304
 5953SOL     OW18757   6.278   3.081   5.332
 5953SOL    HW118758   6.203   3.128   5.286
 5953SOL    HW218759   6.283   2.987   5.299
 5954SOL     OW18760   0.875   4.097   5.583
 5954SOL    HW118761   0.939   4.046   5.640
 5954SOL    HW218762   0.874   4.193   5.612
 5955SOL     OW18763   5.434   6.196   2.724
 5955SOL    HW118764   5.529   6.187   2.755
 5955SOL    HW218765   5.372   6.172   2.798
 5956SOL     OW18766   4.449   0.778   6.143
 5956SOL    HW118767   4.367   0.727   6.119
 5956SOL    HW218768   4.454   0.861   6.087
 5957SOL     OW18769   4.115   0.608   5.529
 5957SOL    HW118770   4.179   0.543   5.570
 5957SOL    HW218771   4.165   0.689   5.499
 5958SOL     OW18772   5.915   6.783   2.876
 5958SOL    HW118773   5.945   6.878   2.869
 5958SOL    HW218774   5.967   6.727   2.811
 5959SOL     OW18775   3.984   2.132   5.480
 5959SOL    HW118776   3.957   2.205   5.418
 5959SOL    HW218777   4.038   2.169   5.555
 5960SOL     OW18778   3.801   5.544   4.977
 5960SOL    HW118779   3.724   5.584   4.929
 5960SOL    HW218780   3.798   5.444   4.968
 5961SOL     OW18781   5.342   1.327   3.192
 5961SOL    HW118782   5.300   1.308   3.281
 5961SOL    HW218783   5.302   1.267   3.123
 5962SOL     OW18784   5.118   6.039   0.776
 5962SOL    HW118785   5.021   6.016   0.767
 5962SOL    HW218786   5.151   6.009   0.865
 5963SOL     OW18787   3.405   3.434   5.325
 5963SOL    HW118788   3.471   3.381   5.378
 5963SOL    HW218789   3.453   3.509   5.278
 5964SOL     OW18790   0.154   5.662   5.676
 5964SOL    HW118791   0.131   5.759   5.685
 5964SOL    HW218792   0.243   5.653   5.630
 5965SOL     OW18793   1.086   2.090   6.891
 5965SOL    HW118794   1.041   2.165   6.844
 5965SOL    HW218795   1.167   2.124   6.939
 5966SOL     OW18796   2.672   5.923   5.807
 5966SOL    HW118797   2.699   5.985   5.733
 5966SOL    HW218798   2.747   5.914   5.873
 5967SOL     OW18799   4.269   6.655   6.967
 5967SOL    HW118800   4.291   6.672   0.045
 5967SOL    HW218801   4.325   6.580   6.933
 5968SOL     OW18802   4.574   1.247   1.171
 5968SOL    HW118803   4.621   1.325   1.128
 5968SOL    HW218804   4.479   1.243   1.139
 5969SOL     OW18805   0.033   0.056   6.547
 5969SOL    HW118806   0.079   7.007   6.606
 5969SOL    HW218807   0.058   0.149   6.576
 5970SOL     OW18808   0.713   4.591   2.758
 5970SOL    HW118809   0.669   4.546   2.680
 5970SOL    HW218810   0.807   4.616   2.734
 5971SOL     OW18811   1.231   1.008   2.238
 5971SOL    HW118812   1.169   0.999   2.316
 5971SOL    HW218813   1.211   1.092   2.188
 5972SOL     OW18814   5.220   5.510   6.980
 5972SOL    HW118815   5.253   5.415   6.978
 5972SOL    HW218816   5.142   5.519   6.917
 5973SOL     OW18817   2.059   3.165   2.257
 5973SOL    HW118818   2.115   3.126   2.330
 5973SOL    HW218819   1.964   3.174   2.289
 5974SOL     OW18820   5.773   5.201   6.298
 5974SOL    HW118821   5.747   5.236   6.208
 5974SOL    HW218822   5.702   5.138   6.331
 5975SOL     OW18823   3.470   1.317   0.278
 5975SOL    HW118824   3.439   1.344   0.369
 5975SOL    HW218825   3.394   1.274   0.229
 5976SOL     OW18826   3.109   3.134   5.064
 5976SOL    HW118827   3.030   3.156   5.007
 5976SOL    HW218828   3.178   3.205   5.054
 5977SOL     OW18829   2.622   5.709   6.995
 5977SOL    HW118830   2.527   5.707   0.008
 5977SOL    HW218831   2.637   5.635   6.929
 5978SOL     OW18832   5.521   5.854   2.773
 5978SOL    HW118833   5.617   5.859   2.744
 5978SOL    HW218834   5.518   5.835   2.871
 5979SOL     OW18835   5.317   0.804   2.863
 5979SOL    HW118836   5.350   0.713   2.838
 5979SOL    HW218837   5.328   0.866   2.784
 5980SOL     OW18838   4.192   3.863   0.719
 5980SOL    HW118839   4.191   3.926   0.642
 5980SOL    HW218840   4.174   3.914   0.804
 5981SOL     OW18841   5.937   1.889   1.054
 5981SOL    HW118842   5.864   1.852   1.111
 5981SOL    HW218843   6.022   1.891   1.107
 5982SOL     OW18844   6.299   3.416   2.254
 5982SOL    HW118845   6.307   3.499   2.199
 5982SOL    HW218846   6.282   3.440   2.349
 5983SOL     OW18847   1.309   1.548   4.472
 5983SOL    HW118848   1.333   1.468   4.418
 5983SOL    HW218849   1.366   1.625   4.446
 5984SOL     OW18850   6.724   5.564   4.546
 5984SOL    HW118851   6.694   5.524   4.632
 5984SOL    HW218852   6.705   5.662   4.547
 5985SOL     OW18853   0.100   2.963   4.260
 5985SOL    HW118854   0.160   3.028   4.212
 5985SOL    HW218855   0.148   2.926   4.340
 5986SOL     OW18856   3.282   3.341   5.094
 5986SOL    HW118857   3.321   3.367   5.182
 5986SOL    HW218858   3.339   3.377   5.020
 5987SOL     OW18859   4.247   0.312   4.328
 5987SOL    HW118860   4.164   0.276   4.286
 5987SOL    HW218861   4.245   0.412   4.324
 5988SOL     OW18862   5.095   6.778   5.384
 5988SOL    HW118863   5.123   6.824   5.468
 5988SOL    HW218864   5.115   6.837   5.306
 5989SOL     OW18865   2.992   6.270   0.099
 5989SOL    HW118866   2.962   6.182   0.135
 5989SOL    HW218867   3.026   6.257   0.005
 5990SOL     OW18868   3.632   4.300   0.051
 5990SOL    HW118869   3.534   4.283   0.055
 5990SOL    HW218870   3.649   4.387   0.005
 5991SOL     OW18871   3.049   4.971   6.883
 5991SOL    HW118872   3.116   5.030   6.927
 5991SOL    HW218873   3.057   4.878   6.919
 5992SOL     OW18874   3.530   0.313   3.104
 5992SOL    HW118875   3.476   0.370   3.043
 5992SOL    HW218876   3.470   0.255   3.158
 5993SOL     OW18877   2.876   6.130   6.583
 5993SOL    HW118878   2.785   6.124   6.625
 5993SOL    HW218879   2.866   6.145   6.484
 5994SOL     OW18880   6.274   2.360   2.238
 5994SOL    HW118881   6.267   2.441   2.178
 5994SOL    HW218882   6.369   2.334   2.248
 5995SOL     OW18883   5.337   4.712   3.304
 5995SOL    HW118884   5.292   4.794   3.339
 5995SOL    HW218885   5.435   4.715   3.325
 5996SOL     OW18886   1.035   6.585   0.706
 5996SOL    HW118887   1.073   6.599   0.797
 5996SOL    HW218888   0.937   6.605   0.707
 5997SOL     OW18889   1.051   5.491   2.476
 5997SOL    HW118890   1.023   5.399   2.447
 5997SOL    HW218891   1.001   5.516   2.559
 5998SOL     OW18892   6.108   1.870   2.669
 5998SOL    HW118893   6.172   1.830   2.603
 5998SOL    HW218894   6.069   1.953   2.630
 5999SOL     OW18895   1.840   1.754   2.361
 5999SOL    HW118896   1.823   1.701   2.278
 5999SOL    HW218897   1.786   1.839   2.358
 6000SOL     OW18898   4.345   6.746   1.424
 6000SOL    HW118899   4.392   6.673   1.374
 6000SOL    HW218900   4.256   6.764   1.382
 6001SOL     OW18901   0.336   3.715   6.948
 6001SOL    HW118902   0.265   3.660   6.993
 6001SOL    HW218903   0.380   3.774   7.015
 6002SOL     OW18904   6.157   0.008   1.044
 6002SOL    HW118905   6.148   6.986   1.136
 6002SOL    HW218906   6.209   6.963   0.986
 6003SOL     OW18907   6.910   2.237   3.791
 6003SOL    HW118908   6.832   2.173   3.791
 6003SOL    HW218909   6.935   2.258   3.885
 6004SOL     OW18910   0.786   3.720   3.028
 6004SOL    HW118911   0.801   3.678   2.939
 6004SOL    HW218912   0.718   3.793   3.020
 6005SOL     OW18913   4.843   5.364   4.681
 6005SOL    HW118914   4.769   5.356   4.614
 6005SOL    HW218915   4.826   5.300   4.757
 6006SOL     OW18916   3.414   0.620   6.458
 6006SOL    HW118917   3.429   0.617   6.557
 6006SOL    HW218918   3.322   0.586   6.437
 6007SOL     OW18919   4.987   3.605   5.222
 6007SOL    HW118920   4.918   3.611   5.150
 6007SOL    HW218921   4.942   3.582   5.308
 6008SOL     OW18922   2.155   4.918   5.408
 6008SOL    HW118923   2.173   4.823   5.381
 6008SOL    HW218924   2.225   4.948   5.473
 6009SOL     OW18925   3.469   0.478   3.926
 6009SOL    HW118926   3.550   0.422   3.944
 6009SOL    HW218927   3.391   0.441   3.976
 6010SOL     OW18928   1.650   4.249   3.822
 6010SOL    HW118929   1.712   4.182   3.782
 6010SOL    HW218930   1.611   4.307   3.750
 6011SOL     OW18931   5.143   3.404   2.466
 6011SOL    HW118932   5.081   3.338   2.423
 6011SOL    HW218933   5.148   3.385   2.564
 6012SOL     OW18934   5.137   1.401   0.250
 6012SOL    HW118935   5.130   1.478   0.185
 6012SOL    HW218936   5.052   1.395   0.303
 6013SOL     OW18937   5.398   2.318   3.347
 6013SOL    HW118938   5.307   2.345   3.378
 6013SOL    HW218939   5.419   2.226   3.380
 6014SOL     OW18940   4.170   3.609   0.992
 6014SOL    HW118941   4.147   3.663   0.912
 6014SOL    HW218942   4.198   3.517   0.964
 6015SOL     OW18943   5.499   2.804   4.405
 6015SOL    HW118944   5.502   2.887   4.350
 6015SOL    HW218945   5.475   2.827   4.499
 6016SOL     OW18946   5.992   1.850   6.013
 6016SOL    HW118947   5.925   1.919   5.987
 6016SOL    HW218948   5.945   1.769   6.047
 6017SOL     OW18949   0.016   4.245   2.907
 6017SOL    HW118950   0.010   4.166   2.968
 6017SOL    HW218951   0.036   4.327   2.960
 6018SOL     OW18952   2.957   0.577   6.255
 6018SOL    HW118953   2.940   0.525   6.338
 6018SOL    HW218954   2.919   0.669   6.264
 6019SOL     OW18955   6.651   1.908   4.301
 6019SOL    HW118956   6.574   1.949   4.253
 6019SOL    HW218957   6.709   1.858   4.236
 6020SOL     OW18958   1.895   4.755   1.065
 6020SOL    HW118959   1.985   4.746   1.109
 6020SOL    HW218960   1.824   4.732   1.131
 6021SOL     OW18961   4.500   0.769   2.432
 6021SOL    HW118962   4.487   0.742   2.527
 6021SOL    HW218963   4.459   0.859   2.417
 6022SOL     OW18964   4.271   2.334   3.669
 6022SOL    HW118965   4.230   2.389   3.743
 6022SOL    HW218966   4.317   2.395   3.604
 6023SOL     OW18967   6.648   0.350   2.338
 6023SOL    HW118968   6.568   0.369   2.396
 6023SOL    HW218969   6.624   0.362   2.242
 6024SOL     OW18970   1.028   4.883   3.285
 6024SOL    HW118971   1.060   4.972   3.318
 6024SOL    HW218972   1.063   4.810   3.344
 6025SOL     OW18973   3.497   1.563   2.710
 6025SOL    HW118974   3.423   1.537   2.648
 6025SOL    HW218975   3.585   1.547   2.666
 6026SOL     OW18976   0.302   4.252   5.158
 6026SOL    HW118977   0.393   4.292   5.146
 6026SOL    HW218978   0.298   4.201   5.244
 6027SOL     OW18979   1.395   4.021   6.336
 6027SOL    HW118980   1.336   4.094   6.301
 6027SOL    HW218981   1.487   4.031   6.297
 6028SOL     OW18982   0.657   4.738   6.735
 6028SOL    HW118983   0.681   4.779   6.647
 6028SOL    HW218984   0.661   4.638   6.727
 6029SOL     OW18985   2.330   6.207   5.103
 6029SOL    HW118986   2.254   6.198   5.039
 6029SOL    HW218987   2.376   6.119   5.112
 6030SOL     OW18988   4.041   6.030   2.927
 6030SOL    HW118989   4.011   6.063   3.016
 6030SOL    HW218990   3.976   6.059   2.856
 6031SOL     OW18991   3.537   5.316   3.231
 6031SOL    HW118992   3.461   5.380   3.216
 6031SOL    HW218993   3.532   5.280   3.324
 6032SOL     OW18994   2.495   4.579   2.933
 6032SOL    HW118995   2.529   4.602   3.024
 6032SOL    HW218996   2.471   4.662   2.884
 6033SOL     OW18997   2.977   1.518   2.636
 6033SOL    HW118998   3.065   1.523   2.588
 6033SOL    HW218999   2.929   1.434   2.609
 6034SOL     OW19000   1.185   5.161   4.700
 6034SOL    HW119001   1.130   5.153   4.784
 6034SOL    HW219002   1.281   5.144   4.722
 6035SOL     OW19003   6.741   1.014   2.733
 6035SOL    HW119004   6.818   0.959   2.767
 6035SOL    HW219005   6.686   1.046   2.810
 6036SOL     OW19006   6.414   5.860   4.349
 6036SOL    HW119007   6.369   5.938   4.391
 6036SOL    HW219008   6.373   5.775   4.384
 6037SOL     OW19009   4.650   4.641   6.053
 6037SOL    HW119010   4.690   4.570   6.111
 6037SOL    HW219011   4.721   4.708   6.029
 6038SOL     OW19012   1.612   2.508   6.031
 6038SOL    HW119013   1.709   2.490   6.045
 6038SOL    HW219014   1.599   2.604   6.007
 6039SOL     OW19015   3.146   3.175   2.410
 6039SOL    HW119016   3.092   3.128   2.480
 6039SOL    HW219017   3.235   3.200   2.448
 6040SOL     OW19018   0.800   1.922   6.299
 6040SOL    HW119019   0.772   1.952   6.208
 6040SOL    HW219020   0.815   2.002   6.357
 6041SOL     OW19021   2.265   0.515   5.008
 6041SOL    HW119022   2.249   0.614   5.015
 6041SOL    HW219023   2.192   0.474   4.953
 6042SOL     OW19024   5.538   5.631   1.597
 6042SOL    HW119025   5.632   5.622   1.629
 6042SOL    HW219026   5.494   5.708   1.643
 6043SOL     OW19027   0.822   4.350   5.738
 6043SOL    HW119028   0.748   4.365   5.673
 6043SOL    HW219029   0.793   4.383   5.828
 6044SOL     OW19030   1.450   2.253   1.329
 6044SOL    HW119031   1.506   2.196   1.268
 6044SOL    HW219032   1.479   2.239   1.423
 6045SOL     OW19033   6.519   4.942   1.648
 6045SOL    HW119034   6.473   4.938   1.737
 6045SOL    HW219035   6.606   4.893   1.653
 6046SOL     OW19036   4.143   2.067   0.190
 6046SOL    HW119037   4.241   2.051   0.198
 6046SOL    HW219038   4.127   2.154   0.144
 6047SOL     OW19039   5.485   2.332   2.263
 6047SOL    HW119040   5.413   2.321   2.196
 6047SOL    HW219041   5.564   2.276   2.237
 6048SOL     OW19042   4.879   5.733   4.393
 6048SOL    HW119043   4.813   5.709   4.465
 6048SOL    HW219044   4.940   5.656   4.377
 6049SOL     OW19045   5.767   3.458   6.107
 6049SOL    HW119046   5.783   3.400   6.186
 6049SOL    HW219047   5.801   3.550   6.126
 6050SOL     OW19048   3.174   5.248   4.377
 6050SOL    HW119049   3.188   5.184   4.302
 6050SOL    HW219050   3.248   5.316   4.377
 6051SOL     OW19051   2.653   1.078   4.294
 6051SOL    HW119052   2.599   1.161   4.312
 6051SOL    HW219053   2.636   1.047   4.200
 6052SOL     OW19054   5.977   0.198   0.465
 6052SOL    HW119055   5.910   0.125   0.456
 6052SOL    HW219056   5.958   0.271   0.399
 6053SOL     OW19057   4.152   1.007   6.484
 6053SOL    HW119058   4.202   1.011   6.397
 6053SOL    HW219059   4.173   1.088   6.539
 6054SOL     OW19060   2.792   3.673   0.447
 6054SOL    HW119061   2.692   3.681   0.445
 6054SOL    HW219062   2.825   3.706   0.536
 6055SOL     OW19063   4.914   0.912   5.710
 6055SOL    HW119064   4.948   0.996   5.752
 6055SOL    HW219065   4.974   0.884   5.635
 6056SOL     OW19066   4.644   2.632   4.799
 6056SOL    HW119067   4.600   2.596   4.717
 6056SOL    HW219068   4.627   2.730   4.806
 6057SOL     OW19069   4.956   2.594   4.113
 6057SOL    HW119070   5.032   2.550   4.065
 6057SOL    HW219071   4.988   2.678   4.156
 6058SOL     OW19072   4.854   3.111   1.004
 6058SOL    HW119073   4.789   3.047   1.046
 6058SOL    HW219074   4.917   3.060   0.945
 6059SOL     OW19075   5.316   5.199   5.072
 6059SOL    HW119076   5.313   5.110   5.116
 6059SOL    HW219077   5.250   5.201   4.997
 6060SOL     OW19078   2.798   3.960   6.392
 6060SOL    HW119079   2.821   3.999   6.303
 6060SOL    HW219080   2.699   3.947   6.397
 6061SOL     OW19081   3.608   2.093   1.172
 6061SOL    HW119082   3.616   2.057   1.265
 6061SOL    HW219083   3.596   2.016   1.109
 6062SOL     OW19084   2.607   1.727   4.938
 6062SOL    HW119085   2.621   1.694   5.031
 6062SOL    HW219086   2.535   1.797   4.938
 6063SOL     OW19087   3.926   1.625   6.337
 6063SOL    HW119088   3.924   1.629   6.237
 6063SOL    HW219089   3.931   1.718   6.374
 6064SOL     OW19090   1.878   5.915   1.113
 6064SOL    HW119091   1.830   5.827   1.106
 6064SOL    HW219092   1.885   5.942   1.209
 6065SOL     OW19093   5.756   6.906   1.803
 6065SOL    HW119094   5.851   6.873   1.803
 6065SOL    HW219095   5.754   7.000   1.770
 6066SOL     OW19096   4.951   2.158   6.087
 6066SOL    HW119097   4.890   2.192   6.016
 6066SOL    HW219098   4.944   2.217   6.168
 6067SOL     OW19099   5.366   1.639   5.988
 6067SOL    HW119100   5.284   1.610   5.938
 6067SOL    HW219101   5.346   1.722   6.040
 6068SOL     OW19102   5.754   3.113   4.862
 6068SOL    HW119103   5.782   3.105   4.766
 6068SOL    HW219104   5.668   3.163   4.868
 6069SOL     OW19105   6.548   3.378   5.019
 6069SOL    HW119106   6.637   3.336   5.035
 6069SOL    HW219107   6.537   3.396   4.921
 6070SOL     OW19108   2.308   2.141   0.716
 6070SOL    HW119109   2.364   2.177   0.790
 6070SOL    HW219110   2.367   2.111   0.641
 6071SOL     OW19111   5.959   4.923   4.631
 6071SOL    HW119112   6.054   4.910   4.657
 6071SOL    HW219113   5.924   5.005   4.676
 6072SOL     OW19114   0.283   6.981   1.766
 6072SOL    HW119115   0.370   0.011   1.783
 6072SOL    HW219116   0.212   0.003   1.824
 6073SOL     OW19117   6.340   4.238   0.647
 6073SOL    HW119118   6.305   4.219   0.555
 6073SOL    HW219119   6.265   4.275   0.703
 6074SOL     OW19120   1.111   5.918   4.211
 6074SOL    HW119121   1.111   5.924   4.111
 6074SOL    HW219122   1.116   6.011   4.250
 6075SOL     OW19123   6.677   1.639   6.306
 6075SOL    HW119124   6.615   1.599   6.373
 6075SOL    HW219125   6.631   1.716   6.260
 6076SOL     OW19126   2.246   5.693   4.435
 6076SOL    HW119127   2.256   5.685   4.534
 6076SOL    HW219128   2.164   5.643   4.405
 6077SOL     OW19129   5.691   6.007   1.580
 6077SOL    HW119130   5.762   5.995   1.650
 6077SOL    HW219131   5.730   5.984   1.490
 6078SOL     OW19132   3.703   5.253   1.206
 6078SOL    HW119133   3.770   5.326   1.192
 6078SOL    HW219134   3.622   5.291   1.250
 6079SOL     OW19135   4.060   3.018   6.535
 6079SOL    HW119136   4.085   3.046   6.442
 6079SOL    HW219137   3.978   2.962   6.532
 6080SOL     OW19138   0.047   0.803   1.769
 6080SOL    HW119139   6.980   0.770   1.811
 6080SOL    HW219140   0.086   0.731   1.712
 6081SOL     OW19141   6.529   2.986   5.495
 6081SOL    HW119142   6.430   2.994   5.494
 6081SOL    HW219143   6.561   2.960   5.404
 6082SOL     OW19144   2.144   1.854   3.324
 6082SOL    HW119145   2.211   1.827   3.393
 6082SOL    HW219146   2.176   1.938   3.278
 6083SOL     OW19147   0.583   4.628   0.034
 6083SOL    HW119148   0.680   4.624   0.009
 6083SOL    HW219149   0.574   4.648   0.132
 6084SOL     OW19150   0.495   5.860   3.191
 6084SOL    HW119151   0.456   5.950   3.209
 6084SOL    HW219152   0.443   5.791   3.242
 6085SOL     OW19153   0.766   4.445   0.260
 6085SOL    HW119154   0.687   4.384   0.267
 6085SOL    HW219155   0.815   4.426   0.175
 6086SOL     OW19156   3.488   1.008   6.139
 6086SOL    HW119157   3.583   1.003   6.110
 6086SOL    HW219158   3.446   0.917   6.132
 6087SOL     OW19159   4.084   5.732   0.563
 6087SOL    HW119160   4.020   5.771   0.629
 6087SOL    HW219161   4.120   5.804   0.504
 6088SOL     OW19162   5.868   6.086   4.390
 6088SOL    HW119163   5.943   6.098   4.325
 6088SOL    HW219164   5.851   5.988   4.403
 6089SOL     OW19165   6.519   3.582   1.048
 6089SOL    HW119166   6.446   3.530   1.004
 6089SOL    HW219167   6.479   3.660   1.097
 6090SOL     OW19168   2.427   6.040   5.516
 6090SOL    HW119169   2.526   6.028   5.529
 6090SOL    HW219170   2.410   6.083   5.428
 6091SOL     OW19171   1.631   1.562   1.718
 6091SOL    HW119172   1.675   1.480   1.754
 6091SOL    HW219173   1.539   1.569   1.757
 6092SOL     OW19174   3.618   6.797   2.919
 6092SOL    HW119175   3.634   6.895   2.910
 6092SOL    HW219176   3.528   6.781   2.959
 6093SOL     OW19177   1.614   2.696   3.071
 6093SOL    HW119178   1.565   2.739   2.995
 6093SOL    HW219179   1.700   2.744   3.087
 6094SOL     OW19180   3.900   0.764   1.508
 6094SOL    HW119181   3.818   0.707   1.509
 6094SOL    HW219182   3.875   0.857   1.480
 6095SOL     OW19183   4.932   3.152   6.770
 6095SOL    HW119184   5.018   3.139   6.818
 6095SOL    HW219185   4.925   3.246   6.738
 6096SOL     OW19186   5.901   0.464   3.830
 6096SOL    HW119187   5.978   0.502   3.882
 6096SOL    HW219188   5.934   0.426   3.744
 6097SOL     OW19189   2.112   6.978   2.145
 6097SOL    HW119190   2.026   6.928   2.161
 6097SOL    HW219191   2.114   7.009   2.050
 6098SOL     OW19192   1.393   2.845   6.185
 6098SOL    HW119193   1.398   2.747   6.206
 6098SOL    HW219194   1.299   2.869   6.161
 6099SOL     OW19195   6.839   5.664   0.533
 6099SOL    HW119196   6.916   5.617   0.490
 6099SOL    HW219197   6.873   5.742   0.587
 6100SOL     OW19198   4.769   3.651   0.415
 6100SOL    HW119199   4.806   3.558   0.407
 6100SOL    HW219200   4.675   3.652   0.382
 6101SOL     OW19201   5.991   2.002   4.015
 6101SOL    HW119202   6.077   1.954   4.032
 6101SOL    HW219203   5.916   1.936   4.009
 6102SOL     OW19204   3.274   6.467   3.308
 6102SOL    HW119205   3.359   6.424   3.279
 6102SOL    HW219206   3.292   6.561   3.339
 6103SOL     OW19207   0.006   2.403   2.437
 6103SOL    HW119208   6.936   2.395   2.485
 6103SOL    HW219209   0.081   2.401   2.503
 6104SOL     OW19210   6.014   1.334   5.291
 6104SOL    HW119211   5.952   1.412   5.296
 6104SOL    HW219212   5.968   1.259   5.243
 6105SOL     OW19213   1.605   0.179   5.636
 6105SOL    HW119214   1.702   0.193   5.621
 6105SOL    HW219215   1.567   0.122   5.564
 6106SOL     OW19216   2.455   3.994   5.428
 6106SOL    HW119217   2.417   3.994   5.335
 6106SOL    HW219218   2.485   3.902   5.451
 6107SOL     OW19219   2.543   4.591   4.686
 6107SOL    HW119220   2.538   4.563   4.591
 6107SOL    HW219221   2.493   4.526   4.743
 6108SOL     OW19222   0.581   2.450   2.050
 6108SOL    HW119223   0.489   2.446   2.010
 6108SOL    HW219224   0.582   2.518   2.123
 6109SOL     OW19225   5.101   3.077   6.180
 6109SOL    HW119226   5.141   3.034   6.260
 6109SOL    HW219227   5.152   3.050   6.098
 6110SOL     OW19228   4.304   3.431   0.273
 6110SOL    HW119229   4.306   3.365   0.198
 6110SOL    HW219230   4.394   3.473   0.282
 6111SOL     OW19231   2.216   4.080   2.145
 6111SOL    HW119232   2.148   4.022   2.189
 6111SOL    HW219233   2.179   4.117   2.060
 6112SOL     OW19234   3.354   6.763   3.049
 6112SOL    HW119235   3.331   6.828   3.121
 6112SOL    HW219236   3.281   6.761   2.981
 6113SOL     OW19237   1.773   1.254   6.115
 6113SOL    HW119238   1.759   1.294   6.025
 6113SOL    HW219239   1.863   1.282   6.151
 6114SOL     OW19240   4.971   5.191   1.152
 6114SOL    HW119241   4.922   5.278   1.160
 6114SOL    HW219242   5.010   5.166   1.240
 6115SOL     OW19243   4.934   6.911   3.646
 6115SOL    HW119244   5.026   6.911   3.686
 6115SOL    HW219245   4.874   6.854   3.702
 6116SOL     OW19246   2.663   0.058   0.712
 6116SOL    HW119247   2.636   0.073   0.617
 6116SOL    HW219248   2.762   0.046   0.717
 6117SOL     OW19249   0.417   0.683   5.738
 6117SOL    HW119250   0.438   0.708   5.643
 6117SOL    HW219251   0.482   0.727   5.799
 6118SOL     OW19252   6.088   0.156   1.808
 6118SOL    HW119253   6.121   0.195   1.723
 6118SOL    HW219254   6.067   0.059   1.794
 6119SOL     OW19255   1.458   3.843   5.521
 6119SOL    HW119256   1.399   3.764   5.502
 6119SOL    HW219257   1.417   3.899   5.593
 6120SOL     OW19258   3.802   6.860   4.031
 6120SOL    HW119259   3.894   6.821   4.028
 6120SOL    HW219260   3.748   6.824   3.955
 6121SOL     OW19261   0.773   3.049   4.889
 6121SOL    HW119262   0.692   3.039   4.946
 6121SOL    HW219263   0.749   3.034   4.793
 6122SOL     OW19264   3.849   6.935   1.576
 6122SOL    HW119265   3.885   7.006   1.516
 6122SOL    HW219266   3.844   6.968   1.670
 6123SOL     OW19267   6.380   0.705   6.268
 6123SOL    HW119268   6.413   0.760   6.344
 6123SOL    HW219269   6.336   0.622   6.303
 6124SOL     OW19270   2.346   1.107   6.743
 6124SOL    HW119271   2.380   1.141   6.830
 6124SOL    HW219272   2.312   1.183   6.687
 6125SOL     OW19273   1.279   5.741   0.019
 6125SOL    HW119274   1.353   5.797   7.000
 6125SOL    HW219275   1.274   5.753   0.118
 6126SOL     OW19276   6.939   6.846   4.474
 6126SOL    HW119277   6.876   6.821   4.400
 6126SOL    HW219278   0.013   6.860   4.437
 6127SOL     OW19279   3.410   0.134   2.335
 6127SOL    HW119280   3.362   0.096   2.414
 6127SOL    HW219281   3.509   0.136   2.353
 6128SOL     OW19282   6.815   2.973   6.992
 6128SOL    HW119283   6.778   2.941   0.061
 6128SOL    HW219284   6.877   3.050   7.008
 6129SOL     OW19285   6.973   3.806   2.828
 6129SOL    HW119286   6.995   3.894   2.870
 6129SOL    HW219287   6.988   3.733   2.894
 6130SOL     OW19288   6.327   2.163   3.556
 6130SOL    HW119289   6.411   2.216   3.547
 6130SOL    HW219290   6.280   2.160   3.468
 6131SOL     OW19291   6.897   1.411   5.383
 6131SOL    HW119292   6.994   1.430   5.371
 6131SOL    HW219293   6.885   1.323   5.428
 6132SOL     OW19294   4.719   1.257   0.769
 6132SOL    HW119295   4.627   1.291   0.748
 6132SOL    HW219296   4.755   1.304   0.850
 6133SOL     OW19297   0.933   2.326   2.326
 6133SOL    HW119298   0.953   2.232   2.353
 6133SOL    HW219299   0.842   2.352   2.360
 6134SOL     OW19300   3.777   4.505   6.497
 6134SOL    HW119301   3.702   4.467   6.550
 6134SOL    HW219302   3.864   4.480   6.538
 6135SOL     OW19303   0.416   0.277   2.201
 6135SOL    HW119304   0.424   0.180   2.223
 6135SOL    HW219305   0.484   0.302   2.132
 6136SOL     OW19306   0.618   2.387   2.643
 6136SOL    HW119307   0.668   2.366   2.559
 6136SOL    HW219308   0.589   2.303   2.688
 6137SOL     OW19309   5.722   2.784   3.836
 6137SOL    HW119310   5.736   2.857   3.769
 6137SOL    HW219311   5.626   2.780   3.862
 6138SOL     OW19312   4.910   6.159   2.439
 6138SOL    HW119313   4.900   6.140   2.536
 6138SOL    HW219314   4.855   6.094   2.386
 6139SOL     OW19315   1.637   1.967   5.726
 6139SOL    HW119316   1.587   1.994   5.809
 6139SOL    HW219317   1.702   1.895   5.748
 6140SOL     OW19318   0.578   6.607   1.762
 6140SOL    HW119319   0.592   6.518   1.717
 6140SOL    HW219320   0.488   6.642   1.737
 6141SOL     OW19321   6.395   5.541   6.588
 6141SOL    HW119322   6.431   5.448   6.592
 6141SOL    HW219323   6.305   5.540   6.544
 6142SOL     OW19324   0.636   5.356   1.079
 6142SOL    HW119325   0.690   5.428   1.123
 6142SOL    HW219326   0.578   5.396   1.008
 6143SOL     OW19327   6.570   4.109   0.775
 6143SOL    HW119328   6.639   4.164   0.729
 6143SOL    HW219329   6.480   4.128   0.734
 6144SOL     OW19330   6.536   4.665   3.394
 6144SOL    HW119331   6.465   4.688   3.327
 6144SOL    HW219332   6.531   4.729   3.471
 6145SOL     OW19333   4.394   5.348   3.613
 6145SOL    HW119334   4.326   5.412   3.576
 6145SOL    HW219335   4.347   5.271   3.656
 6146SOL     OW19336   3.481   0.109   3.997
 6146SOL    HW119337   3.566   0.163   3.995
 6146SOL    HW219338   3.489   0.037   4.065
 6147SOL     OW19339   1.526   3.506   4.560
 6147SOL    HW119340   1.534   3.434   4.492
 6147SOL    HW219341   1.430   3.517   4.586
 6148SOL     OW19342   0.002   0.534   4.383
 6148SOL    HW119343   0.040   0.531   4.476
 6148SOL    HW219344   0.039   0.458   4.330
 6149SOL     OW19345   3.236   5.270   1.537
 6149SOL    HW119346   3.171   5.312   1.473
 6149SOL    HW219347   3.269   5.340   1.600
 6150SOL     OW19348   4.448   4.876   6.657
 6150SOL    HW119349   4.403   4.788   6.648
 6150SOL    HW219350   4.402   4.944   6.599
 6151SOL     OW19351   5.935   4.123   5.644
 6151SOL    HW119352   6.020   4.093   5.600
 6151SOL    HW219353   5.941   4.221   5.662
 6152SOL     OW19354   6.143   6.010   4.989
 6152SOL    HW119355   6.140   5.972   5.082
 6152SOL    HW219356   6.238   6.025   4.962
 6153SOL     OW19357   5.174   3.934   1.928
 6153SOL    HW119358   5.179   4.031   1.949
 6153SOL    HW219359   5.177   3.882   2.013
 6154SOL     OW19360   5.399   1.817   2.604
 6154SOL    HW119361   5.345   1.889   2.561
 6154SOL    HW219362   5.493   1.821   2.571
 6155SOL     OW19363   2.049   2.322   4.773
 6155SOL    HW119364   2.083   2.408   4.735
 6155SOL    HW219365   2.009   2.267   4.699
 6156SOL     OW19366   4.221   4.783   1.528
 6156SOL    HW119367   4.306   4.761   1.481
 6156SOL    HW219368   4.171   4.699   1.549
 6157SOL     OW19369   1.133   1.072   4.726
 6157SOL    HW119370   1.056   1.036   4.673
 6157SOL    HW219371   1.212   1.012   4.716
 6158SOL     OW19372   4.290   0.717   5.866
 6158SOL    HW119373   4.279   0.618   5.857
 6158SOL    HW219374   4.199   0.759   5.875
 6159SOL     OW19375   4.921   2.319   1.533
 6159SOL    HW119376   4.898   2.270   1.617
 6159SOL    HW219377   4.869   2.282   1.456
 6160SOL     OW19378   5.025   0.288   6.522
 6160SOL    HW119379   5.090   0.227   6.568
 6160SOL    HW219380   5.017   0.262   6.426
 6161SOL     OW19381   5.235   1.370   4.498
 6161SOL    HW119382   5.182   1.399   4.578
 6161SOL    HW219383   5.191   1.404   4.414
 6162SOL     OW19384   1.370   6.715   3.707
 6162SOL    HW119385   1.371   6.810   3.738
 6162SOL    HW219386   1.333   6.711   3.614
 6163SOL     OW19387   6.285   6.164   1.493
 6163SOL    HW119388   6.267   6.184   1.397
 6163SOL    HW219389   6.366   6.105   1.501
 6164SOL     OW19390   3.099   2.366   1.697
 6164SOL    HW119391   3.057   2.374   1.607
 6164SOL    HW219392   3.034   2.397   1.766
 6165SOL     OW19393   4.797   0.693   6.512
 6165SOL    HW119394   4.845   0.626   6.570
 6165SOL    HW219395   4.813   0.785   6.548
 6166SOL     OW19396   4.468   1.199   6.524
 6166SOL    HW119397   4.509   1.269   6.583
 6166SOL    HW219398   4.372   1.186   6.549
 6167SOL     OW19399   0.574   3.831   3.450
 6167SOL    HW119400   0.537   3.916   3.413
 6167SOL    HW219401   0.504   3.785   3.505
 6168SOL     OW19402   0.766   3.313   0.549
 6168SOL    HW119403   0.702   3.300   0.473
 6168SOL    HW219404   0.721   3.287   0.634
 6169SOL     OW19405   1.783   2.819   1.285
 6169SOL    HW119406   1.685   2.817   1.306
 6169SOL    HW219407   1.797   2.868   1.199
 6170SOL     OW19408   1.156   3.434   4.935
 6170SOL    HW119409   1.250   3.424   4.904
 6170SOL    HW219410   1.142   3.526   4.972
 6171SOL     OW19411   0.167   2.616   0.557
 6171SOL    HW119412   0.228   2.562   0.614
 6171SOL    HW219413   0.178   2.713   0.579
 6172SOL     OW19414   2.048   2.808   2.329
 6172SOL    HW119415   2.059   2.780   2.234
 6172SOL    HW219416   2.094   2.742   2.388
 6173SOL     OW19417   0.476   5.384   2.621
 6173SOL    HW119418   0.435   5.330   2.694
 6173SOL    HW219419   0.503   5.474   2.657
 6174SOL     OW19420   5.170   5.664   3.813
 6174SOL    HW119421   5.105   5.623   3.749
 6174SOL    HW219422   5.120   5.704   3.890
 6175SOL     OW19423   3.770   0.754   3.710
 6175SOL    HW119424   3.753   0.716   3.801
 6175SOL    HW219425   3.721   0.700   3.642
 6176SOL     OW19426   5.016   4.647   5.482
 6176SOL    HW119427   5.035   4.585   5.406
 6176SOL    HW219428   5.092   4.710   5.494
 6177SOL     OW19429   5.598   1.425   1.523
 6177SOL    HW119430   5.557   1.515   1.540
 6177SOL    HW219431   5.682   1.417   1.576
 6178SOL     OW19432   5.299   4.845   1.885
 6178SOL    HW119433   5.314   4.908   1.961
 6178SOL    HW219434   5.381   4.791   1.870
 6179SOL     OW19435   6.452   4.450   3.564
 6179SOL    HW119436   6.386   4.396   3.512
 6179SOL    HW219437   6.490   4.522   3.505
 6180SOL     OW19438   2.465   4.942   0.296
 6180SOL    HW119439   2.390   4.882   0.269
 6180SOL    HW219440   2.442   4.988   0.381
 6181SOL     OW19441   4.782   6.400   6.146
 6181SOL    HW119442   4.834   6.478   6.113
 6181SOL    HW219443   4.721   6.367   6.074
 6182SOL     OW19444   4.593   3.031   5.554
 6182SOL    HW119445   4.663   2.967   5.587
 6182SOL    HW219446   4.510   2.980   5.531
 6183SOL     OW19447   1.336   2.297   3.806
 6183SOL    HW119448   1.328   2.378   3.863
 6183SOL    HW219449   1.334   2.215   3.863
 6184SOL     OW19450   3.253   6.089   6.709
 6184SOL    HW119451   3.275   6.088   6.612
 6184SOL    HW219452   3.154   6.099   6.721
 6185SOL     OW19453   6.894   3.781   6.556
 6185SOL    HW119454   6.858   3.712   6.618
 6185SOL    HW219455   6.954   3.737   6.489
 6186SOL     OW19456   6.610   0.894   0.319
 6186SOL    HW119457   6.666   0.951   0.379
 6186SOL    HW219458   6.558   0.953   0.257
 6187SOL     OW19459   5.336   4.097   4.491
 6187SOL    HW119460   5.405   4.026   4.505
 6187SOL    HW219461   5.260   4.058   4.438
 6188SOL     OW19462   1.755   1.344   5.814
 6188SOL    HW119463   1.680   1.283   5.840
 6188SOL    HW219464   1.728   1.439   5.830
 6189SOL     OW19465   4.091   5.148   2.413
 6189SOL    HW119466   4.075   5.181   2.320
 6189SOL    HW219467   4.147   5.065   2.409
 6190SOL     OW19468   0.408   3.731   5.904
 6190SOL    HW119469   0.448   3.660   5.846
 6190SOL    HW219470   0.431   3.821   5.867
 6191SOL     OW19471   2.827   2.579   6.798
 6191SOL    HW119472   2.812   2.633   6.715
 6191SOL    HW219473   2.893   2.626   6.857
 6192SOL     OW19474   3.087   2.188   6.240
 6192SOL    HW119475   3.167   2.246   6.249
 6192SOL    HW219476   3.114   2.092   6.247
 6193SOL     OW19477   4.939   6.222   1.306
 6193SOL    HW119478   5.037   6.202   1.301
 6193SOL    HW219479   4.887   6.136   1.305
 6194SOL     OW19480   0.341   1.195   6.498
 6194SOL    HW119481   0.401   1.166   6.572
 6194SOL    HW219482   0.336   1.295   6.495
 6195SOL     OW19483   4.284   5.535   4.407
 6195SOL    HW119484   4.359   5.551   4.343
 6195SOL    HW219485   4.201   5.578   4.371
 6196SOL     OW19486   5.605   4.193   1.598
 6196SOL    HW119487   5.528   4.250   1.627
 6196SOL    HW219488   5.599   4.104   1.643
 6197SOL     OW19489   2.564   5.854   1.361
 6197SOL    HW119490   2.622   5.776   1.340
 6197SOL    HW219491   2.548   5.907   1.277
 6198SOL     OW19492   4.004   6.793   0.970
 6198SOL    HW119493   4.065   6.756   0.900
 6198SOL    HW219494   3.932   6.726   0.989
 6199SOL     OW19495   0.530   0.850   0.222
 6199SOL    HW119496   0.589   0.864   0.143
 6199SOL    HW219497   0.584   0.818   0.299
 6200SOL     OW19498   1.265   1.324   5.804
 6200SOL    HW119499   1.319   1.403   5.774
 6200SOL    HW219500   1.191   1.354   5.863
 6201SOL     OW19501   1.040   3.523   5.854
 6201SOL    HW119502   0.969   3.558   5.793
 6201SOL    HW219503   1.113   3.591   5.863
 6202SOL     OW19504   4.843   1.583   1.802
 6202SOL    HW119505   4.750   1.618   1.809
 6202SOL    HW219506   4.840   1.487   1.773
 6203SOL     OW19507   6.268   5.895   1.900
 6203SOL    HW119508   6.352   5.886   1.846
 6203SOL    HW219509   6.290   5.891   1.997
 6204SOL     OW19510   0.898   5.516   4.322
 6204SOL    HW119511   0.821   5.538   4.383
 6204SOL    HW219512   0.978   5.568   4.351
 6205SOL     OW19513   6.221   5.615   1.659
 6205SOL    HW119514   6.262   5.532   1.697
 6205SOL    HW219515   6.292   5.669   1.613
 6206SOL     OW19516   6.327   1.661   2.244
 6206SOL    HW119517   6.400   1.598   2.216
 6206SOL    HW219518   6.240   1.631   2.206
 6207SOL     OW19519   1.708   5.647   5.249
 6207SOL    HW119520   1.618   5.620   5.214
 6207SOL    HW219521   1.753   5.706   5.183
 6208SOL     OW19522   3.982   2.399   5.355
 6208SOL    HW119523   4.037   2.461   5.299
 6208SOL    HW219524   3.923   2.453   5.415
 6209SOL     OW19525   2.962   5.627   6.600
 6209SOL    HW119526   2.955   5.722   6.630
 6209SOL    HW219527   3.001   5.624   6.508
 6210SOL     OW19528   4.872   3.836   3.228
 6210SOL    HW119529   4.869   3.777   3.148
 6210SOL    HW219530   4.818   3.918   3.211
 6211SOL     OW19531   2.781   6.149   6.047
 6211SOL    HW119532   2.775   6.049   6.038
 6211SOL    HW219533   2.717   6.192   5.984
 6212SOL     OW19534   3.166   5.189   4.663
 6212SOL    HW119535   3.182   5.090   4.661
 6212SOL    HW219536   3.186   5.227   4.572
 6213SOL     OW19537   4.934   6.961   6.736
 6213SOL    HW119538   4.836   6.965   6.757
 6213SOL    HW219539   4.984   6.932   6.817
 6214SOL     OW19540   5.551   5.690   5.307
 6214SOL    HW119541   5.547   5.673   5.208
 6214SOL    HW219542   5.488   5.628   5.354
 6215SOL     OW19543   4.026   2.602   0.016
 6215SOL    HW119544   3.957   2.639   0.077
 6215SOL    HW219545   3.986   2.587   6.943
 6216SOL     OW19546   5.940   2.560   2.681
 6216SOL    HW119547   5.951   2.562   2.781
 6216SOL    HW219548   5.937   2.466   2.650
 6217SOL     OW19549   0.590   3.621   2.140
 6217SOL    HW119550   0.688   3.629   2.158
 6217SOL    HW219551   0.541   3.687   2.195
 6218SOL     OW19552   3.732   6.841   6.930
 6218SOL    HW119553   3.679   6.766   6.972
 6218SOL    HW219554   3.824   6.842   6.969
 6219SOL     OW19555   0.947   1.730   4.690
 6219SOL    HW119556   0.967   1.660   4.757
 6219SOL    HW219557   0.979   1.701   4.600
 6220SOL     OW19558   2.763   1.871   5.397
 6220SOL    HW119559   2.803   1.958   5.370
 6220SOL    HW219560   2.825   1.824   5.460
 6221SOL     OW19561   5.350   0.390   6.720
 6221SOL    HW119562   5.274   0.443   6.756
 6221SOL    HW219563   5.405   0.447   6.658
 6222SOL     OW19564   1.113   0.272   2.213
 6222SOL    HW119565   1.196   0.277   2.157
 6222SOL    HW219566   1.037   0.314   2.165
 6223SOL     OW19567   1.355   4.885   3.219
 6223SOL    HW119568   1.312   4.799   3.246
 6223SOL    HW219569   1.443   4.895   3.264
 6224SOL     OW19570   4.453   1.266   5.735
 6224SOL    HW119571   4.440   1.361   5.761
 6224SOL    HW219572   4.368   1.216   5.749
 6225SOL     OW19573   3.523   2.498   6.452
 6225SOL    HW119574   3.611   2.465   6.418
 6225SOL    HW219575   3.458   2.422   6.454
 6226SOL     OW19576   1.146   1.404   3.994
 6226SOL    HW119577   1.153   1.316   3.945
 6226SOL    HW219578   1.165   1.478   3.931
 6227SOL     OW19579   3.587   5.015   5.590
 6227SOL    HW119580   3.615   4.923   5.620
 6227SOL    HW219581   3.538   5.008   5.504
 6228SOL     OW19582   0.347   3.018   2.264
 6228SOL    HW119583   0.274   3.006   2.197
 6228SOL    HW219584   0.380   2.928   2.293
 6229SOL     OW19585   0.786   2.210   5.117
 6229SOL    HW119586   0.796   2.117   5.151
 6229SOL    HW219587   0.689   2.233   5.110
 6230SOL     OW19588   0.940   2.257   3.874
 6230SOL    HW119589   0.981   2.310   3.799
 6230SOL    HW219590   0.885   2.183   3.836
 6231SOL     OW19591   5.873   5.107   0.464
 6231SOL    HW119592   5.780   5.075   0.447
 6231SOL    HW219593   5.916   5.134   0.377
 6232SOL     OW19594   6.632   1.661   0.697
 6232SOL    HW119595   6.676   1.628   0.613
 6232SOL    HW219596   6.640   1.592   0.768
 6233SOL     OW19597   5.735   2.680   1.836
 6233SOL    HW119598   5.709   2.636   1.751
 6233SOL    HW219599   5.665   2.663   1.905
 6234SOL     OW19600   6.739   0.164   5.317
 6234SOL    HW119601   6.769   0.106   5.241
 6234SOL    HW219602   6.657   0.125   5.358
 6235SOL     OW19603   0.266   0.543   1.556
 6235SOL    HW119604   0.171   0.516   1.540
 6235SOL    HW219605   0.282   0.633   1.515
 6236SOL     OW19606   0.615   4.301   0.758
 6236SOL    HW119607   0.596   4.337   0.667
 6236SOL    HW219608   0.584   4.206   0.763
 6237SOL     OW19609   3.061   0.166   0.135
 6237SOL    HW119610   3.021   0.215   0.212
 6237SOL    HW219611   2.988   0.127   0.079
 6238SOL     OW19612   4.913   6.037   2.733
 6238SOL    HW119613   4.895   6.135   2.744
 6238SOL    HW219614   4.853   6.000   2.662
 6239SOL     OW19615   3.507   1.126   1.150
 6239SOL    HW119616   3.596   1.173   1.150
 6239SOL    HW219617   3.521   1.029   1.168
 6240SOL     OW19618   2.952   3.308   4.918
 6240SOL    HW119619   2.987   3.361   4.841
 6240SOL    HW219620   2.852   3.309   4.916
 6241SOL     OW19621   3.212   0.455   3.296
 6241SOL    HW119622   3.299   0.497   3.325
 6241SOL    HW219623   3.191   0.485   3.203
 6242SOL     OW19624   3.583   6.676   3.190
 6242SOL    HW119625   3.494   6.670   3.143
 6242SOL    HW219626   3.655   6.696   3.123
 6243SOL     OW19627   0.071   6.922   5.249
 6243SOL    HW119628   0.164   6.897   5.221
 6243SOL    HW219629   0.023   6.841   5.282
 6244SOL     OW19630   5.323   3.455   3.548
 6244SOL    HW119631   5.259   3.383   3.520
 6244SOL    HW219632   5.390   3.417   3.611
 6245SOL     OW19633   1.205   3.771   1.604
 6245SOL    HW119634   1.183   3.761   1.507
 6245SOL    HW219635   1.284   3.714   1.627
 6246SOL     OW19636   1.012   1.354   5.073
 6246SOL    HW119637   1.097   1.396   5.105
 6246SOL    HW219638   0.937   1.382   5.134
 6247SOL     OW19639   1.558   6.047   3.660
 6247SOL    HW119640   1.571   5.966   3.603
 6247SOL    HW219641   1.559   6.022   3.756
 6248SOL     OW19642   3.655   4.030   0.194
 6248SOL    HW119643   3.715   3.976   0.254
 6248SOL    HW219644   3.569   4.049   0.241
 6249SOL     OW19645   0.006   3.019   0.680
 6249SOL    HW119646   6.972   3.101   0.705
 6249SOL    HW219647   6.967   2.938   0.697
 6250SOL     OW19648   6.408   6.547   1.074
 6250SOL    HW119649   6.352   6.521   1.153
 6250SOL    HW219650   6.466   6.624   1.098
 6251SOL     OW19651   4.375   6.521   4.941
 6251SOL    HW119652   4.390   6.551   5.035
 6251SOL    HW219653   4.279   6.494   4.930
 6252SOL     OW19654   2.425   4.392   6.001
 6252SOL    HW119655   2.449   4.441   6.084
 6252SOL    HW219656   2.339   4.428   5.964
 6253SOL     OW19657   2.534   4.606   3.868
 6253SOL    HW119658   2.494   4.680   3.814
 6253SOL    HW219659   2.491   4.519   3.843
 6254SOL     OW19660   5.652   0.425   1.049
 6254SOL    HW119661   5.724   0.488   1.022
 6254SOL    HW219662   5.641   0.427   1.148
 6255SOL     OW19663   2.471   1.876   1.112
 6255SOL    HW119664   2.559   1.842   1.145
 6255SOL    HW219665   2.415   1.907   1.189
 6256SOL     OW19666   4.007   5.484   2.052
 6256SOL    HW119667   3.957   5.478   1.966
 6256SOL    HW219668   3.944   5.511   2.125
 6257SOL     OW19669   4.139   3.334   6.921
 6257SOL    HW119670   4.219   3.376   6.879
 6257SOL    HW219671   4.059   3.394   6.908
 6258SOL     OW19672   3.154   6.662   4.623
 6258SOL    HW119673   3.103   6.715   4.555
 6258SOL    HW219674   3.186   6.577   4.581
 6259SOL     OW19675   2.013   0.558   6.556
 6259SOL    HW119676   1.928   0.604   6.530
 6259SOL    HW219677   2.035   0.489   6.487
 6260SOL     OW19678   3.780   6.272   0.193
 6260SOL    HW119679   3.737   6.208   0.257
 6260SOL    HW219680   3.879   6.271   0.208
 6261SOL     OW19681   5.187   0.316   0.080
 6261SOL    HW119682   5.239   0.324   0.165
 6261SOL    HW219683   5.090   0.307   0.100
 6262SOL     OW19684   2.017   6.053   2.241
 6262SOL    HW119685   1.933   6.084   2.195
 6262SOL    HW219686   2.090   6.043   2.173
 6263SOL     OW19687   1.165   6.502   4.747
 6263SOL    HW119688   1.249   6.494   4.693
 6263SOL    HW219689   1.091   6.455   4.701
 6264SOL     OW19690   2.132   0.396   1.911
 6264SOL    HW119691   2.056   0.438   1.863
 6264SOL    HW219692   2.204   0.464   1.925
 6265SOL     OW19693   4.221   3.454   0.704
 6265SOL    HW119694   4.192   3.370   0.659
 6265SOL    HW219695   4.252   3.434   0.797
 6266SOL     OW19696   4.575   0.076   3.466
 6266SOL    HW119697   4.486   0.109   3.496
 6266SOL    HW219698   4.563   0.004   3.397
 6267SOL     OW19699   2.140   6.798   5.070
 6267SOL    HW119700   2.239   6.808   5.076
 6267SOL    HW219701   2.117   6.735   4.996
 6268SOL     OW19702   2.384   0.525   2.084
 6268SOL    HW119703   2.430   0.581   2.015
 6268SOL    HW219704   2.444   0.449   2.110
 6269SOL     OW19705   6.740   0.264   2.685
 6269SOL    HW119706   6.670   0.335   2.685
 6269SOL    HW219707   6.738   0.214   2.598
 6270SOL     OW19708   7.008   6.951   0.074
 6270SOL    HW119709   6.946   0.011   0.056
 6270SOL    HW219710   7.002   6.926   0.170
 6271SOL     OW19711   6.252   2.925   5.861
 6271SOL    HW119712   6.347   2.924   5.892
 6271SOL    HW219713   6.248   2.959   5.767
 6272SOL     OW19714   0.497   1.931   0.596
 6272SOL    HW119715   0.433   1.892   0.530
 6272SOL    HW219716   0.542   2.011   0.556
 6273SOL     OW19717   0.642   5.888   2.928
 6273SOL    HW119718   0.646   5.806   2.870
 6273SOL    HW219719   0.582   5.871   3.005
 6274SOL     OW19720   3.344   0.110   4.569
 6274SOL    HW119721   3.247   0.103   4.546
 6274SOL    HW219722   3.357   0.093   4.667
 6275SOL     OW19723   1.576   6.198   0.380
 6275SOL    HW119724   1.566   6.279   0.438
 6275SOL    HW219725   1.487   6.155   0.368
 6276SOL     OW19726   2.935   5.688   3.189
 6276SOL    HW119727   2.946   5.751   3.266
 6276SOL    HW219728   2.920   5.595   3.224
 6277SOL     OW19729   4.576   2.870   0.811
 6277SOL    HW119730   4.481   2.842   0.800
 6277SOL    HW219731   4.604   2.923   0.731
 6278SOL     OW19732   3.793   0.587   4.689
 6278SOL    HW119733   3.767   0.650   4.761
 6278SOL    HW219734   3.767   0.626   4.600
 6279SOL     OW19735   3.726   6.038   0.756
 6279SOL    HW119736   3.709   6.019   0.853
 6279SOL    HW219737   3.752   5.954   0.709
 6280SOL     OW19738   0.040   1.147   6.414
 6280SOL    HW119739   0.109   1.075   6.418
 6280SOL    HW219740   0.082   1.231   6.380
 6281SOL     OW19741   6.664   4.765   4.233
 6281SOL    HW119742   6.732   4.806   4.294
 6281SOL    HW219743   6.642   4.673   4.264
 6282SOL     OW19744   6.179   3.831   5.297
 6282SOL    HW119745   6.164   3.913   5.242
 6282SOL    HW219746   6.267   3.789   5.272
 6283SOL     OW19747   0.208   3.982   4.165
 6283SOL    HW119748   0.113   3.978   4.196
 6283SOL    HW219749   0.230   3.896   4.117
 6284SOL     OW19750   1.491   5.169   6.363
 6284SOL    HW119751   1.427   5.226   6.313
 6284SOL    HW219752   1.483   5.187   6.461
 6285SOL     OW19753   1.293   3.037   3.158
 6285SOL    HW119754   1.251   3.119   3.118
 6285SOL    HW219755   1.286   3.042   3.258
 6286SOL     OW19756   0.290   3.633   4.791
 6286SOL    HW119757   0.338   3.590   4.867
 6286SOL    HW219758   0.273   3.565   4.720
 6287SOL     OW19759   3.463   4.715   5.346
 6287SOL    HW119760   3.385   4.668   5.387
 6287SOL    HW219761   3.432   4.772   5.270
 6288SOL     OW19762   5.827   5.098   1.359
 6288SOL    HW119763   5.827   5.083   1.458
 6288SOL    HW219764   5.914   5.065   1.321
 6289SOL     OW19765   2.280   4.961   6.946
 6289SOL    HW119766   2.282   5.060   6.963
 6289SOL    HW219767   2.369   4.931   6.913
 6290SOL     OW19768   5.548   5.829   6.324
 6290SOL    HW119769   5.461   5.833   6.372
 6290SOL    HW219770   5.623   5.829   6.390
 6291SOL     OW19771   3.333   4.149   3.807
 6291SOL    HW119772   3.302   4.242   3.824
 6291SOL    HW219773   3.266   4.100   3.752
 6292SOL     OW19774   2.641   2.501   5.539
 6292SOL    HW119775   2.574   2.517   5.467
 6292SOL    HW219776   2.727   2.548   5.516
 6293SOL     OW19777   4.750   1.652   0.793
 6293SOL    HW119778   4.721   1.575   0.849
 6293SOL    HW219779   4.707   1.736   0.827
 6294SOL     OW19780   3.973   0.127   3.550
 6294SOL    HW119781   4.022   0.206   3.588
 6294SOL    HW219782   3.989   0.048   3.609
 6295SOL     OW19783   5.258   4.358   4.587
 6295SOL    HW119784   5.295   4.267   4.567
 6295SOL    HW219785   5.190   4.351   4.659
 6296SOL     OW19786   6.996   4.459   5.949
 6296SOL    HW119787   0.076   4.476   5.964
 6296SOL    HW219788   6.961   4.526   5.882
 6297SOL     OW19789   6.163   0.639   5.083
 6297SOL    HW119790   6.091   0.576   5.057
 6297SOL    HW219791   6.144   0.730   5.046
 6298SOL     OW19792   0.421   3.412   6.597
 6298SOL    HW119793   0.466   3.345   6.537
 6298SOL    HW219794   0.485   3.487   6.616
 6299SOL     OW19795   5.869   3.359   2.218
 6299SOL    HW119796   5.806   3.353   2.140
 6299SOL    HW219797   5.954   3.310   2.196
 6300SOL     OW19798   6.483   1.080   0.180
 6300SOL    HW119799   6.500   1.039   0.091
 6300SOL    HW219800   6.476   1.179   0.171
 6301SOL     OW19801   2.350   6.526   0.330
 6301SOL    HW119802   2.431   6.527   0.388
 6301SOL    HW219803   2.377   6.522   0.234
 6302SOL     OW19804   1.843   2.166   5.315
 6302SOL    HW119805   1.838   2.236   5.386
 6302SOL    HW219806   1.840   2.075   5.356
 6303SOL     OW19807   0.388   6.965   5.966
 6303SOL    HW119808   0.435   0.011   6.028
 6303SOL    HW219809   0.302   7.007   5.936
 6304SOL     OW19810   3.607   1.417   2.138
 6304SOL    HW119811   3.566   1.387   2.051
 6304SOL    HW219812   3.696   1.457   2.120
 6305SOL     OW19813   6.240   6.195   7.001
 6305SOL    HW119814   6.238   6.194   0.084
 6305SOL    HW219815   6.334   6.180   6.970
 6306SOL     OW19816   6.975   3.921   4.248
 6306SOL    HW119817   6.887   3.966   4.260
 6306SOL    HW219818   7.005   3.882   4.335
 6307SOL     OW19819   2.959   3.803   3.614
 6307SOL    HW119820   2.959   3.712   3.574
 6307SOL    HW219821   2.966   3.871   3.541
 6308SOL     OW19822   1.393   2.475   4.939
 6308SOL    HW119823   1.467   2.535   4.909
 6308SOL    HW219824   1.429   2.409   5.006
 6309SOL     OW19825   0.062   6.505   4.132
 6309SOL    HW119826   0.113   6.585   4.099
 6309SOL    HW219827   0.030   6.522   4.225
 6310SOL     OW19828   1.370   6.474   2.791
 6310SOL    HW119829   1.402   6.467   2.886
 6310SOL    HW219830   1.440   6.438   2.729
 6311SOL     OW19831   4.966   1.992   5.596
 6311SOL    HW119832   4.887   1.983   5.657
 6311SOL    HW219833   5.001   2.085   5.599
 6312SOL     OW19834   0.568   0.007   5.501
 6312SOL    HW119835   0.507   0.041   5.572
 6312SOL    HW219836   0.580   0.078   5.431
 6313SOL     OW19837   6.316   6.568   3.422
 6313SOL    HW119838   6.240   6.632   3.409
 6313SOL    HW219839   6.308   6.493   3.357
 6314SOL     OW19840   3.492   6.771   2.439
 6314SOL    HW119841   3.399   6.742   2.419
 6314SOL    HW219842   3.550   6.757   2.359
 6315SOL     OW19843   3.376   1.761   5.110
 6315SOL    HW119844   3.406   1.848   5.150
 6315SOL    HW219845   3.285   1.772   5.072
 6316SOL     OW19846   4.977   2.098   5.305
 6316SOL    HW119847   4.895   2.136   5.348
 6316SOL    HW219848   5.055   2.109   5.365
 6317SOL     OW19849   4.927   4.520   2.193
 6317SOL    HW119850   4.996   4.500   2.263
 6317SOL    HW219851   4.850   4.568   2.236
 6318SOL     OW19852   4.579   0.502   6.534
 6318SOL    HW119853   4.604   0.458   6.620
 6318SOL    HW219854   4.655   0.558   6.502
 6319SOL     OW19855   6.720   2.317   5.257
 6319SOL    HW119856   6.675   2.266   5.183
 6319SOL    HW219857   6.651   2.359   5.316
 6320SOL     OW19858   6.928   6.469   5.186
 6320SOL    HW119859   6.843   6.439   5.142
 6320SOL    HW219860   7.005   6.420   5.145
 6321SOL     OW19861   4.616   3.095   0.632
 6321SOL    HW119862   4.691   3.154   0.662
 6321SOL    HW219863   4.624   3.078   0.534
 6322SOL     OW19864   3.139   2.725   0.640
 6322SOL    HW119865   3.154   2.683   0.730
 6322SOL    HW219866   3.041   2.730   0.622
 6323SOL     OW19867   1.446   2.288   1.610
 6323SOL    HW119868   1.505   2.252   1.683
 6323SOL    HW219869   1.368   2.334   1.651
 6324SOL     OW19870   4.121   1.615   0.529
 6324SOL    HW119871   4.022   1.608   0.517
 6324SOL    HW219872   4.167   1.549   0.470
 6325SOL     OW19873   1.808   3.243   2.664
 6325SOL    HW119874   1.731   3.261   2.725
 6325SOL    HW219875   1.774   3.220   2.573
 6326SOL     OW19876   5.405   4.819   6.981
 6326SOL    HW119877   5.430   4.879   6.905
 6326SOL    HW219878   5.344   4.868   0.026
 6327SOL     OW19879   0.320   1.964   3.765
 6327SOL    HW119880   0.368   2.049   3.789
 6327SOL    HW219881   0.382   1.887   3.773
 6328SOL     OW19882   4.912   3.668   6.730
 6328SOL    HW119883   4.896   3.629   6.820
 6328SOL    HW219884   4.963   3.754   6.739
 6329SOL     OW19885   1.424   2.817   5.029
 6329SOL    HW119886   1.491   2.765   5.082
 6329SOL    HW219887   1.466   2.848   4.943
 6330SOL     OW19888   5.895   6.619   2.019
 6330SOL    HW119889   5.949   6.560   1.958
 6330SOL    HW219890   5.953   6.690   2.057
 6331SOL     OW19891   6.937   3.923   4.783
 6331SOL    HW119892   6.855   3.912   4.840
 6331SOL    HW219893   7.009   3.969   4.836
 6332SOL     OW19894   0.413   2.604   1.096
 6332SOL    HW119895   0.439   2.669   1.168
 6332SOL    HW219896   0.458   2.629   1.011
 6333SOL     OW19897   5.028   0.558   5.749
 6333SOL    HW119898   5.046   0.461   5.733
 6333SOL    HW219899   5.082   0.613   5.685
 6334SOL     OW19900   2.834   0.832   2.545
 6334SOL    HW119901   2.758   0.855   2.484
 6334SOL    HW219902   2.798   0.787   2.627
 6335SOL     OW19903   4.066   0.374   0.401
 6335SOL    HW119904   3.970   0.348   0.405
 6335SOL    HW219905   4.122   0.296   0.374
 6336SOL     OW19906   0.568   1.999   6.467
 6336SOL    HW119907   0.626   2.021   6.388
 6336SOL    HW219908   0.508   2.076   6.487
 6337SOL     OW19909   4.061   5.062   4.503
 6337SOL    HW119910   3.965   5.036   4.498
 6337SOL    HW219911   4.073   5.155   4.469
 6338SOL     OW19912   2.568   2.527   3.976
 6338SOL    HW119913   2.649   2.475   3.948
 6338SOL    HW219914   2.532   2.490   4.062
 6339SOL     OW19915   0.717   3.223   3.991
 6339SOL    HW119916   0.780   3.294   4.021
 6339SOL    HW219917   0.717   3.148   4.057
 6340SOL     OW19918   2.548   4.061   1.196
 6340SOL    HW119919   2.615   4.108   1.138
 6340SOL    HW219920   2.589   3.977   1.233
 6341SOL     OW19921   6.260   3.219   4.766
 6341SOL    HW119922   6.338   3.193   4.708
 6341SOL    HW219923   6.249   3.151   4.838
 6342SOL     OW19924   3.216   1.021   0.803
 6342SOL    HW119925   3.191   1.117   0.786
 6342SOL    HW219926   3.297   1.018   0.861
 6343SOL     OW19927   3.594   0.462   0.183
 6343SOL    HW119928   3.557   0.550   0.214
 6343SOL    HW219929   3.577   0.452   0.085
 6344SOL     OW19930   5.178   1.988   4.348
 6344SOL    HW119931   5.195   1.905   4.295
 6344SOL    HW219932   5.093   1.978   4.399
 6345SOL     OW19933   5.049   2.962   2.108
 6345SOL    HW119934   5.092   2.937   2.021
 6345SOL    HW219935   4.950   2.963   2.097
 6346SOL     OW19936   0.183   5.473   4.960
 6346SOL    HW119937   0.281   5.493   4.962
 6346SOL    HW219938   0.143   5.494   5.049
 6347SOL     OW19939   1.629   1.552   0.466
 6347SOL    HW119940   1.707   1.579   0.522
 6347SOL    HW219941   1.650   1.466   0.418
 6348SOL     OW19942   1.108   3.094   6.792
 6348SOL    HW119943   1.107   3.175   6.850
 6348SOL    HW219944   1.161   3.112   6.709
 6349SOL     OW19945   2.301   1.357   0.815
 6349SOL    HW119946   2.258   1.276   0.774
 6349SOL    HW219947   2.307   1.346   0.914
 6350SOL     OW19948   1.108   5.034   4.071
 6350SOL    HW119949   1.147   5.118   4.034
 6350SOL    HW219950   1.030   5.006   4.016
 6351SOL     OW19951   6.082   3.444   3.419
 6351SOL    HW119952   6.020   3.522   3.420
 6351SOL    HW219953   6.089   3.406   3.511
 6352SOL     OW19954   2.538   0.666   5.061
 6352SOL    HW119955   2.449   0.624   5.045
 6352SOL    HW219956   2.611   0.603   5.035
 6353SOL     OW19957   1.279   6.067   6.109
 6353SOL    HW119958   1.366   6.081   6.062
 6353SOL    HW219959   1.228   6.152   6.112
 6354SOL     OW19960   3.632   5.875   2.793
 6354SOL    HW119961   3.610   5.852   2.888
 6354SOL    HW219962   3.677   5.964   2.791
 6355SOL     OW19963   2.843   5.389   6.685
 6355SOL    HW119964   2.875   5.471   6.637
 6355SOL    HW219965   2.870   5.308   6.633
 6356SOL     OW19966   5.716   4.673   0.571
 6356SOL    HW119967   5.651   4.657   0.497
 6356SOL    HW219968   5.762   4.761   0.557
 6357SOL     OW19969   5.493   3.764   2.385
 6357SOL    HW119970   5.438   3.682   2.365
 6357SOL    HW219971   5.510   3.814   2.301
 6358SOL     OW19972   0.278   1.978   6.285
 6358SOL    HW119973   0.214   1.967   6.210
 6358SOL    HW219974   0.245   2.049   6.348
 6359SOL     OW19975   6.137   6.411   0.380
 6359SOL    HW119976   6.205   6.479   0.407
 6359SOL    HW219977   6.101   6.366   0.462
 6360SOL     OW19978   1.182   3.767   4.680
 6360SOL    HW119979   1.270   3.791   4.639
 6360SOL    HW219980   1.132   3.707   4.618
 6361SOL     OW19981   1.051   1.163   0.447
 6361SOL    HW119982   1.135   1.109   0.454
 6361SOL    HW219983   1.044   1.224   0.526
 6362SOL     OW19984   0.608   5.787   6.353
 6362SOL    HW119985   0.524   5.787   6.300
 6362SOL    HW219986   0.680   5.738   6.303
 6363SOL     OW19987   2.631   5.683   3.625
 6363SOL    HW119988   2.632   5.658   3.722
 6363SOL    HW219989   2.667   5.607   3.571
 6364SOL     OW19990   3.100   2.697   5.755
 6364SOL    HW119991   3.196   2.696   5.729
 6364SOL    HW219992   3.050   2.760   5.696
 6365SOL     OW19993   5.151   6.007   3.849
 6365SOL    HW119994   5.164   6.085   3.911
 6365SOL    HW219995   5.125   5.927   3.903
 6366SOL     OW19996   0.821   5.862   5.477
 6366SOL    HW119997   0.827   5.839   5.380
 6366SOL    HW219998   0.728   5.886   5.501
 6367SOL     OW19999   3.522   2.124   2.997
 6367SOL    HW120000   3.504   2.102   2.901
 6367SOL    HW220001   3.436   2.139   3.045
 6368SOL     OW20002   3.892   4.856   4.152
 6368SOL    HW120003   3.899   4.856   4.052
 6368SOL    HW220004   3.984   4.860   4.191
 6369SOL     OW20005   1.319   0.849   4.751
 6369SOL    HW120006   1.335   0.832   4.654
 6369SOL    HW220007   1.397   0.817   4.804
 6370SOL     OW20008   5.114   3.924   3.443
 6370SOL    HW120009   5.028   3.940   3.493
 6370SOL    HW220010   5.118   3.828   3.415
 6371SOL     OW20011   5.572   4.618   2.609
 6371SOL    HW120012   5.500   4.602   2.542
 6371SOL    HW220013   5.660   4.629   2.561
 6372SOL     OW20014   1.261   0.802   2.067
 6372SOL    HW120015   1.352   0.825   2.033
 6372SOL    HW220016   1.237   0.864   2.142
 6373SOL     OW20017   5.505   4.449   3.132
 6373SOL    HW120018   5.549   4.373   3.181
 6373SOL    HW220019   5.547   4.460   3.043
 6374SOL     OW20020   4.280   3.601   1.455
 6374SOL    HW120021   4.354   3.603   1.388
 6374SOL    HW220022   4.302   3.536   1.527
 6375SOL     OW20023   6.993   2.744   2.107
 6375SOL    HW120024   0.036   2.711   2.179
 6375SOL    HW220025   6.930   2.812   2.146
 6376SOL     OW20026   4.304   2.298   6.325
 6376SOL    HW120027   4.283   2.336   6.234
 6376SOL    HW220028   4.384   2.346   6.362
 6377SOL     OW20029   6.466   1.312   5.197
 6377SOL    HW120030   6.498   1.404   5.174
 6377SOL    HW220031   6.475   1.297   5.296
 6378SOL     OW20032   5.480   4.939   3.731
 6378SOL    HW120033   5.556   4.877   3.748
 6378SOL    HW220034   5.394   4.888   3.736
 6379SOL     OW20035   0.868   4.299   5.296
 6379SOL    HW120036   0.790   4.238   5.307
 6379SOL    HW220037   0.844   4.390   5.327
 6380SOL     OW20038   0.256   2.174   4.996
 6380SOL    HW120039   0.167   2.197   4.956
 6380SOL    HW220040   0.299   2.101   4.943
 6381SOL     OW20041   4.390   3.111   0.820
 6381SOL    HW120042   4.456   3.170   0.774
 6381SOL    HW220043   4.374   3.029   0.765
 6382SOL     OW20044   3.230   1.916   7.012
 6382SOL    HW120045   3.140   1.959   0.002
 6382SOL    HW220046   3.224   1.835   6.955
 6383SOL     OW20047   2.529   2.505   2.325
 6383SOL    HW120048   2.535   2.564   2.244
 6383SOL    HW220049   2.618   2.462   2.342
 6384SOL     OW20050   6.095   3.591   2.967
 6384SOL    HW120051   6.006   3.586   2.923
 6384SOL    HW220052   6.167   3.589   2.898
 6385SOL     OW20053   6.695   3.737   3.352
 6385SOL    HW120054   6.626   3.787   3.299
 6385SOL    HW220055   6.749   3.681   3.290
 6386SOL     OW20056   2.433   3.479   6.361
 6386SOL    HW120057   2.350   3.532   6.384
 6386SOL    HW220058   2.511   3.541   6.354
 6387SOL     OW20059   5.896   1.781   6.852
 6387SOL    HW120060   5.810   1.732   6.850
 6387SOL    HW220061   5.933   1.780   6.945
 6388SOL     OW20062   5.065   5.701   1.542
 6388SOL    HW120063   5.137   5.640   1.508
 6388SOL    HW220064   5.106   5.784   1.580
 6389SOL     OW20065   0.671   6.944   0.653
 6389SOL    HW120066   0.680   0.024   0.671
 6389SOL    HW220067   0.590   6.909   0.700
 6390SOL     OW20068   6.119   0.650   5.363
 6390SOL    HW120069   6.142   0.629   5.268
 6390SOL    HW220070   6.173   0.592   5.424
 6391SOL     OW20071   1.784   1.002   6.503
 6391SOL    HW120072   1.869   1.026   6.549
 6391SOL    HW220073   1.722   1.081   6.506
 6392SOL     OW20074   3.089   4.865   2.928
 6392SOL    HW120075   3.014   4.932   2.926
 6392SOL    HW220076   3.119   4.852   3.022
 6393SOL     OW20077   6.977   5.716   2.066
 6393SOL    HW120078   6.973   5.785   2.138
 6393SOL    HW220079   0.007   5.753   1.986
 6394SOL     OW20080   1.649   5.339   0.756
 6394SOL    HW120081   1.615   5.280   0.830
 6394SOL    HW220082   1.685   5.282   0.683
 6395SOL     OW20083   6.532   3.434   1.748
 6395SOL    HW120084   6.439   3.445   1.712
 6395SOL    HW220085   6.564   3.522   1.783
 6396SOL     OW20086   6.547   3.775   6.243
 6396SOL    HW120087   6.516   3.852   6.298
 6396SOL    HW220088   6.525   3.792   6.147
 6397SOL     OW20089   5.854   1.330   1.629
 6397SOL    HW120090   5.892   1.352   1.719
 6397SOL    HW220091   5.835   1.232   1.623
 6398SOL     OW20092   2.977   0.067   1.767
 6398SOL    HW120093   3.023   0.065   1.678
 6398SOL    HW220094   3.037   0.025   1.836
 6399SOL     OW20095   1.400   0.198   6.527
 6399SOL    HW120096   1.417   0.142   6.446
 6399SOL    HW220097   1.394   0.140   6.608
 6400SOL     OW20098   1.908   4.769   2.516
 6400SOL    HW120099   1.941   4.717   2.596
 6400SOL    HW220100   1.955   4.737   2.434
 6401SOL     OW20101   5.362   5.454   3.012
 6401SOL    HW120102   5.460   5.453   3.032
 6401SOL    HW220103   5.318   5.528   3.063
 6402SOL     OW20104   2.204   3.029   3.464
 6402SOL    HW120105   2.217   3.016   3.366
 6402SOL    HW220106   2.248   2.954   3.514
 6403SOL     OW20107   5.897   6.173   5.657
 6403SOL    HW120108   5.969   6.208   5.717
 6403SOL    HW220109   5.839   6.249   5.628
 6404SOL     OW20110   4.573   1.352   2.939
 6404SOL    HW120111   4.561   1.357   2.840
 6404SOL    HW220112   4.506   1.288   2.978
 6405SOL     OW20113   4.101   1.000   4.373
 6405SOL    HW120114   4.071   0.992   4.278
 6405SOL    HW220115   4.198   0.975   4.380
 6406SOL     OW20116   0.677   2.634   2.301
 6406SOL    HW120117   0.628   2.701   2.357
 6406SOL    HW220118   0.727   2.571   2.360
 6407SOL     OW20119   2.272   0.348   4.670
 6407SOL    HW120120   2.247   0.276   4.735
 6407SOL    HW220121   2.191   0.400   4.644
 6408SOL     OW20122   5.161   1.422   1.476
 6408SOL    HW120123   5.151   1.486   1.552
 6408SOL    HW220124   5.118   1.335   1.500
 6409SOL     OW20125   6.945   4.766   3.509
 6409SOL    HW120126   6.977   4.724   3.593
 6409SOL    HW220127   6.857   4.811   3.525
 6410SOL     OW20128   2.146   0.897   6.186
 6410SOL    HW120129   2.218   0.851   6.238
 6410SOL    HW220130   2.187   0.963   6.123
 6411SOL     OW20131   0.871   2.576   2.487
 6411SOL    HW120132   0.928   2.494   2.487
 6411SOL    HW220133   0.881   2.623   2.575
 6412SOL     OW20134   1.870   0.882   6.282
 6412SOL    HW120135   1.965   0.908   6.264
 6412SOL    HW220136   1.841   0.921   6.370
 6413SOL     OW20137   3.360   4.904   3.800
 6413SOL    HW120138   3.264   4.933   3.801
 6413SOL    HW220139   3.378   4.848   3.881
 6414SOL     OW20140   5.083   0.874   6.740
 6414SOL    HW120141   5.005   0.885   6.678
 6414SOL    HW220142   5.149   0.812   6.698
 6415SOL     OW20143   1.330   3.213   4.081
 6415SOL    HW120144   1.267   3.148   4.123
 6415SOL    HW220145   1.395   3.247   4.150
 6416SOL     OW20146   2.233   6.692   6.142
 6416SOL    HW120147   2.174   6.660   6.067
 6416SOL    HW220148   2.257   6.787   6.127
 6417SOL     OW20149   5.825   3.641   0.814
 6417SOL    HW120150   5.834   3.701   0.734
 6417SOL    HW220151   5.809   3.696   0.896
 6418SOL     OW20152   4.734   4.119   3.194
 6418SOL    HW120153   4.703   4.123   3.099
 6418SOL    HW220154   4.834   4.112   3.197
 6419SOL     OW20155   1.343   5.086   2.839
 6419SOL    HW120156   1.325   5.181   2.813
 6419SOL    HW220157   1.398   5.084   2.923
 6420SOL     OW20158   2.323   1.039   4.170
 6420SOL    HW120159   2.413   1.017   4.134
 6420SOL    HW220160   2.329   1.055   4.269
 6421SOL     OW20161   4.471   0.148   1.327
 6421SOL    HW120162   4.564   0.109   1.329
 6421SOL    HW220163   4.477   0.247   1.313
 6422SOL     OW20164   6.669   1.717   4.968
 6422SOL    HW120165   6.698   1.639   5.024
 6422SOL    HW220166   6.698   1.802   5.012
 6423SOL     OW20167   5.043   5.265   4.953
 6423SOL    HW120168   4.947   5.239   4.944
 6423SOL    HW220169   5.093   5.235   4.872
 6424SOL     OW20170   0.720   4.063   4.885
 6424SOL    HW120171   0.785   4.046   4.959
 6424SOL    HW220172   0.627   4.045   4.917
 6425SOL     OW20173   6.884   5.896   2.944
 6425SOL    HW120174   6.792   5.877   2.911
 6425SOL    HW220175   6.897   5.854   3.033
 6426SOL     OW20176   6.754   5.449   3.284
 6426SOL    HW120177   6.725   5.426   3.191
 6426SOL    HW220178   6.829   5.390   3.312
 6427SOL     OW20179   3.382   4.122   3.402
 6427SOL    HW120180   3.332   4.116   3.316
 6427SOL    HW220181   3.318   4.142   3.477
 6428SOL     OW20182   6.157   3.602   0.221
 6428SOL    HW120183   6.153   3.504   0.238
 6428SOL    HW220184   6.133   3.652   0.305
 6429SOL     OW20185   6.960   1.121   5.520
 6429SOL    HW120186   6.924   1.103   5.612
 6429SOL    HW220187   6.884   1.126   5.455
 6430SOL     OW20188   6.445   1.296   4.340
 6430SOL    HW120189   6.447   1.395   4.355
 6430SOL    HW220190   6.447   1.277   4.242
 6431SOL     OW20191   4.328   5.958   3.540
 6431SOL    HW120192   4.401   5.927   3.480
 6431SOL    HW220193   4.367   5.982   3.630
 6432SOL     OW20194   4.380   4.838   5.757
 6432SOL    HW120195   4.453   4.822   5.689
 6432SOL    HW220196   4.297   4.792   5.727
 6433SOL     OW20197   2.618   4.937   6.939
 6433SOL    HW120198   2.599   4.993   0.002
 6433SOL    HW220199   2.687   4.981   6.882
 6434SOL     OW20200   3.214   0.459   6.375
 6434SOL    HW120201   3.124   0.493   6.349
 6434SOL    HW220202   3.249   0.398   6.304
 6435SOL     OW20203   6.000   6.296   0.591
 6435SOL    HW120204   5.936   6.370   0.613
 6435SOL    HW220205   5.949   6.215   0.561
 6436SOL     OW20206   1.441   3.212   2.646
 6436SOL    HW120207   1.345   3.236   2.661
 6436SOL    HW220208   1.496   3.245   2.723
 6437SOL     OW20209   1.408   2.168   0.619
 6437SOL    HW120210   1.460   2.093   0.658
 6437SOL    HW220211   1.468   2.228   0.567
 6438SOL     OW20212   0.735   4.874   5.793
 6438SOL    HW120213   0.738   4.974   5.793
 6438SOL    HW220214   0.641   4.844   5.808
 6439SOL     OW20215   5.146   0.547   2.218
 6439SOL    HW120216   5.154   0.551   2.318
 6439SOL    HW220217   5.205   0.617   2.177
 6440SOL     OW20218   3.065   1.378   5.754
 6440SOL    HW120219   3.045   1.441   5.829
 6440SOL    HW220220   2.987   1.376   5.691
 6441SOL     OW20221   0.569   0.796   1.507
 6441SOL    HW120222   0.642   0.728   1.495
 6441SOL    HW220223   0.529   0.817   1.418
 6442SOL     OW20224   3.116   1.827   5.126
 6442SOL    HW120225   3.022   1.811   5.158
 6442SOL    HW220226   3.149   1.914   5.163
 6443SOL     OW20227   3.473   3.124   5.656
 6443SOL    HW120228   3.514   3.202   5.608
 6443SOL    HW220229   3.544   3.063   5.688
 6444SOL     OW20230   5.857   2.453   4.623
 6444SOL    HW120231   5.922   2.378   4.632
 6444SOL    HW220232   5.783   2.427   4.562
 6445SOL     OW20233   3.932   3.367   3.344
 6445SOL    HW120234   4.009   3.427   3.322
 6445SOL    HW220235   3.856   3.422   3.378
 6446SOL     OW20236   0.315   1.617   0.442
 6446SOL    HW120237   0.406   1.613   0.400
 6446SOL    HW220238   0.246   1.624   0.370
 6447SOL     OW20239   0.299   4.512   2.934
 6447SOL    HW120240   0.340   4.599   2.959
 6447SOL    HW220241   0.371   4.446   2.913
 6448SOL     OW20242   5.554   4.968   1.259
 6448SOL    HW120243   5.651   4.963   1.286
 6448SOL    HW220244   5.503   5.020   1.328
 6449SOL     OW20245   3.473   5.492   2.005
 6449SOL    HW120246   3.439   5.502   2.099
 6449SOL    HW220247   3.480   5.394   1.983
 6450SOL     OW20248   1.541   3.032   0.746
 6450SOL    HW120249   1.452   2.986   0.749
 6450SOL    HW220250   1.614   2.964   0.744
 6451SOL     OW20251   2.468   0.849   6.072
 6451SOL    HW120252   2.550   0.838   6.128
 6451SOL    HW220253   2.437   0.944   6.077
 6452SOL     OW20254   4.708   4.188   2.572
 6452SOL    HW120255   4.787   4.235   2.610
 6452SOL    HW220256   4.738   4.109   2.518
 6453SOL     OW20257   2.402   0.163   1.656
 6453SOL    HW120258   2.398   0.182   1.754
 6453SOL    HW220259   2.490   0.119   1.635
 6454SOL     OW20260   1.078   1.161   3.085
 6454SOL    HW120261   1.009   1.174   3.156
 6454SOL    HW220262   1.083   1.064   3.060
 6455SOL     OW20263   6.330   3.232   3.457
 6455SOL    HW120264   6.244   3.184   3.471
 6455SOL    HW220265   6.311   3.322   3.416
 6456SOL     OW20266   1.596   1.343   3.877
 6456SOL    HW120267   1.594   1.398   3.960
 6456SOL    HW220268   1.634   1.252   3.897
 6457SOL     OW20269   5.469   0.241   1.347
 6457SOL    HW120270   5.497   0.199   1.261
 6457SOL    HW220271   5.523   0.202   1.422
 6458SOL     OW20272   1.679   4.833   4.241
 6458SOL    HW120273   1.753   4.896   4.220
 6458SOL    HW220274   1.679   4.813   4.339
 6459SOL     OW20275   6.116   3.235   2.136
 6459SOL    HW120276   6.161   3.160   2.087
 6459SOL    HW220277   6.181   3.277   2.199
 6460SOL     OW20278   5.736   6.123   6.331
 6460SOL    HW120279   5.700   6.125   6.237
 6460SOL    HW220280   5.726   6.214   6.372
 6461SOL     OW20281   2.681   4.459   0.046
 6461SOL    HW120282   2.692   4.416   6.974
 6461SOL    HW220283   2.590   4.437   0.083
 6462SOL     OW20284   1.472   2.849   4.551
 6462SOL    HW120285   1.479   2.750   4.537
 6462SOL    HW220286   1.467   2.894   4.462
 6463SOL     OW20287   5.431   0.473   0.576
 6463SOL    HW120288   5.488   0.424   0.642
 6463SOL    HW220289   5.369   0.535   0.625
 6464SOL     OW20290   2.002   5.646   5.189
 6464SOL    HW120291   2.023   5.550   5.176
 6464SOL    HW220292   2.085   5.694   5.220
 6465SOL     OW20293   6.904   2.757   2.458
 6465SOL    HW120294   6.985   2.757   2.517
 6465SOL    HW220295   6.868   2.850   2.452
 6466SOL     OW20296   5.866   1.235   6.297
 6466SOL    HW120297   5.940   1.200   6.354
 6466SOL    HW220298   5.826   1.316   6.340
 6467SOL     OW20299   3.943   0.552   0.945
 6467SOL    HW120300   3.930   0.526   1.041
 6467SOL    HW220301   4.007   0.628   0.940
 6468SOL     OW20302   3.303   6.672   1.479
 6468SOL    HW120303   3.253   6.588   1.499
 6468SOL    HW220304   3.381   6.680   1.541
 6469SOL     OW20305   4.037   2.233   3.373
 6469SOL    HW120306   4.048   2.215   3.470
 6469SOL    HW220307   4.126   2.245   3.330
 6470SOL     OW20308   6.300   3.038   1.088
 6470SOL    HW120309   6.233   2.982   1.137
 6470SOL    HW220310   6.260   3.073   1.004
 6471SOL     OW20311   0.484   6.752   5.427
 6471SOL    HW120312   0.460   6.715   5.517
 6471SOL    HW220313   0.489   6.852   5.432
 6472SOL     OW20314   6.727   5.982   2.369
 6472SOL    HW120315   6.654   5.917   2.392
 6472SOL    HW220316   6.726   6.058   2.434
 6473SOL     OW20317   2.699   1.905   4.729
 6473SOL    HW120318   2.637   1.983   4.740
 6473SOL    HW220319   2.673   1.833   4.792
 6474SOL     OW20320   4.386   5.924   5.349
 6474SOL    HW120321   4.440   5.908   5.266
 6474SOL    HW220322   4.444   5.964   5.419
 6475SOL     OW20323   5.746   4.513   3.896
 6475SOL    HW120324   5.649   4.533   3.909
 6475SOL    HW220325   5.791   4.504   3.985
 6476SOL     OW20326   5.548   3.226   0.360
 6476SOL    HW120327   5.632   3.198   0.406
 6476SOL    HW220328   5.518   3.153   0.299
 6477SOL     OW20329   6.735   5.267   6.963
 6477SOL    HW120330   6.833   5.252   6.975
 6477SOL    HW220331   6.687   5.240   0.029
 6478SOL     OW20332   3.216   6.566   2.490
 6478SOL    HW120333   3.291   6.567   2.557
 6478SOL    HW220334   3.137   6.520   2.529
 6479SOL     OW20335   3.973   5.586   4.350
 6479SOL    HW120336   3.961   5.685   4.360
 6479SOL    HW220337   3.910   5.551   4.281
 6480SOL     OW20338   2.726   0.959   6.843
 6480SOL    HW120339   2.780   0.875   6.852
 6480SOL    HW220340   2.639   0.949   6.891
 6481SOL     OW20341   3.543   2.168   1.634
 6481SOL    HW120342   3.461   2.147   1.686
 6481SOL    HW220343   3.594   2.240   1.680
 6482SOL     OW20344   6.226   2.159   6.600
 6482SOL    HW120345   6.179   2.237   6.641
 6482SOL    HW220346   6.194   2.074   6.643
 6483SOL     OW20347   6.840   6.972   3.209
 6483SOL    HW120348   6.851   6.933   3.118
 6483SOL    HW220349   6.894   6.918   3.274
 6484SOL     OW20350   3.138   0.752   2.697
 6484SOL    HW120351   3.084   0.674   2.666
 6484SOL    HW220352   3.120   0.769   2.794
 6485SOL     OW20353   2.289   5.179   3.540
 6485SOL    HW120354   2.226   5.104   3.560
 6485SOL    HW220355   2.262   5.260   3.592
 6486SOL     OW20356   1.005   4.607   2.220
 6486SOL    HW120357   1.027   4.679   2.286
 6486SOL    HW220358   1.085   4.549   2.207
 6487SOL     OW20359   1.081   6.957   5.566
 6487SOL    HW120360   1.124   6.879   5.612
 6487SOL    HW220361   1.009   6.994   5.625
 6488SOL     OW20362   4.025   5.847   4.354
 6488SOL    HW120363   4.113   5.838   4.307
 6488SOL    HW220364   4.041   5.865   4.451
 6489SOL     OW20365   3.634   3.293   6.349
 6489SOL    HW120366   3.557   3.240   6.314
 6489SOL    HW220367   3.648   3.272   6.446
 6490SOL     OW20368   4.099   1.062   6.062
 6490SOL    HW120369   4.066   1.124   6.134
 6490SOL    HW220370   4.057   0.972   6.075
 6491SOL     OW20371   3.145   0.401   1.121
 6491SOL    HW120372   3.234   0.365   1.150
 6491SOL    HW220373   3.095   0.331   1.071
 6492SOL     OW20374   3.724   4.055   5.732
 6492SOL    HW120375   3.654   4.102   5.786
 6492SOL    HW220376   3.814   4.095   5.751
 6493SOL     OW20377   1.193   4.236   6.210
 6493SOL    HW120378   1.193   4.301   6.134
 6493SOL    HW220379   1.110   4.180   6.205
 6494SOL     OW20380   0.071   0.065   2.835
 6494SOL    HW120381   0.121   6.996   2.840
 6494SOL    HW220382   0.127   0.133   2.786
 6495SOL     OW20383   0.193   0.935   4.277
 6495SOL    HW120384   0.188   0.836   4.269
 6495SOL    HW220385   0.101   0.972   4.294
 6496SOL     OW20386   5.797   1.117   2.834
 6496SOL    HW120387   5.745   1.202   2.824
 6496SOL    HW220388   5.892   1.133   2.808
 6497SOL     OW20389   1.043   0.541   1.555
 6497SOL    HW120390   1.039   0.447   1.587
 6497SOL    HW220391   1.134   0.561   1.520
 6498SOL     OW20392   1.082   3.403   4.643
 6498SOL    HW120393   1.120   3.449   4.723
 6498SOL    HW220394   1.013   3.337   4.673
 6499SOL     OW20395   5.331   3.973   5.374
 6499SOL    HW120396   5.427   3.980   5.404
 6499SOL    HW220397   5.306   4.056   5.325
 6500SOL     OW20398   6.718   4.015   3.767
 6500SOL    HW120399   6.646   4.027   3.698
 6500SOL    HW220400   6.805   3.999   3.722
 6501SOL     OW20401   6.618   1.108   0.630
 6501SOL    HW120402   6.673   1.033   0.669
 6501SOL    HW220403   6.522   1.080   0.627
 6502SOL     OW20404   6.982   3.890   2.545
 6502SOL    HW120405   6.937   3.866   2.632
 6502SOL    HW220406   0.035   3.958   2.562
 6503SOL     OW20407   5.225   1.170   3.607
 6503SOL    HW120408   5.221   1.263   3.641
 6503SOL    HW220409   5.134   1.129   3.613
 6504SOL     OW20410   3.715   6.501   5.995
 6504SOL    HW120411   3.703   6.573   5.927
 6504SOL    HW220412   3.710   6.541   6.087
 6505SOL     OW20413   5.816   6.445   6.193
 6505SOL    HW120414   5.769   6.431   6.106
 6505SOL    HW220415   5.834   6.542   6.206
 6506SOL     OW20416   6.948   2.914   2.747
 6506SOL    HW120417   0.008   2.875   2.697
 6506SOL    HW220418   6.868   2.855   2.735
 6507SOL     OW20419   2.658   5.711   6.624
 6507SOL    HW120420   2.618   5.774   6.690
 6507SOL    HW220421   2.738   5.667   6.664
 6508SOL     OW20422   1.539   0.669   2.831
 6508SOL    HW120423   1.561   0.590   2.889
 6508SOL    HW220424   1.440   0.674   2.819
 6509SOL     OW20425   4.640   2.299   4.611
 6509SOL    HW120426   4.703   2.255   4.547
 6509SOL    HW220427   4.677   2.294   4.703
 6510SOL     OW20428   6.225   4.891   6.853
 6510SOL    HW120429   6.318   4.915   6.883
 6510SOL    HW220430   6.225   4.871   6.756
 6511SOL     OW20431   4.104   0.778   4.549
 6511SOL    HW120432   4.094   0.815   4.642
 6511SOL    HW220433   4.103   0.853   4.483
 6512SOL     OW20434   3.655   6.733   2.072
 6512SOL    HW120435   3.681   6.694   2.160
 6512SOL    HW220436   3.650   6.833   2.081
 6513SOL     OW20437   2.703   5.442   3.480
 6513SOL    HW120438   2.711   5.369   3.549
 6513SOL    HW220439   2.648   5.409   3.404
 6514SOL     OW20440   5.686   1.406   4.664
 6514SOL    HW120441   5.591   1.399   4.694
 6514SOL    HW220442   5.746   1.364   4.731
 6515SOL     OW20443   1.239   3.465   3.276
 6515SOL    HW120444   1.196   3.498   3.360
 6515SOL    HW220445   1.239   3.538   3.207
 6516SOL     OW20446   0.412   3.121   1.623
 6516SOL    HW120447   0.378   3.203   1.576
 6516SOL    HW220448   0.335   3.073   1.666
 6517SOL     OW20449   6.869   1.839   1.927
 6517SOL    HW120450   6.940   1.804   1.988
 6517SOL    HW220451   6.888   1.935   1.905
 6518SOL     OW20452   0.419   0.361   1.358
 6518SOL    HW120453   0.515   0.335   1.370
 6518SOL    HW220454   0.389   0.415   1.436
 6519SOL     OW20455   0.494   1.346   2.768
 6519SOL    HW120456   0.578   1.390   2.738
 6519SOL    HW220457   0.417   1.382   2.716
 6520SOL     OW20458   0.147   5.093   0.167
 6520SOL    HW120459   0.237   5.110   0.128
 6520SOL    HW220460   0.140   4.997   0.194
 6521SOL     OW20461   1.923   2.653   4.599
 6521SOL    HW120462   1.948   2.735   4.650
 6521SOL    HW220463   1.828   2.629   4.619
 6522SOL     OW20464   3.563   4.703   5.891
 6522SOL    HW120465   3.625   4.663   5.822
 6522SOL    HW220466   3.497   4.762   5.846
 6523SOL     OW20467   3.881   0.905   6.987
 6523SOL    HW120468   3.793   0.949   6.968
 6523SOL    HW220469   3.931   0.957   0.038
 6524SOL     OW20470   2.342   3.537   1.220
 6524SOL    HW120471   2.405   3.574   1.288
 6524SOL    HW220472   2.366   3.442   1.201
 6525SOL     OW20473   2.112   4.588   2.639
 6525SOL    HW120474   2.203   4.630   2.641
 6525SOL    HW220475   2.088   4.556   2.731
 6526SOL     OW20476   1.353   0.449   1.702
 6526SOL    HW120477   1.285   0.391   1.657
 6526SOL    HW220478   1.308   0.531   1.738
 6527SOL     OW20479   6.870   2.383   6.561
 6527SOL    HW120480   6.825   2.472   6.549
 6527SOL    HW220481   6.916   2.381   6.650
 6528SOL     OW20482   5.788   1.569   5.344
 6528SOL    HW120483   5.738   1.489   5.377
 6528SOL    HW220484   5.810   1.556   5.247
 6529SOL     OW20485   1.820   0.657   2.698
 6529SOL    HW120486   1.881   0.583   2.728
 6529SOL    HW220487   1.751   0.674   2.769
 6530SOL     OW20488   6.986   1.907   1.257
 6530SOL    HW120489   6.942   1.927   1.344
 6530SOL    HW220490   6.957   1.975   1.189
 6531SOL     OW20491   4.923   3.119   4.901
 6531SOL    HW120492   4.931   3.216   4.878
 6531SOL    HW220493   5.012   3.083   4.927
 6532SOL     OW20494   0.992   1.282   1.262
 6532SOL    HW120495   0.949   1.371   1.243
 6532SOL    HW220496   0.956   1.245   1.347
 6533SOL     OW20497   4.477   6.388   0.159
 6533SOL    HW120498   4.530   6.473   0.161
 6533SOL    HW220499   4.497   6.334   0.240
 6534SOL     OW20500   5.047   4.774   1.672
 6534SOL    HW120501   5.104   4.729   1.604
 6534SOL    HW220502   5.103   4.797   1.752
 6535SOL     OW20503   6.747   4.406   4.162
 6535SOL    HW120504   6.677   4.473   4.188
 6535SOL    HW220505   6.704   4.332   4.111
 6536SOL     OW20506   0.819   1.976   5.337
 6536SOL    HW120507   0.914   1.993   5.311
 6536SOL    HW220508   0.805   2.004   5.432
 6537SOL     OW20509   0.018   4.513   6.518
 6537SOL    HW120510   7.008   4.423   6.553
 6537SOL    HW220511   6.984   4.533   6.435
 6538SOL     OW20512   1.978   3.900   5.413
 6538SOL    HW120513   2.029   3.929   5.333
 6538SOL    HW220514   2.014   3.811   5.445
 6539SOL     OW20515   5.020   0.854   6.992
 6539SOL    HW120516   5.044   0.869   6.896
 6539SOL    HW220517   5.010   0.943   0.020
 6540SOL     OW20518   3.977   2.469   6.277
 6540SOL    HW120519   3.956   2.567   6.281
 6540SOL    HW220520   4.063   2.451   6.325
 6541SOL     OW20521   5.027   1.225   5.123
 6541SOL    HW120522   5.115   1.186   5.149
 6541SOL    HW220523   5.034   1.325   5.123
 6542SOL     OW20524   0.211   2.605   3.844
 6542SOL    HW120525   0.179   2.687   3.797
 6542SOL    HW220526   0.263   2.548   3.780
 6543SOL     OW20527   4.369   3.085   5.333
 6543SOL    HW120528   4.374   2.991   5.365
 6543SOL    HW220529   4.273   3.109   5.316
 6544SOL     OW20530   1.691   6.569   3.521
 6544SOL    HW120531   1.684   6.485   3.575
 6544SOL    HW220532   1.607   6.582   3.468
 6545SOL     OW20533   4.247   0.374   0.669
 6545SOL    HW120534   4.248   0.274   0.681
 6545SOL    HW220535   4.182   0.397   0.596
 6546SOL     OW20536   2.511   3.978   5.871
 6546SOL    HW120537   2.573   3.975   5.792
 6546SOL    HW220538   2.526   4.062   5.923
 6547SOL     OW20539   4.758   1.066   6.921
 6547SOL    HW120540   4.818   1.109   6.854
 6547SOL    HW220541   4.734   0.974   6.890
 6548SOL     OW20542   1.266   3.965   1.196
 6548SOL    HW120543   1.289   4.004   1.107
 6548SOL    HW220544   1.346   3.968   1.255
 6549SOL     OW20545   4.543   1.048   1.932
 6549SOL    HW120546   4.480   1.056   2.010
 6549SOL    HW220547   4.569   0.953   1.920
 6550SOL     OW20548   6.884   6.589   4.733
 6550SOL    HW120549   6.981   6.594   4.754
 6550SOL    HW220550   6.866   6.629   4.643
 6551SOL     OW20551   2.118   3.762   1.980
 6551SOL    HW120552   2.060   3.750   1.899
 6551SOL    HW220553   2.173   3.680   1.994
 6552SOL     OW20554   1.449   0.292   0.251
 6552SOL    HW120555   1.397   0.223   0.301
 6552SOL    HW220556   1.542   0.297   0.288
 6553SOL     OW20557   6.947   2.060   3.364
 6553SOL    HW120558   6.986   2.138   3.412
 6553SOL    HW220559   6.855   2.041   3.398
 6554SOL     OW20560   1.481   0.350   4.385
 6554SOL    HW120561   1.510   0.270   4.334
 6554SOL    HW220562   1.435   0.322   4.469
 6555SOL     OW20563   4.829   2.122   2.648
 6555SOL    HW120564   4.888   2.113   2.567
 6555SOL    HW220565   4.737   2.089   2.626
 6556SOL     OW20566   5.575   4.788   3.401
 6556SOL    HW120567   5.524   4.834   3.474
 6556SOL    HW220568   5.669   4.822   3.399
 6557SOL     OW20569   2.675   0.269   2.939
 6557SOL    HW120570   2.655   0.207   2.862
 6557SOL    HW220571   2.766   0.309   2.925
 6558SOL     OW20572   6.758   4.785   0.558
 6558SOL    HW120573   6.722   4.695   0.533
 6558SOL    HW220574   6.854   4.775   0.586
 6559SOL     OW20575   0.832   4.152   0.135
 6559SOL    HW120576   0.919   4.104   0.121
 6559SOL    HW220577   0.823   4.225   0.069
 6560SOL     OW20578   4.108   5.040   1.471
 6560SOL    HW120579   4.019   5.057   1.430
 6560SOL    HW220580   4.130   4.943   1.462
 6561SOL     OW20581   3.502   4.314   1.257
 6561SOL    HW120582   3.458   4.236   1.214
 6561SOL    HW220583   3.596   4.323   1.224
 6562SOL     OW20584   5.927   2.357   0.926
 6562SOL    HW120585   5.885   2.401   0.846
 6562SOL    HW220586   5.894   2.262   0.933
 6563SOL     OW20587   5.321   5.686   5.917
 6563SOL    HW120588   5.257   5.682   5.994
 6563SOL    HW220589   5.350   5.594   5.893
 6564SOL     OW20590   6.656   3.526   2.652
 6564SOL    HW120591   6.608   3.614   2.654
 6564SOL    HW220592   6.714   3.523   2.570
 6565SOL     OW20593   5.711   1.117   2.480
 6565SOL    HW120594   5.663   1.191   2.527
 6565SOL    HW220595   5.645   1.048   2.450
 6566SOL     OW20596   3.901   6.433   1.888
 6566SOL    HW120597   3.923   6.530   1.873
 6566SOL    HW220598   3.811   6.413   1.851
 6567SOL     OW20599   4.657   0.710   2.136
 6567SOL    HW120600   4.659   0.789   2.197
 6567SOL    HW220601   4.717   0.638   2.173
 6568SOL     OW20602   3.711   1.693   4.024
 6568SOL    HW120603   3.802   1.727   4.047
 6568SOL    HW220604   3.720   1.613   3.964
 6569SOL     OW20605   2.642   3.255   0.228
 6569SOL    HW120606   2.543   3.243   0.234
 6569SOL    HW220607   2.663   3.322   0.156
 6570SOL     OW20608   2.625   0.523   2.411
 6570SOL    HW120609   2.532   0.556   2.427
 6570SOL    HW220610   2.631   0.427   2.440
 6571SOL     OW20611   3.199   5.150   2.014
 6571SOL    HW120612   3.180   5.155   2.113
 6571SOL    HW220613   3.232   5.058   1.992
 6572SOL     OW20614   6.951   4.210   4.393
 6572SOL    HW120615   6.870   4.188   4.338
 6572SOL    HW220616   0.007   4.243   4.334
 6573SOL     OW20617   0.467   1.646   2.488
 6573SOL    HW120618   0.562   1.617   2.472
 6573SOL    HW220619   0.412   1.568   2.516
 6574SOL     OW20620   2.259   5.642   2.607
 6574SOL    HW120621   2.285   5.710   2.675
 6574SOL    HW220622   2.338   5.585   2.585
 6575SOL     OW20623   0.640   6.851   3.804
 6575SOL    HW120624   0.569   6.781   3.795
 6575SOL    HW220625   0.729   6.807   3.818
 6576SOL     OW20626   2.160   6.528   7.016
 6576SOL    HW120627   2.116   6.441   6.994
 6576SOL    HW220628   2.251   6.511   0.035
 6577SOL     OW20629   1.066   2.033   3.403
 6577SOL    HW120630   1.061   1.947   3.454
 6577SOL    HW220631   1.114   2.102   3.457
 6578SOL     OW20632   0.671   5.910   2.568
 6578SOL    HW120633   0.634   5.981   2.629
 6578SOL    HW220634   0.735   5.952   2.503
 6579SOL     OW20635   0.463   3.284   3.312
 6579SOL    HW120636   0.481   3.370   3.359
 6579SOL    HW220637   0.404   3.300   3.233
 6580SOL     OW20638   0.017   1.876   0.433
 6580SOL    HW120639   0.025   1.942   0.508
 6580SOL    HW220640   6.940   1.870   0.403
 6581SOL     OW20641   2.076   0.397   0.526
 6581SOL    HW120642   2.016   0.383   0.605
 6581SOL    HW220643   2.081   0.312   0.474
 6582SOL     OW20644   6.931   1.289   2.896
 6582SOL    HW120645   6.902   1.200   2.931
 6582SOL    HW220646   6.855   1.332   2.847
 6583SOL     OW20647   5.013   0.237   6.236
 6583SOL    HW120648   4.979   0.151   6.200
 6583SOL    HW220649   4.948   0.310   6.215
 6584SOL     OW20650   4.353   2.155   0.491
 6584SOL    HW120651   4.315   2.223   0.428
 6584SOL    HW220652   4.452   2.165   0.497
 6585SOL     OW20653   6.490   6.077   0.092
 6585SOL    HW120654   6.448   6.086   0.183
 6585SOL    HW220655   6.569   6.139   0.086
 6586SOL     OW20656   5.637   1.151   6.129
 6586SOL    HW120657   5.705   1.178   6.197
 6586SOL    HW220658   5.684   1.115   6.048
 6587SOL     OW20659   2.094   5.002   5.761
 6587SOL    HW120660   2.074   4.906   5.783
 6587SOL    HW220661   2.122   5.050   5.845
 6588SOL     OW20662   6.997   2.861   1.823
 6588SOL    HW120663   6.986   2.823   1.915
 6588SOL    HW220664   6.930   2.934   1.809
 6589SOL     OW20665   4.790   0.145   1.601
 6589SOL    HW120666   4.882   0.107   1.616
 6589SOL    HW220667   4.795   0.218   1.533
 6590SOL     OW20668   6.790   1.162   6.914
 6590SOL    HW120669   6.844   1.185   6.832
 6590SOL    HW220670   6.819   1.074   6.949
 6591SOL     OW20671   6.452   5.831   3.341
 6591SOL    HW120672   6.462   5.825   3.440
 6591SOL    HW220673   6.370   5.782   3.312
 6592SOL     OW20674   5.275   6.929   3.045
 6592SOL    HW120675   5.289   6.905   2.949
 6592SOL    HW220676   5.359   6.914   3.096
 6593SOL     OW20677   2.377   2.210   3.028
 6593SOL    HW120678   2.378   2.202   2.928
 6593SOL    HW220679   2.468   2.236   3.060
 6594SOL     OW20680   3.847   1.300   6.136
 6594SOL    HW120681   3.881   1.249   6.215
 6594SOL    HW220682   3.778   1.366   6.167
 6595SOL     OW20683   1.379   4.289   6.754
 6595SOL    HW120684   1.453   4.309   6.690
 6595SOL    HW220685   1.417   4.242   6.834
 6596SOL     OW20686   3.485   6.881   4.115
 6596SOL    HW120687   3.525   6.902   4.204
 6596SOL    HW220688   3.418   6.808   4.124
 6597SOL     OW20689   1.163   5.674   1.116
 6597SOL    HW120690   1.142   5.650   1.021
 6597SOL    HW220691   1.249   5.631   1.143
 6598SOL     OW20692   1.794   4.516   3.941
 6598SOL    HW120693   1.735   4.464   4.004
 6598SOL    HW220694   1.851   4.579   3.993
 6599SOL     OW20695   4.172   6.197   6.236
 6599SOL    HW120696   4.259   6.196   6.186
 6599SOL    HW220697   4.119   6.278   6.209
 6600SOL     OW20698   3.625   6.224   5.519
 6600SOL    HW120699   3.529   6.235   5.494
 6600SOL    HW220700   3.671   6.313   5.514
 6601SOL     OW20701   1.649   2.027   5.134
 6601SOL    HW120702   1.692   2.109   5.173
 6601SOL    HW220703   1.719   1.957   5.121
 6602SOL     OW20704   1.912   0.867   1.870
 6602SOL    HW120705   1.863   0.947   1.835
 6602SOL    HW220706   1.864   0.830   1.949
 6603SOL     OW20707   0.496   3.024   3.210
 6603SOL    HW120708   0.571   2.974   3.254
 6603SOL    HW220709   0.493   3.117   3.246
 6604SOL     OW20710   0.880   6.623   1.595
 6604SOL    HW120711   0.968   6.625   1.548
 6604SOL    HW220712   0.811   6.583   1.535
 6605SOL     OW20713   5.515   5.402   1.470
 6605SOL    HW120714   5.545   5.490   1.505
 6605SOL    HW220715   5.588   5.361   1.415
 6606SOL     OW20716   0.383   5.579   2.329
 6606SOL    HW120717   0.330   5.650   2.283
 6606SOL    HW220718   0.466   5.618   2.367
 6607SOL     OW20719   1.335   4.421   2.871
 6607SOL    HW120720   1.374   4.360   2.803
 6607SOL    HW220721   1.311   4.369   2.953
 6608SOL     OW20722   6.473   6.598   0.191
 6608SOL    HW120723   6.385   6.570   0.153
 6608SOL    HW220724   6.468   6.693   0.222
 6609SOL     OW20725   5.427   1.013   0.297
 6609SOL    HW120726   5.340   1.006   0.347
 6609SOL    HW220727   5.496   1.053   0.356
 6610SOL     OW20728   1.991   6.324   0.211
 6610SOL    HW120729   1.923   6.273   0.263
 6610SOL    HW220730   1.981   6.304   0.114
 6611SOL     OW20731   4.839   3.204   3.147
 6611SOL    HW120732   4.928   3.159   3.147
 6611SOL    HW220733   4.835   3.269   3.071
 6612SOL     OW20734   6.478   2.152   6.756
 6612SOL    HW120735   6.383   2.151   6.724
 6612SOL    HW220736   6.489   2.223   6.826
 6613SOL     OW20737   6.570   6.400   5.299
 6613SOL    HW120738   6.608   6.397   5.206
 6613SOL    HW220739   6.504   6.326   5.310
 6614SOL     OW20740   4.540   5.088   6.821
 6614SOL    HW120741   4.478   5.160   6.852
 6614SOL    HW220742   4.488   5.018   6.772
 6615SOL     OW20743   1.257   5.980   1.191
 6615SOL    HW120744   1.258   5.903   1.126
 6615SOL    HW220745   1.252   5.945   1.284
 6616SOL     OW20746   4.762   0.312   6.647
 6616SOL    HW120747   4.778   0.263   6.562
 6616SOL    HW220748   4.826   0.389   6.653
 6617SOL     OW20749   4.738   5.167   3.126
 6617SOL    HW120750   4.664   5.130   3.182
 6617SOL    HW220751   4.760   5.102   3.053
 6618SOL     OW20752   1.668   2.306   2.559
 6618SOL    HW120753   1.623   2.387   2.597
 6618SOL    HW220754   1.610   2.226   2.573
 6619SOL     OW20755   5.381   0.284   2.884
 6619SOL    HW120756   5.397   0.318   2.976
 6619SOL    HW220757   5.284   0.295   2.861
 6620SOL     OW20758   1.541   2.584   5.180
 6620SOL    HW120759   1.554   2.578   5.279
 6620SOL    HW220760   1.626   2.559   5.134
 6621SOL     OW20761   3.237   3.355   6.345
 6621SOL    HW120762   3.253   3.335   6.249
 6621SOL    HW220763   3.321   3.339   6.397
 6622SOL     OW20764   5.829   6.092   2.253
 6622SOL    HW120765   5.867   6.175   2.211
 6622SOL    HW220766   5.826   6.019   2.184
 6623SOL     OW20767   3.604   3.081   4.772
 6623SOL    HW120768   3.650   3.166   4.746
 6623SOL    HW220769   3.505   3.093   4.762
 6624SOL     OW20770   0.125   4.537   5.472
 6624SOL    HW120771   0.175   4.500   5.550
 6624SOL    HW220772   0.180   4.526   5.389
 6625SOL     OW20773   5.064   2.069   5.036
 6625SOL    HW120774   4.998   2.070   5.111
 6625SOL    HW220775   5.019   2.098   4.952
 6626SOL     OW20776   3.725   6.736   5.606
 6626SOL    HW120777   3.625   6.731   5.597
 6626SOL    HW220778   3.767   6.667   5.547
 6627SOL     OW20779   1.803   6.422   5.428
 6627SOL    HW120780   1.779   6.386   5.338
 6627SOL    HW220781   1.856   6.354   5.478
 6628SOL     OW20782   6.187   4.814   4.723
 6628SOL    HW120783   6.235   4.728   4.707
 6628SOL    HW220784   6.107   4.797   4.780
 6629SOL     OW20785   4.713   6.834   6.306
 6629SOL    HW120786   4.670   6.747   6.329
 6629SOL    HW220787   4.680   6.905   6.368
 6630SOL     OW20788   3.597   1.976   1.432
 6630SOL    HW120789   3.546   1.890   1.423
 6630SOL    HW220790   3.548   2.038   1.493
 6631SOL     OW20791   2.393   5.536   3.949
 6631SOL    HW120792   2.480   5.585   3.939
 6631SOL    HW220793   2.405   5.458   4.010
 6632SOL     OW20794   1.097   0.211   1.087
 6632SOL    HW120795   1.081   0.299   1.041
 6632SOL    HW220796   1.052   0.213   1.177
 6633SOL     OW20797   2.049   4.973   6.402
 6633SOL    HW120798   1.950   4.969   6.418
 6633SOL    HW220799   2.091   5.035   6.468
 6634SOL     OW20800   5.051   1.466   4.699
 6634SOL    HW120801   4.952   1.477   4.714
 6634SOL    HW220802   5.100   1.530   4.759
 6635SOL     OW20803   4.622   4.340   2.774
 6635SOL    HW120804   4.586   4.271   2.711
 6635SOL    HW220805   4.613   4.431   2.732
 6636SOL     OW20806   5.062   1.852   6.847
 6636SOL    HW120807   5.125   1.775   6.850
 6636SOL    HW220808   4.968   1.818   6.850
 6637SOL     OW20809   0.781   0.060   6.600
 6637SOL    HW120810   0.783   0.127   6.526
 6637SOL    HW220811   0.749   0.104   6.684
 6638SOL     OW20812   3.224   3.686   3.236
 6638SOL    HW120813   3.216   3.730   3.146
 6638SOL    HW220814   3.244   3.589   3.223
 6639SOL     OW20815   4.832   4.563   6.575
 6639SOL    HW120816   4.884   4.494   6.626
 6639SOL    HW220817   4.783   4.622   6.639
 6640SOL     OW20818   6.731   2.017   4.860
 6640SOL    HW120819   6.768   1.936   4.817
 6640SOL    HW220820   6.631   2.012   4.860
 6641SOL     OW20821   2.841   1.193   6.907
 6641SOL    HW120822   2.807   1.102   6.884
 6641SOL    HW220823   2.778   1.237   6.971
 6642SOL     OW20824   2.323   6.282   6.915
 6642SOL    HW120825   2.377   6.217   6.969
 6642SOL    HW220826   2.376   6.314   6.837
 6643SOL     OW20827   5.263   6.409   0.348
 6643SOL    HW120828   5.342   6.386   0.291
 6643SOL    HW220829   5.185   6.431   0.289
 6644SOL     OW20830   2.724   5.218   1.107
 6644SOL    HW120831   2.699   5.190   1.199
 6644SOL    HW220832   2.716   5.140   1.045
 6645SOL     OW20833   5.606   4.277   0.716
 6645SOL    HW120834   5.697   4.240   0.735
 6645SOL    HW220835   5.583   4.345   0.785
 6646SOL     OW20836   4.418   0.883   4.969
 6646SOL    HW120837   4.396   0.796   5.013
 6646SOL    HW220838   4.374   0.887   4.879
 6647SOL     OW20839   5.046   0.490   1.520
 6647SOL    HW120840   5.020   0.565   1.460
 6647SOL    HW220841   5.145   0.477   1.518
 6648SOL     OW20842   3.448   6.233   3.878
 6648SOL    HW120843   3.491   6.283   3.953
 6648SOL    HW220844   3.478   6.271   3.791
 6649SOL     OW20845   5.720   1.861   6.495
 6649SOL    HW120846   5.818   1.872   6.484
 6649SOL    HW220847   5.677   1.849   6.405
 6650SOL     OW20848   3.749   1.098   6.002
 6650SOL    HW120849   3.774   1.121   5.907
 6650SOL    HW220850   3.780   1.171   6.063
 6651SOL     OW20851   2.362   0.616   5.965
 6651SOL    HW120852   2.414   0.530   5.960
 6651SOL    HW220853   2.423   0.690   5.993
 6652SOL     OW20854   0.154   4.242   0.025
 6652SOL    HW120855   0.251   4.260   0.046
 6652SOL    HW220856   0.102   4.326   0.035
 6653SOL     OW20857   3.850   4.237   1.556
 6653SOL    HW120858   3.860   4.139   1.574
 6653SOL    HW220859   3.820   4.283   1.640
 6654SOL     OW20860   2.016   5.287   1.307
 6654SOL    HW120861   1.998   5.230   1.387
 6654SOL    HW220862   1.932   5.335   1.281
 6655SOL     OW20863   0.889   6.436   3.893
 6655SOL    HW120864   0.791   6.414   3.887
 6655SOL    HW220865   0.932   6.381   3.964
 6656SOL     OW20866   5.668   2.347   3.272
 6656SOL    HW120867   5.572   2.346   3.300
 6656SOL    HW220868   5.688   2.264   3.218
 6657SOL     OW20869   5.276   4.857   6.152
 6657SOL    HW120870   5.312   4.930   6.093
 6657SOL    HW220871   5.243   4.782   6.095
 6658SOL     OW20872   5.037   0.983   4.956
 6658SOL    HW120873   5.049   1.039   4.874
 6658SOL    HW220874   5.043   1.041   5.038
 6659SOL     OW20875   2.574   2.567   0.636
 6659SOL    HW120876   2.627   2.510   0.699
 6659SOL    HW220877   2.505   2.511   0.591
 6660SOL     OW20878   1.594   4.243   1.468
 6660SOL    HW120879   1.679   4.295   1.463
 6660SOL    HW220880   1.520   4.301   1.501
 6661SOL     OW20881   1.528   0.142   5.144
 6661SOL    HW120882   1.608   0.184   5.187
 6661SOL    HW220883   1.458   0.212   5.129
 6662SOL     OW20884   0.862   0.460   0.646
 6662SOL    HW120885   0.938   0.520   0.672
 6662SOL    HW220886   0.884   0.366   0.671
 6663SOL     OW20887   6.462   6.388   4.702
 6663SOL    HW120888   6.427   6.319   4.766
 6663SOL    HW220889   6.429   6.478   4.730
 6664SOL     OW20890   2.207   6.904   0.471
 6664SOL    HW120891   2.176   6.867   0.383
 6664SOL    HW220892   2.304   6.882   0.484
 6665SOL     OW20893   1.770   6.292   4.621
 6665SOL    HW120894   1.844   6.254   4.566
 6665SOL    HW220895   1.701   6.222   4.638
 6666SOL     OW20896   5.959   6.423   6.723
 6666SOL    HW120897   6.056   6.439   6.706
 6666SOL    HW220898   5.938   6.327   6.711
 6667SOL     OW20899   6.618   6.741   6.059
 6667SOL    HW120900   6.546   6.717   5.994
 6667SOL    HW220901   6.702   6.762   6.010
 6668SOL     OW20902   0.035   5.785   0.898
 6668SOL    HW120903   0.091   5.857   0.940
 6668SOL    HW220904   0.094   5.721   0.849
 6669SOL     OW20905   2.617   1.939   2.035
 6669SOL    HW120906   2.557   1.870   2.075
 6669SOL    HW220907   2.563   2.021   2.013
 6670SOL     OW20908   3.125   1.551   5.261
 6670SOL    HW120909   3.129   1.552   5.361
 6670SOL    HW220910   3.130   1.645   5.226
 6671SOL     OW20911   4.157   6.677   0.785
 6671SOL    HW120912   4.087   6.709   0.721
 6671SOL    HW220913   4.238   6.647   0.734
 6672SOL     OW20914   6.357   2.937   6.614
 6672SOL    HW120915   6.450   2.939   6.649
 6672SOL    HW220916   6.357   2.960   6.517
 6673SOL     OW20917   4.846   4.514   3.970
 6673SOL    HW120918   4.801   4.434   3.929
 6673SOL    HW220919   4.784   4.554   4.038
 6674SOL     OW20920   0.789   3.571   6.885
 6674SOL    HW120921   0.713   3.623   6.845
 6674SOL    HW220922   0.840   3.630   6.948
 6675SOL     OW20923   5.768   3.861   0.645
 6675SOL    HW120924   5.798   3.828   0.556
 6675SOL    HW220925   5.761   3.961   0.643
 6676SOL     OW20926   0.626   3.756   5.545
 6676SOL    HW120927   0.667   3.678   5.497
 6676SOL    HW220928   0.557   3.724   5.610
 6677SOL     OW20929   1.057   1.973   6.090
 6677SOL    HW120930   0.962   1.942   6.077
 6677SOL    HW220931   1.119   1.900   6.064
 6678SOL     OW20932   3.661   3.679   0.110
 6678SOL    HW120933   3.698   3.748   0.172
 6678SOL    HW220934   3.615   3.725   0.034
 6679SOL     OW20935   3.123   0.713   4.395
 6679SOL    HW120936   3.161   0.668   4.314
 6679SOL    HW220937   3.025   0.693   4.402
 6680SOL     OW20938   4.674   6.952   6.794
 6680SOL    HW120939   4.646   7.001   6.877
 6680SOL    HW220940   4.626   6.864   6.790
 6681SOL     OW20941   4.149   5.457   0.774
 6681SOL    HW120942   4.130   5.546   0.816
 6681SOL    HW220943   4.217   5.409   0.830
 6682SOL     OW20944   1.573   4.219   1.081
 6682SOL    HW120945   1.474   4.219   1.098
 6682SOL    HW220946   1.618   4.157   1.145
 6683SOL     OW20947   6.038   3.173   5.250
 6683SOL    HW120948   6.030   3.224   5.165
 6683SOL    HW220949   5.971   3.209   5.316
 6684SOL     OW20950   3.450   6.079   2.144
 6684SOL    HW120951   3.508   6.107   2.220
 6684SOL    HW220952   3.386   6.152   2.121
 6685SOL     OW20953   5.379   2.822   6.120
 6685SOL    HW120954   5.458   2.850   6.066
 6685SOL    HW220955   5.403   2.826   6.218
 6686SOL     OW20956   4.946   5.365   4.180
 6686SOL    HW120957   4.950   5.423   4.261
 6686SOL    HW220958   4.978   5.273   4.203
 6687SOL     OW20959   0.642   3.124   1.437
 6687SOL    HW120960   0.557   3.082   1.467
 6687SOL    HW220961   0.712   3.112   1.508
 6688SOL     OW20962   5.752   4.287   1.389
 6688SOL    HW120963   5.694   4.238   1.454
 6688SOL    HW220964   5.743   4.246   1.299
 6689SOL     OW20965   3.919   3.487   6.604
 6689SOL    HW120966   4.004   3.471   6.555
 6689SOL    HW220967   3.937   3.491   6.702
 6690SOL     OW20968   0.073   0.484   1.336
 6690SOL    HW120969   0.047   0.572   1.374
 6690SOL    HW220970   7.010   0.425   1.330
 6691SOL     OW20971   2.763   0.169   2.091
 6691SOL    HW120972   2.740   0.073   2.074
 6691SOL    HW220973   2.848   0.173   2.145
 6692SOL     OW20974   4.130   3.627   3.943
 6692SOL    HW120975   4.128   3.564   4.020
 6692SOL    HW220976   4.111   3.720   3.976
 6693SOL     OW20977   3.514   1.971   5.213
 6693SOL    HW120978   3.520   1.929   5.304
 6693SOL    HW220979   3.489   2.067   5.222
 6694SOL     OW20980   4.217   5.421   1.313
 6694SOL    HW120981   4.180   5.398   1.402
 6694SOL    HW220982   4.241   5.518   1.311
 6695SOL     OW20983   3.112   2.175   6.795
 6695SOL    HW120984   3.166   2.099   6.759
 6695SOL    HW220985   3.080   2.153   6.887
 6696SOL     OW20986   3.169   3.018   4.534
 6696SOL    HW120987   3.239   2.968   4.483
 6696SOL    HW220988   3.097   2.955   4.563
 6697SOL     OW20989   4.448   2.130   3.085
 6697SOL    HW120990   4.352   2.105   3.069
 6697SOL    HW220991   4.468   2.215   3.036
 6698SOL     OW20992   3.338   1.931   0.395
 6698SOL    HW120993   3.242   1.922   0.369
 6698SOL    HW220994   3.395   1.940   0.313
 6699SOL     OW20995   2.572   5.694   5.674
 6699SOL    HW120996   2.576   5.785   5.714
 6699SOL    HW220997   2.659   5.647   5.689
 6700SOL     OW20998   0.209   1.175   1.247
 6700SOL    HW120999   0.239   1.133   1.161
 6700SOL    HW221000   0.260   1.260   1.261
 6701SOL     OW21001   5.757   5.233   1.780
 6701SOL    HW121002   5.821   5.296   1.736
 6701SOL    HW221003   5.664   5.258   1.755
 6702SOL     OW21004   2.886   2.254   1.427
 6702SOL    HW121005   2.962   2.208   1.473
 6702SOL    HW221006   2.910   2.270   1.331
 6703SOL     OW21007   5.962   0.961   0.572
 6703SOL    HW121008   5.929   0.899   0.500
 6703SOL    HW221009   5.977   1.052   0.534
 6704SOL     OW21010   3.856   1.720   3.204
 6704SOL    HW121011   3.951   1.703   3.176
 6704SOL    HW221012   3.820   1.639   3.249
 6705SOL     OW21013   6.327   3.745   1.556
 6705SOL    HW121014   6.361   3.663   1.509
 6705SOL    HW221015   6.394   3.776   1.622
 6706SOL     OW21016   1.621   4.837   1.519
 6706SOL    HW121017   1.579   4.901   1.455
 6706SOL    HW221018   1.562   4.758   1.531
 6707SOL     OW21019   6.143   6.753   3.387
 6707SOL    HW121020   6.108   6.770   3.479
 6707SOL    HW221021   6.085   6.798   3.320
 6708SOL     OW21022   6.641   4.509   0.935
 6708SOL    HW121023   6.555   4.551   0.906
 6708SOL    HW221024   6.675   4.448   0.863
 6709SOL     OW21025   2.291   6.785   2.228
 6709SOL    HW121026   2.290   6.740   2.139
 6709SOL    HW221027   2.228   6.863   2.227
 6710SOL     OW21028   4.108   1.450   6.400
 6710SOL    HW121029   4.043   1.524   6.384
 6710SOL    HW221030   4.138   1.412   6.313
 6711SOL     OW21031   4.881   6.275   5.762
 6711SOL    HW121032   4.827   6.264   5.845
 6711SOL    HW221033   4.915   6.369   5.756
 6712SOL     OW21034   5.575   4.298   0.403
 6712SOL    HW121035   5.587   4.357   0.483
 6712SOL    HW221036   5.620   4.210   0.420
 6713SOL     OW21037   2.032   0.484   2.637
 6713SOL    HW121038   2.032   0.386   2.654
 6713SOL    HW221039   2.082   0.504   2.553
 6714SOL     OW21040   6.455   0.885   5.903
 6714SOL    HW121041   6.419   0.822   5.833
 6714SOL    HW221042   6.501   0.832   5.974
 6715SOL     OW21043   0.566   0.222   0.690
 6715SOL    HW121044   0.584   0.313   0.653
 6715SOL    HW221045   0.612   0.212   0.779
 6716SOL     OW21046   0.436   5.290   2.196
 6716SOL    HW121047   0.474   5.372   2.239
 6716SOL    HW221048   0.392   5.233   2.266
 6717SOL     OW21049   3.735   2.774   6.752
 6717SOL    HW121050   3.655   2.789   6.810
 6717SOL    HW221051   3.816   2.817   6.793
 6718SOL     OW21052   5.326   0.866   1.152
 6718SOL    HW121053   5.363   0.894   1.064
 6718SOL    HW221054   5.400   0.831   1.210
 6719SOL     OW21055   2.759   6.413   6.853
 6719SOL    HW121056   2.666   6.409   6.890
 6719SOL    HW221057   2.814   6.476   6.907
 6720SOL     OW21058   1.721   0.463   4.464
 6720SOL    HW121059   1.797   0.485   4.402
 6720SOL    HW221060   1.646   0.423   4.411
 6721SOL     OW21061   7.011   6.225   0.387
 6721SOL    HW121062   6.911   6.234   0.383
 6721SOL    HW221063   0.026   6.185   0.302
 6722SOL     OW21064   6.660   2.999   1.677
 6722SOL    HW121065   6.719   2.990   1.597
 6722SOL    HW221066   6.564   3.000   1.647
 6723SOL     OW21067   1.839   6.432   4.859
 6723SOL    HW121068   1.801   6.389   4.776
 6723SOL    HW221069   1.866   6.361   4.924
 6724SOL     OW21070   2.185   3.791   5.770
 6724SOL    HW121071   2.282   3.768   5.771
 6724SOL    HW221072   2.145   3.761   5.683
 6725SOL     OW21073   0.178   3.742   1.514
 6725SOL    HW121074   0.278   3.733   1.510
 6725SOL    HW221075   0.148   3.729   1.608
 6726SOL     OW21076   1.073   2.677   4.778
 6726SOL    HW121077   1.043   2.626   4.860
 6726SOL    HW221078   1.080   2.774   4.800
 6727SOL     OW21079   0.679   4.900   5.347
 6727SOL    HW121080   0.716   4.905   5.254
 6727SOL    HW221081   0.736   4.839   5.402
 6728SOL     OW21082   3.479   2.060   2.090
 6728SOL    HW121083   3.429   2.087   2.173
 6728SOL    HW221084   3.551   2.126   2.071
 6729SOL     OW21085   6.299   0.557   2.353
 6729SOL    HW121086   6.262   0.489   2.289
 6729SOL    HW221087   6.337   0.512   2.433
 6730SOL     OW21088   1.608   6.871   1.391
 6730SOL    HW121089   1.693   6.831   1.357
 6730SOL    HW221090   1.608   6.970   1.372
 6731SOL     OW21091   1.245   6.381   1.221
 6731SOL    HW121092   1.149   6.375   1.194
 6731SOL    HW221093   1.298   6.312   1.172
 6732SOL     OW21094   5.566   4.626   5.285
 6732SOL    HW121095   5.496   4.618   5.356
 6732SOL    HW221096   5.624   4.544   5.287
 6733SOL     OW21097   3.306   5.408   6.250
 6733SOL    HW121098   3.254   5.344   6.305
 6733SOL    HW221099   3.342   5.481   6.308
 6734SOL     OW21100   5.837   2.398   4.011
 6734SOL    HW121101   5.781   2.435   3.938
 6734SOL    HW221102   5.933   2.399   3.984
 6735SOL     OW21103   6.650   4.313   4.928
 6735SOL    HW121104   6.700   4.378   4.871
 6735SOL    HW221105   6.588   4.259   4.870
 6736SOL     OW21106   3.233   3.891   0.308
 6736SOL    HW121107   3.136   3.881   0.328
 6736SOL    HW221108   3.246   3.901   0.209
 6737SOL     OW21109   1.491   2.594   0.695
 6737SOL    HW121110   1.415   2.604   0.759
 6737SOL    HW221111   1.557   2.529   0.731
 6738SOL     OW21112   1.590   5.843   3.447
 6738SOL    HW121113   1.521   5.781   3.484
 6738SOL    HW221114   1.591   5.838   3.348
 6739SOL     OW21115   4.335   6.053   4.414
 6739SOL    HW121116   4.434   6.037   4.417
 6739SOL    HW221117   4.317   6.149   4.434
 6740SOL     OW21118   0.640   0.019   5.093
 6740SOL    HW121119   0.619   6.939   5.096
 6740SOL    HW221120   0.731   0.035   5.132
 6741SOL     OW21121   4.288   1.727   5.133
 6741SOL    HW121122   4.317   1.784   5.210
 6741SOL    HW221123   4.188   1.720   5.133
 6742SOL     OW21124   5.643   6.115   2.886
 6742SOL    HW121125   5.724   6.159   2.925
 6742SOL    HW221126   5.595   6.064   2.957
 6743SOL     OW21127   4.101   4.674   6.604
 6743SOL    HW121128   4.038   4.724   6.662
 6743SOL    HW221129   4.087   4.700   6.509
 6744SOL     OW21130   6.109   4.274   5.905
 6744SOL    HW121131   6.069   4.363   5.880
 6744SOL    HW221132   6.053   4.231   5.975
 6745SOL     OW21133   0.166   6.789   3.702
 6745SOL    HW121134   0.191   6.716   3.639
 6745SOL    HW221135   0.237   6.860   3.701
 6746SOL     OW21136   0.867   1.019   3.614
 6746SOL    HW121137   0.855   1.087   3.687
 6746SOL    HW221138   0.961   1.025   3.578
 6747SOL     OW21139   5.431   1.382   4.715
 6747SOL    HW121140   5.433   1.472   4.758
 6747SOL    HW221141   5.355   1.378   4.650
 6748SOL     OW21142   3.124   1.822   3.860
 6748SOL    HW121143   3.071   1.906   3.849
 6748SOL    HW221144   3.177   1.804   3.777
 6749SOL     OW21145   3.641   4.736   0.472
 6749SOL    HW121146   3.686   4.720   0.559
 6749SOL    HW221147   3.570   4.806   0.483
 6750SOL     OW21148   3.468   1.928   4.445
 6750SOL    HW121149   3.380   1.880   4.438
 6750SOL    HW221150   3.476   1.969   4.536
 6751SOL     OW21151   4.808   6.929   3.020
 6751SOL    HW121152   4.716   6.933   2.981
 6751SOL    HW221153   4.875   6.934   2.946
 6752SOL     OW21154   1.291   0.938   3.090
 6752SOL    HW121155   1.366   0.916   3.152
 6752SOL    HW221156   1.321   1.008   3.025
 6753SOL     OW21157   2.929   0.617   6.546
 6753SOL    HW121158   2.960   0.711   6.533
 6753SOL    HW221159   3.000   0.564   6.592
 6754SOL     OW21160   6.765   1.939   0.926
 6754SOL    HW121161   6.791   2.035   0.941
 6754SOL    HW221162   6.703   1.910   0.999
 6755SOL     OW21163   3.955   0.931   2.343
 6755SOL    HW121164   4.033   0.897   2.396
 6755SOL    HW221165   3.987   0.987   2.268
 6756SOL     OW21166   3.722   6.027   5.334
 6756SOL    HW121167   3.644   6.016   5.272
 6756SOL    HW221168   3.714   6.114   5.383
 6757SOL     OW21169   3.923   2.171   0.702
 6757SOL    HW121170   3.941   2.216   0.790
 6757SOL    HW221171   4.009   2.133   0.667
 6758SOL     OW21172   6.328   1.763   2.490
 6758SOL    HW121173   6.345   1.861   2.484
 6758SOL    HW221174   6.318   1.725   2.398
 6759SOL     OW21175   1.145   4.141   4.408
 6759SOL    HW121176   1.241   4.136   4.435
 6759SOL    HW221177   1.119   4.056   4.363
 6760SOL     OW21178   6.536   3.994   2.526
 6760SOL    HW121179   6.486   4.059   2.467
 6760SOL    HW221180   6.542   3.906   2.480
 6761SOL     OW21181   6.345   2.532   5.561
 6761SOL    HW121182   6.269   2.582   5.521
 6761SOL    HW221183   6.392   2.591   5.627
 6762SOL     OW21184   1.022   5.113   4.919
 6762SOL    HW121185   0.963   5.129   4.998
 6762SOL    HW221186   1.012   5.018   4.890
 6763SOL     OW21187   0.380   5.368   3.663
 6763SOL    HW121188   0.374   5.290   3.726
 6763SOL    HW221189   0.297   5.373   3.607
 6764SOL     OW21190   1.444   5.570   1.172
 6764SOL    HW121191   1.466   5.546   1.078
 6764SOL    HW221192   1.474   5.664   1.191
 6765SOL     OW21193   5.277   4.781   3.734
 6765SOL    HW121194   5.285   4.703   3.672
 6765SOL    HW221195   5.204   4.763   3.801
 6766SOL     OW21196   5.007   6.611   6.119
 6766SOL    HW121197   5.087   6.644   6.169
 6766SOL    HW221198   4.943   6.686   6.105
 6767SOL     OW21199   2.171   1.639   1.089
 6767SOL    HW121200   2.158   1.676   1.180
 6767SOL    HW221201   2.268   1.631   1.068
 6768SOL     OW21202   1.632   6.517   4.346
 6768SOL    HW121203   1.596   6.598   4.300
 6768SOL    HW221204   1.684   6.544   4.427
 6769SOL     OW21205   2.617   0.481   6.166
 6769SOL    HW121206   2.673   0.435   6.234
 6769SOL    HW221207   2.617   0.427   6.081
 6770SOL     OW21208   5.466   1.777   3.497
 6770SOL    HW121209   5.455   1.715   3.420
 6770SOL    HW221210   5.560   1.770   3.532
 6771SOL     OW21211   3.737   1.489   2.595
 6771SOL    HW121212   3.805   1.524   2.530
 6771SOL    HW221213   3.781   1.424   2.657
 6772SOL     OW21214   4.527   2.486   2.718
 6772SOL    HW121215   4.551   2.396   2.753
 6772SOL    HW221216   4.430   2.486   2.691
 6773SOL     OW21217   0.072   5.849   1.846
 6773SOL    HW121218   0.112   5.920   1.788
 6773SOL    HW221219   0.110   5.760   1.820
 6774SOL     OW21220   1.182   3.836   5.394
 6774SOL    HW121221   1.253   3.900   5.363
 6774SOL    HW221222   1.197   3.746   5.353
 6775SOL     OW21223   2.741   2.319   2.335
 6775SOL    HW121224   2.746   2.225   2.300
 6775SOL    HW221225   2.778   2.382   2.266
 6776SOL     OW21226   4.665   3.399   0.132
 6776SOL    HW121227   4.744   3.448   0.095
 6776SOL    HW221228   4.668   3.303   0.103
 6777SOL     OW21229   4.997   4.578   0.761
 6777SOL    HW121230   4.954   4.610   0.677
 6777SOL    HW221231   5.095   4.567   0.746
 6778SOL     OW21232   6.703   5.600   2.077
 6778SOL    HW121233   6.664   5.650   2.155
 6778SOL    HW221234   6.800   5.621   2.070
 6779SOL     OW21235   5.486   6.086   5.757
 6779SOL    HW121236   5.548   6.008   5.741
 6779SOL    HW221237   5.514   6.134   5.839
 6780SOL     OW21238   1.732   2.549   2.414
 6780SOL    HW121239   1.662   2.497   2.365
 6780SOL    HW221240   1.689   2.622   2.467
 6781SOL     OW21241   6.579   2.323   3.964
 6781SOL    HW121242   6.616   2.370   4.044
 6781SOL    HW221243   6.591   2.379   3.882
 6782SOL     OW21244   0.843   0.848   3.045
 6782SOL    HW121245   0.855   0.831   3.143
 6782SOL    HW221246   0.759   0.900   3.030
 6783SOL     OW21247   6.572   1.165   5.941
 6783SOL    HW121248   6.543   1.085   5.889
 6783SOL    HW221249   6.628   1.137   6.019
 6784SOL     OW21250   1.702   3.337   0.989
 6784SOL    HW121251   1.701   3.249   1.036
 6784SOL    HW221252   1.660   3.406   1.047
 6785SOL     OW21253   5.979   5.746   4.859
 6785SOL    HW121254   6.024   5.823   4.814
 6785SOL    HW221255   5.956   5.772   4.953
 6786SOL     OW21256   1.870   1.960   0.567
 6786SOL    HW121257   1.909   2.052   0.578
 6786SOL    HW221258   1.876   1.911   0.654
 6787SOL     OW21259   2.699   2.631   0.128
 6787SOL    HW121260   2.645   2.604   0.049
 6787SOL    HW221261   2.676   2.724   0.154
 6788SOL     OW21262   1.324   4.352   1.542
 6788SOL    HW121263   1.307   4.263   1.584
 6788SOL    HW221264   1.302   4.348   1.445
 6789SOL     OW21265   0.935   5.161   3.322
 6789SOL    HW121266   1.008   5.227   3.301
 6789SOL    HW221267   0.897   5.125   3.237
 6790SOL     OW21268   0.671   3.703   0.714
 6790SOL    HW121269   0.699   3.667   0.624
 6790SOL    HW221270   0.658   3.627   0.777
 6791SOL     OW21271   3.672   1.960   1.803
 6791SOL    HW121272   3.619   2.028   1.854
 6791SOL    HW221273   3.611   1.885   1.774
 6792SOL     OW21274   5.578   6.764   4.546
 6792SOL    HW121275   5.641   6.789   4.472
 6792SOL    HW221276   5.563   6.665   4.544
 6793SOL     OW21277   2.003   1.164   0.270
 6793SOL    HW121278   2.005   1.227   0.192
 6793SOL    HW221279   1.987   1.071   0.237
 6794SOL     OW21280   4.932   1.391   5.389
 6794SOL    HW121281   4.922   1.315   5.325
 6794SOL    HW221282   4.922   1.358   5.483
 6795SOL     OW21283   1.393   6.431   0.941
 6795SOL    HW121284   1.409   6.508   1.003
 6795SOL    HW221285   1.399   6.346   0.992
 6796SOL     OW21286   5.625   1.269   3.292
 6796SOL    HW121287   5.556   1.289   3.223
 6796SOL    HW221288   5.619   1.336   3.366
 6797SOL     OW21289   6.719   2.110   1.759
 6797SOL    HW121290   6.811   2.087   1.789
 6797SOL    HW221291   6.656   2.099   1.836
 6798SOL     OW21292   6.207   6.176   1.891
 6798SOL    HW121293   6.262   6.220   1.962
 6798SOL    HW221294   6.235   6.081   1.880
 6799SOL     OW21295   6.909   0.482   2.136
 6799SOL    HW121296   6.953   0.502   2.223
 6799SOL    HW221297   6.840   0.552   2.116
 6800SOL     OW21298   2.239   2.527   2.130
 6800SOL    HW121299   2.200   2.478   2.052
 6800SOL    HW221300   2.264   2.619   2.101
 6801SOL     OW21301   0.978   0.098   3.136
 6801SOL    HW121302   0.883   0.100   3.104
 6801SOL    HW221303   0.994   0.014   3.188
 6802SOL     OW21304   3.666   6.149   1.621
 6802SOL    HW121305   3.681   6.057   1.583
 6802SOL    HW221306   3.687   6.217   1.551
 6803SOL     OW21307   3.898   3.606   5.801
 6803SOL    HW121308   3.898   3.521   5.853
 6803SOL    HW221309   3.982   3.611   5.746
 6804SOL     OW21310   3.295   5.235   3.669
 6804SOL    HW121311   3.333   5.153   3.711
 6804SOL    HW221312   3.285   5.306   3.739
 6805SOL     OW21313   0.350   4.936   6.509
 6805SOL    HW121314   0.253   4.957   6.493
 6805SOL    HW221315   0.367   4.840   6.486
 6806SOL     OW21316   6.344   1.055   2.822
 6806SOL    HW121317   6.329   0.979   2.885
 6806SOL    HW221318   6.373   1.021   2.733
 6807SOL     OW21319   3.048   3.037   1.476
 6807SOL    HW121320   3.139   3.075   1.492
 6807SOL    HW221321   2.978   3.107   1.491
 6808SOL     OW21322   6.567   2.105   6.368
 6808SOL    HW121323   6.509   2.041   6.420
 6808SOL    HW221324   6.510   2.176   6.328
 6809SOL     OW21325   0.747   3.037   1.039
 6809SOL    HW121326   0.762   3.116   1.099
 6809SOL    HW221327   0.809   3.042   0.961
 6810SOL     OW21328   2.034   1.210   2.143
 6810SOL    HW121329   2.126   1.247   2.157
 6810SOL    HW221330   1.980   1.276   2.091
 6811SOL     OW21331   5.449   4.001   1.821
 6811SOL    HW121332   5.423   3.995   1.725
 6811SOL    HW221333   5.367   4.015   1.877
 6812SOL     OW21334   3.329   3.416   4.453
 6812SOL    HW121335   3.310   3.341   4.389
 6812SOL    HW221336   3.288   3.395   4.542
 6813SOL     OW21337   5.634   3.959   2.893
 6813SOL    HW121338   5.733   3.966   2.899
 6813SOL    HW221339   5.604   3.870   2.929
 6814SOL     OW21340   3.966   2.065   6.275
 6814SOL    HW121341   3.972   2.148   6.218
 6814SOL    HW221342   4.054   2.018   6.273
 6815SOL     OW21343   3.397   5.986   0.549
 6815SOL    HW121344   3.391   5.938   0.637
 6815SOL    HW221345   3.433   5.923   0.480
 6816SOL     OW21346   6.642   0.782   6.083
 6816SOL    HW121347   6.595   0.750   6.165
 6816SOL    HW221348   6.671   0.703   6.028
 6817SOL     OW21349   2.351   2.428   2.637
 6817SOL    HW121350   2.273   2.390   2.685
 6817SOL    HW221351   2.325   2.453   2.544
 6818SOL     OW21352   2.576   6.383   0.985
 6818SOL    HW121353   2.528   6.457   1.031
 6818SOL    HW221354   2.590   6.308   1.050
 6819SOL     OW21355   3.790   1.468   3.324
 6819SOL    HW121356   3.717   1.428   3.268
 6819SOL    HW221357   3.760   1.474   3.419
 6820SOL     OW21358   1.927   6.269   1.357
 6820SOL    HW121359   1.882   6.276   1.268
 6820SOL    HW221360   2.016   6.224   1.347
 6821SOL     OW21361   3.934   2.167   5.179
 6821SOL    HW121362   3.899   2.194   5.268
 6821SOL    HW221363   3.874   2.098   5.139
 6822SOL     OW21364   5.765   2.420   5.611
 6822SOL    HW121365   5.667   2.396   5.610
 6822SOL    HW221366   5.819   2.337   5.599
 6823SOL     OW21367   5.310   3.796   5.594
 6823SOL    HW121368   5.385   3.730   5.600
 6823SOL    HW221369   5.323   3.854   5.514
 6824SOL     OW21370   1.347   1.543   0.114
 6824SOL    HW121371   1.288   1.470   0.148
 6824SOL    HW221372   1.361   1.611   0.185
 6825SOL     OW21373   5.599   0.203   0.345
 6825SOL    HW121374   5.633   0.286   0.301
 6825SOL    HW221375   5.529   0.161   0.287
 6826SOL     OW21376   2.113   3.377   3.383
 6826SOL    HW121377   2.047   3.435   3.335
 6826SOL    HW221378   2.132   3.296   3.327
 6827SOL     OW21379   4.634   4.989   5.986
 6827SOL    HW121380   4.665   5.022   6.075
 6827SOL    HW221381   4.549   5.037   5.961
 6828SOL     OW21382   3.323   1.121   1.824
 6828SOL    HW121383   3.352   1.093   1.732
 6828SOL    HW221384   3.272   1.046   1.866
 6829SOL     OW21385   4.675   5.716   4.579
 6829SOL    HW121386   4.604   5.734   4.510
 6829SOL    HW221387   4.714   5.803   4.610
 6830SOL     OW21388   4.706   0.581   3.212
 6830SOL    HW121389   4.653   0.497   3.200
 6830SOL    HW221390   4.770   0.570   3.287
 6831SOL     OW21391   1.102   0.635   6.660
 6831SOL    HW121392   1.122   0.632   6.562
 6831SOL    HW221393   1.011   0.598   6.677
 6832SOL     OW21394   2.260   4.140   0.777
 6832SOL    HW121395   2.224   4.150   0.870
 6832SOL    HW221396   2.217   4.209   0.717
 6833SOL     OW21397   3.350   4.865   6.169
 6833SOL    HW121398   3.271   4.805   6.158
 6833SOL    HW221399   3.430   4.811   6.195
 6834SOL     OW21400   5.029   6.972   0.596
 6834SOL    HW121401   4.989   6.914   0.525
 6834SOL    HW221402   5.118   6.935   0.622
 6835SOL     OW21403   4.360   0.556   4.740
 6835SOL    HW121404   4.417   0.501   4.801
 6835SOL    HW221405   4.270   0.512   4.731
 6836SOL     OW21406   2.915   4.346   0.541
 6836SOL    HW121407   2.843   4.404   0.581
 6836SOL    HW221408   2.928   4.370   0.445
 6837SOL     OW21409   0.625   2.147   2.771
 6837SOL    HW121410   0.671   2.136   2.860
 6837SOL    HW221411   0.544   2.089   2.768
 6838SOL     OW21412   3.542   6.434   0.245
 6838SOL    HW121413   3.623   6.378   0.261
 6838SOL    HW221414   3.461   6.375   0.237
 6839SOL     OW21415   5.559   1.436   6.051
 6839SOL    HW121416   5.602   1.418   6.139
 6839SOL    HW221417   5.485   1.503   6.063
 6840SOL     OW21418   3.215   0.596   4.165
 6840SOL    HW121419   3.302   0.571   4.207
 6840SOL    HW221420   3.231   0.660   4.089
 6841SOL     OW21421   4.293   4.690   0.369
 6841SOL    HW121422   4.365   4.622   0.386
 6841SOL    HW221423   4.331   4.765   0.315
 6842SOL     OW21424   2.736   3.664   0.774
 6842SOL    HW121425   2.828   3.658   0.813
 6842SOL    HW221426   2.673   3.703   0.842
 6843SOL     OW21427   6.052   6.401   1.893
 6843SOL    HW121428   6.103   6.316   1.906
 6843SOL    HW221429   6.034   6.414   1.796
 6844SOL     OW21430   4.676   0.246   3.652
 6844SOL    HW121431   4.667   0.206   3.561
 6844SOL    HW221432   4.628   0.189   3.719
 6845SOL     OW21433   6.291   4.824   3.966
 6845SOL    HW121434   6.279   4.824   4.065
 6845SOL    HW221435   6.379   4.865   3.942
 6846SOL     OW21436   3.911   2.863   0.340
 6846SOL    HW121437   3.877   2.830   0.252
 6846SOL    HW221438   3.932   2.961   0.333
 6847SOL     OW21439   0.137   4.195   3.561
 6847SOL    HW121440   0.118   4.272   3.499
 6847SOL    HW221441   0.209   4.222   3.626
 6848SOL     OW21442   4.559   6.808   3.690
 6848SOL    HW121443   4.481   6.755   3.722
 6848SOL    HW221444   4.643   6.769   3.726
 6849SOL     OW21445   4.156   4.916   4.999
 6849SOL    HW121446   4.163   4.931   4.900
 6849SOL    HW221447   4.104   4.991   5.040
 6850SOL     OW21448   6.113   4.426   1.868
 6850SOL    HW121449   6.098   4.371   1.786
 6850SOL    HW221450   6.101   4.523   1.845
 6851SOL     OW21451   0.819   2.391   3.051
 6851SOL    HW121452   0.845   2.447   3.129
 6851SOL    HW221453   0.740   2.433   3.005
 6852SOL     OW21454   2.671   5.085   0.631
 6852SOL    HW121455   2.693   5.175   0.592
 6852SOL    HW221456   2.691   5.014   0.564
 6853SOL     OW21457   6.518   3.966   0.301
 6853SOL    HW121458   6.557   3.900   0.237
 6853SOL    HW221459   6.420   3.950   0.311
 6854SOL     OW21460   4.744   2.074   6.282
 6854SOL    HW121461   4.791   2.110   6.363
 6854SOL    HW221462   4.751   2.140   6.207
 6855SOL     OW21463   3.955   5.513   3.274
 6855SOL    HW121464   3.905   5.455   3.209
 6855SOL    HW221465   3.908   5.513   3.362
 6856SOL     OW21466   5.653   3.515   5.282
 6856SOL    HW121467   5.607   3.441   5.332
 6856SOL    HW221468   5.600   3.537   5.200
 6857SOL     OW21469   3.398   2.573   0.130
 6857SOL    HW121470   3.359   2.504   0.070
 6857SOL    HW221471   3.336   2.589   0.207
 6858SOL     OW21472   3.904   3.806   3.472
 6858SOL    HW121473   3.814   3.795   3.515
 6858SOL    HW221474   3.973   3.821   3.543
 6859SOL     OW21475   0.274   1.000   1.036
 6859SOL    HW121476   0.194   0.946   1.011
 6859SOL    HW221477   0.327   1.022   0.953
 6860SOL     OW21478   0.031   4.834   1.266
 6860SOL    HW121479   0.081   4.916   1.237
 6860SOL    HW221480   0.010   4.840   1.364
 6861SOL     OW21481   4.372   4.837   0.137
 6861SOL    HW121482   4.283   4.849   0.093
 6861SOL    HW221483   4.428   4.774   0.083
 6862SOL     OW21484   1.877   4.914   5.413
 6862SOL    HW121485   1.975   4.913   5.437
 6862SOL    HW221486   1.847   4.822   5.391
 6863SOL     OW21487   5.729   0.128   5.776
 6863SOL    HW121488   5.669   0.163   5.848
 6863SOL    HW221489   5.823   0.155   5.794
 6864SOL     OW21490   2.932   5.581   4.409
 6864SOL    HW121491   2.875   5.509   4.449
 6864SOL    HW221492   2.935   5.569   4.309
 6865SOL     OW21493   1.366   6.221   3.553
 6865SOL    HW121494   1.392   6.315   3.577
 6865SOL    HW221495   1.420   6.157   3.607
 6866SOL     OW21496   6.281   5.007   3.568
 6866SOL    HW121497   6.236   5.062   3.498
 6866SOL    HW221498   6.300   5.063   3.648
 6867SOL     OW21499   2.372   4.042   1.642
 6867SOL    HW121500   2.467   4.073   1.637
 6867SOL    HW221501   2.329   4.051   1.552
 6868SOL     OW21502   1.152   5.294   5.996
 6868SOL    HW121503   1.130   5.221   5.932
 6868SOL    HW221504   1.214   5.359   5.953
 6869SOL     OW21505   6.115   1.577   5.664
 6869SOL    HW121506   6.159   1.520   5.733
 6869SOL    HW221507   6.117   1.673   5.692
 6870SOL     OW21508   0.475   5.076   1.821
 6870SOL    HW121509   0.421   5.044   1.743
 6870SOL    HW221510   0.430   5.156   1.862
 6871SOL     OW21511   5.985   4.587   3.395
 6871SOL    HW121512   6.069   4.572   3.343
 6871SOL    HW221513   6.007   4.628   3.484
 6872SOL     OW21514   0.257   2.504   1.459
 6872SOL    HW121515   0.352   2.536   1.459
 6872SOL    HW221516   0.218   2.515   1.367
 6873SOL     OW21517   6.627   3.667   5.075
 6873SOL    HW121518   6.548   3.702   5.125
 6873SOL    HW221519   6.618   3.568   5.066
 6874SOL     OW21520   0.364   5.760   2.660
 6874SOL    HW121521   0.341   5.816   2.739
 6874SOL    HW221522   0.314   5.794   2.580
 6875SOL     OW21523   2.450   2.635   2.806
 6875SOL    HW121524   2.372   2.675   2.854
 6875SOL    HW221525   2.417   2.570   2.738
 6876SOL     OW21526   3.381   6.719   3.683
 6876SOL    HW121527   3.356   6.800   3.736
 6876SOL    HW221528   3.360   6.636   3.735
 6877SOL     OW21529   2.873   3.928   0.825
 6877SOL    HW121530   2.911   3.858   0.764
 6877SOL    HW221531   2.901   4.018   0.794
 6878SOL     OW21532   3.319   0.991   4.757
 6878SOL    HW121533   3.368   0.971   4.842
 6878SOL    HW221534   3.382   0.990   4.680
 6879SOL     OW21535   0.981   2.356   1.079
 6879SOL    HW121536   0.922   2.276   1.087
 6879SOL    HW221537   1.050   2.355   1.151
 6880SOL     OW21538   1.737   4.842   4.542
 6880SOL    HW121539   1.833   4.854   4.565
 6880SOL    HW221540   1.704   4.755   4.580
 6881SOL     OW21541   1.692   4.325   0.629
 6881SOL    HW121542   1.792   4.327   0.640
 6881SOL    HW221543   1.665   4.391   0.559
 6882SOL     OW21544   2.757   0.341   0.042
 6882SOL    HW121545   2.706   0.359   6.975
 6882SOL    HW221546   2.800   0.426   0.074
 6883SOL     OW21547   4.927   1.151   0.377
 6883SOL    HW121548   4.890   1.065   0.411
 6883SOL    HW221549   4.939   1.145   0.278
 6884SOL     OW21550   2.005   4.346   3.992
 6884SOL    HW121551   1.917   4.387   3.969
 6884SOL    HW221552   2.001   4.306   4.084
 6885SOL     OW21553   3.951   5.128   3.983
 6885SOL    HW121554   4.038   5.152   3.940
 6885SOL    HW221555   3.947   5.028   3.996
 6886SOL     OW21556   6.937   0.996   4.291
 6886SOL    HW121557   6.947   1.005   4.390
 6886SOL    HW221558   6.848   1.032   4.263
 6887SOL     OW21559   5.146   5.779   6.187
 6887SOL    HW121560   5.059   5.752   6.228
 6887SOL    HW221561   5.156   5.878   6.192
 6888SOL     OW21562   5.346   6.323   6.903
 6888SOL    HW121563   5.299   6.302   6.817
 6888SOL    HW221564   5.439   6.287   6.900
 6889SOL     OW21565   2.296   2.244   5.109
 6889SOL    HW121566   2.317   2.332   5.153
 6889SOL    HW221567   2.197   2.230   5.106
 6890SOL     OW21568   4.616   6.234   1.684
 6890SOL    HW121569   4.660   6.289   1.612
 6890SOL    HW221570   4.545   6.289   1.728
 6891SOL     OW21571   2.118   4.632   3.124
 6891SOL    HW121572   2.037   4.598   3.171
 6891SOL    HW221573   2.170   4.555   3.086
 6892SOL     OW21574   3.250   2.100   3.119
 6892SOL    HW121575   3.178   2.165   3.141
 6892SOL    HW221576   3.305   2.081   3.201
 6893SOL     OW21577   4.325   4.205   6.933
 6893SOL    HW121578   4.356   4.287   6.885
 6893SOL    HW221579   4.350   4.212   0.012
 6894SOL     OW21580   6.604   4.684   1.349
 6894SOL    HW121581   6.520   4.678   1.403
 6894SOL    HW221582   6.653   4.597   1.352
 6895SOL     OW21583   3.284   4.804   0.307
 6895SOL    HW121584   3.251   4.894   0.281
 6895SOL    HW221585   3.353   4.813   0.378
 6896SOL     OW21586   2.484   6.816   4.075
 6896SOL    HW121587   2.393   6.778   4.094
 6896SOL    HW221588   2.547   6.742   4.050
 6897SOL     OW21589   4.907   3.837   5.850
 6897SOL    HW121590   4.934   3.768   5.917
 6897SOL    HW221591   4.910   3.928   5.892
 6898SOL     OW21592   3.385   1.492   1.484
 6898SOL    HW121593   3.455   1.420   1.485
 6898SOL    HW221594   3.294   1.450   1.483
 6899SOL     OW21595   5.476   6.168   1.195
 6899SOL    HW121596   5.508   6.073   1.187
 6899SOL    HW221597   5.553   6.227   1.218
 6900SOL     OW21598   6.309   6.372   5.488
 6900SOL    HW121599   6.217   6.409   5.477
 6900SOL    HW221600   6.340   6.334   5.401
 6901SOL     OW21601   0.017   6.480   6.358
 6901SOL    HW121602   6.943   6.472   6.399
 6901SOL    HW221603   0.058   6.390   6.350
 6902SOL     OW21604   5.450   6.012   6.603
 6902SOL    HW121605   5.445   6.096   6.549
 6902SOL    HW221606   5.379   5.949   6.574
 6903SOL     OW21607   2.947   5.473   4.749
 6903SOL    HW121608   3.015   5.512   4.687
 6903SOL    HW221609   2.941   5.374   4.734
 6904SOL     OW21610   5.509   0.768   4.677
 6904SOL    HW121611   5.540   0.784   4.771
 6904SOL    HW221612   5.521   0.852   4.624
 6905SOL     OW21613   5.925   6.570   6.504
 6905SOL    HW121614   6.005   6.573   6.444
 6905SOL    HW221615   5.950   6.529   6.591
 6906SOL     OW21616   4.219   1.165   4.022
 6906SOL    HW121617   4.197   1.232   3.951
 6906SOL    HW221618   4.198   1.205   4.112
 6907SOL     OW21619   5.007   2.605   1.803
 6907SOL    HW121620   4.944   2.658   1.859
 6907SOL    HW221621   5.042   2.662   1.729
 6908SOL     OW21622   1.028   5.462   6.203
 6908SOL    HW121623   1.074   5.408   6.132
 6908SOL    HW221624   1.007   5.404   6.281
 6909SOL     OW21625   5.094   4.476   1.295
 6909SOL    HW121626   5.032   4.445   1.368
 6909SOL    HW221627   5.071   4.429   1.210
 6910SOL     OW21628   0.224   2.354   3.345
 6910SOL    HW121629   0.306   2.315   3.303
 6910SOL    HW221630   0.192   2.432   3.290
 6911SOL     OW21631   4.414   6.024   3.820
 6911SOL    HW121632   4.398   6.108   3.871
 6911SOL    HW221633   4.507   6.026   3.782
 6912SOL     OW21634   3.977   4.017   6.590
 6912SOL    HW121635   3.885   4.055   6.578
 6912SOL    HW221636   3.987   3.935   6.532
 6913SOL     OW21637   5.055   5.806   4.030
 6913SOL    HW121638   4.959   5.786   4.045
 6913SOL    HW221639   5.108   5.781   4.111
 6914SOL     OW21640   5.882   3.529   4.325
 6914SOL    HW121641   5.807   3.590   4.349
 6914SOL    HW221642   5.969   3.572   4.350
 6915SOL     OW21643   5.993   2.721   2.054
 6915SOL    HW121644   5.992   2.745   1.956
 6915SOL    HW221645   5.997   2.805   2.108
 6916SOL     OW21646   6.286   2.664   0.189
 6916SOL    HW121647   6.363   2.600   0.186
 6916SOL    HW221648   6.226   2.647   0.112
 6917SOL     OW21649   3.503   6.302   0.988
 6917SOL    HW121650   3.582   6.351   1.025
 6917SOL    HW221651   3.511   6.296   0.888
 6918SOL     OW21652   0.327   2.822   4.012
 6918SOL    HW121653   0.399   2.788   4.073
 6918SOL    HW221654   0.294   2.747   3.954
 6919SOL     OW21655   6.942   5.755   3.209
 6919SOL    HW121656   6.848   5.731   3.234
 6919SOL    HW221657   6.983   5.811   3.281
 6920SOL     OW21658   4.150   6.049   5.306
 6920SOL    HW121659   4.227   5.992   5.334
 6920SOL    HW221660   4.087   5.994   5.251
 6921SOL     OW21661   5.417   5.426   3.682
 6921SOL    HW121662   5.393   5.389   3.772
 6921SOL    HW221663   5.476   5.362   3.634
 6922SOL     OW21664   1.867   6.046   5.160
 6922SOL    HW121665   1.856   5.975   5.089
 6922SOL    HW221666   1.923   6.010   5.234
 6923SOL     OW21667   4.707   5.413   3.017
 6923SOL    HW121668   4.697   5.318   3.046
 6923SOL    HW221669   4.791   5.424   2.965
 6924SOL     OW21670   2.566   3.749   6.645
 6924SOL    HW121671   2.507   3.691   6.701
 6924SOL    HW221672   2.641   3.694   6.608
 6925SOL     OW21673   4.886   6.092   4.022
 6925SOL    HW121674   4.886   6.087   3.922
 6925SOL    HW221675   4.874   6.000   4.059
 6926SOL     OW21676   3.481   2.981   0.772
 6926SOL    HW121677   3.572   3.014   0.798
 6926SOL    HW221678   3.413   3.018   0.835
 6927SOL     OW21679   4.146   2.930   5.991
 6927SOL    HW121680   4.084   3.008   5.983
 6927SOL    HW221681   4.131   2.867   5.915
 6928SOL     OW21682   6.113   5.559   0.649
 6928SOL    HW121683   6.083   5.493   0.718
 6928SOL    HW221684   6.091   5.652   0.681
 6929SOL     OW21685   5.815   5.500   1.146
 6929SOL    HW121686   5.783   5.413   1.183
 6929SOL    HW221687   5.788   5.574   1.208
 6930SOL     OW21688   0.442   0.144   2.578
 6930SOL    HW121689   0.500   0.068   2.548
 6930SOL    HW221690   0.496   0.228   2.581
 6931SOL     OW21691   2.104   0.795   2.298
 6931SOL    HW121692   2.133   0.821   2.206
 6931SOL    HW221693   2.177   0.817   2.363
 6932SOL     OW21694   4.371   6.612   0.610
 6932SOL    HW121695   4.393   6.521   0.646
 6932SOL    HW221696   4.311   6.603   0.530
 6933SOL     OW21697   3.549   5.989   4.767
 6933SOL    HW121698   3.504   5.998   4.678
 6933SOL    HW221699   3.520   5.904   4.811
 6934SOL     OW21700   5.280   3.317   6.228
 6934SOL    HW121701   5.265   3.264   6.144
 6934SOL    HW221702   5.265   3.258   6.307
 6935SOL     OW21703   4.751   5.556   2.514
 6935SOL    HW121704   4.768   5.541   2.417
 6935SOL    HW221705   4.800   5.637   2.544
 6936SOL     OW21706   6.033   1.544   3.348
 6936SOL    HW121707   6.013   1.537   3.446
 6936SOL    HW221708   5.951   1.524   3.296
 6937SOL     OW21709   6.709   6.197   0.003
 6937SOL    HW121710   6.774   6.269   6.995
 6937SOL    HW221711   6.748   6.108   6.998
 6938SOL     OW21712   5.145   3.367   5.065
 6938SOL    HW121713   5.133   3.466   5.056
 6938SOL    HW221714   5.116   3.339   5.157
 6939SOL     OW21715   1.490   4.978   1.889
 6939SOL    HW121716   1.440   4.924   1.821
 6939SOL    HW221717   1.431   4.993   1.969
 6940SOL     OW21718   4.209   0.308   6.524
 6940SOL    HW121719   4.169   0.220   6.497
 6940SOL    HW221720   4.307   0.307   6.503
 6941SOL     OW21721   3.566   3.871   1.876
 6941SOL    HW121722   3.629   3.948   1.879
 6941SOL    HW221723   3.482   3.895   1.923
 6942SOL     OW21724   5.740   0.146   0.954
 6942SOL    HW121725   5.823   0.178   0.999
 6942SOL    HW221726   5.765   0.084   0.879
 6943SOL     OW21727   3.838   5.781   0.342
 6943SOL    HW121728   3.751   5.786   0.294
 6943SOL    HW221729   3.902   5.726   0.290
 6944SOL     OW21730   0.748   4.116   6.579
 6944SOL    HW121731   0.679   4.152   6.515
 6944SOL    HW221732   0.722   4.024   6.606
 6945SOL     OW21733   6.081   1.076   6.692
 6945SOL    HW121734   6.061   1.121   6.605
 6945SOL    HW221735   6.146   1.002   6.677
 6946SOL     OW21736   5.421   6.570   0.829
 6946SOL    HW121737   5.394   6.537   0.739
 6946SOL    HW221738   5.460   6.495   0.882
 6947SOL     OW21739   3.302   6.082   6.416
 6947SOL    HW121740   3.284   6.030   6.332
 6947SOL    HW221741   3.332   6.174   6.392
 6948SOL     OW21742   0.467   0.045   1.033
 6948SOL    HW121743   0.557   0.078   1.007
 6948SOL    HW221744   0.442   0.083   1.122
 6949SOL     OW21745   4.191   0.130   2.896
 6949SOL    HW121746   4.251   0.140   2.975
 6949SOL    HW221747   4.118   0.065   2.917
 6950SOL     OW21748   2.071   1.962   5.061
 6950SOL    HW121749   2.039   1.927   4.973
 6950SOL    HW221750   2.061   2.062   5.063
 6951SOL     OW21751   6.466   5.722   6.212
 6951SOL    HW121752   6.465   5.739   6.311
 6951SOL    HW221753   6.555   5.684   6.187
 6952SOL     OW21754   1.034   6.316   3.225
 6952SOL    HW121755   1.071   6.344   3.136
 6952SOL    HW221756   0.991   6.226   3.216
 6953SOL     OW21757   4.642   6.419   0.903
 6953SOL    HW121758   4.732   6.434   0.944
 6953SOL    HW221759   4.588   6.503   0.909
 6954SOL     OW21760   0.076   3.585   3.011
 6954SOL    HW121761   0.081   3.489   2.984
 6954SOL    HW221762   7.011   3.600   3.065
 6955SOL     OW21763   6.008   0.164   2.293
 6955SOL    HW121764   5.983   0.215   2.210
 6955SOL    HW221765   6.105   0.141   2.289
 6956SOL     OW21766   5.742   5.635   3.563
 6956SOL    HW121767   5.707   5.683   3.482
 6956SOL    HW221768   5.773   5.544   3.536
 6957SOL     OW21769   6.460   5.114   0.854
 6957SOL    HW121770   6.409   5.106   0.769
 6957SOL    HW221771   6.533   5.046   0.856
 6958SOL     OW21772   3.365   2.913   4.342
 6958SOL    HW121773   3.458   2.938   4.314
 6958SOL    HW221774   3.310   2.895   4.261
 6959SOL     OW21775   1.825   2.386   4.352
 6959SOL    HW121776   1.848   2.295   4.386
 6959SOL    HW221777   1.746   2.381   4.291
 6960SOL     OW21778   2.553   4.291   1.331
 6960SOL    HW121779   2.519   4.369   1.277
 6960SOL    HW221780   2.531   4.206   1.283
 6961SOL     OW21781   5.887   1.778   3.744
 6961SOL    HW121782   5.935   1.863   3.722
 6961SOL    HW221783   5.848   1.785   3.836
 6962SOL     OW21784   5.118   6.290   1.671
 6962SOL    HW121785   5.035   6.343   1.656
 6962SOL    HW221786   5.094   6.204   1.718
 6963SOL     OW21787   5.204   5.956   1.021
 6963SOL    HW121788   5.160   5.995   1.103
 6963SOL    HW221789   5.194   5.857   1.022
 6964SOL     OW21790   3.217   0.880   5.049
 6964SOL    HW121791   3.304   0.833   5.029
 6964SOL    HW221792   3.163   0.886   4.965
 6965SOL     OW21793   0.818   1.617   0.834
 6965SOL    HW121794   0.909   1.635   0.872
 6965SOL    HW221795   0.827   1.584   0.740
 6966SOL     OW21796   0.632   2.297   3.349
 6966SOL    HW121797   0.725   2.292   3.313
 6966SOL    HW221798   0.566   2.290   3.273
 6967SOL     OW21799   2.408   1.058   5.697
 6967SOL    HW121800   2.440   0.981   5.752
 6967SOL    HW221801   2.415   1.034   5.600
 6968SOL     OW21802   4.146   6.782   3.072
 6968SOL    HW121803   4.066   6.827   3.033
 6968SOL    HW221804   4.159   6.693   3.027
 6969SOL     OW21805   3.595   2.371   1.216
 6969SOL    HW121806   3.597   2.284   1.168
 6969SOL    HW221807   3.670   2.374   1.283
 6970SOL     OW21808   4.216   4.082   5.464
 6970SOL    HW121809   4.127   4.071   5.507
 6970SOL    HW221810   4.238   4.180   5.458
 6971SOL     OW21811   6.719   4.235   1.933
 6971SOL    HW121812   6.748   4.218   1.839
 6971SOL    HW221813   6.709   4.333   1.947
 6972SOL     OW21814   5.249   4.213   3.202
 6972SOL    HW121815   5.339   4.171   3.190
 6972SOL    HW221816   5.232   4.276   3.126
 6973SOL     OW21817   0.958   2.847   4.176
 6973SOL    HW121818   0.924   2.803   4.093
 6973SOL    HW221819   1.039   2.798   4.209
 6974SOL     OW21820   2.949   3.637   3.013
 6974SOL    HW121821   2.958   3.561   3.078
 6974SOL    HW221822   2.902   3.605   2.931
 6975SOL     OW21823   1.837   6.290   6.373
 6975SOL    HW121824   1.923   6.239   6.367
 6975SOL    HW221825   1.813   6.306   6.468
 6976SOL     OW21826   4.937   5.550   5.155
 6976SOL    HW121827   4.842   5.522   5.168
 6976SOL    HW221828   4.958   5.552   5.057
 6977SOL     OW21829   3.964   3.149   1.743
 6977SOL    HW121830   3.929   3.058   1.767
 6977SOL    HW221831   4.033   3.177   1.810
 6978SOL     OW21832   5.609   1.371   2.104
 6978SOL    HW121833   5.641   1.463   2.080
 6978SOL    HW221834   5.518   1.356   2.066
 6979SOL     OW21835   0.814   4.436   0.918
 6979SOL    HW121836   0.767   4.475   0.997
 6979SOL    HW221837   0.750   4.385   0.861
 6980SOL     OW21838   1.684   0.596   4.155
 6980SOL    HW121839   1.615   0.643   4.100
 6980SOL    HW221840   1.768   0.650   4.158
 6981SOL     OW21841   3.687   2.946   5.753
 6981SOL    HW121842   3.747   3.012   5.798
 6981SOL    HW221843   3.730   2.912   5.670
 6982SOL     OW21844   1.366   0.337   5.061
 6982SOL    HW121845   1.312   0.380   5.133
 6982SOL    HW221846   1.360   0.392   4.978
 6983SOL     OW21847   3.373   2.017   3.591
 6983SOL    HW121848   3.334   2.022   3.499
 6983SOL    HW221849   3.302   2.034   3.659
 6984SOL     OW21850   2.216   2.097   3.214
 6984SOL    HW121851   2.287   2.059   3.273
 6984SOL    HW221852   2.258   2.138   3.133
 6985SOL     OW21853   6.046   5.433   1.431
 6985SOL    HW121854   6.122   5.498   1.425
 6985SOL    HW221855   6.055   5.363   1.360
 6986SOL     OW21856   2.323   0.124   5.445
 6986SOL    HW121857   2.334   0.068   5.363
 6986SOL    HW221858   2.351   0.218   5.424
 6987SOL     OW21859   6.046   0.996   6.120
 6987SOL    HW121860   6.137   1.019   6.087
 6987SOL    HW221861   6.050   0.915   6.177
 6988SOL     OW21862   0.529   0.775   5.448
 6988SOL    HW121863   0.625   0.773   5.476
 6988SOL    HW221864   0.516   0.845   5.378
 6989SOL     OW21865   0.987   3.783   3.195
 6989SOL    HW121866   0.954   3.776   3.101
 6989SOL    HW221867   0.909   3.787   3.258
 6990SOL     OW21868   4.700   2.499   1.158
 6990SOL    HW121869   4.695   2.439   1.238
 6990SOL    HW221870   4.692   2.445   1.075
 6991SOL     OW21871   3.942   4.834   3.034
 6991SOL    HW121872   3.981   4.901   2.970
 6991SOL    HW221873   3.884   4.770   2.984
 6992SOL     OW21874   5.097   6.704   6.608
 6992SOL    HW121875   5.195   6.699   6.628
 6992SOL    HW221876   5.081   6.766   6.530
 6993SOL     OW21877   5.139   0.512   2.802
 6993SOL    HW121878   5.102   0.455   2.876
 6993SOL    HW221879   5.076   0.587   2.783
 6994SOL     OW21880   7.007   2.097   4.196
 6994SOL    HW121881   0.089   2.095   4.186
 6994SOL    HW221882   6.981   2.055   4.283
 6995SOL     OW21883   6.983   4.594   6.231
 6995SOL    HW121884   6.953   4.551   6.146
 6995SOL    HW221885   0.027   4.671   6.210
 6996SOL     OW21886   1.315   6.757   6.947
 6996SOL    HW121887   1.298   6.787   6.853
 6996SOL    HW221888   1.228   6.734   6.991
 6997SOL     OW21889   6.973   5.896   5.133
 6997SOL    HW121890   6.916   5.978   5.133
 6997SOL    HW221891   6.938   5.832   5.064
 6998SOL     OW21892   2.009   0.736   1.660
 6998SOL    HW121893   2.108   0.739   1.666
 6998SOL    HW221894   1.969   0.792   1.732
 6999SOL     OW21895   2.781   2.243   0.014
 6999SOL    HW121896   2.708   2.283   6.975
 6999SOL    HW221897   2.774   2.144   0.011
 7000SOL     OW21898   4.666   6.774   0.920
 7000SOL    HW121899   4.567   6.762   0.926
 7000SOL    HW221900   4.693   6.782   0.824
 7001SOL     OW21901   1.407   3.280   5.517
 7001SOL    HW121902   1.358   3.276   5.430
 7001SOL    HW221903   1.424   3.187   5.551
 7002SOL     OW21904   1.629   5.472   3.905
 7002SOL    HW121905   1.685   5.455   3.824
 7002SOL    HW221906   1.543   5.422   3.898
 7003SOL     OW21907   3.899   5.120   0.321
 7003SOL    HW121908   3.921   5.022   0.320
 7003SOL    HW221909   3.927   5.161   0.234
 7004SOL     OW21910   1.566   5.156   2.251
 7004SOL    HW121911   1.475   5.196   2.254
 7004SOL    HW221912   1.559   5.057   2.236
 7005SOL     OW21913   1.198   0.312   0.690
 7005SOL    HW121914   1.155   0.285   0.604
 7005SOL    HW221915   1.210   0.411   0.692
 7006SOL     OW21916   5.207   4.847   4.081
 7006SOL    HW121917   5.274   4.785   4.122
 7006SOL    HW221918   5.130   4.794   4.044
 7007SOL     OW21919   4.171   0.928   3.632
 7007SOL    HW121920   4.209   0.838   3.613
 7007SOL    HW221921   4.203   0.993   3.563
 7008SOL     OW21922   0.265   3.910   4.795
 7008SOL    HW121923   0.341   3.975   4.794
 7008SOL    HW221924   0.300   3.819   4.815
 7009SOL     OW21925   5.579   5.866   2.218
 7009SOL    HW121926   5.529   5.786   2.251
 7009SOL    HW221927   5.612   5.920   2.296
 7010SOL     OW21928   5.336   4.274   3.957
 7010SOL    HW121929   5.382   4.195   3.998
 7010SOL    HW221930   5.401   4.349   3.947
 7011SOL     OW21931   2.918   6.632   6.642
 7011SOL    HW121932   2.858   6.583   6.578
 7011SOL    HW221933   2.922   6.582   6.729
 7012SOL     OW21934   0.169   1.975   1.788
 7012SOL    HW121935   0.256   2.004   1.747
 7012SOL    HW221936   0.181   1.885   1.829
 7013SOL     OW21937   0.413   0.294   0.390
 7013SOL    HW121938   0.405   0.356   0.312
 7013SOL    HW221939   0.504   0.253   0.391
 7014SOL     OW21940   4.290   3.360   0.937
 7014SOL    HW121941   4.356   3.343   1.010
 7014SOL    HW221942   4.271   3.275   0.888
 7015SOL     OW21943   6.498   4.428   1.730
 7015SOL    HW121944   6.453   4.488   1.663
 7015SOL    HW221945   6.439   4.349   1.748
 7016SOL     OW21946   3.175   4.805   1.399
 7016SOL    HW121947   3.185   4.880   1.464
 7016SOL    HW221948   3.200   4.719   1.444
 7017SOL     OW21949   2.335   5.041   3.007
 7017SOL    HW121950   2.341   5.098   2.926
 7017SOL    HW221951   2.256   4.980   3.000
 7018SOL     OW21952   5.660   3.260   3.922
 7018SOL    HW121953   5.706   3.345   3.948
 7018SOL    HW221954   5.679   3.189   3.990
 7019SOL     OW21955   3.870   4.259   0.215
 7019SOL    HW121956   3.781   4.266   0.170
 7019SOL    HW221957   3.928   4.195   0.164
 7020SOL     OW21958   6.686   4.994   6.533
 7020SOL    HW121959   6.670   5.040   6.621
 7020SOL    HW221960   6.784   4.980   6.520
 7021SOL     OW21961   1.445   2.049   5.996
 7021SOL    HW121962   1.440   2.035   6.095
 7021SOL    HW221963   1.382   2.122   5.969
 7022SOL     OW21964   4.715   6.687   5.631
 7022SOL    HW121965   4.740   6.775   5.592
 7022SOL    HW221966   4.674   6.629   5.560
 7023SOL     OW21967   6.782   2.411   3.599
 7023SOL    HW121968   6.833   2.496   3.613
 7023SOL    HW221969   6.826   2.337   3.649
 7024SOL     OW21970   2.924   3.885   5.253
 7024SOL    HW121971   2.848   3.917   5.310
 7024SOL    HW221972   2.895   3.880   5.158
 7025SOL     OW21973   3.216   0.778   0.679
 7025SOL    HW121974   3.311   0.772   0.650
 7025SOL    HW221975   3.198   0.869   0.717
 7026SOL     OW21976   3.254   1.836   2.212
 7026SOL    HW121977   3.301   1.801   2.131
 7026SOL    HW221978   3.287   1.928   2.233
 7027SOL     OW21979   2.642   5.629   4.209
 7027SOL    HW121980   2.590   5.546   4.187
 7027SOL    HW221981   2.643   5.643   4.308
 7028SOL     OW21982   3.224   2.114   4.106
 7028SOL    HW121983   3.240   2.107   4.205
 7028SOL    HW221984   3.131   2.083   4.085
 7029SOL     OW21985   5.012   4.954   5.105
 7029SOL    HW121986   5.044   5.040   5.064
 7029SOL    HW221987   5.089   4.890   5.112
 7030SOL     OW21988   1.157   0.493   4.848
 7030SOL    HW121989   1.138   0.591   4.855
 7030SOL    HW221990   1.087   0.442   4.899
 7031SOL     OW21991   3.491   5.813   5.667
 7031SOL    HW121992   3.477   5.810   5.568
 7031SOL    HW221993   3.554   5.887   5.690
 7032SOL     OW21994   3.862   1.468   3.898
 7032SOL    HW121995   3.801   1.392   3.873
 7032SOL    HW221996   3.909   1.500   3.816
 7033SOL     OW21997   1.568   2.113   3.443
 7033SOL    HW121998   1.511   2.192   3.421
 7033SOL    HW221999   1.590   2.114   3.541
 7034SOL     OW22000   6.622   0.492   3.495
 7034SOL    HW122001   6.523   0.492   3.476
 7034SOL    HW222002   6.642   0.427   3.567
 7035SOL     OW22003   1.380   6.752   0.776
 7035SOL    HW122004   1.431   6.833   0.803
 7035SOL    HW222005   1.436   6.670   0.793
 7036SOL     OW22006   6.950   0.229   2.991
 7036SOL    HW122007   6.989   0.173   2.918
 7036SOL    HW222008   6.988   0.200   3.079
 7037SOL     OW22009   1.547   1.138   6.532
 7037SOL    HW122010   1.556   1.173   6.626
 7037SOL    HW222011   1.563   1.213   6.468
 7038SOL     OW22012   2.440   3.153   5.414
 7038SOL    HW122013   2.458   3.093   5.336
 7038SOL    HW222014   2.345   3.185   5.410
 7039SOL     OW22015   2.141   5.291   2.130
 7039SOL    HW122016   2.145   5.350   2.210
 7039SOL    HW222017   2.192   5.207   2.148
 7040SOL     OW22018   5.634   2.189   5.923
 7040SOL    HW122019   5.661   2.094   5.910
 7040SOL    HW222020   5.534   2.194   5.933
 7041SOL     OW22021   6.247   1.182   1.687
 7041SOL    HW122022   6.322   1.128   1.650
 7041SOL    HW222023   6.223   1.255   1.623
 7042SOL     OW22024   4.498   4.903   5.262
 7042SOL    HW122025   4.574   4.841   5.284
 7042SOL    HW222026   4.418   4.848   5.235
 7043SOL     OW22027   2.451   4.445   2.602
 7043SOL    HW122028   2.486   4.516   2.664
 7043SOL    HW222029   2.405   4.374   2.655
 7044SOL     OW22030   5.482   4.941   4.512
 7044SOL    HW122031   5.562   4.896   4.553
 7044SOL    HW222032   5.403   4.931   4.573
 7045SOL     OW22033   5.067   5.553   3.408
 7045SOL    HW122034   4.995   5.488   3.383
 7045SOL    HW222035   5.067   5.565   3.507
 7046SOL     OW22036   2.893   1.078   3.360
 7046SOL    HW122037   2.921   0.995   3.310
 7046SOL    HW222038   2.794   1.086   3.358
 7047SOL     OW22039   6.158   1.211   2.394
 7047SOL    HW122040   6.095   1.142   2.428
 7047SOL    HW222041   6.205   1.254   2.472
 7048SOL     OW22042   5.348   0.161   3.488
 7048SOL    HW122043   5.323   0.163   3.391
 7048SOL    HW222044   5.356   0.255   3.522
 7049SOL     OW22045   3.430   1.705   0.684
 7049SOL    HW122046   3.523   1.683   0.710
 7049SOL    HW222047   3.425   1.719   0.585
 7050SOL     OW22048   4.219   3.613   1.777
 7050SOL    HW122049   4.193   3.572   1.865
 7050SOL    HW222050   4.314   3.590   1.757
 7051SOL     OW22051   6.145   6.477   0.960
 7051SOL    HW122052   6.242   6.499   0.971
 7051SOL    HW222053   6.103   6.464   1.050
 7052SOL     OW22054   5.728   1.657   3.453
 7052SOL    HW122055   5.789   1.737   3.453
 7052SOL    HW222056   5.700   1.637   3.359
 7053SOL     OW22057   1.704   3.008   5.401
 7053SOL    HW122058   1.729   3.088   5.454
 7053SOL    HW222059   1.614   2.975   5.431
 7054SOL     OW22060   6.798   6.921   0.331
 7054SOL    HW122061   6.828   6.832   0.366
 7054SOL    HW222062   6.823   6.992   0.397
 7055SOL     OW22063   2.853   6.801   6.202
 7055SOL    HW122064   2.800   6.825   6.283
 7055SOL    HW222065   2.797   6.745   6.141
 7056SOL     OW22066   0.259   4.323   1.536
 7056SOL    HW122067   0.276   4.225   1.539
 7056SOL    HW222068   0.272   4.362   1.628
 7057SOL     OW22069   2.547   4.538   4.126
 7057SOL    HW122070   2.523   4.584   4.041
 7057SOL    HW222071   2.622   4.587   4.171
 7058SOL     OW22072   5.681   4.400   5.338
 7058SOL    HW122073   5.714   4.357   5.253
 7058SOL    HW222074   5.597   4.356   5.368
 7059SOL     OW22075   0.521   1.532   3.693
 7059SOL    HW122076   0.492   1.506   3.785
 7059SOL    HW222077   0.546   1.450   3.642
 7060SOL     OW22078   3.564   0.216   1.543
 7060SOL    HW122079   3.592   0.210   1.639
 7060SOL    HW222080   3.582   0.130   1.497
 7061SOL     OW22081   0.200   3.321   3.682
 7061SOL    HW122082   0.181   3.398   3.742
 7061SOL    HW222083   0.115   3.272   3.662
 7062SOL     OW22084   3.887   1.218   5.797
 7062SOL    HW122085   3.961   1.259   5.851
 7062SOL    HW222086   3.886   1.258   5.706
 7063SOL     OW22087   1.378   6.851   2.260
 7063SOL    HW122088   1.377   6.795   2.342
 7063SOL    HW222089   1.366   6.947   2.285
 7064SOL     OW22090   4.028   1.887   0.351
 7064SOL    HW122091   4.062   1.948   0.280
 7064SOL    HW222092   3.951   1.930   0.399
 7065SOL     OW22093   5.265   3.677   6.082
 7065SOL    HW122094   5.325   3.605   6.117
 7065SOL    HW222095   5.197   3.636   6.021
 7066SOL     OW22096   4.602   0.037   0.028
 7066SOL    HW122097   4.582   0.089   0.111
 7066SOL    HW222098   4.518   0.030   6.991
 7067SOL     OW22099   1.671   2.972   5.812
 7067SOL    HW122100   1.585   2.960   5.762
 7067SOL    HW222101   1.706   3.065   5.796
 7068SOL     OW22102   6.455   4.690   4.675
 7068SOL    HW122103   6.535   4.674   4.617
 7068SOL    HW222104   6.454   4.622   4.749
 7069SOL     OW22105   5.662   2.361   4.457
 7069SOL    HW122106   5.603   2.390   4.382
 7069SOL    HW222107   5.709   2.276   4.433
 7070SOL     OW22108   0.236   6.989   4.831
 7070SOL    HW122109   0.290   0.031   4.771
 7070SOL    HW222110   0.193   0.027   4.902
 7071SOL     OW22111   3.452   5.777   5.397
 7071SOL    HW122112   3.477   5.859   5.345
 7071SOL    HW222113   3.454   5.697   5.337
 7072SOL     OW22114   1.191   6.278   0.206
 7072SOL    HW122115   1.181   6.272   0.106
 7072SOL    HW222116   1.117   6.333   0.243
 7073SOL     OW22117   5.518   0.091   3.784
 7073SOL    HW122118   5.512   0.012   3.723
 7073SOL    HW222119   5.612   0.122   3.790
 7074SOL     OW22120   5.536   2.643   2.013
 7074SOL    HW122121   5.500   2.562   1.967
 7074SOL    HW222122   5.601   2.616   2.084
 7075SOL     OW22123   2.172   4.501   5.024
 7075SOL    HW122124   2.124   4.588   5.030
 7075SOL    HW222125   2.105   4.427   5.015
 7076SOL     OW22126   5.613   2.877   6.722
 7076SOL    HW122127   5.568   2.805   6.775
 7076SOL    HW222128   5.712   2.873   6.736
 7077SOL     OW22129   2.082   4.743   3.683
 7077SOL    HW122130   1.993   4.713   3.649
 7077SOL    HW222131   2.126   4.668   3.732
 7078SOL     OW22132   6.416   6.531   2.024
 7078SOL    HW122133   6.347   6.462   2.041
 7078SOL    HW222134   6.452   6.565   2.111
 7079SOL     OW22135   0.223   6.320   4.657
 7079SOL    HW122136   0.248   6.323   4.560
 7079SOL    HW222137   0.170   6.401   4.680
 7080SOL     OW22138   3.727   0.981   5.024
 7080SOL    HW122139   3.674   0.935   5.095
 7080SOL    HW222140   3.736   1.078   5.047
 7081SOL     OW22141   1.765   6.209   6.978
 7081SOL    HW122142   1.726   6.150   0.032
 7081SOL    HW222143   1.731   6.302   6.990
 7082SOL     OW22144   6.652   4.496   0.024
 7082SOL    HW122145   6.689   4.453   0.107
 7082SOL    HW222146   6.717   4.488   6.967
 7083SOL     OW22147   1.343   0.149   1.384
 7083SOL    HW122148   1.443   0.153   1.394
 7083SOL    HW222149   1.319   0.154   1.287
 7084SOL     OW22150   0.503   5.164   5.153
 7084SOL    HW122151   0.463   5.087   5.104
 7084SOL    HW222152   0.430   5.223   5.187
 7085SOL     OW22153   0.630   1.341   2.339
 7085SOL    HW122154   0.621   1.260   2.281
 7085SOL    HW222155   0.544   1.357   2.387
 7086SOL     OW22156   6.118   0.048   6.007
 7086SOL    HW122157   6.044   7.005   5.978
 7086SOL    HW222158   6.139   0.031   6.104
 7087SOL     OW22159   6.147   3.862   3.919
 7087SOL    HW122160   6.225   3.851   3.981
 7087SOL    HW222161   6.175   3.919   3.841
 7088SOL     OW22162   4.996   2.884   4.169
 7088SOL    HW122163   5.047   2.858   4.250
 7088SOL    HW222164   5.040   2.962   4.125
 7089SOL     OW22165   2.627   2.389   4.677
 7089SOL    HW122166   2.561   2.401   4.603
 7089SOL    HW222167   2.719   2.406   4.642
 7090SOL     OW22168   1.924   0.783   6.759
 7090SOL    HW122169   1.996   0.843   6.795
 7090SOL    HW222170   1.959   0.690   6.752
 7091SOL     OW22171   0.306   2.165   1.160
 7091SOL    HW122172   0.230   2.187   1.220
 7091SOL    HW222173   0.371   2.241   1.159
 7092SOL     OW22174   4.077   3.023   5.607
 7092SOL    HW122175   4.032   3.112   5.621
 7092SOL    HW222176   4.062   2.992   5.514
 7093SOL     OW22177   3.716   3.679   2.120
 7093SOL    HW122178   3.712   3.661   2.022
 7093SOL    HW222179   3.711   3.777   2.136
 7094SOL     OW22180   6.974   6.138   5.700
 7094SOL    HW122181   0.001   6.154   5.612
 7094SOL    HW222182   7.002   6.049   5.736
 7095SOL     OW22183   3.754   4.540   5.704
 7095SOL    HW122184   3.812   4.460   5.720
 7095SOL    HW222185   3.712   4.533   5.613
 7096SOL     OW22186   6.533   1.213   2.656
 7096SOL    HW122187   6.599   1.165   2.598
 7096SOL    HW222188   6.580   1.287   2.704
 7097SOL     OW22189   4.705   1.324   1.420
 7097SOL    HW122190   4.676   1.258   1.351
 7097SOL    HW222191   4.652   1.408   1.410
 7098SOL     OW22192   2.264   5.344   5.572
 7098SOL    HW122193   2.308   5.390   5.495
 7098SOL    HW222194   2.172   5.381   5.584
 7099SOL     OW22195   3.611   1.227   5.384
 7099SOL    HW122196   3.648   1.243   5.293
 7099SOL    HW222197   3.658   1.151   5.428
 7100SOL     OW22198   6.878   3.556   0.033
 7100SOL    HW122199   6.809   3.485   0.045
 7100SOL    HW222200   6.876   3.619   0.110
 7101SOL     OW22201   2.516   1.858   5.509
 7101SOL    HW122202   2.604   1.876   5.465
 7101SOL    HW222203   2.457   1.939   5.499
 7102SOL     OW22204   5.056   0.074   1.003
 7102SOL    HW122205   5.029   7.000   0.970
 7102SOL    HW222206   5.152   0.073   1.030
 7103SOL     OW22207   5.480   5.241   2.142
 7103SOL    HW122208   5.498   5.248   2.044
 7103SOL    HW222209   5.384   5.259   2.160
 7104SOL     OW22210   6.664   3.941   2.951
 7104SOL    HW122211   6.600   3.901   3.016
 7104SOL    HW222212   6.613   3.984   2.876
 7105SOL     OW22213   2.807   3.347   5.291
 7105SOL    HW122214   2.906   3.355   5.298
 7105SOL    HW222215   2.782   3.250   5.281
 7106SOL     OW22216   3.668   3.442   1.853
 7106SOL    HW122217   3.690   3.385   1.774
 7106SOL    HW222218   3.734   3.518   1.858
 7107SOL     OW22219   5.071   0.840   0.756
 7107SOL    HW122220   5.077   0.880   0.665
 7107SOL    HW222221   4.978   0.805   0.772
 7108SOL     OW22222   3.053   6.103   2.738
 7108SOL    HW122223   3.097   6.086   2.650
 7108SOL    HW222224   2.962   6.143   2.722
 7109SOL     OW22225   2.088   6.907   5.806
 7109SOL    HW122226   2.086   6.929   5.903
 7109SOL    HW222227   2.171   6.855   5.786
 7110SOL     OW22228   2.457   5.886   4.343
 7110SOL    HW122229   2.423   5.871   4.250
 7110SOL    HW222230   2.556   5.901   4.340
 7111SOL     OW22231   0.880   2.814   5.084
 7111SOL    HW122232   0.814   2.781   5.017
 7111SOL    HW222233   0.919   2.901   5.052
 7112SOL     OW22234   2.215   5.024   4.710
 7112SOL    HW122235   2.130   5.022   4.762
 7112SOL    HW222236   2.276   5.093   4.749
 7113SOL     OW22237   3.342   3.990   4.606
 7113SOL    HW122238   3.247   3.958   4.597
 7113SOL    HW222239   3.376   4.020   4.517
 7114SOL     OW22240   5.423   5.534   0.443
 7114SOL    HW122241   5.444   5.451   0.495
 7114SOL    HW222242   5.382   5.602   0.504
 7115SOL     OW22243   5.308   2.919   6.938
 7115SOL    HW122244   5.216   2.904   6.974
 7115SOL    HW222245   5.368   2.844   6.967
 7116SOL     OW22246   5.868   4.806   3.277
 7116SOL    HW122247   5.922   4.753   3.342
 7116SOL    HW222248   5.806   4.744   3.228
 7117SOL     OW22249   0.847   6.514   4.578
 7117SOL    HW122250   0.932   6.495   4.530
 7117SOL    HW222251   0.776   6.450   4.548
 7118SOL     OW22252   2.899   5.098   6.413
 7118SOL    HW122253   2.879   5.037   6.337
 7118SOL    HW222254   2.833   5.174   6.413
 7119SOL     OW22255   4.868   1.489   4.085
 7119SOL    HW122256   4.774   1.464   4.064
 7119SOL    HW222257   4.869   1.566   4.149
 7120SOL     OW22258   3.341   2.062   1.861
 7120SOL    HW122259   3.252   2.095   1.893
 7120SOL    HW222260   3.398   2.037   1.939
 7121SOL     OW22261   0.374   6.975   3.751
 7121SOL    HW122262   0.469   6.946   3.767
 7121SOL    HW222263   0.375   0.043   3.699
 7122SOL     OW22264   1.737   0.903   6.021
 7122SOL    HW122265   1.766   0.886   6.115
 7122SOL    HW222266   1.746   1.001   6.000
 7123SOL     OW22267   1.298   4.577   3.598
 7123SOL    HW122268   1.306   4.625   3.685
 7123SOL    HW222269   1.386   4.576   3.551
 7124SOL     OW22270   0.012   1.607   1.534
 7124SOL    HW122271   0.108   1.587   1.555
 7124SOL    HW222272   0.002   1.619   1.435
 7125SOL     OW22273   0.684   0.159   0.923
 7125SOL    HW122274   0.763   0.100   0.908
 7125SOL    HW222275   0.715   0.245   0.965
 7126SOL     OW22276   3.441   5.127   0.194
 7126SOL    HW122277   3.528   5.128   0.244
 7126SOL    HW222278   3.381   5.199   0.229
 7127SOL     OW22279   2.013   5.552   6.339
 7127SOL    HW122280   2.075   5.476   6.322
 7127SOL    HW222281   1.919   5.518   6.342
 7128SOL     OW22282   3.049   4.258   6.626
 7128SOL    HW122283   2.952   4.257   6.648
 7128SOL    HW222284   3.065   4.206   6.542
 7129SOL     OW22285   2.379   1.155   0.332
 7129SOL    HW122286   2.356   1.089   0.403
 7129SOL    HW222287   2.369   1.248   0.368
 7130SOL     OW22288   3.538   5.775   4.273
 7130SOL    HW122289   3.560   5.870   4.251
 7130SOL    HW222290   3.538   5.720   4.190
 7131SOL     OW22291   2.465   0.861   1.522
 7131SOL    HW122292   2.551   0.849   1.572
 7131SOL    HW222293   2.435   0.956   1.530
 7132SOL     OW22294   3.503   3.873   0.591
 7132SOL    HW122295   3.489   3.779   0.558
 7132SOL    HW222296   3.599   3.885   0.616
 7133SOL     OW22297   4.606   5.106   5.401
 7133SOL    HW122298   4.617   5.060   5.489
 7133SOL    HW222299   4.577   5.039   5.332
 7134SOL     OW22300   4.590   6.875   1.537
 7134SOL    HW122301   4.575   6.944   1.607
 7134SOL    HW222302   4.502   6.843   1.501
 7135SOL     OW22303   1.304   2.573   3.406
 7135SOL    HW122304   1.288   2.645   3.475
 7135SOL    HW222305   1.382   2.599   3.349
 7136SOL     OW22306   2.688   1.390   0.058
 7136SOL    HW122307   2.770   1.400   0.115
 7136SOL    HW222308   2.709   1.418   6.981
 7137SOL     OW22309   3.005   1.142   0.206
 7137SOL    HW122310   2.912   1.160   0.237
 7137SOL    HW222311   3.010   1.049   0.170
 7138SOL     OW22312   2.520   2.148   0.310
 7138SOL    HW122313   2.585   2.111   0.376
 7138SOL    HW222314   2.438   2.092   0.308
 7139SOL     OW22315   5.731   4.690   1.545
 7139SOL    HW122316   5.696   4.650   1.460
 7139SOL    HW222317   5.692   4.641   1.623
 7140SOL     OW22318   6.839   4.169   1.709
 7140SOL    HW122319   6.867   4.248   1.655
 7140SOL    HW222320   6.908   4.152   1.780
 7141SOL     OW22321   3.835   6.344   0.891
 7141SOL    HW122322   3.820   6.273   0.959
 7141SOL    HW222323   3.806   6.433   0.928
 7142SOL     OW22324   4.170   6.434   3.226
 7142SOL    HW122325   4.189   6.531   3.241
 7142SOL    HW222326   4.075   6.415   3.253
 7143SOL     OW22327   1.624   2.857   6.561
 7143SOL    HW122328   1.672   2.774   6.534
 7143SOL    HW222329   1.579   2.897   6.482
 7144SOL     OW22330   1.739   1.973   2.637
 7144SOL    HW122331   1.659   1.968   2.576
 7144SOL    HW222332   1.715   2.027   2.718
 7145SOL     OW22333   3.901   0.197   6.478
 7145SOL    HW122334   3.971   0.144   6.525
 7145SOL    HW222335   3.891   0.163   6.384
 7146SOL     OW22336   1.760   6.829   6.552
 7146SOL    HW122337   1.848   6.784   6.535
 7146SOL    HW222338   1.698   6.765   6.596
 7147SOL     OW22339   6.765   6.590   2.940
 7147SOL    HW122340   6.722   6.583   3.030
 7147SOL    HW222341   6.777   6.499   2.901
 7148SOL     OW22342   6.531   6.309   1.295
 7148SOL    HW122343   6.563   6.398   1.263
 7148SOL    HW222344   6.438   6.317   1.331
 7149SOL     OW22345   0.268   6.217   4.101
 7149SOL    HW122346   0.266   6.185   4.007
 7149SOL    HW222347   0.267   6.138   4.163
 7150SOL     OW22348   3.618   3.250   0.583
 7150SOL    HW122349   3.539   3.308   0.563
 7150SOL    HW222350   3.587   3.155   0.594
 7151SOL     OW22351   3.260   6.544   0.439
 7151SOL    HW122352   3.256   6.636   0.399
 7151SOL    HW222353   3.194   6.537   0.514
 7152SOL     OW22354   6.726   0.741   4.958
 7152SOL    HW122355   6.714   0.801   4.879
 7152SOL    HW222356   6.637   0.711   4.991
 7153SOL     OW22357   3.942   5.065   1.147
 7153SOL    HW122358   3.904   5.006   1.077
 7153SOL    HW222359   3.869   5.112   1.196
 7154SOL     OW22360   4.974   6.514   3.235
 7154SOL    HW122361   4.995   6.510   3.137
 7154SOL    HW222362   4.930   6.601   3.255
 7155SOL     OW22363   2.898   2.970   0.983
 7155SOL    HW122364   2.997   2.962   0.990
 7155SOL    HW222365   2.861   2.892   0.932
 7156SOL     OW22366   6.867   3.215   3.039
 7156SOL    HW122367   6.843   3.261   2.953
 7156SOL    HW222368   6.865   3.281   3.113
 7157SOL     OW22369   0.559   4.096   1.311
 7157SOL    HW122370   0.536   4.025   1.378
 7157SOL    HW222371   0.634   4.152   1.345
 7158SOL     OW22372   0.997   0.338   4.558
 7158SOL    HW122373   0.904   0.305   4.572
 7158SOL    HW222374   1.060   0.284   4.612
 7159SOL     OW22375   0.815   4.739   4.118
 7159SOL    HW122376   0.767   4.687   4.189
 7159SOL    HW222377   0.765   4.823   4.098
 7160SOL     OW22378   5.792   0.164   2.443
 7160SOL    HW122379   5.747   0.253   2.432
 7160SOL    HW222380   5.876   0.163   2.389
 7161SOL     OW22381   3.049   3.889   3.068
 7161SOL    HW122382   3.012   3.800   3.042
 7161SOL    HW222383   3.076   3.939   2.986
 7162SOL     OW22384   1.296   5.293   6.228
 7162SOL    HW122385   1.244   5.273   6.145
 7162SOL    HW222386   1.232   5.301   6.305
 7163SOL     OW22387   2.576   0.053   2.760
 7163SOL    HW122388   2.478   0.039   2.776
 7163SOL    HW222389   2.603   0.005   2.676
 7164SOL     OW22390   3.164   0.258   4.740
 7164SOL    HW122391   3.075   0.260   4.695
 7164SOL    HW222392   3.212   0.344   4.722
 7165SOL     OW22393   6.223   6.675   2.311
 7165SOL    HW122394   6.145   6.614   2.297
 7165SOL    HW222395   6.292   6.629   2.368
 7166SOL     OW22396   4.730   1.769   1.068
 7166SOL    HW122397   4.631   1.760   1.080
 7166SOL    HW222398   4.767   1.826   1.141
 7167SOL     OW22399   5.125   3.085   4.534
 7167SOL    HW122400   5.039   3.105   4.582
 7167SOL    HW222401   5.147   3.161   4.472
 7168SOL     OW22402   2.031   2.556   3.105
 7168SOL    HW122403   2.124   2.535   3.074
 7168SOL    HW222404   1.966   2.506   3.049
 7169SOL     OW22405   6.959   3.935   5.656
 7169SOL    HW122406   0.025   3.880   5.655
 7169SOL    HW222407   6.882   3.878   5.682
 7170SOL     OW22408   4.623   6.707   2.246
 7170SOL    HW122409   4.560   6.700   2.323
 7170SOL    HW222410   4.606   6.791   2.196
 7171SOL     OW22411   6.427   4.195   0.126
 7171SOL    HW122412   6.456   4.152   0.212
 7171SOL    HW222413   6.345   4.149   0.092
 7172SOL     OW22414   2.024   0.061   5.036
 7172SOL    HW122415   2.021   0.084   5.133
 7172SOL    HW222416   2.054   6.984   5.025
 7173SOL     OW22417   6.371   4.440   0.013
 7173SOL    HW122418   6.454   4.487   0.044
 7173SOL    HW222419   6.375   4.344   0.040
 7174SOL     OW22420   1.351   3.760   0.628
 7174SOL    HW122421   1.423   3.783   0.562
 7174SOL    HW222422   1.262   3.780   0.588
 7175SOL     OW22423   5.942   2.918   5.262
 7175SOL    HW122424   5.923   2.898   5.166
 7175SOL    HW222425   5.977   3.012   5.270
 7176SOL     OW22426   6.978   1.341   3.336
 7176SOL    HW122427   6.968   1.404   3.259
 7176SOL    HW222428   6.997   1.393   3.419
 7177SOL     OW22429   0.977   4.402   4.991
 7177SOL    HW122430   0.931   4.356   4.915
 7177SOL    HW222431   1.000   4.335   5.061
 7178SOL     OW22432   6.524   1.468   5.527
 7178SOL    HW122433   6.609   1.486   5.478
 7178SOL    HW222434   6.538   1.482   5.625
 7179SOL     OW22435   1.975   3.562   4.717
 7179SOL    HW122436   1.956   3.660   4.710
 7179SOL    HW222437   2.065   3.549   4.760
 7180SOL     OW22438   2.288   5.221   0.013
 7180SOL    HW122439   2.316   5.267   6.946
 7180SOL    HW222440   2.250   5.287   0.077
 7181SOL     OW22441   1.891   0.537   0.123
 7181SOL    HW122442   1.854   0.447   0.097
 7181SOL    HW222443   1.831   0.608   0.086
 7182SOL     OW22444   7.004   3.552   4.374
 7182SOL    HW122445   0.026   3.592   4.292
 7182SOL    HW222446   6.936   3.614   4.413
 7183SOL     OW22447   1.626   5.915   1.448
 7183SOL    HW122448   1.692   5.839   1.448
 7183SOL    HW222449   1.560   5.902   1.522
 7184SOL     OW22450   6.620   0.989   4.192
 7184SOL    HW122451   6.552   1.027   4.129
 7184SOL    HW222452   6.591   0.897   4.220
 7185SOL     OW22453   5.655   0.978   5.134
 7185SOL    HW122454   5.638   1.069   5.096
 7185SOL    HW222455   5.745   0.977   5.178
 7186SOL     OW22456   6.426   1.883   1.874
 7186SOL    HW122457   6.434   1.874   1.973
 7186SOL    HW222458   6.359   1.953   1.852
 7187SOL     OW22459   3.091   4.081   5.322
 7187SOL    HW122460   3.025   4.023   5.273
 7187SOL    HW222461   3.154   4.023   5.373
 7188SOL     OW22462   5.045   6.544   6.870
 7188SOL    HW122463   5.009   6.508   6.783
 7188SOL    HW222464   5.113   6.614   6.851
 7189SOL     OW22465   6.212   1.460   5.148
 7189SOL    HW122466   6.296   1.406   5.136
 7189SOL    HW222467   6.150   1.409   5.208
 7190SOL     OW22468   6.851   5.088   1.574
 7190SOL    HW122469   6.816   5.007   1.622
 7190SOL    HW222470   6.786   5.113   1.502
 7191SOL     OW22471   1.504   4.561   2.606
 7191SOL    HW122472   1.514   4.602   2.697
 7191SOL    HW222473   1.547   4.619   2.538
 7192SOL     OW22474   2.100   4.286   5.733
 7192SOL    HW122475   2.150   4.200   5.737
 7192SOL    HW222476   2.064   4.299   5.641
 7193SOL     OW22477   1.491   2.443   2.341
 7193SOL    HW122478   1.459   2.514   2.279
 7193SOL    HW222479   1.539   2.372   2.289
 7194SOL     OW22480   1.957   2.661   0.767
 7194SOL    HW122481   2.017   2.665   0.847
 7194SOL    HW222482   1.900   2.744   0.765
 7195SOL     OW22483   0.864   4.236   6.798
 7195SOL    HW122484   0.820   4.169   6.739
 7195SOL    HW222485   0.958   4.209   6.817
 7196SOL     OW22486   2.134   3.630   1.740
 7196SOL    HW122487   2.178   3.597   1.656
 7196SOL    HW222488   2.194   3.612   1.818
 7197SOL     OW22489   0.365   2.857   5.378
 7197SOL    HW122490   0.380   2.769   5.422
 7197SOL    HW222491   0.453   2.894   5.347
 7198SOL     OW22492   0.737   0.768   0.444
 7198SOL    HW122493   0.781   0.790   0.531
 7198SOL    HW222494   0.671   0.694   0.458
 7199SOL     OW22495   1.434   0.031   2.032
 7199SOL    HW122496   1.435   6.949   2.042
 7199SOL    HW222497   1.390   0.073   2.111
 7200SOL     OW22498   2.114   2.813   7.007
 7200SOL    HW122499   2.061   2.809   6.922
 7200SOL    HW222500   2.209   2.789   6.987
 7201SOL     OW22501   1.032   6.269   4.060
 7201SOL    HW122502   1.055   6.266   4.157
 7201SOL    HW222503   0.990   6.182   4.033
 7202SOL     OW22504   5.225   6.713   0.278
 7202SOL    HW122505   5.325   6.706   0.285
 7202SOL    HW222506   5.194   6.670   0.194
 7203SOL     OW22507   6.978   1.105   0.883
 7203SOL    HW122508   6.982   1.073   0.977
 7203SOL    HW222509   6.962   1.204   0.881
 7204SOL     OW22510   0.573   0.556   6.159
 7204SOL    HW122511   0.491   0.599   6.197
 7204SOL    HW222512   0.546   0.479   6.101
 7205SOL     OW22513   1.622   3.857   4.733
 7205SOL    HW122514   1.536   3.826   4.773
 7205SOL    HW222515   1.671   3.912   4.800
 7206SOL     OW22516   1.364   0.129   2.275
 7206SOL    HW122517   1.432   0.187   2.320
 7206SOL    HW222518   1.276   0.139   2.321
 7207SOL     OW22519   3.075   0.367   3.550
 7207SOL    HW122520   3.032   0.441   3.498
 7207SOL    HW222521   3.157   0.336   3.502
 7208SOL     OW22522   4.039   6.999   3.802
 7208SOL    HW122523   4.113   0.046   3.822
 7208SOL    HW222524   3.952   0.021   3.831
 7209SOL     OW22525   2.611   3.115   1.703
 7209SOL    HW122526   2.690   3.064   1.736
 7209SOL    HW222527   2.634   3.212   1.694
 7210SOL     OW22528   4.152   0.923   2.787
 7210SOL    HW122529   4.060   0.948   2.816
 7210SOL    HW222530   4.185   0.846   2.841
 7211SOL     OW22531   1.381   6.543   4.603
 7211SOL    HW122532   1.384   6.484   4.523
 7211SOL    HW222533   1.457   6.607   4.601
 7212SOL     OW22534   0.173   6.161   5.080
 7212SOL    HW122535   0.221   6.245   5.107
 7212SOL    HW222536   0.179   6.094   5.154
 7213SOL     OW22537   3.777   5.997   6.479
 7213SOL    HW122538   3.850   5.929   6.469
 7213SOL    HW222539   3.739   5.991   6.572
 7214SOL     OW22540   0.018   0.206   4.420
 7214SOL    HW122541   0.054   0.113   4.415
 7214SOL    HW222542   6.946   0.205   4.466
 7215SOL     OW22543   6.942   3.196   3.622
 7215SOL    HW122544   6.880   3.163   3.694
 7215SOL    HW222545   6.905   3.172   3.532
 7216SOL     OW22546   3.066   0.298   0.603
 7216SOL    HW122547   3.099   0.298   0.697
 7216SOL    HW222548   3.142   0.315   0.540
 7217SOL     OW22549   1.861   4.009   3.443
 7217SOL    HW122550   1.841   3.912   3.450
 7217SOL    HW222551   1.953   4.022   3.405
 7218SOL     OW22552   6.342   2.524   4.396
 7218SOL    HW122553   6.282   2.488   4.324
 7218SOL    HW222554   6.340   2.463   4.475
 7219SOL     OW22555   3.954   6.972   2.972
 7219SOL    HW122556   3.943   6.957   3.071
 7219SOL    HW222557   3.872   7.016   2.936
 7220SOL     OW22558   6.941   4.158   4.668
 7220SOL    HW122559   6.931   4.165   4.568
 7220SOL    HW222560   6.947   4.061   4.693
 7221SOL     OW22561   3.398   5.745   4.553
 7221SOL    HW122562   3.450   5.705   4.477
 7221SOL    HW222563   3.317   5.690   4.570
 7222SOL     OW22564   6.142   6.971   3.044
 7222SOL    HW122565   6.201   6.898   3.078
 7222SOL    HW222566   6.189   0.041   3.055
 7223SOL     OW22567   3.357   1.323   0.803
 7223SOL    HW122568   3.352   1.353   0.899
 7223SOL    HW222569   3.264   1.307   0.769
 7224SOL     OW22570   5.454   2.073   4.124
 7224SOL    HW122571   5.410   2.114   4.204
 7224SOL    HW222572   5.546   2.111   4.113
 7225SOL     OW22573   1.096   6.084   0.867
 7225SOL    HW122574   1.055   6.137   0.792
 7225SOL    HW222575   1.195   6.084   0.856
 7226SOL     OW22576   5.854   0.630   2.077
 7226SOL    HW122577   5.874   0.726   2.096
 7226SOL    HW222578   5.898   0.573   2.146
 7227SOL     OW22579   2.990   1.966   0.838
 7227SOL    HW122580   2.963   2.017   0.919
 7227SOL    HW222581   3.080   1.926   0.852
 7228SOL     OW22582   0.957   2.136   2.584
 7228SOL    HW122583   0.964   2.232   2.609
 7228SOL    HW222584   0.874   2.096   2.624
 7229SOL     OW22585   0.906   5.951   5.726
 7229SOL    HW122586   1.003   5.948   5.749
 7229SOL    HW222587   0.892   5.917   5.633
 7230SOL     OW22588   3.387   5.030   5.395
 7230SOL    HW122589   3.326   5.109   5.385
 7230SOL    HW222590   3.398   4.986   5.306
 7231SOL     OW22591   4.093   0.511   6.694
 7231SOL    HW122592   4.120   0.430   6.642
 7231SOL    HW222593   4.092   0.591   6.633
 7232SOL     OW22594   5.024   5.681   2.923
 7232SOL    HW122595   5.043   5.631   2.838
 7232SOL    HW222596   4.933   5.656   2.956
 7233SOL     OW22597   1.146   1.507   3.644
 7233SOL    HW122598   1.222   1.499   3.708
 7233SOL    HW222599   1.145   1.428   3.583
 7234SOL     OW22600   5.284   2.312   3.686
 7234SOL    HW122601   5.196   2.314   3.732
 7234SOL    HW222602   5.345   2.248   3.732
 7235SOL     OW22603   0.275   5.080   2.950
 7235SOL    HW122604   0.350   5.127   2.904
 7235SOL    HW222605   0.232   5.015   2.887
 7236SOL     OW22606   2.700   1.873   1.754
 7236SOL    HW122607   2.699   1.883   1.853
 7236SOL    HW222608   2.788   1.905   1.718
 7237SOL     OW22609   3.880   0.031   4.740
 7237SOL    HW122610   3.782   0.018   4.723
 7237SOL    HW222611   3.916   6.969   4.788
 7238SOL     OW22612   4.345   1.322   7.015
 7238SOL    HW122613   4.346   1.291   0.093
 7238SOL    HW222614   4.295   1.409   7.009
 7239SOL     OW22615   1.032   2.042   2.311
 7239SOL    HW122616   1.132   2.043   2.313
 7239SOL    HW222617   0.997   2.042   2.405
 7240SOL     OW22618   1.246   0.809   6.122
 7240SOL    HW122619   1.262   0.806   6.023
 7240SOL    HW222620   1.219   0.719   6.154
 7241SOL     OW22621   1.601   0.563   0.950
 7241SOL    HW122622   1.626   0.617   0.870
 7241SOL    HW222623   1.679   0.507   0.977
 7242SOL     OW22624   6.953   5.961   6.840
 7242SOL    HW122625   6.854   5.951   6.834
 7242SOL    HW222626   6.978   6.055   6.820
 7243SOL     OW22627   6.329   4.546   6.214
 7243SOL    HW122628   6.371   4.483   6.149
 7243SOL    HW222629   6.281   4.618   6.163
 7244SOL     OW22630   6.611   0.813   1.985
 7244SOL    HW122631   6.566   0.899   2.007
 7244SOL    HW222632   6.575   0.740   2.043
 7245SOL     OW22633   1.408   2.942   5.345
 7245SOL    HW122634   1.432   3.007   5.273
 7245SOL    HW222635   1.353   2.868   5.306
 7246SOL     OW22636   0.458   0.122   4.018
 7246SOL    HW122637   0.536   0.088   3.966
 7246SOL    HW222638   0.490   0.186   4.088
 7247SOL     OW22639   2.566   1.007   4.050
 7247SOL    HW122640   2.555   0.910   4.025
 7247SOL    HW222641   2.620   1.053   3.980
 7248SOL     OW22642   2.403   1.365   3.096
 7248SOL    HW122643   2.460   1.422   3.036
 7248SOL    HW222644   2.439   1.271   3.097
 7249SOL     OW22645   6.650   5.070   2.518
 7249SOL    HW122646   6.717   5.142   2.502
 7249SOL    HW222647   6.623   5.030   2.430
 7250SOL     OW22648   5.475   6.818   6.272
 7250SOL    HW122649   5.423   6.862   6.345
 7250SOL    HW222650   5.539   6.752   6.312
 7251SOL     OW22651   0.650   6.314   5.331
 7251SOL    HW122652   0.566   6.318   5.277
 7251SOL    HW222653   0.645   6.238   5.396
 7252SOL     OW22654   4.027   3.047   2.110
 7252SOL    HW122655   4.059   2.954   2.126
 7252SOL    HW222656   4.043   3.102   2.193
 7253SOL     OW22657   1.362   6.116   6.797
 7253SOL    HW122658   1.410   6.097   6.712
 7253SOL    HW222659   1.379   6.043   6.863
 7254SOL     OW22660   4.829   5.020   4.086
 7254SOL    HW122661   4.853   4.939   4.139
 7254SOL    HW222662   4.803   4.992   3.994
 7255SOL     OW22663   3.422   4.032   0.902
 7255SOL    HW122664   3.493   3.963   0.895
 7255SOL    HW222665   3.391   4.058   0.810
 7256SOL     OW22666   3.333   5.547   4.863
 7256SOL    HW122667   3.351   5.457   4.825
 7256SOL    HW222668   3.327   5.541   4.963
 7257SOL     OW22669   5.938   1.900   3.160
 7257SOL    HW122670   5.974   1.904   3.254
 7257SOL    HW222671   5.838   1.896   3.164
 7258SOL     OW22672   4.785   1.701   2.951
 7258SOL    HW122673   4.824   1.792   2.940
 7258SOL    HW222674   4.838   1.650   3.018
 7259SOL     OW22675   2.105   3.943   1.005
 7259SOL    HW122676   2.074   3.908   0.917
 7259SOL    HW222677   2.033   3.930   1.073
 7260SOL     OW22678   4.192   1.803   1.316
 7260SOL    HW122679   4.115   1.808   1.380
 7260SOL    HW222680   4.247   1.886   1.325
 7261SOL     OW22681   1.216   2.687   1.360
 7261SOL    HW122682   1.265   2.617   1.308
 7261SOL    HW222683   1.120   2.659   1.370
 7262SOL     OW22684   5.026   2.350   6.350
 7262SOL    HW122685   5.007   2.439   6.391
 7262SOL    HW222686   5.125   2.332   6.354
 7263SOL     OW22687   0.952   0.142   0.182
 7263SOL    HW122688   0.912   0.223   0.138
 7263SOL    HW222689   0.881   0.095   0.235
 7264SOL     OW22690   5.380   1.970   6.630
 7264SOL    HW122691   5.356   1.898   6.565
 7264SOL    HW222692   5.434   2.041   6.583
 7265SOL     OW22693   5.958   5.505   5.474
 7265SOL    HW122694   6.019   5.525   5.552
 7265SOL    HW222695   5.864   5.526   5.500
 7266SOL     OW22696   5.448   5.881   1.718
 7266SOL    HW122697   5.537   5.914   1.689
 7266SOL    HW222698   5.433   5.902   1.814
 7267SOL     OW22699   6.384   6.600   5.171
 7267SOL    HW122700   6.442   6.673   5.208
 7267SOL    HW222701   6.431   6.512   5.179
 7268SOL     OW22702   5.975   5.433   3.393
 7268SOL    HW122703   6.069   5.399   3.382
 7268SOL    HW222704   5.974   5.532   3.378
 7269SOL     OW22705   6.922   6.719   6.622
 7269SOL    HW122706   6.948   6.645   6.685
 7269SOL    HW222707   6.892   6.798   6.674
 7270SOL     OW22708   1.925   3.493   5.606
 7270SOL    HW122709   1.918   3.395   5.624
 7270SOL    HW222710   1.851   3.541   5.652
 7271SOL     OW22711   0.676   6.356   3.224
 7271SOL    HW122712   0.744   6.295   3.265
 7271SOL    HW222713   0.691   6.362   3.126
 7272SOL     OW22714   6.143   5.730   2.153
 7272SOL    HW122715   6.184   5.817   2.125
 7272SOL    HW222716   6.169   5.658   2.090
 7273SOL     OW22717   5.976   4.674   1.837
 7273SOL    HW122718   5.917   4.617   1.895
 7273SOL    HW222719   5.985   4.765   1.877
 7274SOL     OW22720   0.691   5.175   6.588
 7274SOL    HW122721   0.606   5.224   6.607
 7274SOL    HW222722   0.690   5.140   6.494
 7275SOL     OW22723   0.152   6.498   2.592
 7275SOL    HW122724   0.132   6.524   2.686
 7275SOL    HW222725   0.170   6.579   2.537
 7276SOL     OW22726   3.903   0.919   2.953
 7276SOL    HW122727   3.885   0.843   2.891
 7276SOL    HW222728   3.821   0.976   2.959
 7277SOL     OW22729   4.246   0.681   3.609
 7277SOL    HW122730   4.322   0.618   3.627
 7277SOL    HW222731   4.172   0.632   3.565
 7278SOL     OW22732   3.211   2.968   1.221
 7278SOL    HW122733   3.245   2.875   1.218
 7278SOL    HW222734   3.162   2.983   1.307
 7279SOL     OW22735   4.067   4.060   6.109
 7279SOL    HW122736   4.133   3.991   6.138
 7279SOL    HW222737   4.010   4.087   6.187
 7280SOL     OW22738   0.086   1.412   3.594
 7280SOL    HW122739   0.142   1.359   3.530
 7280SOL    HW222740   0.130   1.500   3.611
 7281SOL     OW22741   2.003   1.019   0.861
 7281SOL    HW122742   2.042   1.084   0.797
 7281SOL    HW222743   1.983   0.933   0.814
 7282SOL     OW22744   6.469   6.010   1.659
 7282SOL    HW122745   6.495   5.955   1.738
 7282SOL    HW222746   6.549   6.058   1.624
 7283SOL     OW22747   4.984   0.346   2.533
 7283SOL    HW122748   5.030   0.416   2.589
 7283SOL    HW222749   4.971   0.381   2.440
 7284SOL     OW22750   0.227   2.409   5.726
 7284SOL    HW122751   0.272   2.327   5.689
 7284SOL    HW222752   0.147   2.431   5.670
 7285SOL     OW22753   5.402   2.977   2.404
 7285SOL    HW122754   5.374   2.896   2.455
 7285SOL    HW222755   5.328   3.005   2.343
 7286SOL     OW22756   1.399   1.231   0.866
 7286SOL    HW122757   1.494   1.213   0.890
 7286SOL    HW222758   1.349   1.264   0.947
 7287SOL     OW22759   0.449   2.412   5.302
 7287SOL    HW122760   0.356   2.448   5.293
 7287SOL    HW222761   0.492   2.406   5.212
 7288SOL     OW22762   1.816   1.756   1.912
 7288SOL    HW122763   1.824   1.683   1.980
 7288SOL    HW222764   1.827   1.845   1.957
 7289SOL     OW22765   5.880   1.534   3.633
 7289SOL    HW122766   5.805   1.560   3.572
 7289SOL    HW222767   5.908   1.613   3.687
 7290SOL     OW22768   3.377   1.717   5.536
 7290SOL    HW122769   3.325   1.798   5.510
 7290SOL    HW222770   3.331   1.636   5.498
 7291SOL     OW22771   0.629   0.006   0.200
 7291SOL    HW122772   0.579   0.072   0.144
 7291SOL    HW222773   0.684   6.964   0.141
 7292SOL     OW22774   3.287   0.189   3.117
 7292SOL    HW122775   3.332   0.157   3.033
 7292SOL    HW222776   3.189   0.200   3.100
 7293SOL     OW22777   1.650   1.774   4.714
 7293SOL    HW122778   1.586   1.850   4.723
 7293SOL    HW222779   1.613   1.693   4.758
 7294SOL     OW22780   2.442   4.401   0.161
 7294SOL    HW122781   2.436   4.485   0.215
 7294SOL    HW222782   2.484   4.329   0.216
 7295SOL     OW22783   6.106   4.160   1.069
 7295SOL    HW122784   6.105   4.157   1.168
 7295SOL    HW222785   6.128   4.069   1.033
 7296SOL     OW22786   3.222   6.254   1.484
 7296SOL    HW122787   3.166   6.325   1.525
 7296SOL    HW222788   3.180   6.222   1.399
 7297SOL     OW22789   3.610   6.928   1.428
 7297SOL    HW122790   3.700   6.909   1.467
 7297SOL    HW222791   3.620   6.951   1.331
 7298SOL     OW22792   5.063   5.386   6.032
 7298SOL    HW122793   5.011   5.471   6.020
 7298SOL    HW222794   5.044   5.348   6.122
 7299SOL     OW22795   0.956   2.499   1.379
 7299SOL    HW122796   0.923   2.484   1.472
 7299SOL    HW222797   1.031   2.436   1.359
 7300SOL     OW22798   0.533   0.019   2.289
 7300SOL    HW122799   0.519   7.008   2.384
 7300SOL    HW222800   0.574   6.962   2.237
 7301SOL     OW22801   6.205   1.763   4.671
 7301SOL    HW122802   6.206   1.704   4.590
 7301SOL    HW222803   6.293   1.755   4.718
 7302SOL     OW22804   0.679   2.455   5.689
 7302SOL    HW122805   0.692   2.361   5.659
 7302SOL    HW222806   0.764   2.490   5.729
 7303SOL     OW22807   4.068   0.815   6.836
 7303SOL    HW122808   4.154   0.808   6.887
 7303SOL    HW222809   3.998   0.857   6.894
 7304SOL     OW22810   3.071   5.498   1.382
 7304SOL    HW122811   3.010   5.428   1.343
 7304SOL    HW222812   3.020   5.552   1.449
 7305SOL     OW22813   4.999   1.731   1.437
 7305SOL    HW122814   5.039   1.808   1.387
 7305SOL    HW222815   4.956   1.668   1.373
 7306SOL     OW22816   4.045   1.550   1.640
 7306SOL    HW122817   4.035   1.549   1.541
 7306SOL    HW222818   3.994   1.626   1.679
 7307SOL     OW22819   2.562   6.486   2.510
 7307SOL    HW122820   2.496   6.538   2.456
 7307SOL    HW222821   2.652   6.530   2.504
 7308SOL     OW22822   6.637   2.677   4.918
 7308SOL    HW122823   6.717   2.737   4.911
 7308SOL    HW222824   6.664   2.583   4.895
 7309SOL     OW22825   3.761   5.156   0.724
 7309SOL    HW122826   3.844   5.208   0.742
 7309SOL    HW222827   3.757   5.130   0.627
 7310SOL     OW22828   2.340   3.909   0.049
 7310SOL    HW122829   2.322   3.972   6.991
 7310SOL    HW222830   2.435   3.919   0.078
 7311SOL     OW22831   1.937   1.764   1.059
 7311SOL    HW122832   1.871   1.713   1.115
 7311SOL    HW222833   2.027   1.722   1.067
 7312SOL     OW22834   0.772   3.186   4.440
 7312SOL    HW122835   0.857   3.236   4.421
 7312SOL    HW222836   0.791   3.107   4.498
 7313SOL     OW22837   2.127   0.886   1.232
 7313SOL    HW122838   2.091   0.900   1.140
 7313SOL    HW222839   2.120   0.790   1.257
 7314SOL     OW22840   0.068   4.992   6.421
 7314SOL    HW122841   0.104   4.980   6.328
 7314SOL    HW222842   7.010   4.928   6.436
 7315SOL     OW22843   5.719   5.694   2.009
 7315SOL    HW122844   5.664   5.699   2.092
 7315SOL    HW222845   5.794   5.629   2.023
 7316SOL     OW22846   3.675   3.300   6.939
 7316SOL    HW122847   3.754   3.267   6.991
 7316SOL    HW222848   3.609   3.226   6.929
 7317SOL     OW22849   4.475   1.647   2.041
 7317SOL    HW122850   4.377   1.635   2.027
 7317SOL    HW222851   4.492   1.675   2.135
 7318SOL     OW22852   2.891   0.452   2.077
 7318SOL    HW122853   2.967   0.468   2.014
 7318SOL    HW222854   2.832   0.380   2.040
 7319SOL     OW22855   6.888   3.881   6.999
 7319SOL    HW122856   6.794   3.855   6.974
 7319SOL    HW222857   6.922   3.819   0.052
 7320SOL     OW22858   1.005   3.686   2.212
 7320SOL    HW122859   0.924   3.738   2.238
 7320SOL    HW222860   1.020   3.695   2.114
 7321SOL     OW22861   1.142   6.314   6.115
 7321SOL    HW122862   1.054   6.352   6.089
 7321SOL    HW222863   1.152   6.318   6.214
 7322SOL     OW22864   6.677   2.841   2.679
 7322SOL    HW122865   6.686   2.769   2.611
 7322SOL    HW222866   6.605   2.817   2.744
 7323SOL     OW22867   1.951   2.578   1.322
 7323SOL    HW122868   1.895   2.585   1.405
 7323SOL    HW222869   1.954   2.667   1.276
 7324SOL     OW22870   5.756   6.043   1.095
 7324SOL    HW122871   5.821   6.080   1.028
 7324SOL    HW222872   5.665   6.040   1.054
 7325SOL     OW22873   2.485   0.278   6.388
 7325SOL    HW122874   2.580   0.278   6.355
 7325SOL    HW222875   2.445   0.368   6.374
 7326SOL     OW22876   2.671   6.334   6.624
 7326SOL    HW122877   2.720   6.359   6.708
 7326SOL    HW222878   2.728   6.357   6.545
 7327SOL     OW22879   6.168   2.077   5.745
 7327SOL    HW122880   6.242   2.145   5.746
 7327SOL    HW222881   6.080   2.125   5.742
 7328SOL     OW22882   4.137   0.030   6.539
 7328SOL    HW122883   4.093   6.995   6.466
 7328SOL    HW222884   4.223   7.002   6.565
 7329SOL     OW22885   1.021   3.773   0.980
 7329SOL    HW122886   1.102   3.743   0.930
 7329SOL    HW222887   0.960   3.695   0.993
 7330SOL     OW22888   1.898   2.737   0.120
 7330SOL    HW122889   1.816   2.766   0.070
 7330SOL    HW222890   1.978   2.786   0.084
 7331SOL     OW22891   5.727   6.568   1.192
 7331SOL    HW122892   5.707   6.484   1.241
 7331SOL    HW222893   5.651   6.632   1.201
 7332SOL     OW22894   3.553   5.935   0.076
 7332SOL    HW122895   3.480   5.934   0.008
 7332SOL    HW222896   3.592   6.027   0.080
 7333SOL     OW22897   6.554   3.376   3.102
 7333SOL    HW122898   6.466   3.354   3.061
 7333SOL    HW222899   6.622   3.393   3.031
 7334SOL     OW22900   1.772   5.903   6.199
 7334SOL    HW122901   1.722   5.983   6.164
 7334SOL    HW222902   1.851   5.886   6.140
 7335SOL     OW22903   0.398   2.774   3.321
 7335SOL    HW122904   0.418   2.694   3.264
 7335SOL    HW222905   0.391   2.855   3.262
 7336SOL     OW22906   1.942   6.623   2.609
 7336SOL    HW122907   1.971   6.715   2.580
 7336SOL    HW222908   1.843   6.615   2.599
 7337SOL     OW22909   0.742   2.900   1.274
 7337SOL    HW122910   0.766   2.955   1.194
 7337SOL    HW222911   0.756   2.955   1.357
 7338SOL     OW22912   4.772   1.424   2.115
 7338SOL    HW122913   4.781   1.441   2.017
 7338SOL    HW222914   4.754   1.510   2.162
 7339SOL     OW22915   5.873   0.778   4.827
 7339SOL    HW122916   5.792   0.723   4.811
 7339SOL    HW222917   5.870   0.861   4.770
 7340SOL     OW22918   3.167   1.224   0.426
 7340SOL    HW122919   3.092   1.236   0.361
 7340SOL    HW222920   3.188   1.126   0.435
 7341SOL     OW22921   0.621   4.349   5.572
 7341SOL    HW122922   0.567   4.293   5.635
 7341SOL    HW222923   0.560   4.407   5.517
 7342SOL     OW22924   0.225   0.317   0.009
 7342SOL    HW122925   0.190   0.249   6.962
 7342SOL    HW222926   0.206   0.409   6.992
 7343SOL     OW22927   6.083   4.763   2.217
 7343SOL    HW122928   6.094   4.811   2.304
 7343SOL    HW222929   6.023   4.816   2.158
 7344SOL     OW22930   0.704   1.193   5.872
 7344SOL    HW122931   0.687   1.250   5.792
 7344SOL    HW222932   0.670   1.240   5.954
 7345SOL     OW22933   5.022   5.433   5.429
 7345SOL    HW122934   4.926   5.442   5.405
 7345SOL    HW222935   5.035   5.355   5.489
 7346SOL     OW22936   4.652   4.895   1.261
 7346SOL    HW122937   4.685   4.934   1.175
 7346SOL    HW222938   4.555   4.917   1.271
 7347SOL     OW22939   0.162   2.541   1.217
 7347SOL    HW122940   0.246   2.570   1.172
 7347SOL    HW222941   0.123   2.462   1.168
 7348SOL     OW22942   1.215   3.705   3.936
 7348SOL    HW122943   1.291   3.699   4.001
 7348SOL    HW222944   1.248   3.684   3.844
 7349SOL     OW22945   4.923   2.063   1.289
 7349SOL    HW122946   4.994   1.993   1.290
 7349SOL    HW222947   4.960   2.148   1.253
 7350SOL     OW22948   1.765   3.279   5.857
 7350SOL    HW122949   1.785   3.377   5.859
 7350SOL    HW222950   1.826   3.232   5.922
 7351SOL     OW22951   5.053   6.771   4.664
 7351SOL    HW122952   5.123   6.788   4.733
 7351SOL    HW222953   5.022   6.858   4.626
 7352SOL     OW22954   1.821   2.453   3.357
 7352SOL    HW122955   1.856   2.515   3.287
 7352SOL    HW222956   1.827   2.358   3.324
 7353SOL     OW22957   0.941   0.899   6.073
 7353SOL    HW122958   0.896   0.832   6.131
 7353SOL    HW222959   1.037   0.907   6.100
 7354SOL     OW22960   6.908   1.602   5.750
 7354SOL    HW122961   6.938   1.538   5.680
 7354SOL    HW222962   6.910   1.558   5.840
 7355SOL     OW22963   2.249   0.860   0.959
 7355SOL    HW122964   2.211   0.897   0.874
 7355SOL    HW222965   2.319   0.922   0.994
 7356SOL     OW22966   3.881   3.827   6.184
 7356SOL    HW122967   3.853   3.828   6.088
 7356SOL    HW222968   3.801   3.823   6.243
 7357SOL     OW22969   4.253   6.763   1.693
 7357SOL    HW122970   4.297   6.778   1.605
 7357SOL    HW222971   4.264   6.668   1.721
 7358SOL     OW22972   6.299   3.760   3.274
 7358SOL    HW122973   6.264   3.787   3.364
 7358SOL    HW222974   6.354   3.677   3.282
 7359SOL     OW22975   2.408   1.969   6.287
 7359SOL    HW122976   2.477   1.941   6.353
 7359SOL    HW222977   2.399   1.899   6.216
 7360SOL     OW22978   3.178   3.624   5.193
 7360SOL    HW122979   3.276   3.630   5.212
 7360SOL    HW222980   3.136   3.561   5.259
 7361SOL     OW22981   4.509   0.116   1.632
 7361SOL    HW122982   4.607   0.135   1.637
 7361SOL    HW222983   4.458   0.202   1.631
 7362SOL     OW22984   1.470   5.064   4.790
 7362SOL    HW122985   1.492   5.132   4.859
 7362SOL    HW222986   1.467   4.973   4.832
 7363SOL     OW22987   4.433   2.073   1.658
 7363SOL    HW122988   4.498   2.067   1.582
 7363SOL    HW222989   4.342   2.047   1.626
 7364SOL     OW22990   4.591   0.742   1.381
 7364SOL    HW122991   4.593   0.839   1.357
 7364SOL    HW222992   4.500   0.718   1.413
 7365SOL     OW22993   1.303   5.656   2.039
 7365SOL    HW122994   1.388   5.605   2.051
 7365SOL    HW222995   1.319   5.753   2.059
 7366SOL     OW22996   2.257   5.530   6.645
 7366SOL    HW122997   2.226   5.620   6.614
 7366SOL    HW222998   2.180   5.467   6.647
 7367SOL     OW22999   5.193   2.731   1.096
 7367SOL    HW123000   5.100   2.696   1.103
 7367SOL    HW223001   5.228   2.713   1.004
 7368SOL     OW23002   3.760   2.931   2.815
 7368SOL    HW123003   3.790   3.026   2.820
 7368SOL    HW223004   3.757   2.891   2.906
 7369SOL     OW23005   3.963   2.905   6.866
 7369SOL    HW123006   4.043   2.852   6.894
 7369SOL    HW223007   3.991   2.998   6.843
 7370SOL     OW23008   1.927   0.684   4.263
 7370SOL    HW123009   1.994   0.755   4.239
 7370SOL    HW223010   1.972   0.595   4.263
 7371SOL     OW23011   1.662   6.407   3.842
 7371SOL    HW123012   1.646   6.334   3.908
 7371SOL    HW223013   1.759   6.409   3.817
 7372SOL     OW23014   4.452   1.242   4.681
 7372SOL    HW123015   4.491   1.270   4.769
 7372SOL    HW223016   4.482   1.305   4.609
 7373SOL     OW23017   6.082   2.427   3.860
 7373SOL    HW123018   6.150   2.354   3.847
 7373SOL    HW223019   6.121   2.498   3.919
 7374SOL     OW23020   2.424   1.599   5.490
 7374SOL    HW123021   2.451   1.540   5.415
 7374SOL    HW223022   2.481   1.681   5.490
 7375SOL     OW23023   1.861   2.816   3.134
 7375SOL    HW123024   1.926   2.883   3.098
 7375SOL    HW223025   1.895   2.724   3.118
 7376SOL     OW23026   2.651   1.289   0.694
 7376SOL    HW123027   2.575   1.346   0.662
 7376SOL    HW223028   2.701   1.253   0.615
 7377SOL     OW23029   5.535   4.603   0.337
 7377SOL    HW123030   5.551   4.655   0.253
 7377SOL    HW223031   5.551   4.506   0.320
 7378SOL     OW23032   6.941   1.171   5.999
 7378SOL    HW123033   0.007   1.122   6.025
 7378SOL    HW223034   6.963   1.267   5.982
 7379SOL     OW23035   3.145   1.489   3.079
 7379SOL    HW123036   3.175   1.555   3.148
 7379SOL    HW223037   3.106   1.409   3.124
 7380SOL     OW23038   6.771   4.551   4.808
 7380SOL    HW123039   6.865   4.518   4.812
 7380SOL    HW223040   6.739   4.548   4.713
 7381SOL     OW23041   4.545   3.855   1.342
 7381SOL    HW123042   4.494   3.909   1.409
 7381SOL    HW223043   4.625   3.815   1.386
 7382SOL     OW23044   6.923   6.300   6.033
 7382SOL    HW123045   6.943   6.332   5.940
 7382SOL    HW223046   6.868   6.369   6.080
 7383SOL     OW23047   1.265   6.865   1.350
 7383SOL    HW123048   1.315   6.925   1.413
 7383SOL    HW223049   1.261   6.908   1.260
 7384SOL     OW23050   5.833   0.279   2.999
 7384SOL    HW123051   5.749   0.229   3.017
 7384SOL    HW223052   5.817   0.345   2.925
 7385SOL     OW23053   4.159   6.146   2.022
 7385SOL    HW123054   4.180   6.219   2.086
 7385SOL    HW223055   4.144   6.061   2.073
 7386SOL     OW23056   0.770   2.011   6.032
 7386SOL    HW123057   0.783   2.105   6.001
 7386SOL    HW223058   0.684   1.976   5.996
 7387SOL     OW23059   5.685   5.991   4.144
 7387SOL    HW123060   5.591   5.999   4.176
 7387SOL    HW223061   5.747   6.012   4.220
 7388SOL     OW23062   0.456   4.804   2.381
 7388SOL    HW123063   0.456   4.772   2.286
 7388SOL    HW223064   0.374   4.771   2.427
 7389SOL     OW23065   6.628   3.912   6.640
 7389SOL    HW123066   6.704   3.903   6.575
 7389SOL    HW223067   6.558   3.843   6.619
 7390SOL     OW23068   1.125   1.605   6.984
 7390SOL    HW123069   1.223   1.585   6.993
 7390SOL    HW223070   1.112   1.697   6.949
 7391SOL     OW23071   4.045   3.863   4.048
 7391SOL    HW123072   3.975   3.934   4.053
 7391SOL    HW223073   4.067   3.831   4.141
 7392SOL     OW23074   2.238   6.169   0.235
 7392SOL    HW123075   2.169   6.237   0.210
 7392SOL    HW223076   2.262   6.180   0.331
 7393SOL     OW23077   6.048   4.994   3.053
 7393SOL    HW123078   5.968   5.044   3.020
 7393SOL    HW223079   6.026   4.950   3.140
 7394SOL     OW23080   2.318   2.648   5.915
 7394SOL    HW123081   2.307   2.618   5.820
 7394SOL    HW223082   2.321   2.748   5.918
 7395SOL     OW23083   1.617   2.311   0.499
 7395SOL    HW123084   1.605   2.398   0.546
 7395SOL    HW223085   1.704   2.270   0.527
 7396SOL     OW23086   0.940   0.077   0.633
 7396SOL    HW123087   1.014   0.015   0.605
 7396SOL    HW223088   0.930   0.074   0.733
 7397SOL     OW23089   4.330   5.459   4.666
 7397SOL    HW123090   4.355   5.364   4.651
 7397SOL    HW223091   4.329   5.508   4.579
 7398SOL     OW23092   2.574   4.924   4.360
 7398SOL    HW123093   2.640   4.943   4.433
 7398SOL    HW223094   2.489   4.891   4.401
 7399SOL     OW23095   1.296   2.399   5.285
 7399SOL    HW123096   1.303   2.342   5.367
 7399SOL    HW223097   1.200   2.404   5.256
 7400SOL     OW23098   3.819   1.964   5.637
 7400SOL    HW123099   3.741   1.931   5.584
 7400SOL    HW223100   3.867   2.035   5.585
 7401SOL     OW23101   1.524   1.578   4.870
 7401SOL    HW123102   1.514   1.572   4.969
 7401SOL    HW223103   1.438   1.554   4.826
 7402SOL     OW23104   2.515   5.949   6.682
 7402SOL    HW123105   2.420   5.934   6.709
 7402SOL    HW223106   2.518   5.981   6.587
 7403SOL     OW23107   2.012   3.847   2.205
 7403SOL    HW123108   1.972   3.760   2.233
 7403SOL    HW223109   2.059   3.836   2.118
 7404SOL     OW23110   2.425   5.395   1.602
 7404SOL    HW123111   2.335   5.410   1.644
 7404SOL    HW223112   2.428   5.303   1.563
 7405SOL     OW23113   3.795   4.959   4.383
 7405SOL    HW123114   3.702   4.924   4.395
 7405SOL    HW223115   3.849   4.893   4.331
 7406SOL     OW23116   7.016   2.774   2.980
 7406SOL    HW123117   6.983   2.830   2.904
 7406SOL    HW223118   0.094   2.750   2.965
 7407SOL     OW23119   1.014   0.065   4.980
 7407SOL    HW123120   1.098   0.010   4.985
 7407SOL    HW223121   0.963   0.039   4.899
 7408SOL     OW23122   3.176   3.949   0.034
 7408SOL    HW123123   3.179   3.927   6.954
 7408SOL    HW223124   3.121   4.031   0.048
 7409SOL     OW23125   6.487   2.474   0.131
 7409SOL    HW123126   6.517   2.531   0.054
 7409SOL    HW223127   6.546   2.491   0.210
 7410SOL     OW23128   6.753   0.117   0.643
 7410SOL    HW123129   6.822   0.120   0.571
 7410SOL    HW223130   6.693   0.197   0.637
 7411SOL     OW23131   2.302   6.959   6.058
 7411SOL    HW123132   2.284   0.029   6.104
 7411SOL    HW223133   2.391   6.963   6.013
 7412SOL     OW23134   4.866   0.278   2.252
 7412SOL    HW123135   4.768   0.262   2.240
 7412SOL    HW223136   4.910   0.193   2.281
 7413SOL     OW23137   5.326   5.672   3.583
 7413SOL    HW123138   5.345   5.576   3.565
 7413SOL    HW223139   5.281   5.680   3.672
 7414SOL     OW23140   0.478   0.796   4.004
 7414SOL    HW123141   0.433   0.885   4.003
 7414SOL    HW223142   0.425   0.731   3.951
 7415SOL     OW23143   2.106   5.014   3.647
 7415SOL    HW123144   2.044   5.051   3.578
 7415SOL    HW223145   2.095   4.915   3.653
 7416SOL     OW23146   1.568   1.322   2.782
 7416SOL    HW123147   1.585   1.275   2.696
 7416SOL    HW223148   1.584   1.420   2.770
 7417SOL     OW23149   1.720   0.753   0.080
 7417SOL    HW123150   1.680   0.807   0.006
 7417SOL    HW223151   1.659   0.755   0.159
 7418SOL     OW23152   2.445   5.734   0.433
 7418SOL    HW123153   2.410   5.759   0.523
 7418SOL    HW223154   2.437   5.812   0.371
 7419SOL     OW23155   6.302   2.816   4.701
 7419SOL    HW123156   6.376   2.804   4.635
 7419SOL    HW223157   6.342   2.833   4.792
 7420SOL     OW23158   0.630   6.982   1.428
 7420SOL    HW123159   0.535   6.979   1.398
 7420SOL    HW223160   0.633   6.981   1.528
 7421SOL     OW23161   3.909   4.237   0.800
 7421SOL    HW123162   3.931   4.238   0.702
 7421SOL    HW223163   3.810   4.247   0.811
 7422SOL     OW23164   0.069   3.280   2.294
 7422SOL    HW123165   0.060   3.223   2.212
 7422SOL    HW223166   0.128   3.234   2.360
 7423SOL     OW23167   5.798   3.111   5.674
 7423SOL    HW123168   5.835   3.170   5.746
 7423SOL    HW223169   5.727   3.053   5.713
 7424SOL     OW23170   6.612   6.662   5.690
 7424SOL    HW123171   6.635   6.569   5.720
 7424SOL    HW223172   6.692   6.704   5.648
 7425SOL     OW23173   4.295   5.823   6.729
 7425SOL    HW123174   4.213   5.879   6.723
 7425SOL    HW223175   4.273   5.734   6.770
 7426SOL     OW23176   3.247   1.468   5.523
 7426SOL    HW123177   3.225   1.436   5.616
 7426SOL    HW223178   3.287   1.393   5.471
 7427SOL     OW23179   4.124   0.293   3.676
 7427SOL    HW123180   4.101   0.280   3.773
 7427SOL    HW223181   4.206   0.349   3.668
 7428SOL     OW23182   4.009   1.337   5.527
 7428SOL    HW123183   3.973   1.414   5.474
 7428SOL    HW223184   4.066   1.372   5.601
 7429SOL     OW23185   0.527   6.417   4.296
 7429SOL    HW123186   0.535   6.515   4.281
 7429SOL    HW223187   0.432   6.393   4.313
 7430SOL     OW23188   1.223   2.828   0.421
 7430SOL    HW123189   1.138   2.842   0.371
 7430SOL    HW223190   1.261   2.917   0.448
 7431SOL     OW23191   1.405   2.802   3.586
 7431SOL    HW123192   1.430   2.878   3.526
 7431SOL    HW223193   1.468   2.799   3.664
 7432SOL     OW23194   0.654   1.028   3.018
 7432SOL    HW123195   0.588   1.042   2.944
 7432SOL    HW223196   0.605   1.004   3.102
 7433SOL     OW23197   4.531   6.313   5.644
 7433SOL    HW123198   4.545   6.370   5.563
 7433SOL    HW223199   4.572   6.359   5.724
 7434SOL     OW23200   4.974   5.888   5.723
 7434SOL    HW123201   5.027   5.925   5.646
 7434SOL    HW223202   5.018   5.913   5.809
 7435SOL     OW23203   3.430   5.665   0.835
 7435SOL    HW123204   3.436   5.763   0.855
 7435SOL    HW223205   3.402   5.652   0.740
 7436SOL     OW23206   5.318   3.859   5.851
 7436SOL    HW123207   5.278   3.784   5.903
 7436SOL    HW223208   5.309   3.841   5.753
 7437SOL     OW23209   1.633   6.068   0.153
 7437SOL    HW123210   1.593   6.137   0.213
 7437SOL    HW223211   1.680   5.999   0.208
 7438SOL     OW23212   1.037   5.863   7.008
 7438SOL    HW123213   1.117   5.803   6.999
 7438SOL    HW223214   1.013   5.899   6.918
 7439SOL     OW23215   2.290   6.127   5.750
 7439SOL    HW123216   2.348   6.112   5.671
 7439SOL    HW223217   2.272   6.225   5.761
 7440SOL     OW23218   6.992   2.746   4.160
 7440SOL    HW123219   0.029   2.830   4.164
 7440SOL    HW223220   6.915   2.760   4.098
 7441SOL     OW23221   5.438   6.691   3.996
 7441SOL    HW123222   5.521   6.737   3.964
 7441SOL    HW223223   5.459   6.596   4.018
 7442SOL     OW23224   6.127   1.432   5.960
 7442SOL    HW123225   6.129   1.344   5.914
 7442SOL    HW223226   6.220   1.470   5.963
 7443SOL     OW23227   0.176   6.117   1.713
 7443SOL    HW123228   0.173   6.171   1.629
 7443SOL    HW223229   0.090   6.129   1.763
 7444SOL     OW23230   5.465   2.357   5.594
 7444SOL    HW123231   5.394   2.385   5.659
 7444SOL    HW223232   5.486   2.260   5.607
 7445SOL     OW23233   4.107   0.760   0.973
 7445SOL    HW123234   4.109   0.735   1.069
 7445SOL    HW223235   4.078   0.856   0.964
 7446SOL     OW23236   5.834   3.425   0.606
 7446SOL    HW123237   5.863   3.454   0.697
 7446SOL    HW223238   5.761   3.357   0.614
 7447SOL     OW23239   0.195   3.370   6.751
 7447SOL    HW123240   0.285   3.388   6.709
 7447SOL    HW223241   0.178   3.436   6.824
 7448SOL     OW23242   6.435   6.989   5.109
 7448SOL    HW123243   6.369   6.959   5.041
 7448SOL    HW223244   6.511   6.924   5.112
 7449SOL     OW23245   0.669   3.919   1.881
 7449SOL    HW123246   0.585   3.910   1.934
 7449SOL    HW223247   0.711   4.008   1.900
 7450SOL     OW23248   5.333   2.568   4.668
 7450SOL    HW123249   5.297   2.619   4.589
 7450SOL    HW223250   5.308   2.616   4.752
 7451SOL     OW23251   6.874   6.853   2.961
 7451SOL    HW123252   6.863   6.754   2.951
 7451SOL    HW223253   6.865   6.896   2.871
 7452SOL     OW23254   6.613   6.617   4.883
 7452SOL    HW123255   6.559   6.652   4.806
 7452SOL    HW223256   6.710   6.624   4.861
 7453SOL     OW23257   5.143   6.758   5.736
 7453SOL    HW123258   5.066   6.820   5.745
 7453SOL    HW223259   5.228   6.808   5.754
 7454SOL     OW23260   0.801   2.549   1.905
 7454SOL    HW123261   0.886   2.516   1.946
 7454SOL    HW223262   0.724   2.521   1.963
 7455SOL     OW23263   6.700   2.553   2.217
 7455SOL    HW123264   6.695   2.591   2.124
 7455SOL    HW223265   6.699   2.628   2.283
 7456SOL     OW23266   0.882   1.209   3.797
 7456SOL    HW123267   0.894   1.283   3.731
 7456SOL    HW223268   0.811   1.233   3.862
 7457SOL     OW23269   3.819   0.171   6.072
 7457SOL    HW123270   3.774   0.082   6.070
 7457SOL    HW223271   3.905   0.163   6.122
 7458SOL     OW23272   1.198   6.459   5.590
 7458SOL    HW123273   1.240   6.441   5.679
 7458SOL    HW223274   1.259   6.425   5.517
 7459SOL     OW23275   4.431   0.567   2.173
 7459SOL    HW123276   4.459   0.477   2.139
 7459SOL    HW223277   4.500   0.635   2.149
 7460SOL     OW23278   1.190   5.366   0.871
 7460SOL    HW123279   1.118   5.436   0.874
 7460SOL    HW223280   1.231   5.357   0.962
 7461SOL     OW23281   5.638   0.953   6.355
 7461SOL    HW123282   5.649   1.026   6.288
 7461SOL    HW223283   5.545   0.956   6.393
 7462SOL     OW23284   1.768   4.129   2.167
 7462SOL    HW123285   1.802   4.047   2.121
 7462SOL    HW223286   1.670   4.118   2.187
 7463SOL     OW23287   2.527   5.063   0.868
 7463SOL    HW123288   2.468   5.144   0.876
 7463SOL    HW223289   2.593   5.078   0.794
 7464SOL     OW23290   5.395   0.122   5.841
 7464SOL    HW123291   5.348   0.086   5.921
 7464SOL    HW223292   5.465   0.187   5.870
 7465SOL     OW23293   1.549   5.636   6.865
 7465SOL    HW123294   1.576   5.649   6.769
 7465SOL    HW223295   1.576   5.544   6.894
 7466SOL     OW23296   0.075   0.766   5.127
 7466SOL    HW123297   0.068   0.669   5.148
 7466SOL    HW223298   0.085   0.818   5.213
 7467SOL     OW23299   0.779   1.506   1.235
 7467SOL    HW123300   0.767   1.489   1.332
 7467SOL    HW223301   0.710   1.572   1.204
 7468SOL     OW23302   5.922   2.863   3.219
 7468SOL    HW123303   5.832   2.851   3.178
 7468SOL    HW223304   5.913   2.912   3.306
 7469SOL     OW23305   6.798   0.648   0.752
 7469SOL    HW123306   6.767   0.564   0.796
 7469SOL    HW223307   6.792   0.639   0.653
 7470SOL     OW23308   6.498   3.896   3.172
 7470SOL    HW123309   6.422   3.839   3.201
 7470SOL    HW223310   6.464   3.984   3.139
 7471SOL     OW23311   5.451   6.506   5.855
 7471SOL    HW123312   5.402   6.529   5.771
 7471SOL    HW223313   5.386   6.472   5.924
 7472SOL     OW23314   6.270   0.008   4.863
 7472SOL    HW123315   6.258   0.103   4.889
 7472SOL    HW223316   6.181   6.981   4.855
 7473SOL     OW23317   6.096   5.340   3.985
 7473SOL    HW123318   6.177   5.358   3.929
 7473SOL    HW223319   6.099   5.397   4.067
 7474SOL     OW23320   0.989   1.454   5.862
 7474SOL    HW123321   0.976   1.550   5.889
 7474SOL    HW223322   0.953   1.394   5.934
 7475SOL     OW23323   5.159   2.333   2.742
 7475SOL    HW123324   5.194   2.311   2.650
 7475SOL    HW223325   5.091   2.406   2.735
 7476SOL     OW23326   3.264   0.791   3.947
 7476SOL    HW123327   3.245   0.820   3.853
 7476SOL    HW223328   3.361   0.808   3.967
 7477SOL     OW23329   0.381   1.081   5.646
 7477SOL    HW123330   0.453   1.033   5.696
 7477SOL    HW223331   0.406   1.177   5.635
 7478SOL     OW23332   5.482   4.555   5.810
 7478SOL    HW123333   5.541   4.573   5.888
 7478SOL    HW223334   5.479   4.456   5.792
 7479SOL     OW23335   3.861   2.064   2.182
 7479SOL    HW123336   3.789   2.102   2.125
 7479SOL    HW223337   3.838   2.077   2.279
 7480SOL     OW23338   1.022   4.053   2.071
 7480SOL    HW123339   1.020   4.054   2.171
 7480SOL    HW223340   1.038   4.146   2.037
 7481SOL     OW23341   6.389   5.649   1.112
 7481SOL    HW123342   6.471   5.639   1.054
 7481SOL    HW223343   6.359   5.744   1.110
 7482SOL     OW23344   4.898   2.796   2.986
 7482SOL    HW123345   4.875   2.761   3.077
 7482SOL    HW223346   4.827   2.771   2.921
 7483SOL     OW23347   4.766   2.842   4.484
 7483SOL    HW123348   4.684   2.786   4.481
 7483SOL    HW223349   4.773   2.896   4.400
 7484SOL     OW23350   1.589   6.839   4.369
 7484SOL    HW123351   1.689   6.842   4.364
 7484SOL    HW223352   1.554   6.771   4.304
 7485SOL     OW23353   3.617   7.007   4.733
 7485SOL    HW123354   3.546   0.045   4.777
 7485SOL    HW223355   3.575   6.947   4.665
 7486SOL     OW23356   1.700   6.470   0.631
 7486SOL    HW123357   1.676   6.429   0.718
 7486SOL    HW223358   1.622   6.465   0.569
 7487SOL     OW23359   1.802   0.020   3.631
 7487SOL    HW123360   1.721   0.048   3.580
 7487SOL    HW223361   1.823   6.942   3.609
 7488SOL     OW23362   2.789   6.436   4.140
 7488SOL    HW123363   2.733   6.494   4.081
 7488SOL    HW223364   2.741   6.350   4.158
 7489SOL     OW23365   5.267   2.695   5.261
 7489SOL    HW123366   5.227   2.606   5.283
 7489SOL    HW223367   5.299   2.694   5.166
 7490SOL     OW23368   1.494   0.139   2.569
 7490SOL    HW123369   1.447   0.214   2.615
 7490SOL    HW223370   1.480   0.054   2.620
 7491SOL     OW23371   5.509   2.679   6.913
 7491SOL    HW123372   5.420   2.652   6.876
 7491SOL    HW223373   5.536   2.615   6.985
 7492SOL     OW23374   1.767   0.680   3.115
 7492SOL    HW123375   1.833   0.624   3.066
 7492SOL    HW223376   1.808   0.769   3.136
 7493SOL     OW23377   0.148   3.740   6.732
 7493SOL    HW123378   0.223   3.731   6.797
 7493SOL    HW223379   0.069   3.688   6.765
 7494SOL     OW23380   5.295   1.334   2.859
 7494SOL    HW123381   5.291   1.431   2.884
 7494SOL    HW223382   5.204   1.293   2.866
 7495SOL     OW23383   1.637   1.922   6.554
 7495SOL    HW123384   1.588   1.874   6.481
 7495SOL    HW223385   1.644   2.019   6.531
 7496SOL     OW23386   6.006   3.395   4.751
 7496SOL    HW123387   6.022   3.492   4.768
 7496SOL    HW223388   6.083   3.342   4.785
 7497SOL     OW23389   2.238   4.399   6.409
 7497SOL    HW123390   2.303   4.466   6.444
 7497SOL    HW223391   2.191   4.437   6.329
 7498SOL     OW23392   3.312   0.480   4.986
 7498SOL    HW123393   3.363   0.498   5.070
 7498SOL    HW223394   3.229   0.429   5.008
 7499SOL     OW23395   3.196   1.231   2.859
 7499SOL    HW123396   3.227   1.326   2.870
 7499SOL    HW223397   3.234   1.176   2.933
 7500SOL     OW23398   3.455   5.803   3.007
 7500SOL    HW123399   3.409   5.804   3.097
 7500SOL    HW223400   3.483   5.710   2.986
 7501SOL     OW23401   5.179   3.645   4.985
 7501SOL    HW123402   5.126   3.718   4.941
 7501SOL    HW223403   5.233   3.684   5.059
 7502SOL     OW23404   2.983   0.554   4.637
 7502SOL    HW123405   2.931   0.609   4.571
 7502SOL    HW223406   3.060   0.608   4.671
 7503SOL     OW23407   1.420   0.426   1.109
 7503SOL    HW123408   1.472   0.469   1.035
 7503SOL    HW223409   1.326   0.460   1.107
 7504SOL     OW23410   1.009   6.915   3.318
 7504SOL    HW123411   1.103   6.901   3.348
 7504SOL    HW223412   0.953   6.943   3.395
 7505SOL     OW23413   1.592   2.778   5.973
 7505SOL    HW123414   1.527   2.800   6.046
 7505SOL    HW223415   1.617   2.861   5.924
 7506SOL     OW23416   4.684   1.364   3.564
 7506SOL    HW123417   4.702   1.274   3.605
 7506SOL    HW223418   4.678   1.355   3.465
 7507SOL     OW23419   0.141   1.142   2.943
 7507SOL    HW123420   0.193   1.196   3.009
 7507SOL    HW223421   0.069   1.199   2.902
 7508SOL     OW23422   1.270   0.142   1.781
 7508SOL    HW123423   1.220   0.056   1.770
 7508SOL    HW223424   1.352   0.140   1.724
 7509SOL     OW23425   5.871   4.451   0.563
 7509SOL    HW123426   5.885   4.460   0.464
 7509SOL    HW223427   5.809   4.523   0.594
 7510SOL     OW23428   3.752   3.567   5.581
 7510SOL    HW123429   3.658   3.594   5.601
 7510SOL    HW223430   3.804   3.562   5.666
 7511SOL     OW23431   2.788   6.188   3.943
 7511SOL    HW123432   2.751   6.099   3.968
 7511SOL    HW223433   2.712   6.251   3.923
 7512SOL     OW23434   2.536   6.786   7.011
 7512SOL    HW123435   2.485   6.817   0.074
 7512SOL    HW223436   2.566   6.865   6.958
 7513SOL     OW23437   1.705   1.096   1.489
 7513SOL    HW123438   1.796   1.057   1.481
 7513SOL    HW223439   1.637   1.028   1.460
 7514SOL     OW23440   2.784   5.662   1.604
 7514SOL    HW123441   2.867   5.611   1.626
 7514SOL    HW223442   2.809   5.749   1.562
 7515SOL     OW23443   6.999   5.497   4.536
 7515SOL    HW123444   6.905   5.527   4.551
 7515SOL    HW223445   7.008   5.458   4.444
 7516SOL     OW23446   6.663   5.907   5.361
 7516SOL    HW123447   6.738   5.953   5.314
 7516SOL    HW223448   6.688   5.811   5.376
 7517SOL     OW23449   0.336   2.543   0.754
 7517SOL    HW123450   0.414   2.599   0.784
 7517SOL    HW223451   0.347   2.450   0.787
 7518SOL     OW23452   4.216   4.801   3.883
 7518SOL    HW123453   4.230   4.801   3.784
 7518SOL    HW223454   4.280   4.863   3.926
 7519SOL     OW23455   0.431   6.363   3.552
 7519SOL    HW123456   0.488   6.295   3.599
 7519SOL    HW223457   0.366   6.316   3.492
 7520SOL     OW23458   1.972   6.871   2.480
 7520SOL    HW123459   1.972   6.825   2.392
 7520SOL    HW223460   1.907   6.948   2.478
 7521SOL     OW23461   4.565   3.620   5.638
 7521SOL    HW123462   4.567   3.653   5.544
 7521SOL    HW223463   4.602   3.527   5.642
 7522SOL     OW23464   1.424   1.491   5.598
 7522SOL    HW123465   1.467   1.538   5.675
 7522SOL    HW223466   1.393   1.559   5.532
 7523SOL     OW23467   6.041   0.394   6.551
 7523SOL    HW123468   6.016   0.436   6.638
 7523SOL    HW223469   6.108   0.321   6.567
 7524SOL     OW23470   1.276   2.687   5.248
 7524SOL    HW123471   1.321   2.598   5.243
 7524SOL    HW223472   1.296   2.740   5.165
 7525SOL     OW23473   3.602   0.803   6.315
 7525SOL    HW123474   3.547   0.732   6.358
 7525SOL    HW223475   3.572   0.893   6.347
 7526SOL     OW23476   3.226   3.475   1.610
 7526SOL    HW123477   3.321   3.451   1.588
 7526SOL    HW223478   3.211   3.572   1.593
 7527SOL     OW23479   3.137   5.911   3.552
 7527SOL    HW123480   3.077   5.864   3.488
 7527SOL    HW223481   3.131   6.010   3.537
 7528SOL     OW23482   5.988   2.668   1.015
 7528SOL    HW123483   5.908   2.679   1.075
 7528SOL    HW223484   5.961   2.618   0.933
 7529SOL     OW23485   5.298   1.759   4.587
 7529SOL    HW123486   5.253   1.843   4.617
 7529SOL    HW223487   5.271   1.739   4.492
 7530SOL     OW23488   0.103   3.118   2.071
 7530SOL    HW123489   0.030   3.061   2.109
 7530SOL    HW223490   0.064   3.186   2.009
 7531SOL     OW23491   5.519   3.310   4.817
 7531SOL    HW123492   5.598   3.360   4.781
 7531SOL    HW223493   5.435   3.360   4.794
 7532SOL     OW23494   4.671   5.760   6.849
 7532SOL    HW123495   4.696   5.827   6.919
 7532SOL    HW223496   4.626   5.806   6.772
 7533SOL     OW23497   3.378   1.043   1.561
 7533SOL    HW123498   3.420   0.953   1.545
 7533SOL    HW223499   3.280   1.031   1.578
 7534SOL     OW23500   4.314   6.631   5.347
 7534SOL    HW123501   4.266   6.543   5.349
 7534SOL    HW223502   4.298   6.675   5.259
 7535SOL     OW23503   2.057   0.902   4.796
 7535SOL    HW123504   2.075   0.845   4.716
 7535SOL    HW223505   1.960   0.898   4.818
 7536SOL     OW23506   5.001   4.747   3.847
 7536SOL    HW123507   4.923   4.693   3.880
 7536SOL    HW223508   4.973   4.843   3.838
 7537SOL     OW23509   2.769   5.960   1.549
 7537SOL    HW123510   2.719   6.013   1.617
 7537SOL    HW223511   2.705   5.923   1.482
 7538SOL     OW23512   1.649   2.559   1.127
 7538SOL    HW123513   1.739   2.548   1.171
 7538SOL    HW223514   1.660   2.550   1.028
 7539SOL     OW23515   1.776   3.610   3.979
 7539SOL    HW123516   1.795   3.605   3.881
 7539SOL    HW223517   1.728   3.695   4.000
 7540SOL     OW23518   4.252   0.579   4.430
 7540SOL    HW123519   4.257   0.675   4.458
 7540SOL    HW223520   4.235   0.522   4.510
 7541SOL     OW23521   0.556   4.532   5.079
 7541SOL    HW123522   0.624   4.606   5.085
 7541SOL    HW223523   0.599   4.445   5.102
 7542SOL     OW23524   1.364   4.848   6.788
 7542SOL    HW123525   1.404   4.822   6.700
 7542SOL    HW223526   1.269   4.876   6.775
 7543SOL     OW23527   4.048   1.338   5.948
 7543SOL    HW123528   3.972   1.311   6.006
 7543SOL    HW223529   4.134   1.336   6.000
 7544SOL     OW23530   6.890   2.039   2.565
 7544SOL    HW123531   6.847   2.112   2.513
 7544SOL    HW223532   6.827   2.006   2.636
 7545SOL     OW23533   0.411   5.168   0.398
 7545SOL    HW123534   0.487   5.232   0.406
 7545SOL    HW223535   0.326   5.218   0.385
 7546SOL     OW23536   3.279   2.170   1.141
 7546SOL    HW123537   3.335   2.185   1.223
 7546SOL    HW223538   3.240   2.077   1.144
 7547SOL     OW23539   4.879   1.825   0.500
 7547SOL    HW123540   4.899   1.833   0.598
 7547SOL    HW223541   4.845   1.733   0.480
 7548SOL     OW23542   4.809   1.763   6.857
 7548SOL    HW123543   4.734   1.727   6.914
 7548SOL    HW223544   4.773   1.833   6.795
 7549SOL     OW23545   3.815   2.914   6.530
 7549SOL    HW123546   3.791   2.848   6.601
 7549SOL    HW223547   3.746   2.987   6.528
 7550SOL     OW23548   2.435   4.993   3.406
 7550SOL    HW123549   2.375   4.914   3.422
 7550SOL    HW223550   2.385   5.077   3.427
 7551SOL     OW23551   5.576   3.686   6.627
 7551SOL    HW123552   5.609   3.607   6.577
 7551SOL    HW223553   5.596   3.675   6.724
 7552SOL     OW23554   1.532   6.160   2.729
 7552SOL    HW123555   1.514   6.204   2.641
 7552SOL    HW223556   1.592   6.082   2.715
 7553SOL     OW23557   4.192   6.389   5.198
 7553SOL    HW123558   4.129   6.383   5.121
 7553SOL    HW223559   4.163   6.327   5.270
 7554SOL     OW23560   5.009   1.108   0.114
 7554SOL    HW123561   5.106   1.128   0.103
 7554SOL    HW223562   4.955   1.190   0.092
 7555SOL     OW23563   2.185   4.764   6.268
 7555SOL    HW123564   2.114   4.700   6.239
 7555SOL    HW223565   2.143   4.845   6.310
 7556SOL     OW23566   2.516   2.796   0.430
 7556SOL    HW123567   2.472   2.736   0.363
 7556SOL    HW223568   2.537   2.745   0.513
 7557SOL     OW23569   5.178   1.178   5.533
 7557SOL    HW123570   5.152   1.245   5.602
 7557SOL    HW223571   5.099   1.159   5.474
 7558SOL     OW23572   1.989   2.574   4.245
 7558SOL    HW123573   1.920   2.518   4.290
 7558SOL    HW223574   2.021   2.645   4.307
 7559SOL     OW23575   4.842   3.606   1.007
 7559SOL    HW123576   4.895   3.651   0.935
 7559SOL    HW223577   4.827   3.511   0.983
 7560SOL     OW23578   5.575   6.286   0.930
 7560SOL    HW123579   5.543   6.225   1.002
 7560SOL    HW223580   5.666   6.319   0.953
 7561SOL     OW23581   0.921   2.912   6.672
 7561SOL    HW123582   0.983   2.983   6.705
 7561SOL    HW223583   0.861   2.949   6.602
 7562SOL     OW23584   0.666   5.636   4.440
 7562SOL    HW123585   0.618   5.707   4.492
 7562SOL    HW223586   0.608   5.607   4.364
 7563SOL     OW23587   3.319   0.238   1.421
 7563SOL    HW123588   3.339   0.183   1.340
 7563SOL    HW223589   3.399   0.240   1.481
 7564SOL     OW23590   3.641   6.957   3.334
 7564SOL    HW123591   3.623   6.913   3.246
 7564SOL    HW223592   3.624   6.892   3.408
 7565SOL     OW23593   5.406   3.062   6.708
 7565SOL    HW123594   5.501   3.030   6.713
 7565SOL    HW223595   5.357   3.035   6.792
 7566SOL     OW23596   6.496   4.855   3.171
 7566SOL    HW123597   6.518   4.946   3.207
 7566SOL    HW223598   6.572   4.821   3.116
 7567SOL     OW23599   1.854   1.932   5.482
 7567SOL    HW123600   1.802   1.848   5.497
 7567SOL    HW223601   1.888   1.966   5.570
 7568SOL     OW23602   5.206   5.663   3.152
 7568SOL    HW123603   5.149   5.676   3.071
 7568SOL    HW223604   5.154   5.616   3.223
 7569SOL     OW23605   3.772   4.932   5.972
 7569SOL    HW123606   3.734   5.017   6.009
 7569SOL    HW223607   3.725   4.854   6.011
 7570SOL     OW23608   5.353   3.805   5.140
 7570SOL    HW123609   5.344   3.749   5.222
 7570SOL    HW223610   5.445   3.844   5.137
 7571SOL     OW23611   4.169   4.712   3.317
 7571SOL    HW123612   4.074   4.741   3.304
 7571SOL    HW223613   4.209   4.691   3.228
 7572SOL     OW23614   4.438   1.104   1.437
 7572SOL    HW123615   4.484   1.036   1.380
 7572SOL    HW223616   4.452   1.081   1.533
 7573SOL     OW23617   0.167   0.455   5.459
 7573SOL    HW123618   0.121   0.488   5.376
 7573SOL    HW223619   0.265   0.469   5.451
 7574SOL     OW23620   5.120   0.649   5.201
 7574SOL    HW123621   5.068   0.595   5.134
 7574SOL    HW223622   5.131   0.596   5.285
 7575SOL     OW23623   5.346   1.056   6.097
 7575SOL    HW123624   5.347   0.998   6.015
 7575SOL    HW223625   5.428   1.114   6.097
 7576SOL     OW23626   5.116   3.204   0.632
 7576SOL    HW123627   5.121   3.105   0.622
 7576SOL    HW223628   5.158   3.248   0.552
 7577SOL     OW23629   0.749   6.879   6.977
 7577SOL    HW123630   0.764   6.786   6.943
 7577SOL    HW223631   0.692   6.929   6.913
 7578SOL     OW23632   2.977   5.507   1.665
 7578SOL    HW123633   3.022   5.588   1.702
 7578SOL    HW223634   3.000   5.428   1.721
 7579SOL     OW23635   0.063   0.747   2.650
 7579SOL    HW123636   0.032   0.744   2.555
 7579SOL    HW223637   0.150   0.699   2.658
 7580SOL     OW23638   0.859   3.887   4.390
 7580SOL    HW123639   0.873   3.911   4.486
 7580SOL    HW223640   0.762   3.867   4.374
 7581SOL     OW23641   0.112   1.729   2.340
 7581SOL    HW123642   0.120   1.813   2.394
 7581SOL    HW223643   0.193   1.672   2.356
 7582SOL     OW23644   3.689   1.218   1.747
 7582SOL    HW123645   3.678   1.254   1.655
 7582SOL    HW223646   3.784   1.228   1.776
 7583SOL     OW23647   5.969   2.949   2.203
 7583SOL    HW123648   5.962   2.968   2.301
 7583SOL    HW223649   5.986   3.034   2.154
 7584SOL     OW23650   3.370   0.579   2.559
 7584SOL    HW123651   3.378   0.640   2.480
 7584SOL    HW223652   3.315   0.623   2.630
 7585SOL     OW23653   2.065   2.743   6.729
 7585SOL    HW123654   1.986   2.795   6.763
 7585SOL    HW223655   2.054   2.726   6.631
 7586SOL     OW23656   2.616   0.515   3.824
 7586SOL    HW123657   2.609   0.489   3.920
 7586SOL    HW223658   2.709   0.496   3.792
 7587SOL     OW23659   2.265   1.923   6.959
 7587SOL    HW123660   2.208   1.841   6.958
 7587SOL    HW223661   2.360   1.897   6.946
 7588SOL     OW23662   1.185   3.001   3.717
 7588SOL    HW123663   1.232   2.916   3.693
 7588SOL    HW223664   1.249   3.063   3.762
 7589SOL     OW23665   0.278   0.430   2.351
 7589SOL    HW123666   0.332   0.365   2.298
 7589SOL    HW223667   0.242   0.501   2.290
 7590SOL     OW23668   3.686   2.485   6.661
 7590SOL    HW123669   3.623   2.516   6.590
 7590SOL    HW223670   3.738   2.563   6.697
 7591SOL     OW23671   6.676   3.778   0.955
 7591SOL    HW123672   6.619   3.853   0.991
 7591SOL    HW223673   6.637   3.690   0.982
 7592SOL     OW23674   0.106   5.576   5.202
 7592SOL    HW123675   0.114   5.675   5.207
 7592SOL    HW223676   0.093   5.539   5.294
 7593SOL     OW23677   6.459   2.855   0.300
 7593SOL    HW123678   6.396   2.791   0.255
 7593SOL    HW223679   6.420   2.882   0.388
 7594SOL     OW23680   1.472   4.304   2.611
 7594SOL    HW123681   1.384   4.284   2.569
 7594SOL    HW223682   1.486   4.403   2.615
 7595SOL     OW23683   6.144   2.644   5.809
 7595SOL    HW123684   6.065   2.662   5.750
 7595SOL    HW223685   6.191   2.729   5.829
 7596SOL     OW23686   4.047   6.214   3.443
 7596SOL    HW123687   4.006   6.302   3.420
 7596SOL    HW223688   4.143   6.228   3.468
 7597SOL     OW23689   2.190   0.011   3.135
 7597SOL    HW123690   2.222   0.014   3.230
 7597SOL    HW223691   2.260   6.986   3.078
 7598SOL     OW23692   6.518   0.830   3.163
 7598SOL    HW123693   6.458   0.852   3.087
 7598SOL    HW223694   6.608   0.805   3.129
 7599SOL     OW23695   5.630   1.878   2.459
 7599SOL    HW123696   5.725   1.910   2.468
 7599SOL    HW223697   5.570   1.956   2.445
 7600SOL     OW23698   1.274   1.563   3.352
 7600SOL    HW123699   1.334   1.556   3.432
 7600SOL    HW223700   1.288   1.483   3.294
 7601SOL     OW23701   2.010   4.396   2.481
 7601SOL    HW123702   2.050   4.472   2.533
 7601SOL    HW223703   1.911   4.395   2.492
 7602SOL     OW23704   2.395   3.609   6.845
 7602SOL    HW123705   2.360   3.632   6.936
 7602SOL    HW223706   2.327   3.552   6.797
 7603SOL     OW23707   1.398   5.861   6.236
 7603SOL    HW123708   1.341   5.937   6.205
 7603SOL    HW223709   1.443   5.886   6.322
 7604SOL     OW23710   1.919   3.427   4.487
 7604SOL    HW123711   1.941   3.487   4.564
 7604SOL    HW223712   1.890   3.483   4.409
 7605SOL     OW23713   1.187   0.969   1.475
 7605SOL    HW123714   1.186   0.945   1.378
 7605SOL    HW223715   1.233   0.897   1.527
 7606SOL     OW23716   5.989   3.962   4.818
 7606SOL    HW123717   6.010   3.864   4.814
 7606SOL    HW223718   5.976   3.989   4.914
 7607SOL     OW23719   3.254   5.090   0.010
 7607SOL    HW123720   3.263   5.177   6.980
 7607SOL    HW223721   3.331   5.078   0.072
 7608SOL     OW23722   3.615   4.001   1.370
 7608SOL    HW123723   3.551   3.924   1.365
 7608SOL    HW223724   3.567   4.086   1.347
 7609SOL     OW23725   1.566   2.716   4.229
 7609SOL    HW123726   1.576   2.671   4.140
 7609SOL    HW223727   1.562   2.648   4.301
 7610SOL     OW23728   4.229   4.555   6.189
 7610SOL    HW123729   4.289   4.613   6.133
 7610SOL    HW223730   4.208   4.471   6.140
 7611SOL     OW23731   5.904   4.127   1.745
 7611SOL    HW123732   5.888   4.221   1.716
 7611SOL    HW223733   5.816   4.083   1.764
 7612SOL     OW23734   4.885   3.207   2.166
 7612SOL    HW123735   4.826   3.145   2.113
 7612SOL    HW223736   4.877   3.300   2.130
 7613SOL     OW23737   0.014   2.741   1.358
 7613SOL    HW123738   0.051   2.730   1.450
 7613SOL    HW223739   0.057   2.674   1.296
 7614SOL     OW23740   5.471   3.415   0.894
 7614SOL    HW123741   5.403   3.352   0.932
 7614SOL    HW223742   5.492   3.486   0.961
 7615SOL     OW23743   3.645   4.861   0.079
 7615SOL    HW123744   3.546   4.868   0.085
 7615SOL    HW223745   3.679   4.925   0.010
 7616SOL     OW23746   6.376   6.341   4.449
 7616SOL    HW123747   6.291   6.390   4.467
 7616SOL    HW223748   6.433   6.340   4.532
 7617SOL     OW23749   4.175   6.550   2.921
 7617SOL    HW123750   4.225   6.563   2.836
 7617SOL    HW223751   4.223   6.483   2.978
 7618SOL     OW23752   0.076   2.268   5.949
 7618SOL    HW123753   0.026   2.191   5.909
 7618SOL    HW223754   0.093   2.337   5.879
 7619SOL     OW23755   6.818   3.257   4.944
 7619SOL    HW123756   6.863   3.334   4.899
 7619SOL    HW223757   6.804   3.183   4.878
 7620SOL     OW23758   4.088   5.695   1.378
 7620SOL    HW123759   4.128   5.741   1.457
 7620SOL    HW223760   4.135   5.724   1.295
 7621SOL     OW23761   6.519   0.964   0.892
 7621SOL    HW123762   6.598   0.953   0.831
 7621SOL    HW223763   6.436   0.977   0.837
 7622SOL     OW23764   3.927   5.126   6.694
 7622SOL    HW123765   3.952   5.082   6.608
 7622SOL    HW223766   3.854   5.193   6.677
 7623SOL     OW23767   4.906   3.413   6.619
 7623SOL    HW123768   4.993   3.393   6.573
 7623SOL    HW223769   4.911   3.503   6.660
 7624SOL     OW23770   6.939   3.919   5.135
 7624SOL    HW123771   6.957   3.821   5.135
 7624SOL    HW223772   7.001   3.964   5.071
 7625SOL     OW23773   5.287   0.659   0.756
 7625SOL    HW123774   5.300   0.623   0.849
 7625SOL    HW223775   5.225   0.737   0.759
 7626SOL     OW23776   6.236   0.152   4.594
 7626SOL    HW123777   6.264   0.144   4.690
 7626SOL    HW223778   6.171   0.080   4.572
 7627SOL     OW23779   5.224   2.933   0.274
 7627SOL    HW123780   5.188   2.841   0.286
 7627SOL    HW223781   5.320   2.929   0.250
 7628SOL     OW23782   3.335   2.490   1.613
 7628SOL    HW123783   3.266   2.436   1.663
 7628SOL    HW223784   3.421   2.489   1.663
 7629SOL     OW23785   0.233   5.070   3.679
 7629SOL    HW123786   0.263   5.097   3.588
 7629SOL    HW223787   0.305   5.090   3.745
 7630SOL     OW23788   0.648   0.241   1.448
 7630SOL    HW123789   0.630   0.143   1.463
 7630SOL    HW223790   0.738   0.251   1.405
 7631SOL     OW23791   0.584   1.784   5.943
 7631SOL    HW123792   0.608   1.757   6.036
 7631SOL    HW223793   0.486   1.800   5.936
 7632SOL     OW23794   4.666   4.267   1.534
 7632SOL    HW123795   4.656   4.225   1.624
 7632SOL    HW223796   4.663   4.196   1.463
 7633SOL     OW23797   5.367   6.946   1.921
 7633SOL    HW123798   5.446   6.884   1.922
 7633SOL    HW223799   5.369   7.004   2.003
 7634SOL     OW23800   1.787   1.580   2.136
 7634SOL    HW123801   1.832   1.494   2.111
 7634SOL    HW223802   1.688   1.569   2.128
 7635SOL     OW23803   3.706   4.808   5.260
 7635SOL    HW123804   3.781   4.835   5.320
 7635SOL    HW223805   3.639   4.756   5.313
 7636SOL     OW23806   1.621   3.116   4.147
 7636SOL    HW123807   1.635   3.198   4.093
 7636SOL    HW223808   1.694   3.050   4.129
 7637SOL     OW23809   2.956   6.252   2.148
 7637SOL    HW123810   2.934   6.158   2.124
 7637SOL    HW223811   2.913   6.314   2.082
 7638SOL     OW23812   2.195   6.130   1.354
 7638SOL    HW123813   2.255   6.205   1.328
 7638SOL    HW223814   2.191   6.063   1.279
 7639SOL     OW23815   0.457   2.039   1.390
 7639SOL    HW123816   0.537   1.999   1.345
 7639SOL    HW223817   0.403   2.090   1.323
 7640SOL     OW23818   3.318   1.659   5.794
 7640SOL    HW123819   3.328   1.564   5.824
 7640SOL    HW223820   3.370   1.674   5.710
 7641SOL     OW23821   1.477   3.787   2.243
 7641SOL    HW123822   1.407   3.819   2.180
 7641SOL    HW223823   1.566   3.786   2.197
 7642SOL     OW23824   3.579   2.131   2.479
 7642SOL    HW123825   3.663   2.081   2.459
 7642SOL    HW223826   3.595   2.229   2.466
 7643SOL     OW23827   4.673   2.365   3.269
 7643SOL    HW123828   4.672   2.445   3.331
 7643SOL    HW223829   4.617   2.293   3.309
 7644SOL     OW23830   4.280   2.491   1.798
 7644SOL    HW123831   4.246   2.582   1.776
 7644SOL    HW223832   4.350   2.497   1.869
 7645SOL     OW23833   5.254   3.619   5.349
 7645SOL    HW123834   5.240   3.584   5.442
 7645SOL    HW223835   5.170   3.607   5.296
 7646SOL     OW23836   1.751   3.162   3.438
 7646SOL    HW123837   1.693   3.190   3.362
 7646SOL    HW223838   1.797   3.076   3.415
 7647SOL     OW23839   6.953   2.545   3.398
 7647SOL    HW123840   0.005   2.615   3.411
 7647SOL    HW223841   6.977   2.464   3.451
 7648SOL     OW23842   2.530   1.772   3.072
 7648SOL    HW123843   2.582   1.841   3.021
 7648SOL    HW223844   2.541   1.683   3.029
 7649SOL     OW23845   0.834   0.748   3.665
 7649SOL    HW123846   0.835   0.743   3.765
 7649SOL    HW223847   0.864   0.838   3.636
 7650SOL     OW23848   5.621   1.352   0.579
 7650SOL    HW123849   5.650   1.447   0.594
 7650SOL    HW223850   5.524   1.351   0.555
 7651SOL     OW23851   2.023   0.544   3.813
 7651SOL    HW123852   2.086   0.473   3.781
 7651SOL    HW223853   1.929   0.509   3.810
 7652SOL     OW23854   6.204   3.038   4.968
 7652SOL    HW123855   6.271   2.964   4.978
 7652SOL    HW223856   6.115   3.007   5.001
 7653SOL     OW23857   0.252   1.956   7.015
 7653SOL    HW123858   0.178   1.963   6.949
 7653SOL    HW223859   0.268   1.859   0.018
 7654SOL     OW23860   4.737   2.912   4.826
 7654SOL    HW123861   4.801   2.985   4.849
 7654SOL    HW223862   4.740   2.895   4.727
 7655SOL     OW23863   4.522   6.504   3.022
 7655SOL    HW123864   4.577   6.467   2.947
 7655SOL    HW223865   4.449   6.440   3.045
 7656SOL     OW23866   3.504   3.871   6.990
 7656SOL    HW123867   3.530   3.947   0.032
 7656SOL    HW223868   3.436   3.902   6.924
 7657SOL     OW23869   1.186   2.247   3.576
 7657SOL    HW123870   1.225   2.228   3.666
 7657SOL    HW223871   1.119   2.321   3.583
 7658SOL     OW23872   3.128   0.513   6.687
 7658SOL    HW123873   3.153   0.451   6.762
 7658SOL    HW223874   3.188   0.497   6.609
 7659SOL     OW23875   5.413   4.886   6.394
 7659SOL    HW123876   5.358   4.870   6.312
 7659SOL    HW223877   5.495   4.828   6.391
 7660SOL     OW23878   0.293   5.691   3.301
 7660SOL    HW123879   0.290   5.692   3.401
 7660SOL    HW223880   0.246   5.609   3.267
 7661SOL     OW23881   5.478   2.143   5.074
 7661SOL    HW123882   5.544   2.213   5.103
 7661SOL    HW223883   5.385   2.179   5.084
 7662SOL     OW23884   1.795   2.978   4.466
 7662SOL    HW123885   1.719   2.931   4.421
 7662SOL    HW223886   1.760   3.055   4.520
 7663SOL     OW23887   6.347   5.569   5.879
 7663SOL    HW123888   6.348   5.603   5.973
 7663SOL    HW223889   6.385   5.637   5.817
 7664SOL     OW23890   4.281   0.662   1.740
 7664SOL    HW123891   4.235   0.576   1.765
 7664SOL    HW223892   4.304   0.713   1.822
 7665SOL     OW23893   5.857   1.127   4.240
 7665SOL    HW123894   5.914   1.063   4.189
 7665SOL    HW223895   5.769   1.137   4.194
 7666SOL     OW23896   0.824   5.020   2.258
 7666SOL    HW123897   0.730   5.029   2.227
 7666SOL    HW223898   0.830   4.944   2.324
 7667SOL     OW23899   4.192   0.433   2.475
 7667SOL    HW123900   4.275   0.387   2.505
 7667SOL    HW223901   4.215   0.524   2.439
 7668SOL     OW23902   3.224   5.018   0.719
 7668SOL    HW123903   3.236   4.942   0.783
 7668SOL    HW223904   3.126   5.035   0.706
 7669SOL     OW23905   4.718   0.841   5.058
 7669SOL    HW123906   4.792   0.875   5.000
 7669SOL    HW223907   4.630   0.865   5.016
 7670SOL     OW23908   0.855   4.763   0.298
 7670SOL    HW123909   0.858   4.721   0.207
 7670SOL    HW223910   0.763   4.754   0.335
 7671SOL     OW23911   3.486   1.316   1.919
 7671SOL    HW123912   3.558   1.309   1.850
 7671SOL    HW223913   3.420   1.243   1.905
 7672SOL     OW23914   0.229   6.285   2.814
 7672SOL    HW123915   0.157   6.281   2.745
 7672SOL    HW223916   0.220   6.206   2.875
 7673SOL     OW23917   1.368   6.624   1.342
 7673SOL    HW123918   1.335   6.717   1.362
 7673SOL    HW223919   1.289   6.562   1.335
 7674SOL     OW23920   4.578   0.904   3.547
 7674SOL    HW123921   4.599   0.840   3.474
 7674SOL    HW223922   4.574   0.856   3.635
 7675SOL     OW23923   6.184   6.749   2.617
 7675SOL    HW123924   6.097   6.753   2.569
 7675SOL    HW223925   6.206   6.840   2.654
 7676SOL     OW23926   2.436   1.797   0.430
 7676SOL    HW123927   2.503   1.729   0.400
 7676SOL    HW223928   2.394   1.840   0.351
 7677SOL     OW23929   0.958   4.516   1.307
 7677SOL    HW123930   0.995   4.437   1.258
 7677SOL    HW223931   1.033   4.575   1.336
 7678SOL     OW23932   2.514   2.806   5.352
 7678SOL    HW123933   2.491   2.869   5.278
 7678SOL    HW223934   2.434   2.751   5.374
 7679SOL     OW23935   3.123   6.470   5.739
 7679SOL    HW123936   3.215   6.465   5.701
 7679SOL    HW223937   3.085   6.562   5.724
 7680SOL     OW23938   1.667   0.717   0.732
 7680SOL    HW123939   1.763   0.740   0.717
 7680SOL    HW223940   1.627   0.683   0.647
 7681SOL     OW23941   2.581   0.589   1.203
 7681SOL    HW123942   2.535   0.516   1.152
 7681SOL    HW223943   2.671   0.556   1.234
 7682SOL     OW23944   3.681   0.195   2.404
 7682SOL    HW123945   3.764   0.153   2.439
 7682SOL    HW223946   3.693   0.294   2.398
 7683SOL     OW23947   6.091   2.282   4.358
 7683SOL    HW123948   6.071   2.372   4.321
 7683SOL    HW223949   6.047   2.212   4.300
 7684SOL     OW23950   3.955   1.835   1.449
 7684SOL    HW123951   3.927   1.777   1.526
 7684SOL    HW223952   3.920   1.928   1.464
 7685SOL     OW23953   3.052   1.510   6.019
 7685SOL    HW123954   3.111   1.590   6.010
 7685SOL    HW223955   2.987   1.525   6.093
 7686SOL     OW23956   0.258   6.264   3.392
 7686SOL    HW123957   0.241   6.345   3.337
 7686SOL    HW223958   0.171   6.233   3.432
 7687SOL     OW23959   6.231   5.529   4.123
 7687SOL    HW123960   6.222   5.628   4.133
 7687SOL    HW223961   6.311   5.498   4.174
 7688SOL     OW23962   0.930   6.043   5.067
 7688SOL    HW123963   0.898   6.113   5.130
 7688SOL    HW223964   1.015   6.074   5.024
 7689SOL     OW23965   5.660   6.391   2.418
 7689SOL    HW123966   5.668   6.300   2.376
 7689SOL    HW223967   5.651   6.460   2.346
 7690SOL     OW23968   5.305   4.141   0.094
 7690SOL    HW123969   5.232   4.075   0.078
 7690SOL    HW223970   5.388   4.111   0.047
 7691SOL     OW23971   4.872   3.677   4.136
 7691SOL    HW123972   4.794   3.660   4.075
 7691SOL    HW223973   4.910   3.590   4.168
 7692SOL     OW23974   0.836   6.001   1.957
 7692SOL    HW123975   0.752   5.998   2.012
 7692SOL    HW223976   0.812   6.017   1.861
 7693SOL     OW23977   3.232   0.177   1.971
 7693SOL    HW123978   3.306   0.232   1.932
 7693SOL    HW223979   3.271   0.104   2.027
 7694SOL     OW23980   5.241   4.017   4.118
 7694SOL    HW123981   5.162   3.966   4.085
 7694SOL    HW223982   5.230   4.114   4.096
 7695SOL     OW23983   4.416   6.695   0.946
 7695SOL    HW123984   4.360   6.641   1.008
 7695SOL    HW223985   4.365   6.777   0.918
 7696SOL     OW23986   0.367   0.740   6.223
 7696SOL    HW123987   0.419   0.825   6.220
 7696SOL    HW223988   0.352   0.713   6.318
 7697SOL     OW23989   2.373   0.173   3.458
 7697SOL    HW123990   2.463   0.137   3.433
 7697SOL    HW223991   2.304   0.102   3.444
 7698SOL     OW23992   5.415   2.106   3.830
 7698SOL    HW123993   5.379   2.034   3.771
 7698SOL    HW223994   5.443   2.066   3.917
 7699SOL     OW23995   3.422   6.411   6.063
 7699SOL    HW123996   3.513   6.450   6.050
 7699SOL    HW223997   3.391   6.368   5.977
 7700SOL     OW23998   4.765   5.700   3.059
 7700SOL    HW123999   4.733   5.727   2.968
 7700SOL    HW224000   4.737   5.606   3.077
 7701SOL     OW24001   6.357   2.020   0.002
 7701SOL    HW124002   6.374   2.104   0.054
 7701SOL    HW224003   6.368   2.039   6.922
 7702SOL     OW24004   3.724   6.273   4.963
 7702SOL    HW124005   3.784   6.205   5.005
 7702SOL    HW224006   3.634   6.233   4.947
 7703SOL     OW24007   6.015   6.286   6.021
 7703SOL    HW124008   5.966   6.362   6.064
 7703SOL    HW224009   6.077   6.245   6.088
 7704SOL     OW24010   5.812   0.432   4.229
 7704SOL    HW124011   5.787   0.523   4.262
 7704SOL    HW224012   5.731   0.373   4.230
 7705SOL     OW24013   2.584   5.998   0.484
 7705SOL    HW124014   2.601   5.931   0.556
 7705SOL    HW224015   2.515   6.064   0.514
 7706SOL     OW24016   3.464   3.809   4.947
 7706SOL    HW124017   3.422   3.785   4.859
 7706SOL    HW224018   3.461   3.908   4.959
 7707SOL     OW24019   0.245   4.500   5.971
 7707SOL    HW124020   0.260   4.404   5.994
 7707SOL    HW224021   0.331   4.541   5.940
 7708SOL     OW24022   0.791   6.866   5.595
 7708SOL    HW124023   0.719   6.897   5.532
 7708SOL    HW224024   0.817   6.772   5.572
 7709SOL     OW24025   6.763   4.762   2.557
 7709SOL    HW124026   6.815   4.835   2.600
 7709SOL    HW224027   6.690   4.731   2.619
 7710SOL     OW24028   3.529   2.699   0.463
 7710SOL    HW124029   3.530   2.611   0.511
 7710SOL    HW224030   3.448   2.750   0.490
 7711SOL     OW24031   5.617   6.736   5.835
 7711SOL    HW124032   5.700   6.733   5.780
 7711SOL    HW224033   5.584   6.643   5.852
 7712SOL     OW24034   0.200   5.278   1.339
 7712SOL    HW124035   0.237   5.270   1.432
 7712SOL    HW224036   0.129   5.349   1.337
 7713SOL     OW24037   1.558   3.789   0.424
 7713SOL    HW124038   1.592   3.883   0.430
 7713SOL    HW224039   1.567   3.756   0.331
 7714SOL     OW24040   0.454   4.528   5.462
 7714SOL    HW124041   0.407   4.502   5.546
 7714SOL    HW224042   0.389   4.526   5.385
 7715SOL     OW24043   3.161   2.529   0.410
 7715SOL    HW124044   3.070   2.547   0.374
 7715SOL    HW224045   3.174   2.580   0.495
 7716SOL     OW24046   0.155   4.723   1.730
 7716SOL    HW124047   0.124   4.790   1.663
 7716SOL    HW224048   0.077   4.686   1.779
 7717SOL     OW24049   1.917   0.903   5.808
 7717SOL    HW124050   1.970   0.825   5.775
 7717SOL    HW224051   1.906   0.897   5.907
 7718SOL     OW24052   6.787   4.596   3.307
 7718SOL    HW124053   6.854   4.623   3.376
 7718SOL    HW224054   6.697   4.632   3.333
 7719SOL     OW24055   0.428   4.020   5.286
 7719SOL    HW124056   0.478   4.026   5.372
 7719SOL    HW224057   0.422   3.924   5.257
 7720SOL     OW24058   6.638   2.545   6.485
 7720SOL    HW124059   6.651   2.571   6.389
 7720SOL    HW224060   6.584   2.460   6.489
 7721SOL     OW24061   0.347   5.082   2.371
 7721SOL    HW124062   0.324   5.096   2.467
 7721SOL    HW224063   0.414   5.009   2.363
 7722SOL     OW24064   1.248   3.995   3.411
 7722SOL    HW124065   1.331   4.043   3.384
 7722SOL    HW224066   1.169   4.056   3.402
 7723SOL     OW24067   4.593   3.462   6.299
 7723SOL    HW124068   4.631   3.533   6.240
 7723SOL    HW224069   4.544   3.395   6.244
 7724SOL     OW24070   2.612   3.806   0.985
 7724SOL    HW124071   2.686   3.854   1.033
 7724SOL    HW224072   2.527   3.859   0.993
 7725SOL     OW24073   6.293   1.563   2.676
 7725SOL    HW124074   6.324   1.638   2.617
 7725SOL    HW224075   6.299   1.477   2.627
 7726SOL     OW24076   1.867   5.191   5.764
 7726SOL    HW124077   1.917   5.276   5.779
 7726SOL    HW224078   1.931   5.114   5.763
 7727SOL     OW24079   6.525   2.171   2.741
 7727SOL    HW124080   6.437   2.201   2.704
 7727SOL    HW224081   6.598   2.221   2.696
 7728SOL     OW24082   2.138   3.151   5.160
 7728SOL    HW124083   2.060   3.114   5.109
 7728SOL    HW224084   2.223   3.110   5.125
 7729SOL     OW24085   6.163   1.920   1.200
 7729SOL    HW124086   6.139   2.015   1.182
 7729SOL    HW224087   6.168   1.904   1.298
 7730SOL     OW24088   6.752   4.929   7.009
 7730SOL    HW124089   6.840   4.900   6.972
 7730SOL    HW224090   6.766   4.988   0.071
 7731SOL     OW24091   5.966   0.948   6.897
 7731SOL    HW124092   5.993   0.991   6.983
 7731SOL    HW224093   6.004   1.000   6.820
 7732SOL     OW24094   4.737   6.435   0.633
 7732SOL    HW124095   4.832   6.439   0.604
 7732SOL    HW224096   4.730   6.467   0.728
 7733SOL     OW24097   5.527   6.085   2.457
 7733SOL    HW124098   5.627   6.077   2.458
 7733SOL    HW224099   5.495   6.106   2.549
 7734SOL     OW24100   1.477   4.669   4.122
 7734SOL    HW124101   1.565   4.718   4.126
 7734SOL    HW224102   1.428   4.680   4.208
 7735SOL     OW24103   5.059   6.279   6.268
 7735SOL    HW124104   5.054   6.322   6.357
 7735SOL    HW224105   5.027   6.342   6.198
 7736SOL     OW24106   2.383   2.790   6.954
 7736SOL    HW124107   2.441   2.870   6.970
 7736SOL    HW224108   2.440   2.711   6.932
 7737SOL     OW24109   2.697   6.537   2.809
 7737SOL    HW124110   2.652   6.516   2.723
 7737SOL    HW224111   2.780   6.590   2.792
 7738SOL     OW24112   3.178   5.739   7.015
 7738SOL    HW124113   3.246   5.673   0.028
 7738SOL    HW224114   3.086   5.701   0.014
 7739SOL     OW24115   6.947   2.112   1.904
 7739SOL    HW124116   0.006   2.100   1.841
 7739SOL    HW224117   6.922   2.209   1.909
 7740SOL     OW24118   2.950   0.819   3.265
 7740SOL    HW124119   2.853   0.814   3.242
 7740SOL    HW224120   3.001   0.752   3.211
 7741SOL     OW24121   0.137   4.990   5.857
 7741SOL    HW124122   0.181   4.964   5.771
 7741SOL    HW224123   0.038   4.989   5.845
 7742SOL     OW24124   4.189   2.099   3.059
 7742SOL    HW124125   4.145   2.129   2.974
 7742SOL    HW224126   4.126   2.042   3.111
 7743SOL     OW24127   5.395   2.053   0.286
 7743SOL    HW124128   5.341   1.994   0.226
 7743SOL    HW224129   5.344   2.072   0.369
 7744SOL     OW24130   0.807   0.562   4.381
 7744SOL    HW124131   0.716   0.521   4.382
 7744SOL    HW224132   0.840   0.571   4.475
 7745SOL     OW24133   3.882   1.348   6.556
 7745SOL    HW124134   3.936   1.413   6.503
 7745SOL    HW224135   3.885   1.374   6.653
 7746SOL     OW24136   1.108   0.756   0.282
 7746SOL    HW124137   1.048   0.835   0.296
 7746SOL    HW224138   1.153   0.764   0.193
 7747SOL     OW24139   5.932   6.200   0.953
 7747SOL    HW124140   6.023   6.202   0.911
 7747SOL    HW224141   5.902   6.293   0.971
 7748SOL     OW24142   2.907   3.665   4.564
 7748SOL    HW124143   2.929   3.578   4.609
 7748SOL    HW224144   2.810   3.683   4.572
 7749SOL     OW24145   3.292   3.533   5.870
 7749SOL    HW124146   3.200   3.562   5.846
 7749SOL    HW224147   3.320   3.458   5.809
 7750SOL     OW24148   0.028   5.555   0.375
 7750SOL    HW124149   6.981   5.547   0.299
 7750SOL    HW224150   0.112   5.506   0.352
 7751SOL     OW24151   1.443   2.909   2.675
 7751SOL    HW124152   1.383   2.988   2.679
 7751SOL    HW224153   1.520   2.921   2.738
 7752SOL     OW24154   5.723   6.274   5.275
 7752SOL    HW124155   5.719   6.317   5.365
 7752SOL    HW224156   5.780   6.191   5.280
 7753SOL     OW24157   1.870   0.651   4.952
 7753SOL    HW124158   1.795   0.605   5.000
 7753SOL    HW224159   1.863   0.634   4.854
 7754SOL     OW24160   5.054   0.081   1.606
 7754SOL    HW124161   5.078   0.172   1.572
 7754SOL    HW224162   5.052   0.017   1.530
 7755SOL     OW24163   1.403   2.422   5.860
 7755SOL    HW124164   1.476   2.427   5.927
 7755SOL    HW224165   1.349   2.339   5.876
 7756SOL     OW24166   3.286   5.717   1.686
 7756SOL    HW124167   3.201   5.738   1.735
 7756SOL    HW224168   3.272   5.729   1.588
 7757SOL     OW24169   5.612   5.986   5.418
 7757SOL    HW124170   5.704   5.983   5.378
 7757SOL    HW224171   5.567   5.898   5.403
 7758SOL     OW24172   1.457   1.503   6.081
 7758SOL    HW124173   1.434   1.575   6.146
 7758SOL    HW224174   1.402   1.422   6.101
 7759SOL     OW24175   1.082   2.053   5.331
 7759SOL    HW124176   1.171   2.039   5.374
 7759SOL    HW224177   1.093   2.054   5.232
 7760SOL     OW24178   5.616   3.554   2.757
 7760SOL    HW124179   5.568   3.633   2.796
 7760SOL    HW224180   5.551   3.498   2.706
 7761SOL     OW24181   1.002   0.365   5.918
 7761SOL    HW124182   0.990   0.377   5.820
 7761SOL    HW224183   0.923   0.318   5.956
 7762SOL     OW24184   4.418   0.594   3.959
 7762SOL    HW124185   4.383   0.501   3.950
 7762SOL    HW224186   4.488   0.596   4.031
 7763SOL     OW24187   1.075   1.172   6.842
 7763SOL    HW124188   1.060   1.156   6.939
 7763SOL    HW224189   1.171   1.196   6.826
 7764SOL     OW24190   3.414   2.893   3.155
 7764SOL    HW124191   3.356   2.814   3.136
 7764SOL    HW224192   3.426   2.903   3.254
 7765SOL     OW24193   6.480   2.978   3.868
 7765SOL    HW124194   6.504   2.881   3.856
 7765SOL    HW224195   6.394   2.985   3.918
 7766SOL     OW24196   5.978   2.724   6.784
 7766SOL    HW124197   5.899   2.667   6.761
 7766SOL    HW224198   6.024   2.752   6.700
 7767SOL     OW24199   4.522   5.399   2.813
 7767SOL    HW124200   4.581   5.418   2.892
 7767SOL    HW224201   4.487   5.485   2.776
 7768SOL     OW24202   4.509   4.665   1.919
 7768SOL    HW124203   4.534   4.589   1.979
 7768SOL    HW224204   4.593   4.712   1.889
 7769SOL     OW24205   5.047   3.006   3.071
 7769SOL    HW124206   5.008   2.922   3.034
 7769SOL    HW224207   5.079   2.989   3.165
 7770SOL     OW24208   1.689   4.045   2.631
 7770SOL    HW124209   1.724   4.018   2.542
 7770SOL    HW224210   1.599   4.086   2.620
 7771SOL     OW24211   3.469   2.226   5.244
 7771SOL    HW124212   3.406   2.295   5.209
 7771SOL    HW224213   3.552   2.271   5.280
 7772SOL     OW24214   4.884   6.992   2.310
 7772SOL    HW124215   4.812   6.935   2.271
 7772SOL    HW224216   4.968   6.981   2.257
 7773SOL     OW24217   2.424   5.723   4.928
 7773SOL    HW124218   2.455   5.641   4.975
 7773SOL    HW224219   2.383   5.697   4.840
 7774SOL     OW24220   5.458   2.103   5.673
 7774SOL    HW124221   5.395   2.116   5.750
 7774SOL    HW224222   5.470   2.005   5.656
 7775SOL     OW24223   5.057   6.051   1.779
 7775SOL    HW124224   5.084   5.958   1.804
 7775SOL    HW224225   4.964   6.069   1.811
 7776SOL     OW24226   1.716   5.004   6.695
 7776SOL    HW124227   1.780   4.928   6.706
 7776SOL    HW224228   1.735   5.075   6.763
 7777SOL     OW24229   0.627   6.991   4.460
 7777SOL    HW124230   0.622   6.899   4.497
 7777SOL    HW224231   0.722   0.004   4.457
 7778SOL     OW24232   5.359   3.850   1.155
 7778SOL    HW124233   5.319   3.874   1.067
 7778SOL    HW224234   5.305   3.892   1.229
 7779SOL     OW24235   2.464   2.438   1.815
 7779SOL    HW124236   2.383   2.452   1.759
 7779SOL    HW224237   2.541   2.490   1.777
 7780SOL     OW24238   1.144   4.223   5.237
 7780SOL    HW124239   1.052   4.233   5.274
 7780SOL    HW224240   1.196   4.306   5.254
 7781SOL     OW24241   1.079   4.602   0.188
 7781SOL    HW124242   1.156   4.645   0.235
 7781SOL    HW224243   1.114   4.532   0.125
 7782SOL     OW24244   6.668   4.590   4.520
 7782SOL    HW124245   6.639   4.518   4.457
 7782SOL    HW224246   6.767   4.584   4.533
 7783SOL     OW24247   1.221   5.722   5.076
 7783SOL    HW124248   1.180   5.632   5.062
 7783SOL    HW224249   1.196   5.782   5.000
 7784SOL     OW24250   2.728   2.646   1.335
 7784SOL    HW124251   2.796   2.701   1.384
 7784SOL    HW224252   2.706   2.565   1.390
 7785SOL     OW24253   1.938   5.513   4.180
 7785SOL    HW124254   1.890   5.425   4.173
 7785SOL    HW224255   1.872   5.588   4.168
 7786SOL     OW24256   2.983   6.477   0.267
 7786SOL    HW124257   2.997   6.390   0.221
 7786SOL    HW224258   3.003   6.552   0.205
 7787SOL     OW24259   2.307   2.930   6.644
 7787SOL    HW124260   2.353   2.921   6.556
 7787SOL    HW224261   2.271   2.841   6.673
 7788SOL     OW24262   2.392   5.468   1.227
 7788SOL    HW124263   2.457   5.451   1.301
 7788SOL    HW224264   2.429   5.538   1.166
 7789SOL     OW24265   1.914   6.915   6.080
 7789SOL    HW124266   1.842   6.958   6.025
 7789SOL    HW224267   1.910   6.816   6.067
 7790SOL     OW24268   6.014   5.805   3.622
 7790SOL    HW124269   5.967   5.718   3.604
 7790SOL    HW224270   5.972   5.849   3.702
 7791SOL     OW24271   2.159   5.575   3.798
 7791SOL    HW124272   2.097   5.634   3.850
 7791SOL    HW224273   2.246   5.566   3.847
 7792SOL     OW24274   1.916   5.223   4.800
 7792SOL    HW124275   1.879   5.169   4.724
 7792SOL    HW224276   1.915   5.320   4.776
 7793SOL     OW24277   3.681   0.678   0.482
 7793SOL    HW124278   3.623   0.600   0.508
 7793SOL    HW224279   3.636   0.730   0.409
 7794SOL     OW24280   6.220   4.460   3.004
 7794SOL    HW124281   6.167   4.490   2.925
 7794SOL    HW224282   6.169   4.390   3.054
 7795SOL     OW24283   2.032   4.269   5.447
 7795SOL    HW124284   2.117   4.321   5.439
 7795SOL    HW224285   2.030   4.197   5.377
 7796SOL     OW24286   4.060   3.783   3.711
 7796SOL    HW124287   4.021   3.873   3.735
 7796SOL    HW224288   4.078   3.731   3.794
 7797SOL     OW24289   1.291   6.981   3.135
 7797SOL    HW124290   1.261   0.053   3.167
 7797SOL    HW224291   1.390   6.973   3.146
 7798SOL     OW24292   2.530   4.228   5.554
 7798SOL    HW124293   2.498   4.138   5.523
 7798SOL    HW224294   2.570   4.277   5.477
 7799SOL     OW24295   0.927   6.234   2.608
 7799SOL    HW124296   1.018   6.252   2.646
 7799SOL    HW224297   0.889   6.152   2.649
 7800SOL     OW24298   1.026   5.461   1.747
 7800SOL    HW124299   0.959   5.487   1.677
 7800SOL    HW224300   0.993   5.380   1.796
 7801SOL     OW24301   2.435   1.825   1.620
 7801SOL    HW124302   2.411   1.729   1.606
 7801SOL    HW224303   2.530   1.831   1.651
 7802SOL     OW24304   6.103   2.896   1.192
 7802SOL    HW124305   6.046   2.876   1.272
 7802SOL    HW224306   6.087   2.826   1.122
 7803SOL     OW24307   4.855   1.730   5.931
 7803SOL    HW124308   4.771   1.756   5.979
 7803SOL    HW224309   4.835   1.658   5.865
 7804SOL     OW24310   4.743   2.204   3.660
 7804SOL    HW124311   4.751   2.299   3.631
 7804SOL    HW224312   4.833   2.160   3.657
 7805SOL     OW24313   5.617   2.608   1.563
 7805SOL    HW124314   5.555   2.683   1.585
 7805SOL    HW224315   5.570   2.542   1.504
 7806SOL     OW24316   5.734   1.808   0.287
 7806SOL    HW124317   5.701   1.815   0.193
 7806SOL    HW224318   5.790   1.726   0.297
 7807SOL     OW24319   1.596   4.629   5.478
 7807SOL    HW124320   1.680   4.624   5.425
 7807SOL    HW224321   1.545   4.711   5.452
 7808SOL     OW24322   6.109   3.098   3.486
 7808SOL    HW124323   6.016   3.108   3.450
 7808SOL    HW224324   6.108   3.039   3.567
 7809SOL     OW24325   2.915   5.126   3.671
 7809SOL    HW124326   2.821   5.115   3.638
 7809SOL    HW224327   2.970   5.047   3.643
 7810SOL     OW24328   3.525   0.271   4.443
 7810SOL    HW124329   3.445   0.219   4.472
 7810SOL    HW224330   3.572   0.309   4.523
 7811SOL     OW24331   1.877   5.507   2.400
 7811SOL    HW124332   1.836   5.493   2.310
 7811SOL    HW224333   1.883   5.420   2.449
 7812SOL     OW24334   0.430   1.754   4.188
 7812SOL    HW124335   0.494   1.689   4.147
 7812SOL    HW224336   0.337   1.731   4.161
 7813SOL     OW24337   5.259   2.643   6.817
 7813SOL    HW124338   5.184   2.704   6.796
 7813SOL    HW224339   5.236   2.550   6.787
 7814SOL     OW24340   0.492   3.651   3.195
 7814SOL    HW124341   0.502   3.642   3.294
 7814SOL    HW224342   0.537   3.573   3.150
 7815SOL     OW24343   5.319   0.949   5.600
 7815SOL    HW124344   5.255   1.019   5.568
 7815SOL    HW224345   5.413   0.980   5.582
 7816SOL     OW24346   1.808   2.384   6.377
 7816SOL    HW124347   1.826   2.408   6.282
 7816SOL    HW224348   1.894   2.369   6.425
 7817SOL     OW24349   5.417   4.733   3.023
 7817SOL    HW124350   5.394   4.674   3.100
 7817SOL    HW224351   5.461   4.817   3.055
 7818SOL     OW24352   4.252   0.703   2.005
 7818SOL    HW124353   4.323   0.653   2.056
 7818SOL    HW224354   4.266   0.801   2.018
 7819SOL     OW24355   0.398   3.814   1.941
 7819SOL    HW124356   0.319   3.786   1.995
 7819SOL    HW224357   0.462   3.738   1.932
 7820SOL     OW24358   1.248   1.832   5.984
 7820SOL    HW124359   1.306   1.912   5.968
 7820SOL    HW224360   1.286   1.779   6.060
 7821SOL     OW24361   5.612   5.798   0.183
 7821SOL    HW124362   5.535   5.789   0.246
 7821SOL    HW224363   5.696   5.808   0.236
 7822SOL     OW24364   2.331   2.252   6.316
 7822SOL    HW124365   2.365   2.162   6.291
 7822SOL    HW224366   2.376   2.322   6.260
 7823SOL     OW24367   2.719   4.100   5.311
 7823SOL    HW124368   2.632   4.066   5.347
 7823SOL    HW224369   2.719   4.200   5.315
 7824SOL     OW24370   6.100   0.502   4.016
 7824SOL    HW124371   6.129   0.407   4.011
 7824SOL    HW224372   6.065   0.522   4.108
 7825SOL     OW24373   1.650   3.111   1.114
 7825SOL    HW124374   1.573   3.051   1.090
 7825SOL    HW224375   1.642   3.138   1.210
 7826SOL     OW24376   6.272   1.514   0.557
 7826SOL    HW124377   6.269   1.582   0.484
 7826SOL    HW224378   6.184   1.512   0.605
 7827SOL     OW24379   2.825   5.477   1.126
 7827SOL    HW124380   2.846   5.488   1.029
 7827SOL    HW224381   2.810   5.380   1.146
 7828SOL     OW24382   1.468   4.566   6.735
 7828SOL    HW124383   1.385   4.582   6.681
 7828SOL    HW224384   1.528   4.504   6.685
 7829SOL     OW24385   3.029   3.679   1.454
 7829SOL    HW124386   3.013   3.720   1.544
 7829SOL    HW224387   3.020   3.580   1.461
 7830SOL     OW24388   2.561   4.790   5.712
 7830SOL    HW124389   2.652   4.750   5.719
 7830SOL    HW224390   2.493   4.718   5.702
 7831SOL     OW24391   1.751   6.392   1.150
 7831SOL    HW124392   1.663   6.406   1.196
 7831SOL    HW224393   1.738   6.392   1.051
 7832SOL     OW24394   4.487   1.146   3.377
 7832SOL    HW124395   4.556   1.199   3.328
 7832SOL    HW224396   4.531   1.085   3.442
 7833SOL     OW24397   0.813   1.171   6.700
 7833SOL    HW124398   0.899   1.161   6.751
 7833SOL    HW224399   0.784   1.081   6.666
 7834SOL     OW24400   6.366   1.907   3.613
 7834SOL    HW124401   6.340   2.002   3.597
 7834SOL    HW224402   6.398   1.866   3.528
 7835SOL     OW24403   3.486   2.100   5.569
 7835SOL    HW124404   3.409   2.078   5.509
 7835SOL    HW224405   3.457   2.094   5.664
 7836SOL     OW24406   3.293   2.949   5.008
 7836SOL    HW124407   3.272   2.866   5.059
 7836SOL    HW224408   3.226   3.020   5.030
 7837SOL     OW24409   6.619   5.687   0.196
 7837SOL    HW124410   6.599   5.673   0.293
 7837SOL    HW224411   6.552   5.639   0.140
 7838SOL     OW24412   4.332   6.742   0.238
 7838SOL    HW124413   4.282   6.699   0.313
 7838SOL    HW224414   4.380   6.823   0.272
 7839SOL     OW24415   6.101   4.729   5.015
 7839SOL    HW124416   6.021   4.738   4.955
 7839SOL    HW224417   6.073   4.685   5.101
 7840SOL     OW24418   6.406   2.492   3.741
 7840SOL    HW124419   6.354   2.409   3.761
 7840SOL    HW224420   6.434   2.492   3.645
 7841SOL     OW24421   4.043   1.982   6.778
 7841SOL    HW124422   4.065   1.952   6.685
 7841SOL    HW224423   4.033   2.081   6.780
 7842SOL     OW24424   2.465   2.012   2.692
 7842SOL    HW124425   2.560   2.008   2.662
 7842SOL    HW224426   2.411   2.061   2.623
 7843SOL     OW24427   6.411   5.593   2.926
 7843SOL    HW124428   6.391   5.616   2.831
 7843SOL    HW224429   6.438   5.675   2.976
 7844SOL     OW24430   3.712   6.639   2.336
 7844SOL    HW124431   3.710   6.541   2.352
 7844SOL    HW224432   3.761   6.684   2.412
 7845SOL     OW24433   5.235   1.980   3.454
 7845SOL    HW124434   5.259   1.946   3.545
 7845SOL    HW224435   5.143   2.018   3.456
 7846SOL     OW24436   1.138   1.241   2.137
 7846SOL    HW124437   1.082   1.263   2.217
 7846SOL    HW224438   1.107   1.293   2.058
 7847SOL     OW24439   6.754   2.096   2.943
 7847SOL    HW124440   6.667   2.088   2.894
 7847SOL    HW224441   6.819   2.030   2.905
 7848SOL     OW24442   3.799   3.810   0.314
 7848SOL    HW124443   3.890   3.772   0.295
 7848SOL    HW224444   3.785   3.815   0.413
 7849SOL     OW24445   5.485   4.554   3.844
 7849SOL    HW124446   5.431   4.602   3.913
 7849SOL    HW224447   5.434   4.552   3.758
 7850SOL     OW24448   0.255   2.388   4.750
 7850SOL    HW124449   0.285   2.330   4.674
 7850SOL    HW224450   0.169   2.353   4.786
 7851SOL     OW24451   6.774   1.336   1.853
 7851SOL    HW124452   6.774   1.357   1.756
 7851SOL    HW224453   6.853   1.380   1.897
 7852SOL     OW24454   2.739   1.717   6.058
 7852SOL    HW124455   2.735   1.630   6.108
 7852SOL    HW224456   2.770   1.789   6.121
 7853SOL     OW24457   4.603   2.117   1.428
 7853SOL    HW124458   4.611   2.216   1.430
 7853SOL    HW224459   4.690   2.076   1.400
 7854SOL     OW24460   3.856   3.341   0.322
 7854SOL    HW124461   3.757   3.324   0.328
 7854SOL    HW224462   3.902   3.255   0.302
 7855SOL     OW24463   4.634   5.581   3.835
 7855SOL    HW124464   4.621   5.482   3.833
 7855SOL    HW224465   4.625   5.618   3.742
 7856SOL     OW24466   6.421   4.759   5.189
 7856SOL    HW124467   6.475   4.814   5.125
 7856SOL    HW224468   6.480   4.690   5.231
 7857SOL     OW24469   5.566   1.859   5.586
 7857SOL    HW124470   5.652   1.815   5.561
 7857SOL    HW224471   5.490   1.797   5.566
 7858SOL     OW24472   5.902   6.059   3.951
 7858SOL    HW124473   5.893   6.114   3.868
 7858SOL    HW224474   5.813   6.024   3.978
 7859SOL     OW24475   4.582   2.846   6.742
 7859SOL    HW124476   4.499   2.795   6.719
 7859SOL    HW224477   4.640   2.854   6.661
 7860SOL     OW24478   3.366   0.029   2.872
 7860SOL    HW124479   3.270   0.056   2.882
 7860SOL    HW224480   3.371   6.952   2.840
 7861SOL     OW24481   3.628   4.839   1.650
 7861SOL    HW124482   3.612   4.774   1.725
 7861SOL    HW224483   3.695   4.800   1.586
 7862SOL     OW24484   2.179   3.787   1.330
 7862SOL    HW124485   2.146   3.704   1.285
 7862SOL    HW224486   2.256   3.825   1.278
 7863SOL     OW24487   0.410   5.174   3.878
 7863SOL    HW124488   0.465   5.224   3.944
 7863SOL    HW224489   0.348   5.112   3.926
 7864SOL     OW24490   0.484   5.507   5.310
 7864SOL    HW124491   0.473   5.570   5.234
 7864SOL    HW224492   0.414   5.436   5.305
 7865SOL     OW24493   6.305   6.193   3.952
 7865SOL    HW124494   6.361   6.227   4.027
 7865SOL    HW224495   6.234   6.132   3.988
 7866SOL     OW24496   1.594   1.314   6.325
 7866SOL    HW124497   1.668   1.277   6.269
 7866SOL    HW224498   1.508   1.307   6.276
 7867SOL     OW24499   6.559   5.958   3.694
 7867SOL    HW124500   6.471   5.914   3.675
 7867SOL    HW224501   6.569   6.037   3.634
 7868SOL     OW24502   5.222   5.920   1.562
 7868SOL    HW124503   5.292   5.898   1.630
 7868SOL    HW224504   5.214   6.019   1.553
 7869SOL     OW24505   6.242   3.984   0.284
 7869SOL    HW124506   6.223   4.009   0.189
 7869SOL    HW224507   6.226   4.064   0.342
 7870SOL     OW24508   3.938   4.840   3.901
 7870SOL    HW124509   4.029   4.798   3.898
 7870SOL    HW224510   3.901   4.846   3.808
 7871SOL     OW24511   4.891   3.059   2.380
 7871SOL    HW124512   4.845   2.977   2.346
 7871SOL    HW224513   4.897   3.127   2.307
 7872SOL     OW24514   2.134   4.440   3.345
 7872SOL    HW124515   2.092   4.530   3.359
 7872SOL    HW224516   2.188   4.442   3.261
 7873SOL     OW24517   5.751   0.777   6.031
 7873SOL    HW124518   5.797   0.860   6.001
 7873SOL    HW224519   5.770   0.761   6.128
 7874SOL     OW24520   5.204   1.906   0.111
 7874SOL    HW124521   5.202   1.873   0.017
 7874SOL    HW224522   5.197   1.829   0.174
 7875SOL     OW24523   5.059   2.811   6.731
 7875SOL    HW124524   5.023   2.837   6.821
 7875SOL    HW224525   5.022   2.873   6.662
 7876SOL     OW24526   1.007   0.345   5.046
 7876SOL    HW124527   1.063   0.377   5.122
 7876SOL    HW224528   1.024   0.248   5.030
 7877SOL     OW24529   0.727   2.107   3.008
 7877SOL    HW124530   0.760   2.181   3.067
 7877SOL    HW224531   0.709   2.026   3.064
 7878SOL     OW24532   5.874   4.791   4.866
 7878SOL    HW124533   5.876   4.818   4.769
 7878SOL    HW224534   5.784   4.811   4.904
 7879SOL     OW24535   4.351   4.956   3.307
 7879SOL    HW124536   4.281   4.891   3.277
 7879SOL    HW224537   4.439   4.929   3.270
 7880SOL     OW24538   1.541   5.146   0.990
 7880SOL    HW124539   1.475   5.207   1.034
 7880SOL    HW224540   1.494   5.067   0.951
 7881SOL     OW24541   6.519   4.302   4.480
 7881SOL    HW124542   6.428   4.320   4.518
 7881SOL    HW224543   6.518   4.214   4.433
 7882SOL     OW24544   0.891   2.479   1.639
 7882SOL    HW124545   0.863   2.565   1.682
 7882SOL    HW224546   0.894   2.407   1.708
 7883SOL     OW24547   1.074   0.885   0.651
 7883SOL    HW124548   1.150   0.934   0.607
 7883SOL    HW224549   0.988   0.932   0.629
 7884SOL     OW24550   2.169   3.539   4.175
 7884SOL    HW124551   2.205   3.498   4.091
 7884SOL    HW224552   2.188   3.637   4.174
 7885SOL     OW24553   6.778   4.853   1.704
 7885SOL    HW124554   6.823   4.854   1.794
 7885SOL    HW224555   6.788   4.763   1.662
 7886SOL     OW24556   3.131   5.425   6.764
 7886SOL    HW124557   3.113   5.514   6.721
 7886SOL    HW224558   3.047   5.370   6.762
 7887SOL     OW24559   3.427   2.940   5.311
 7887SOL    HW124560   3.355   2.873   5.292
 7887SOL    HW224561   3.462   2.978   5.225
 7888SOL     OW24562   6.453   0.389   4.794
 7888SOL    HW124563   6.482   0.317   4.857
 7888SOL    HW224564   6.411   0.464   4.846
 7889SOL     OW24565   1.701   5.115   0.225
 7889SOL    HW124566   1.727   5.066   0.142
 7889SOL    HW224567   1.763   5.193   0.238
 7890SOL     OW24568   1.126   2.466   3.239
 7890SOL    HW124569   1.062   2.540   3.221
 7890SOL    HW224570   1.190   2.494   3.311
 7891SOL     OW24571   2.257   4.001   3.678
 7891SOL    HW124572   2.270   3.905   3.703
 7891SOL    HW224573   2.206   4.048   3.750
 7892SOL     OW24574   1.848   0.865   3.982
 7892SOL    HW124575   1.943   0.865   4.013
 7892SOL    HW224576   1.842   0.818   3.894
 7893SOL     OW24577   6.543   6.273   2.770
 7893SOL    HW124578   6.447   6.293   2.751
 7893SOL    HW224579   6.550   6.226   2.858
 7894SOL     OW24580   3.932   6.738   0.314
 7894SOL    HW124581   3.960   6.758   0.220
 7894SOL    HW224582   3.835   6.715   0.317
 7895SOL     OW24583   5.638   0.473   4.703
 7895SOL    HW124584   5.655   0.449   4.798
 7895SOL    HW224585   5.609   0.568   4.697
 7896SOL     OW24586   4.746   3.351   0.990
 7896SOL    HW124587   4.662   3.364   1.042
 7896SOL    HW224588   4.787   3.264   1.015
 7897SOL     OW24589   2.862   3.879   0.123
 7897SOL    HW124590   2.840   3.960   0.068
 7897SOL    HW224591   2.936   3.901   0.187
 7898SOL     OW24592   4.034   2.156   2.850
 7898SOL    HW124593   3.940   2.163   2.882
 7898SOL    HW224594   4.058   2.060   2.838
 7899SOL     OW24595   5.753   0.448   1.477
 7899SOL    HW124596   5.692   0.481   1.549
 7899SOL    HW224597   5.788   0.525   1.425
 7900SOL     OW24598   1.687   4.719   2.094
 7900SOL    HW124599   1.661   4.792   2.157
 7900SOL    HW224600   1.714   4.638   2.146
 7901SOL     OW24601   4.797   1.554   6.683
 7901SOL    HW124602   4.892   1.521   6.677
 7901SOL    HW224603   4.794   1.635   6.742
 7902SOL     OW24604   6.000   6.610   1.209
 7902SOL    HW124605   5.922   6.548   1.216
 7902SOL    HW224606   5.987   6.688   1.270
 7903SOL     OW24607   5.676   1.256   1.027
 7903SOL    HW124608   5.665   1.178   1.089
 7903SOL    HW224609   5.591   1.271   0.976
 7904SOL     OW24610   5.394   0.478   3.465
 7904SOL    HW124611   5.294   0.475   3.460
 7904SOL    HW224612   5.424   0.571   3.483
 7905SOL     OW24613   4.784   2.361   0.178
 7905SOL    HW124614   4.852   2.290   0.196
 7905SOL    HW224615   4.812   2.446   0.223
 7906SOL     OW24616   0.493   5.481   0.845
 7906SOL    HW124617   0.442   5.561   0.811
 7906SOL    HW224618   0.454   5.398   0.806
 7907SOL     OW24619   5.650   2.088   3.100
 7907SOL    HW124620   5.552   2.081   3.121
 7907SOL    HW224621   5.671   2.030   3.021
 7908SOL     OW24622   0.974   1.455   5.570
 7908SOL    HW124623   0.984   1.527   5.502
 7908SOL    HW224624   1.007   1.489   5.659
 7909SOL     OW24625   5.591   4.278   4.854
 7909SOL    HW124626   5.606   4.376   4.841
 7909SOL    HW224627   5.652   4.226   4.795
 7910SOL     OW24628   3.106   3.773   5.735
 7910SOL    HW124629   3.116   3.788   5.636
 7910SOL    HW224630   3.064   3.684   5.751
 7911SOL     OW24631   1.865   3.366   6.830
 7911SOL    HW124632   1.933   3.415   6.884
 7911SOL    HW224633   1.898   3.273   6.811
 7912SOL     OW24634   6.923   4.833   0.891
 7912SOL    HW124635   6.892   4.799   0.980
 7912SOL    HW224636   6.886   4.775   0.818
 7913SOL     OW24637   1.624   4.396   0.897
 7913SOL    HW124638   1.600   4.326   0.964
 7913SOL    HW224639   1.656   4.353   0.813
 7914SOL     OW24640   0.294   4.311   0.409
 7914SOL    HW124641   0.329   4.358   0.490
 7914SOL    HW224642   0.249   4.378   0.349
 7915SOL     OW24643   4.825   2.793   1.872
 7915SOL    HW124644   4.746   2.757   1.822
 7915SOL    HW224645   4.807   2.887   1.900
 7916SOL     OW24646   0.937   4.058   5.034
 7916SOL    HW124647   0.989   4.014   4.960
 7916SOL    HW224648   0.999   4.111   5.091
 7917SOL     OW24649   4.077   3.872   4.621
 7917SOL    HW124650   4.171   3.898   4.643
 7917SOL    HW224651   4.030   3.841   4.704
 7918SOL     OW24652   0.325   1.452   5.768
 7918SOL    HW124653   0.303   1.547   5.791
 7918SOL    HW224654   0.272   1.391   5.826
 7919SOL     OW24655   1.858   4.179   2.823
 7919SOL    HW124656   1.856   4.172   2.922
 7919SOL    HW224657   1.766   4.168   2.786
 7920SOL     OW24658   0.356   5.944   0.864
 7920SOL    HW124659   0.292   6.013   0.831
 7920SOL    HW224660   0.435   5.940   0.803
 7921SOL     OW24661   5.555   6.492   0.497
 7921SOL    HW124662   5.458   6.481   0.519
 7921SOL    HW224663   5.564   6.545   0.413
 7922SOL     OW24664   6.877   6.670   0.394
 7922SOL    HW124665   6.918   6.612   0.464
 7922SOL    HW224666   6.932   6.666   0.310
 7923SOL     OW24667   3.508   0.345   2.170
 7923SOL    HW124668   3.479   0.440   2.170
 7923SOL    HW224669   3.433   0.287   2.202
 7924SOL     OW24670   4.360   6.940   2.318
 7924SOL    HW124671   4.278   6.997   2.317
 7924SOL    HW224672   4.431   6.985   2.372
 7925SOL     OW24673   0.576   1.763   6.628
 7925SOL    HW124674   0.586   1.850   6.581
 7925SOL    HW224675   0.554   1.779   6.724
 7926SOL     OW24676   4.826   1.813   5.282
 7926SOL    HW124677   4.856   1.906   5.262
 7926SOL    HW224678   4.906   1.754   5.295
 7927SOL     OW24679   4.211   5.578   2.551
 7927SOL    HW124680   4.121   5.537   2.566
 7927SOL    HW224681   4.241   5.559   2.458
 7928SOL     OW24682   1.471   2.006   4.701
 7928SOL    HW124683   1.411   1.926   4.697
 7928SOL    HW224684   1.424   2.085   4.663
 7929SOL     OW24685   4.347   4.925   6.236
 7929SOL    HW124686   4.315   4.877   6.154
 7929SOL    HW224687   4.436   4.888   6.263
 7930SOL     OW24688   4.274   5.758   4.787
 7930SOL    HW124689   4.335   5.683   4.813
 7930SOL    HW224690   4.185   5.744   4.831
 7931SOL     OW24691   1.831   1.940   6.989
 7931SOL    HW124692   1.901   2.011   6.979
 7931SOL    HW224693   1.785   1.951   0.059
 7932SOL     OW24694   1.497   6.298   6.525
 7932SOL    HW124695   1.482   6.367   6.455
 7932SOL    HW224696   1.438   6.219   6.506
 7933SOL     OW24697   0.141   6.131   6.421
 7933SOL    HW124698   0.174   6.037   6.409
 7933SOL    HW224699   0.042   6.133   6.415
 7934SOL     OW24700   2.539   5.119   0.119
 7934SOL    HW124701   2.513   5.039   0.172
 7934SOL    HW224702   2.458   5.156   0.072
 7935SOL     OW24703   5.808   5.410   0.360
 7935SOL    HW124704   5.728   5.432   0.304
 7935SOL    HW224705   5.807   5.313   0.383
 7936SOL     OW24706   4.140   6.419   2.146
 7936SOL    HW124707   4.057   6.452   2.100
 7936SOL    HW224708   4.157   6.474   2.227
 7937SOL     OW24709   6.680   6.142   3.544
 7937SOL    HW124710   6.697   6.206   3.619
 7937SOL    HW224711   6.755   6.076   3.540
 7938SOL     OW24712   6.463   5.431   4.253
 7938SOL    HW124713   6.459   5.519   4.301
 7938SOL    HW224714   6.454   5.357   4.320
 7939SOL     OW24715   1.676   2.611   5.476
 7939SOL    HW124716   1.717   2.702   5.481
 7939SOL    HW224717   1.603   2.603   5.544
 7940SOL     OW24718   1.737   3.789   2.082
 7940SOL    HW124719   1.722   3.762   1.987
 7940SOL    HW224720   1.804   3.727   2.125
 7941SOL     OW24721   5.796   1.007   0.775
 7941SOL    HW124722   5.811   1.104   0.793
 7941SOL    HW224723   5.863   0.975   0.707
 7942SOL     OW24724   6.275   6.359   2.879
 7942SOL    HW124725   6.326   6.428   2.930
 7942SOL    HW224726   6.237   6.401   2.796
 7943SOL     OW24727   6.261   3.297   0.644
 7943SOL    HW124728   6.288   3.275   0.551
 7943SOL    HW224729   6.206   3.381   0.644
 7944SOL     OW24730   0.287   2.386   1.709
 7944SOL    HW124731   0.258   2.436   1.628
 7944SOL    HW224732   0.277   2.288   1.693
 7945SOL     OW24733   5.795   5.671   1.715
 7945SOL    HW124734   5.763   5.654   1.809
 7945SOL    HW224735   5.879   5.725   1.718
 7946SOL     OW24736   2.504   1.413   5.321
 7946SOL    HW124737   2.425   1.352   5.327
 7946SOL    HW224738   2.587   1.360   5.334
 7947SOL     OW24739   3.698   2.096   6.233
 7947SOL    HW124740   3.776   2.085   6.294
 7947SOL    HW224741   3.677   2.010   6.188
 7948SOL     OW24742   1.118   6.625   0.954
 7948SOL    HW124743   1.058   6.680   1.011
 7948SOL    HW224744   1.212   6.630   0.989
 7949SOL     OW24745   4.381   4.687   4.762
 7949SOL    HW124746   4.326   4.769   4.745
 7949SOL    HW224747   4.356   4.648   4.851
 7950SOL     OW24748   5.685   5.056   4.842
 7950SOL    HW124749   5.593   5.032   4.871
 7950SOL    HW224750   5.745   5.060   4.922
 7951SOL     OW24751   2.216   4.286   1.802
 7951SOL    HW124752   2.188   4.296   1.707
 7951SOL    HW224753   2.220   4.189   1.825
 7952SOL     OW24754   0.528   3.334   6.888
 7952SOL    HW124755   0.620   3.346   6.851
 7952SOL    HW224756   0.463   3.324   6.812
 7953SOL     OW24757   2.341   2.785   4.090
 7953SOL    HW124758   2.291   2.699   4.079
 7953SOL    HW224759   2.363   2.798   4.187
 7954SOL     OW24760   4.460   4.062   5.602
 7954SOL    HW124761   4.360   4.062   5.595
 7954SOL    HW224762   4.499   4.070   5.511
 7955SOL     OW24763   1.265   6.611   6.605
 7955SOL    HW124764   1.315   6.696   6.586
 7955SOL    HW224765   1.185   6.631   6.660
 7956SOL     OW24766   3.733   5.864   2.414
 7956SOL    HW124767   3.650   5.871   2.469
 7956SOL    HW224768   3.723   5.790   2.347
 7957SOL     OW24769   1.200   0.619   1.895
 7957SOL    HW124770   1.197   0.531   1.942
 7957SOL    HW224771   1.227   0.691   1.960
 7958SOL     OW24772   3.808   5.040   5.099
 7958SOL    HW124773   3.811   5.099   5.180
 7958SOL    HW224774   3.773   4.950   5.125
 7959SOL     OW24775   4.445   5.759   0.931
 7959SOL    HW124776   4.450   5.680   0.869
 7959SOL    HW224777   4.350   5.773   0.958
 7960SOL     OW24778   2.818   0.587   0.122
 7960SOL    HW124779   2.838   0.627   0.033
 7960SOL    HW224780   2.861   0.642   0.194
 7961SOL     OW24781   0.021   0.724   1.445
 7961SOL    HW124782   6.947   0.751   1.417
 7961SOL    HW224783   0.079   0.805   1.454
 7962SOL     OW24784   1.260   0.489   0.150
 7962SOL    HW124785   1.200   0.527   0.221
 7962SOL    HW224786   1.327   0.428   0.192
 7963SOL     OW24787   6.528   0.340   3.774
 7963SOL    HW124788   6.522   0.294   3.686
 7963SOL    HW224789   6.622   0.337   3.807
 7964SOL     OW24790   0.279   4.752   4.013
 7964SOL    HW124791   0.289   4.757   4.112
 7964SOL    HW224792   0.311   4.663   3.981
 7965SOL     OW24793   3.407   2.469   6.087
 7965SOL    HW124794   3.350   2.455   6.006
 7965SOL    HW224795   3.481   2.533   6.065
 7966SOL     OW24796   0.637   2.835   5.278
 7966SOL    HW124797   0.728   2.827   5.238
 7966SOL    HW224798   0.607   2.745   5.311
 7967SOL     OW24799   2.935   6.462   3.613
 7967SOL    HW124800   2.911   6.369   3.640
 7967SOL    HW224801   2.953   6.517   3.694
 7968SOL     OW24802   2.062   2.449   3.499
 7968SOL    HW124803   1.982   2.452   3.441
 7968SOL    HW224804   2.069   2.534   3.551
 7969SOL     OW24805   3.901   5.470   0.492
 7969SOL    HW124806   3.953   5.385   0.504
 7969SOL    HW224807   3.930   5.537   0.561
 7970SOL     OW24808   6.695   3.168   2.397
 7970SOL    HW124809   6.624   3.101   2.414
 7970SOL    HW224810   6.769   3.156   2.462
 7971SOL     OW24811   4.444   1.559   0.944
 7971SOL    HW124812   4.361   1.569   1.000
 7971SOL    HW224813   4.466   1.648   0.902
 7972SOL     OW24814   1.893   3.090   0.619
 7972SOL    HW124815   1.954   3.111   0.696
 7972SOL    HW224816   1.915   2.999   0.583
 7973SOL     OW24817   4.623   4.785   3.987
 7973SOL    HW124818   4.646   4.804   4.082
 7973SOL    HW224819   4.536   4.736   3.983
 7974SOL     OW24820   5.709   1.438   5.844
 7974SOL    HW124821   5.662   1.468   5.762
 7974SOL    HW224822   5.648   1.447   5.923
 7975SOL     OW24823   6.014   1.017   2.480
 7975SOL    HW124824   6.027   0.919   2.488
 7975SOL    HW224825   5.954   1.049   2.553
 7976SOL     OW24826   0.519   0.451   6.432
 7976SOL    HW124827   0.556   0.482   6.519
 7976SOL    HW224828   0.577   0.378   6.395
 7977SOL     OW24829   4.757   5.886   1.655
 7977SOL    HW124830   4.742   5.984   1.640
 7977SOL    HW224831   4.820   5.875   1.732
 7978SOL     OW24832   6.187   3.574   6.300
 7978SOL    HW124833   6.127   3.614   6.369
 7978SOL    HW224834   6.153   3.484   6.273
 7979SOL     OW24835   3.845   6.538   5.438
 7979SOL    HW124836   3.937   6.528   5.475
 7979SOL    HW224837   3.819   6.454   5.390
 7980SOL     OW24838   2.365   5.464   6.877
 7980SOL    HW124839   2.360   5.530   6.952
 7980SOL    HW224840   2.346   5.510   6.791
 7981SOL     OW24841   0.815   5.277   2.062
 7981SOL    HW124842   0.851   5.334   2.136
 7981SOL    HW224843   0.727   5.314   2.031
 7982SOL     OW24844   0.285   1.683   7.005
 7982SOL    HW124845   0.383   1.683   0.006
 7982SOL    HW224846   0.236   1.659   0.072
 7983SOL     OW24847   5.658   1.648   2.120
 7983SOL    HW124848   5.572   1.690   2.150
 7983SOL    HW224849   5.733   1.685   2.175
 7984SOL     OW24850   1.662   1.223   0.966
 7984SOL    HW124851   1.634   1.304   1.019
 7984SOL    HW224852   1.760   1.207   0.978
 7985SOL     OW24853   2.207   0.728   3.683
 7985SOL    HW124854   2.137   0.682   3.737
 7985SOL    HW224855   2.271   0.660   3.646
 7986SOL     OW24856   3.389   1.133   6.905
 7986SOL    HW124857   3.339   1.219   6.917
 7986SOL    HW224858   3.339   1.074   6.841
 7987SOL     OW24859   1.549   3.114   6.887
 7987SOL    HW124860   1.582   3.025   6.855
 7987SOL    HW224861   1.616   3.155   6.949
 7988SOL     OW24862   1.277   2.298   4.183
 7988SOL    HW124863   1.371   2.324   4.207
 7988SOL    HW224864   1.229   2.376   4.145
 7989SOL     OW24865   3.596   3.329   5.510
 7989SOL    HW124866   3.632   3.273   5.436
 7989SOL    HW224867   3.668   3.391   5.543
 7990SOL     OW24868   6.885   3.329   3.270
 7990SOL    HW124869   6.968   3.277   3.288
 7990SOL    HW224870   6.810   3.293   3.326
 7991SOL     OW24871   6.282   0.257   3.983
 7991SOL    HW124872   6.350   0.326   4.010
 7991SOL    HW224873   6.281   0.250   3.883
 7992SOL     OW24874   1.140   6.415   1.767
 7992SOL    HW124875   1.181   6.396   1.678
 7992SOL    HW224876   1.190   6.364   1.838
 7993SOL     OW24877   0.383   0.113   6.223
 7993SOL    HW124878   0.360   0.193   6.168
 7993SOL    HW224879   0.299   0.066   6.251
 7994SOL     OW24880   4.641   0.166   2.779
 7994SOL    HW124881   4.602   0.079   2.810
 7994SOL    HW224882   4.710   0.149   2.709
 7995SOL     OW24883   4.587   5.006   3.562
 7995SOL    HW124884   4.686   5.018   3.552
 7995SOL    HW224885   4.542   5.028   3.476
 7996SOL     OW24886   3.358   0.111   4.846
 7996SOL    HW124887   3.403   0.184   4.897
 7996SOL    HW224888   3.270   0.143   4.810
 7997SOL     OW24889   0.687   1.358   1.832
 7997SOL    HW124890   0.606   1.347   1.889
 7997SOL    HW224891   0.698   1.454   1.807
 7998SOL     OW24892   3.389   5.638   1.164
 7998SOL    HW124893   3.380   5.550   1.118
 7998SOL    HW224894   3.483   5.651   1.195
 7999SOL     OW24895   0.711   6.788   6.202
 7999SOL    HW124896   0.653   6.708   6.186
 7999SOL    HW224897   0.787   6.789   6.137
 8000SOL     OW24898   5.255   0.100   6.916
 8000SOL    HW124899   5.189   0.028   6.937
 8000SOL    HW224900   5.236   0.180   6.972
 8001SOL     OW24901   3.409   5.947   0.868
 8001SOL    HW124902   3.492   5.948   0.923
 8001SOL    HW224903   3.352   6.027   0.891
 8002SOL     OW24904   0.630   2.193   5.656
 8002SOL    HW124905   0.601   2.176   5.750
 8002SOL    HW224906   0.697   2.124   5.629
 8003SOL     OW24907   3.022   5.176   2.796
 8003SOL    HW124908   2.978   5.146   2.711
 8003SOL    HW224909   3.097   5.238   2.773
 8004SOL     OW24910   2.089   3.078   3.730
 8004SOL    HW124911   2.027   3.006   3.762
 8004SOL    HW224912   2.130   3.051   3.643
 8005SOL     OW24913   3.425   0.333   2.647
 8005SOL    HW124914   3.418   0.422   2.601
 8005SOL    HW224915   3.517   0.296   2.634
 8006SOL     OW24916   2.229   0.666   6.641
 8006SOL    HW124917   2.144   0.624   6.611
 8006SOL    HW224918   2.209   0.738   6.708
 8007SOL     OW24919   6.869   1.319   4.452
 8007SOL    HW124920   6.925   1.236   4.458
 8007SOL    HW224921   6.775   1.293   4.428
 8008SOL     OW24922   4.663   5.917   5.810
 8008SOL    HW124923   4.755   5.904   5.775
 8008SOL    HW224924   4.652   6.011   5.841
 8009SOL     OW24925   5.828   1.116   3.160
 8009SOL    HW124926   5.827   1.116   3.060
 8009SOL    HW224927   5.750   1.169   3.194
 8010SOL     OW24928   0.288   0.927   6.963
 8010SOL    HW124929   0.272   0.920   0.044
 8010SOL    HW224930   0.334   1.014   6.943
 8011SOL     OW24931   3.456   2.102   0.571
 8011SOL    HW124932   3.514   2.057   0.639
 8011SOL    HW224933   3.409   2.032   0.516
 8012SOL     OW24934   2.055   4.540   1.430
 8012SOL    HW124935   2.146   4.573   1.407
 8012SOL    HW224936   2.021   4.589   1.510
 8013SOL     OW24937   1.229   5.142   3.476
 8013SOL    HW124938   1.201   5.227   3.431
 8013SOL    HW224939   1.267   5.079   3.408
 8014SOL     OW24940   1.111   6.680   5.195
 8014SOL    HW124941   1.175   6.606   5.216
 8014SOL    HW224942   1.102   6.690   5.096
 8015SOL     OW24943   2.590   0.931   0.629
 8015SOL    HW124944   2.643   1.010   0.598
 8015SOL    HW224945   2.594   0.859   0.561
 8016SOL     OW24946   5.421   0.489   5.725
 8016SOL    HW124947   5.456   0.521   5.813
 8016SOL    HW224948   5.460   0.543   5.651
 8017SOL     OW24949   6.252   6.846   0.849
 8017SOL    HW124950   6.172   6.790   0.869
 8017SOL    HW224951   6.318   6.793   0.796
 8018SOL     OW24952   3.231   2.147   5.756
 8018SOL    HW124953   3.146   2.095   5.762
 8018SOL    HW224954   3.306   2.091   5.793
 8019SOL     OW24955   2.382   4.647   6.374
 8019SOL    HW124956   2.407   4.693   6.459
 8019SOL    HW224957   2.295   4.683   6.340
 8020SOL     OW24958   5.975   6.778   0.620
 8020SOL    HW124959   6.073   6.786   0.600
 8020SOL    HW224960   5.958   6.805   0.715
 8021SOL     OW24961   1.633   1.816   1.169
 8021SOL    HW124962   1.689   1.740   1.203
 8021SOL    HW224963   1.677   1.902   1.192
 8022SOL     OW24964   5.127   6.350   2.699
 8022SOL    HW124965   5.028   6.361   2.694
 8022SOL    HW224966   5.149   6.281   2.768
 8023SOL     OW24967   6.255   5.445   3.123
 8023SOL    HW124968   6.272   5.350   3.147
 8023SOL    HW224969   6.320   5.475   3.053
 8024SOL     OW24970   2.762   5.118   6.804
 8024SOL    HW124971   2.845   5.123   6.747
 8024SOL    HW224972   2.783   5.155   6.895
 8025SOL     OW24973   2.411   6.356   6.684
 8025SOL    HW124974   2.506   6.339   6.656
 8025SOL    HW224975   2.392   6.454   6.675
 8026SOL     OW24976   1.149   4.389   6.609
 8026SOL    HW124977   1.233   4.350   6.645
 8026SOL    HW224978   1.130   4.476   6.654
 8027SOL     OW24979   4.480   0.826   5.418
 8027SOL    HW124980   4.504   0.866   5.329
 8027SOL    HW224981   4.511   0.731   5.421
 8028SOL     OW24982   3.241   4.903   4.422
 8028SOL    HW124983   3.150   4.897   4.382
 8028SOL    HW224984   3.233   4.919   4.520
 8029SOL     OW24985   5.061   3.223   1.215
 8029SOL    HW124986   4.972   3.215   1.170
 8029SOL    HW224987   5.066   3.310   1.264
 8030SOL     OW24988   4.239   4.535   0.056
 8030SOL    HW124989   4.153   4.543   0.107
 8030SOL    HW224990   4.301   4.475   0.105
 8031SOL     OW24991   5.442   6.529   2.704
 8031SOL    HW124992   5.522   6.568   2.749
 8031SOL    HW224993   5.451   6.429   2.702
 8032SOL     OW24994   6.467   5.012   6.892
 8032SOL    HW124995   6.459   5.051   6.984
 8032SOL    HW224996   6.549   4.955   6.888
 8033SOL     OW24997   4.697   2.616   6.053
 8033SOL    HW124998   4.786   2.656   6.073
 8033SOL    HW224999   4.682   2.536   6.111
 8034SOL     OW25000   6.164   0.619   4.734
 8034SOL    HW125001   6.077   0.636   4.780
 8034SOL    HW225002   6.165   0.527   4.696
 8035SOL     OW25003   5.199   2.019   4.659
 8035SOL    HW125004   5.100   2.017   4.653
 8035SOL    HW225005   5.232   2.113   4.648
 8036SOL     OW25006   0.964   4.221   2.736
 8036SOL    HW125007   0.887   4.237   2.675
 8036SOL    HW225008   0.969   4.295   2.804
 8037SOL     OW25009   1.606   3.177   1.374
 8037SOL    HW125010   1.647   3.268   1.377
 8037SOL    HW225011   1.575   3.151   1.465
 8038SOL     OW25012   3.456   0.597   3.260
 8038SOL    HW125013   3.443   0.651   3.177
 8038SOL    HW225014   3.496   0.508   3.236
 8039SOL     OW25015   1.015   1.632   4.151
 8039SOL    HW125016   0.997   1.651   4.247
 8039SOL    HW225017   1.062   1.544   4.142
 8040SOL     OW25018   2.008   6.549   0.649
 8040SOL    HW125019   1.925   6.493   0.643
 8040SOL    HW225020   2.059   6.541   0.563
 8041SOL     OW25021   2.786   1.181   2.086
 8041SOL    HW125022   2.749   1.273   2.080
 8041SOL    HW225023   2.885   1.184   2.072
 8042SOL     OW25024   3.155   3.062   3.595
 8042SOL    HW125025   3.159   3.054   3.496
 8042SOL    HW225026   3.122   3.153   3.620
 8043SOL     OW25027   4.489   6.753   2.496
 8043SOL    HW125028   4.544   6.802   2.564
 8043SOL    HW225029   4.417   6.813   2.462
 8044SOL     OW25030   3.753   3.034   0.757
 8044SOL    HW125031   3.758   2.945   0.712
 8044SOL    HW225032   3.770   3.022   0.855
 8045SOL     OW25033   5.601   0.640   1.618
 8045SOL    HW125034   5.639   0.732   1.618
 8045SOL    HW225035   5.553   0.623   1.704
 8046SOL     OW25036   0.211   5.249   0.914
 8046SOL    HW125037   0.279   5.255   0.841
 8046SOL    HW225038   0.179   5.340   0.937
 8047SOL     OW25039   3.577   5.375   4.735
 8047SOL    HW125040   3.552   5.468   4.764
 8047SOL    HW225041   3.635   5.334   4.805
 8048SOL     OW25042   4.977   1.155   5.854
 8048SOL    HW125043   5.064   1.205   5.854
 8048SOL    HW225044   4.971   1.101   5.937
 8049SOL     OW25045   0.521   0.182   0.009
 8049SOL    HW125046   0.504   0.103   6.967
 8049SOL    HW225047   0.434   0.228   0.029
 8050SOL     OW25048   1.859   3.847   2.760
 8050SOL    HW125049   1.953   3.875   2.781
 8050SOL    HW225050   1.812   3.923   2.715
 8051SOL     OW25051   4.472   5.603   2.670
 8051SOL    HW125052   4.378   5.577   2.648
 8051SOL    HW225053   4.529   5.595   2.588
 8052SOL     OW25054   4.610   1.966   1.984
 8052SOL    HW125055   4.518   2.005   1.975
 8052SOL    HW225056   4.655   1.965   1.894
 8053SOL     OW25057   2.889   3.669   3.375
 8053SOL    HW125058   2.893   3.605   3.298
 8053SOL    HW225059   2.936   3.753   3.351
 8054SOL     OW25060   4.509   0.227   4.347
 8054SOL    HW125061   4.566   0.308   4.361
 8054SOL    HW225062   4.416   0.256   4.323
 8055SOL     OW25063   0.374   0.098   5.674
 8055SOL    HW125064   0.289   0.052   5.695
 8055SOL    HW225065   0.362   0.197   5.684
 8056SOL     OW25066   3.890   2.145   3.860
 8056SOL    HW125067   3.816   2.191   3.812
 8056SOL    HW225068   3.855   2.108   3.947
 8057SOL     OW25069   2.983   1.836   3.174
 8057SOL    HW125070   2.942   1.910   3.121
 8057SOL    HW225071   2.913   1.769   3.197
 8058SOL     OW25072   4.668   0.817   1.888
 8058SOL    HW125073   4.679   0.779   1.980
 8058SOL    HW225074   4.660   0.742   1.822
 8059SOL     OW25075   4.268   2.312   4.250
 8059SOL    HW125076   4.324   2.327   4.331
 8059SOL    HW225077   4.172   2.306   4.277
 8060SOL     OW25078   0.303   2.502   3.597
 8060SOL    HW125079   0.270   2.588   3.557
 8060SOL    HW225080   0.322   2.436   3.524
 8061SOL     OW25081   0.242   0.713   2.225
 8061SOL    HW125082   0.155   0.732   2.269
 8061SOL    HW225083   0.246   0.758   2.136
 8062SOL     OW25084   3.435   4.930   4.713
 8062SOL    HW125085   3.466   4.978   4.631
 8062SOL    HW225086   3.429   4.832   4.693
 8063SOL     OW25087   0.825   2.620   0.930
 8063SOL    HW125088   0.854   2.654   1.020
 8063SOL    HW225089   0.897   2.563   0.891
 8064SOL     OW25090   0.106   4.320   2.008
 8064SOL    HW125091   0.144   4.371   1.931
 8064SOL    HW225092   0.170   4.323   2.085
 8065SOL     OW25093   2.971   5.840   4.348
 8065SOL    HW125094   2.991   5.748   4.383
 8065SOL    HW225095   3.050   5.899   4.362
 8066SOL     OW25096   0.490   2.111   5.913
 8066SOL    HW125097   0.474   2.122   6.012
 8066SOL    HW225098   0.405   2.083   5.869
 8067SOL     OW25099   4.555   2.710   1.830
 8067SOL    HW125100   4.579   2.796   1.876
 8067SOL    HW225101   4.550   2.636   1.898
 8068SOL     OW25102   6.785   4.287   0.680
 8068SOL    HW125103   6.786   4.387   0.672
 8068SOL    HW225104   6.879   4.253   0.688
 8069SOL     OW25105   2.041   6.461   1.072
 8069SOL    HW125106   2.042   6.554   1.035
 8069SOL    HW225107   1.950   6.441   1.111
 8070SOL     OW25108   3.216   3.631   0.443
 8070SOL    HW125109   3.195   3.721   0.481
 8070SOL    HW225110   3.241   3.640   0.346
 8071SOL     OW25111   2.934   6.272   4.830
 8071SOL    HW125112   2.883   6.213   4.892
 8071SOL    HW225113   2.886   6.359   4.820
 8072SOL     OW25114   3.638   0.758   0.139
 8072SOL    HW125115   3.727   0.719   0.118
 8072SOL    HW225116   3.650   0.847   0.185
 8073SOL     OW25117   3.854   5.781   5.432
 8073SOL    HW125118   3.787   5.850   5.405
 8073SOL    HW225119   3.852   5.705   5.368
 8074SOL     OW25120   3.945   2.591   0.387
 8074SOL    HW125121   3.881   2.517   0.369
 8074SOL    HW225122   3.918   2.673   0.336
 8075SOL     OW25123   6.708   0.661   0.486
 8075SOL    HW125124   6.640   0.588   0.477
 8075SOL    HW225125   6.679   0.740   0.433
 8076SOL     OW25126   5.759   1.909   5.794
 8076SOL    HW125127   5.686   1.917   5.725
 8076SOL    HW225128   5.842   1.874   5.751
 8077SOL     OW25129   2.227   5.665   1.370
 8077SOL    HW125130   2.269   5.576   1.356
 8077SOL    HW225131   2.293   5.728   1.410
 8078SOL     OW25132   5.945   1.616   0.397
 8078SOL    HW125133   5.927   1.528   0.352
 8078SOL    HW225134   6.043   1.627   0.411
 8079SOL     OW25135   4.519   1.568   3.316
 8079SOL    HW125136   4.452   1.498   3.341
 8079SOL    HW225137   4.516   1.583   3.217
 8080SOL     OW25138   0.119   2.844   0.313
 8080SOL    HW125139   0.092   2.821   0.407
 8080SOL    HW225140   0.126   2.760   0.259
 8081SOL     OW25141   5.299   6.539   4.400
 8081SOL    HW125142   5.210   6.498   4.378
 8081SOL    HW225143   5.287   6.636   4.420
 8082SOL     OW25144   5.139   6.810   1.879
 8082SOL    HW125145   5.179   6.730   1.835
 8082SOL    HW225146   5.213   6.872   1.907
 8083SOL     OW25147   4.842   3.960   2.464
 8083SOL    HW125148   4.935   3.988   2.487
 8083SOL    HW225149   4.828   3.865   2.492
 8084SOL     OW25150   4.719   0.489   0.087
 8084SOL    HW125151   4.632   0.444   0.070
 8084SOL    HW225152   4.793   0.423   0.082
 8085SOL     OW25153   5.644   6.703   2.412
 8085SOL    HW125154   5.561   6.658   2.444
 8085SOL    HW225155   5.672   6.663   2.324
 8086SOL     OW25156   4.261   1.242   3.588
 8086SOL    HW125157   4.294   1.317   3.530
 8086SOL    HW225158   4.339   1.189   3.622
 8087SOL     OW25159   2.940   0.843   0.829
 8087SOL    HW125160   2.973   0.938   0.827
 8087SOL    HW225161   2.840   0.843   0.826
 8088SOL     OW25162   5.446   2.849   1.582
 8088SOL    HW125163   5.412   2.829   1.490
 8088SOL    HW225164   5.479   2.943   1.586
 8089SOL     OW25165   5.074   2.642   0.639
 8089SOL    HW125166   5.158   2.639   0.693
 8089SOL    HW225167   4.995   2.641   0.700
 8090SOL     OW25168   4.511   1.878   6.722
 8090SOL    HW125169   4.501   1.914   6.629
 8090SOL    HW225170   4.421   1.868   6.764
 8091SOL     OW25171   2.490   3.366   6.105
 8091SOL    HW125172   2.415   3.422   6.067
 8091SOL    HW225173   2.497   3.382   6.203
 8092SOL     OW25174   6.877   2.797   5.179
 8092SOL    HW125175   6.900   2.856   5.100
 8092SOL    HW225176   6.905   2.703   5.159
 8093SOL     OW25177   4.604   5.178   2.253
 8093SOL    HW125178   4.562   5.188   2.343
 8093SOL    HW225179   4.550   5.229   2.186
 8094SOL     OW25180   1.287   3.226   5.289
 8094SOL    HW125181   1.191   3.255   5.281
 8094SOL    HW225182   1.312   3.173   5.207
 8095SOL     OW25183   6.332   3.965   4.869
 8095SOL    HW125184   6.371   3.965   4.961
 8095SOL    HW225185   6.404   3.949   4.802
 8096SOL     OW25186   2.850   6.212   3.676
 8096SOL    HW125187   2.861   6.238   3.772
 8096SOL    HW225188   2.812   6.120   3.671
 8097SOL     OW25189   4.597   6.340   3.820
 8097SOL    HW125190   4.645   6.382   3.743
 8097SOL    HW225191   4.618   6.391   3.904
 8098SOL     OW25192   2.263   6.843   3.780
 8098SOL    HW125193   2.347   6.791   3.793
 8098SOL    HW225194   2.185   6.789   3.811
 8099SOL     OW25195   4.400   0.324   3.915
 8099SOL    HW125196   4.345   0.242   3.894
 8099SOL    HW225197   4.493   0.296   3.940
 8100SOL     OW25198   5.878   0.373   0.288
 8100SOL    HW125199   5.845   0.346   0.198
 8100SOL    HW225200   5.973   0.404   0.280
 8101SOL     OW25201   2.363   0.096   3.721
 8101SOL    HW125202   2.391   0.133   3.633
 8101SOL    HW225203   2.302   0.018   3.707
 8102SOL     OW25204   0.487   4.948   4.294
 8102SOL    HW125205   0.399   4.900   4.288
 8102SOL    HW225206   0.509   4.987   4.204
 8103SOL     OW25207   4.552   0.538   1.019
 8103SOL    HW125208   4.601   0.557   1.104
 8103SOL    HW225209   4.565   0.442   0.993
 8104SOL     OW25210   2.835   0.078   6.140
 8104SOL    HW125211   2.914   0.078   6.079
 8104SOL    HW225212   2.840   0.001   6.203
 8105SOL     OW25213   0.691   2.495   3.543
 8105SOL    HW125214   0.664   2.475   3.637
 8105SOL    HW225215   0.652   2.426   3.482
 8106SOL     OW25216   2.159   6.084   2.735
 8106SOL    HW125217   2.223   6.141   2.787
 8106SOL    HW225218   2.156   6.116   2.640
 8107SOL     OW25219   0.506   5.818   4.593
 8107SOL    HW125220   0.430   5.761   4.623
 8107SOL    HW225221   0.550   5.859   4.673
 8108SOL     OW25222   6.484   3.127   5.088
 8108SOL    HW125223   6.474   3.222   5.058
 8108SOL    HW225224   6.426   3.111   5.168
 8109SOL     OW25225   1.886   3.790   4.646
 8109SOL    HW125226   1.795   3.822   4.674
 8109SOL    HW225227   1.928   3.859   4.587
 8110SOL     OW25228   2.991   6.304   0.480
 8110SOL    HW125229   3.055   6.345   0.415
 8110SOL    HW225230   3.042   6.257   0.552
 8111SOL     OW25231   3.945   1.122   4.579
 8111SOL    HW125232   3.995   1.070   4.511
 8111SOL    HW225233   3.868   1.169   4.535
 8112SOL     OW25234   2.294   2.210   4.816
 8112SOL    HW125235   2.207   2.253   4.793
 8112SOL    HW225236   2.315   2.226   4.912
 8113SOL     OW25237   3.568   3.194   1.074
 8113SOL    HW125238   3.494   3.231   1.017
 8113SOL    HW225239   3.654   3.198   1.024
 8114SOL     OW25240   2.220   3.984   1.881
 8114SOL    HW125241   2.258   3.973   1.790
 8114SOL    HW225242   2.198   3.895   1.920
 8115SOL     OW25243   3.405   0.151   0.425
 8115SOL    HW125244   3.422   0.207   0.344
 8115SOL    HW225245   3.470   0.076   0.429
 8116SOL     OW25246   4.615   6.115   5.107
 8116SOL    HW125247   4.558   6.176   5.161
 8116SOL    HW225248   4.629   6.030   5.158
 8117SOL     OW25249   1.764   1.336   4.238
 8117SOL    HW125250   1.825   1.318   4.161
 8117SOL    HW225251   1.818   1.347   4.321
 8118SOL     OW25252   6.010   3.015   6.013
 8118SOL    HW125253   6.058   2.943   5.963
 8118SOL    HW225254   6.075   3.065   6.070
 8119SOL     OW25255   6.357   6.238   5.262
 8119SOL    HW125256   6.271   6.250   5.211
 8119SOL    HW225257   6.386   6.142   5.253
 8120SOL     OW25258   2.825   4.671   0.121
 8120SOL    HW125259   2.781   4.758   0.100
 8120SOL    HW225260   2.777   4.597   0.074
 8121SOL     OW25261   0.555   5.448   1.489
 8121SOL    HW125262   0.478   5.391   1.519
 8121SOL    HW225263   0.519   5.533   1.449
 8122SOL     OW25264   1.761   5.760   2.429
 8122SOL    HW125265   1.818   5.843   2.430
 8122SOL    HW225266   1.820   5.680   2.422
 8123SOL     OW25267   6.571   0.268   0.006
 8123SOL    HW125268   6.495   0.265   6.958
 8123SOL    HW225269   6.579   0.360   0.043
 8124SOL     OW25270   6.813   6.122   0.978
 8124SOL    HW125271   6.793   6.152   1.071
 8124SOL    HW225272   6.899   6.163   0.947
 8125SOL     OW25273   1.128   0.954   3.564
 8125SOL    HW125274   1.211   0.958   3.508
 8125SOL    HW225275   1.127   0.869   3.616
 8126SOL     OW25276   5.584   4.893   2.650
 8126SOL    HW125277   5.671   4.879   2.697
 8126SOL    HW225278   5.537   4.805   2.639
 8127SOL     OW25279   3.319   6.181   0.061
 8127SOL    HW125280   3.293   6.264   0.112
 8127SOL    HW225281   3.262   6.105   0.091
 8128SOL     OW25282   2.647   3.000   1.051
 8128SOL    HW125283   2.631   3.098   1.046
 8128SOL    HW225284   2.744   2.981   1.038
 8129SOL     OW25285   4.490   0.851   5.682
 8129SOL    HW125286   4.478   0.863   5.584
 8129SOL    HW225287   4.411   0.804   5.721
 8130SOL     OW25288   6.869   4.154   0.073
 8130SOL    HW125289   6.874   4.057   0.049
 8130SOL    HW225290   6.960   4.187   0.097
 8131SOL     OW25291   3.966   1.340   0.928
 8131SOL    HW125292   3.895   1.320   0.861
 8131SOL    HW225293   4.042   1.388   0.884
 8132SOL     OW25294   5.470   6.459   6.576
 8132SOL    HW125295   5.456   6.556   6.594
 8132SOL    HW225296   5.543   6.424   6.634
 8133SOL     OW25297   2.937   4.971   1.727
 8133SOL    HW125298   2.935   4.910   1.806
 8133SOL    HW225299   2.861   5.037   1.734
 8134SOL     OW25300   1.115   2.494   5.027
 8134SOL    HW125301   1.205   2.491   4.983
 8134SOL    HW225302   1.092   2.404   5.062
 8135SOL     OW25303   1.794   5.672   1.073
 8135SOL    HW125304   1.833   5.629   0.992
 8135SOL    HW225305   1.696   5.688   1.058
 8136SOL     OW25306   5.192   4.741   2.822
 8136SOL    HW125307   5.269   4.772   2.879
 8136SOL    HW225308   5.154   4.820   2.772
 8137SOL     OW25309   2.857   1.138   4.919
 8137SOL    HW125310   2.798   1.063   4.890
 8137SOL    HW225311   2.935   1.146   4.856
 8138SOL     OW25312   5.620   2.526   0.447
 8138SOL    HW125313   5.636   2.443   0.499
 8138SOL    HW225314   5.624   2.605   0.508
 8139SOL     OW25315   1.818   1.736   4.504
 8139SOL    HW125316   1.906   1.695   4.528
 8139SOL    HW225317   1.762   1.745   4.586
 8140SOL     OW25318   4.477   6.868   0.608
 8140SOL    HW125319   4.466   6.915   0.696
 8140SOL    HW225320   4.419   6.787   0.607
 8141SOL     OW25321   4.353   0.027   4.865
 8141SOL    HW125322   4.370   6.949   4.843
 8141SOL    HW225323   4.261   0.037   4.902
 8142SOL     OW25324   1.757   5.377   0.151
 8142SOL    HW125325   1.706   5.376   0.064
 8142SOL    HW225326   1.845   5.423   0.137
 8143SOL     OW25327   6.420   5.004   0.168
 8143SOL    HW125328   6.327   5.009   0.204
 8143SOL    HW225329   6.449   4.909   0.166
 8144SOL     OW25330   0.459   6.331   6.096
 8144SOL    HW125331   0.382   6.294   6.043
 8144SOL    HW225332   0.444   6.313   6.193
 8145SOL     OW25333   5.702   5.286   0.738
 8145SOL    HW125334   5.704   5.280   0.638
 8145SOL    HW225335   5.618   5.332   0.768
 8146SOL     OW25336   5.451   0.323   5.425
 8146SOL    HW125337   5.461   0.262   5.503
 8146SOL    HW225338   5.528   0.386   5.422
 8147SOL     OW25339   6.440   1.004   1.586
 8147SOL    HW125340   6.431   0.908   1.559
 8147SOL    HW225341   6.531   1.019   1.624
 8148SOL     OW25342   5.648   4.917   0.821
 8148SOL    HW125343   5.644   4.835   0.879
 8148SOL    HW225344   5.565   4.923   0.766
 8149SOL     OW25345   2.061   6.716   3.425
 8149SOL    HW125346   2.014   6.652   3.364
 8149SOL    HW225347   1.999   6.742   3.500
 8150SOL     OW25348   1.909   3.549   0.305
 8150SOL    HW125349   1.843   3.486   0.345
 8150SOL    HW225350   1.993   3.548   0.361
 8151SOL     OW25351   5.943   5.062   3.568
 8151SOL    HW125352   5.925   5.103   3.657
 8151SOL    HW225353   5.985   4.972   3.581
 8152SOL     OW25354   6.239   3.051   3.097
 8152SOL    HW125355   6.226   3.142   3.138
 8152SOL    HW225356   6.268   2.987   3.168
 8153SOL     OW25357   1.233   1.660   3.921
 8153SOL    HW125358   1.283   1.695   3.841
 8153SOL    HW225359   1.187   1.736   3.967
 8154SOL     OW25360   3.664   6.118   2.351
 8154SOL    HW125361   3.729   6.164   2.290
 8154SOL    HW225362   3.684   6.020   2.352
 8155SOL     OW25363   1.587   3.174   1.977
 8155SOL    HW125364   1.573   3.265   2.016
 8155SOL    HW225365   1.593   3.180   1.878
 8156SOL     OW25366   4.547   5.961   0.770
 8156SOL    HW125367   4.509   5.896   0.835
 8156SOL    HW225368   4.521   5.934   0.677
 8157SOL     OW25369   6.602   4.671   5.915
 8157SOL    HW125370   6.658   4.655   5.833
 8157SOL    HW225371   6.658   4.709   5.988
 8158SOL     OW25372   4.776   3.744   0.684
 8158SOL    HW125373   4.718   3.673   0.723
 8158SOL    HW225374   4.763   3.747   0.585
 8159SOL     OW25375   2.385   5.629   3.410
 8159SOL    HW125376   2.464   5.600   3.464
 8159SOL    HW225377   2.417   5.673   3.326
 8160SOL     OW25378   5.049   0.572   3.593
 8160SOL    HW125379   5.103   0.492   3.620
 8160SOL    HW225380   5.000   0.607   3.673
 8161SOL     OW25381   6.030   2.775   6.327
 8161SOL    HW125382   6.069   2.721   6.252
 8161SOL    HW225383   5.951   2.826   6.292
 8162SOL     OW25384   6.259   6.982   6.925
 8162SOL    HW125385   6.206   7.011   7.004
 8162SOL    HW225386   6.208   6.911   6.875
 8163SOL     OW25387   2.771   4.750   5.248
 8163SOL    HW125388   2.754   4.794   5.160
 8163SOL    HW225389   2.834   4.673   5.235
 8164SOL     OW25390   4.880   2.436   0.455
 8164SOL    HW125391   4.884   2.510   0.522
 8164SOL    HW225392   4.973   2.407   0.432
 8165SOL     OW25393   0.139   3.611   5.799
 8165SOL    HW125394   0.218   3.668   5.821
 8165SOL    HW225395   0.149   3.573   5.707
 8166SOL     OW25396   1.157   0.705   3.850
 8166SOL    HW125397   1.127   0.610   3.857
 8166SOL    HW225398   1.204   0.719   3.763
 8167SOL     OW25399   6.943   0.573   3.855
 8167SOL    HW125400   6.941   0.606   3.761
 8167SOL    HW225401   6.856   0.593   3.900
 8168SOL     OW25402   2.693   1.561   1.660
 8168SOL    HW125403   2.596   1.538   1.653
 8168SOL    HW225404   2.709   1.650   1.616
 8169SOL     OW25405   4.820   1.931   0.276
 8169SOL    HW125406   4.850   1.900   0.366
 8169SOL    HW225407   4.721   1.942   0.275
 8170SOL     OW25408   1.199   5.170   1.838
 8170SOL    HW125409   1.100   5.155   1.840
 8170SOL    HW225410   1.246   5.084   1.862
 8171SOL     OW25411   1.884   1.786   6.265
 8171SOL    HW125412   1.882   1.819   6.171
 8171SOL    HW225413   1.966   1.821   6.311
 8172SOL     OW25414   0.152   1.972   2.528
 8172SOL    HW125415   0.177   2.043   2.463
 8172SOL    HW225416   0.056   1.983   2.555
 8173SOL     OW25417   5.338   2.052   1.889
 8173SOL    HW125418   5.428   2.097   1.890
 8173SOL    HW225419   5.279   2.098   1.823
 8174SOL     OW25420   6.626   0.775   2.339
 8174SOL    HW125421   6.575   0.840   2.282
 8174SOL    HW225422   6.615   0.683   2.302
 8175SOL     OW25423   0.258   3.287   5.707
 8175SOL    HW125424   0.294   3.194   5.709
 8175SOL    HW225425   0.250   3.322   5.800
 8176SOL     OW25426   2.401   5.125   1.485
 8176SOL    HW125427   2.351   5.049   1.527
 8176SOL    HW225428   2.348   5.161   1.409
 8177SOL     OW25429   3.575   0.025   3.699
 8177SOL    HW125430   3.481   0.011   3.732
 8177SOL    HW225431   3.575   0.100   3.633
 8178SOL     OW25432   2.927   0.022   0.683
 8178SOL    HW125433   2.970   0.111   0.668
 8178SOL    HW225434   2.996   6.967   0.673
 8179SOL     OW25435   4.732   1.572   4.456
 8179SOL    HW125436   4.682   1.591   4.372
 8179SOL    HW225437   4.797   1.498   4.441
 8180SOL     OW25438   6.156   1.302   5.546
 8180SOL    HW125439   6.110   1.306   5.457
 8180SOL    HW225440   6.129   1.381   5.601
 8181SOL     OW25441   0.970   1.593   0.526
 8181SOL    HW125442   0.980   1.688   0.498
 8181SOL    HW225443   0.924   1.542   0.453
 8182SOL     OW25444   3.031   3.496   5.782
 8182SOL    HW125445   2.937   3.463   5.783
 8182SOL    HW225446   3.090   3.426   5.742
 8183SOL     OW25447   6.424   2.387   4.615
 8183SOL    HW125448   6.396   2.291   4.609
 8183SOL    HW225449   6.512   2.393   4.662
 8184SOL     OW25450   6.381   0.271   0.515
 8184SOL    HW125451   6.329   0.309   0.592
 8184SOL    HW225452   6.415   0.180   0.540
 8185SOL     OW25453   1.806   0.201   6.566
 8185SOL    HW125454   1.758   0.262   6.504
 8185SOL    HW225455   1.901   0.190   6.535
 8186SOL     OW25456   3.664   4.538   5.435
 8186SOL    HW125457   3.610   4.616   5.405
 8186SOL    HW225458   3.645   4.459   5.376
 8187SOL     OW25459   2.603   1.444   4.930
 8187SOL    HW125460   2.516   1.405   4.900
 8187SOL    HW225461   2.596   1.543   4.933
 8188SOL     OW25462   5.143   3.260   3.504
 8188SOL    HW125463   5.167   3.176   3.554
 8188SOL    HW225464   5.046   3.258   3.481
 8189SOL     OW25465   5.288   5.204   3.152
 8189SOL    HW125466   5.324   5.285   3.107
 8189SOL    HW225467   5.217   5.230   3.217
 8190SOL     OW25468   5.180   4.610   4.445
 8190SOL    HW125469   5.223   4.533   4.493
 8190SOL    HW225470   5.099   4.578   4.396
 8191SOL     OW25471   3.634   6.314   1.842
 8191SOL    HW125472   3.669   6.315   1.748
 8191SOL    HW225473   3.622   6.219   1.872
 8192SOL     OW25474   3.080   5.277   0.502
 8192SOL    HW125475   3.012   5.236   0.564
 8192SOL    HW225476   3.158   5.310   0.556
 8193SOL     OW25477   5.948   5.785   5.753
 8193SOL    HW125478   5.868   5.833   5.717
 8193SOL    HW225479   5.942   5.779   5.852
 8194SOL     OW25480   4.989   2.056   0.930
 8194SOL    HW125481   4.969   2.151   0.905
 8194SOL    HW225482   5.052   2.055   1.008
 8195SOL     OW25483   1.208   0.247   3.258
 8195SOL    HW125484   1.118   0.207   3.277
 8195SOL    HW225485   1.199   0.347   3.252
 8196SOL     OW25486   4.292   5.858   6.356
 8196SOL    HW125487   4.221   5.884   6.422
 8196SOL    HW225488   4.305   5.759   6.358
 8197SOL     OW25489   4.408   1.680   0.238
 8197SOL    HW125490   4.355   1.595   0.245
 8197SOL    HW225491   4.394   1.735   0.321
 8198SOL     OW25492   3.060   6.399   2.871
 8198SOL    HW125493   3.156   6.373   2.880
 8198SOL    HW225494   3.006   6.354   2.943
 8199SOL     OW25495   5.764   2.636   6.092
 8199SOL    HW125496   5.755   2.595   6.182
 8199SOL    HW225497   5.774   2.564   6.023
 8200SOL     OW25498   5.658   4.924   1.916
 8200SOL    HW125499   5.707   5.000   1.872
 8200SOL    HW225500   5.629   4.952   2.007
 8201SOL     OW25501   5.520   0.848   3.822
 8201SOL    HW125502   5.617   0.860   3.845
 8201SOL    HW225503   5.502   0.752   3.802
 8202SOL     OW25504   0.361   5.653   3.803
 8202SOL    HW125505   0.373   5.567   3.752
 8202SOL    HW225506   0.290   5.640   3.872
 8203SOL     OW25507   3.984   2.491   6.793
 8203SOL    HW125508   4.029   2.543   6.719
 8203SOL    HW225509   3.977   2.395   6.767
 8204SOL     OW25510   3.419   5.066   6.717
 8204SOL    HW125511   3.358   5.043   6.793
 8204SOL    HW225512   3.385   5.026   6.633
 8205SOL     OW25513   0.701   4.659   0.562
 8205SOL    HW125514   0.778   4.632   0.619
 8205SOL    HW225515   0.647   4.729   0.610
 8206SOL     OW25516   5.089   1.964   6.430
 8206SOL    HW125517   5.013   1.971   6.366
 8206SOL    HW225518   5.055   1.979   6.523
 8207SOL     OW25519   2.967   3.877   3.902
 8207SOL    HW125520   2.873   3.896   3.932
 8207SOL    HW225521   2.967   3.853   3.805
 8208SOL     OW25522   1.616   0.148   1.439
 8208SOL    HW125523   1.611   0.238   1.483
 8208SOL    HW225524   1.690   0.147   1.373
 8209SOL     OW25525   0.624   1.802   4.999
 8209SOL    HW125526   0.635   1.705   4.978
 8209SOL    HW225527   0.621   1.814   5.098
 8210SOL     OW25528   2.082   1.369   1.411
 8210SOL    HW125529   2.060   1.345   1.317
 8210SOL    HW225530   1.998   1.379   1.463
 8211SOL     OW25531   3.710   4.096   1.879
 8211SOL    HW125532   3.708   4.196   1.878
 8211SOL    HW225533   3.796   4.064   1.837
 8212SOL     OW25534   2.250   1.773   1.837
 8212SOL    HW125535   2.288   1.784   1.929
 8212SOL    HW225536   2.304   1.826   1.772
 8213SOL     OW25537   6.838   4.433   2.661
 8213SOL    HW125538   6.817   4.338   2.637
 8213SOL    HW225539   6.857   4.485   2.578
 8214SOL     OW25540   6.060   5.482   4.851
 8214SOL    HW125541   6.050   5.459   4.754
 8214SOL    HW225542   6.059   5.581   4.862
 8215SOL     OW25543   2.542   6.011   6.344
 8215SOL    HW125544   2.549   5.939   6.275
 8215SOL    HW225545   2.631   6.056   6.354
 8216SOL     OW25546   5.300   5.326   3.918
 8216SOL    HW125547   5.323   5.399   3.982
 8216SOL    HW225548   5.337   5.240   3.951
 8217SOL     OW25549   1.969   3.559   0.720
 8217SOL    HW125550   1.887   3.616   0.729
 8217SOL    HW225551   1.947   3.478   0.665
 8218SOL     OW25552   6.877   0.025   5.121
 8218SOL    HW125553   6.835   6.972   5.063
 8218SOL    HW225554   6.947   7.000   5.179
 8219SOL     OW25555   4.115   3.338   0.417
 8219SOL    HW125556   4.035   3.397   0.404
 8219SOL    HW225557   4.194   3.376   0.371
 8220SOL     OW25558   2.893   3.374   3.820
 8220SOL    HW125559   2.813   3.418   3.777
 8220SOL    HW225560   2.931   3.435   3.890
 8221SOL     OW25561   5.821   6.504   3.686
 8221SOL    HW125562   5.733   6.470   3.719
 8221SOL    HW225563   5.810   6.598   3.653
 8222SOL     OW25564   5.457   1.640   1.102
 8222SOL    HW125565   5.455   1.567   1.170
 8222SOL    HW225566   5.490   1.605   1.015
 8223SOL     OW25567   0.938   3.972   5.317
 8223SOL    HW125568   0.930   4.016   5.406
 8223SOL    HW225569   1.024   3.921   5.313
 8224SOL     OW25570   5.413   1.524   2.238
 8224SOL    HW125571   5.397   1.556   2.331
 8224SOL    HW225572   5.504   1.484   2.231
 8225SOL     OW25573   3.101   1.541   1.248
 8225SOL    HW125574   3.151   1.604   1.188
 8225SOL    HW225575   3.095   1.451   1.205
 8226SOL     OW25576   3.640   6.703   0.332
 8226SOL    HW125577   3.645   6.695   0.432
 8226SOL    HW225578   3.610   6.616   0.293
 8227SOL     OW25579   0.203   1.069   2.562
 8227SOL    HW125580   0.104   1.087   2.568
 8227SOL    HW225581   0.222   0.980   2.602
 8228SOL     OW25582   6.529   2.123   5.915
 8228SOL    HW125583   6.564   2.029   5.915
 8228SOL    HW225584   6.598   2.184   5.876
 8229SOL     OW25585   4.790   3.293   0.711
 8229SOL    HW125586   4.887   3.274   0.696
 8229SOL    HW225587   4.779   3.345   0.795
 8230SOL     OW25588   3.532   0.307   4.997
 8230SOL    HW125589   3.628   0.278   4.986
 8230SOL    HW225590   3.526   0.406   4.987
 8231SOL     OW25591   3.104   3.339   1.157
 8231SOL    HW125592   3.025   3.296   1.200
 8231SOL    HW225593   3.085   3.437   1.143
 8232SOL     OW25594   4.121   2.075   1.655
 8232SOL    HW125595   4.052   2.007   1.677
 8232SOL    HW225596   4.110   2.105   1.560
 8233SOL     OW25597   0.574   6.396   5.708
 8233SOL    HW125598   0.503   6.425   5.772
 8233SOL    HW225599   0.658   6.375   5.758
 8234SOL     OW25600   2.735   3.542   6.551
 8234SOL    HW125601   2.784   3.455   6.554
 8234SOL    HW225602   2.716   3.567   6.456
 8235SOL     OW25603   0.741   2.588   0.302
 8235SOL    HW125604   0.789   2.584   0.390
 8235SOL    HW225605   0.659   2.531   0.305
 8236SOL     OW25606   0.892   4.384   0.598
 8236SOL    HW125607   0.935   4.412   0.684
 8236SOL    HW225608   0.896   4.284   0.590
 8237SOL     OW25609   4.943   6.541   5.402
 8237SOL    HW125610   5.020   6.606   5.403
 8237SOL    HW225611   4.894   6.547   5.489
 8238SOL     OW25612   0.668   5.389   6.192
 8238SOL    HW125613   0.662   5.488   6.201
 8238SOL    HW225614   0.580   5.348   6.215
 8239SOL     OW25615   0.147   1.025   5.796
 8239SOL    HW125616   0.202   0.971   5.859
 8239SOL    HW225617   0.200   1.045   5.714
 8240SOL     OW25618   3.458   3.858   2.462
 8240SOL    HW125619   3.475   3.760   2.478
 8240SOL    HW225620   3.389   3.868   2.391
 8241SOL     OW25621   3.713   6.147   5.995
 8241SOL    HW125622   3.708   6.096   5.909
 8241SOL    HW225623   3.724   6.244   5.975
 8242SOL     OW25624   0.518   4.197   6.447
 8242SOL    HW125625   0.461   4.267   6.404
 8242SOL    HW225626   0.459   4.129   6.491
 8243SOL     OW25627   0.226   2.866   0.685
 8243SOL    HW125628   0.266   2.864   0.776
 8243SOL    HW225629   0.147   2.927   0.684
 8244SOL     OW25630   0.402   1.070   4.410
 8244SOL    HW125631   0.319   1.028   4.373
 8244SOL    HW225632   0.476   1.061   4.344
 8245SOL     OW25633   3.940   1.987   1.874
 8245SOL    HW125634   3.952   1.936   1.959
 8245SOL    HW225635   3.842   1.998   1.856
 8246SOL     OW25636   1.341   3.428   5.747
 8246SOL    HW125637   1.371   3.376   5.667
 8246SOL    HW225638   1.252   3.395   5.777
 8247SOL     OW25639   1.622   0.942   2.804
 8247SOL    HW125640   1.561   1.019   2.823
 8247SOL    HW225641   1.589   0.861   2.853
 8248SOL     OW25642   6.955   4.982   4.903
 8248SOL    HW125643   6.893   5.053   4.870
 8248SOL    HW225644   6.918   4.942   4.987
 8249SOL     OW25645   1.985   2.547   5.866
 8249SOL    HW125646   2.032   2.487   5.802
 8249SOL    HW225647   1.932   2.616   5.816
 8250SOL     OW25648   2.870   3.391   1.471
 8250SOL    HW125649   2.923   3.356   1.548
 8250SOL    HW225650   2.868   3.324   1.397
 8251SOL     OW25651   4.854   3.204   4.576
 8251SOL    HW125652   4.771   3.188   4.630
 8251SOL    HW225653   4.886   3.298   4.591
 8252SOL     OW25654   3.579   1.287   5.672
 8252SOL    HW125655   3.569   1.196   5.710
 8252SOL    HW225656   3.577   1.283   5.572
 8253SOL     OW25657   4.835   5.517   6.000
 8253SOL    HW125658   4.791   5.436   6.040
 8253SOL    HW225659   4.782   5.548   5.921
 8254SOL     OW25660   4.611   4.247   5.149
 8254SOL    HW125661   4.677   4.186   5.105
 8254SOL    HW225662   4.555   4.195   5.213
 8255SOL     OW25663   1.572   7.014   4.911
 8255SOL    HW125664   1.625   6.930   4.897
 8255SOL    HW225665   1.590   0.032   5.002
 8256SOL     OW25666   6.953   6.163   1.854
 8256SOL    HW125667   6.865   6.207   1.871
 8256SOL    HW225668   7.011   6.172   1.935
 8257SOL     OW25669   5.300   4.057   2.830
 8257SOL    HW125670   5.331   3.997   2.756
 8257SOL    HW225671   5.362   4.048   2.908
 8258SOL     OW25672   5.333   2.755   1.345
 8258SOL    HW125673   5.274   2.748   1.265
 8258SOL    HW225674   5.365   2.664   1.372
 8259SOL     OW25675   3.735   1.833   4.479
 8259SOL    HW125676   3.764   1.821   4.574
 8259SOL    HW225677   3.653   1.890   4.475
 8260SOL     OW25678   2.235   6.961   0.877
 8260SOL    HW125679   2.245   0.034   0.919
 8260SOL    HW225680   2.186   6.970   0.790
 8261SOL     OW25681   5.567   0.089   1.591
 8261SOL    HW125682   5.470   0.085   1.617
 8261SOL    HW225683   5.616   0.146   1.657
 8262SOL     OW25684   0.985   2.389   6.859
 8262SOL    HW125685   0.909   2.336   6.896
 8262SOL    HW225686   0.964   2.487   6.866
 8263SOL     OW25687   0.541   2.819   6.363
 8263SOL    HW125688   0.586   2.853   6.446
 8263SOL    HW225689   0.460   2.766   6.389
 8264SOL     OW25690   1.878   6.139   1.767
 8264SOL    HW125691   1.799   6.174   1.716
 8264SOL    HW225692   1.959   6.144   1.710
 8265SOL     OW25693   6.448   0.748   1.030
 8265SOL    HW125694   6.461   0.827   0.970
 8265SOL    HW225695   6.530   0.692   1.029
 8266SOL     OW25696   2.516   1.321   4.307
 8266SOL    HW125697   2.422   1.330   4.274
 8266SOL    HW225698   2.520   1.345   4.404
 8267SOL     OW25699   1.999   3.456   1.360
 8267SOL    HW125700   1.900   3.439   1.367
 8267SOL    HW225701   2.019   3.502   1.274
 8268SOL     OW25702   2.097   6.611   5.920
 8268SOL    HW125703   1.998   6.621   5.911
 8268SOL    HW225704   2.142   6.680   5.863
 8269SOL     OW25705   4.327   1.354   2.000
 8269SOL    HW125706   4.387   1.335   2.078
 8269SOL    HW225707   4.381   1.357   1.916
 8270SOL     OW25708   3.200   6.171   4.913
 8270SOL    HW125709   3.142   6.199   4.836
 8270SOL    HW225710   3.153   6.192   4.999
 8271SOL     OW25711   0.308   6.639   3.535
 8271SOL    HW125712   0.350   6.726   3.508
 8271SOL    HW225713   0.360   6.563   3.496
 8272SOL     OW25714   6.610   1.626   2.905
 8272SOL    HW125715   6.538   1.559   2.918
 8272SOL    HW225716   6.569   1.716   2.891
 8273SOL     OW25717   2.322   1.073   1.272
 8273SOL    HW125718   2.247   1.014   1.241
 8273SOL    HW225719   2.334   1.064   1.371
 8274SOL     OW25720   4.504   5.381   4.106
 8274SOL    HW125721   4.550   5.369   4.018
 8274SOL    HW225722   4.407   5.402   4.090
 8275SOL     OW25723   5.836   0.981   4.629
 8275SOL    HW125724   5.904   0.975   4.556
 8275SOL    HW225725   5.745   0.964   4.592
 8276SOL     OW25726   0.678   2.352   4.223
 8276SOL    HW125727   0.719   2.262   4.240
 8276SOL    HW225728   0.733   2.423   4.267
 8277SOL     OW25729   0.795   6.200   6.310
 8277SOL    HW125730   0.773   6.296   6.291
 8277SOL    HW225731   0.710   6.149   6.327
 8278SOL     OW25732   3.152   1.105   6.664
 8278SOL    HW125733   3.072   1.119   6.606
 8278SOL    HW225734   3.227   1.068   6.609
 8279SOL     OW25735   1.096   6.451   4.459
 8279SOL    HW125736   1.052   6.459   4.370
 8279SOL    HW225737   1.195   6.449   4.447
 8280SOL     OW25738   2.772   2.720   0.850
 8280SOL    HW125739   2.702   2.788   0.829
 8280SOL    HW225740   2.818   2.693   0.766
 8281SOL     OW25741   2.664   4.382   1.691
 8281SOL    HW125742   2.725   4.457   1.666
 8281SOL    HW225743   2.596   4.415   1.757
 8282SOL     OW25744   4.791   3.778   0.136
 8282SOL    HW125745   4.810   3.763   0.233
 8282SOL    HW225746   4.693   3.789   0.123
 8283SOL     OW25747   1.502   5.187   5.214
 8283SOL    HW125748   1.546   5.252   5.275
 8283SOL    HW225749   1.563   5.109   5.198
 8284SOL     OW25750   0.910   3.617   1.301
 8284SOL    HW125751   0.990   3.672   1.324
 8284SOL    HW225752   0.882   3.563   1.380
 8285SOL     OW25753   3.205   4.145   4.962
 8285SOL    HW125754   3.167   4.227   4.920
 8285SOL    HW225755   3.159   4.064   4.924
 8286SOL     OW25756   5.444   1.785   5.078
 8286SOL    HW125757   5.385   1.818   5.005
 8286SOL    HW225758   5.397   1.795   5.166
 8287SOL     OW25759   1.271   4.506   4.542
 8287SOL    HW125760   1.300   4.411   4.527
 8287SOL    HW225761   1.290   4.560   4.460
 8288SOL     OW25762   2.795   2.124   2.142
 8288SOL    HW125763   2.739   2.056   2.096
 8288SOL    HW225764   2.820   2.196   2.077
 8289SOL     OW25765   0.695   6.478   6.598
 8289SOL    HW125766   0.767   6.531   6.553
 8289SOL    HW225767   0.610   6.487   6.547
 8290SOL     OW25768   5.176   1.560   0.901
 8290SOL    HW125769   5.115   1.561   0.822
 8290SOL    HW225770   5.159   1.478   0.956
 8291SOL     OW25771   4.282   5.521   5.127
 8291SOL    HW125772   4.335   5.482   5.052
 8291SOL    HW225773   4.236   5.448   5.177
 8292SOL     OW25774   3.140   6.636   6.449
 8292SOL    HW125775   3.080   6.603   6.376
 8292SOL    HW225776   3.091   6.632   6.536
 8293SOL     OW25777   1.894   5.492   0.805
 8293SOL    HW125778   1.819   5.430   0.829
 8293SOL    HW225779   1.965   5.442   0.756
 8294SOL     OW25780   5.589   4.009   5.474
 8294SOL    HW125781   5.636   4.043   5.555
 8294SOL    HW225782   5.631   3.923   5.444
 8295SOL     OW25783   4.675   5.116   1.433
 8295SOL    HW125784   4.627   5.137   1.518
 8295SOL    HW225785   4.613   5.068   1.370
 8296SOL     OW25786   1.869   4.778   6.752
 8296SOL    HW125787   1.960   4.817   6.736
 8296SOL    HW225788   1.876   4.680   6.767
 8297SOL     OW25789   0.291   3.067   2.737
 8297SOL    HW125790   0.313   2.972   2.756
 8297SOL    HW225791   0.285   3.118   2.822
 8298SOL     OW25792   6.118   1.763   0.734
 8298SOL    HW125793   6.215   1.738   0.722
 8298SOL    HW225794   6.061   1.685   0.709
 8299SOL     OW25795   0.686   2.279   2.395
 8299SOL    HW125796   0.607   2.307   2.340
 8299SOL    HW225797   0.687   2.179   2.403
 8300SOL     OW25798   6.939   5.595   3.908
 8300SOL    HW125799   6.907   5.683   3.874
 8300SOL    HW225800   6.919   5.524   3.841
 8301SOL     OW25801   3.736   1.359   0.424
 8301SOL    HW125802   3.657   1.340   0.367
 8301SOL    HW225803   3.738   1.295   0.501
 8302SOL     OW25804   5.898   0.166   6.530
 8302SOL    HW125805   5.925   0.260   6.510
 8302SOL    HW225806   5.968   0.103   6.495
 8303SOL     OW25807   5.745   0.658   3.977
 8303SOL    HW125808   5.809   0.582   3.973
 8303SOL    HW225809   5.786   0.734   4.028
 8304SOL     OW25810   6.086   3.223   1.308
 8304SOL    HW125811   6.082   3.192   1.213
 8304SOL    HW225812   6.144   3.161   1.361
 8305SOL     OW25813   4.543   4.418   3.591
 8305SOL    HW125814   4.609   4.469   3.647
 8305SOL    HW225815   4.462   4.474   3.576
 8306SOL     OW25816   5.587   1.798   4.346
 8306SOL    HW125817   5.680   1.768   4.366
 8306SOL    HW225818   5.587   1.855   4.264
 8307SOL     OW25819   3.425   5.008   1.722
 8307SOL    HW125820   3.336   4.982   1.683
 8307SOL    HW225821   3.494   4.941   1.694
 8308SOL     OW25822   2.270   5.296   0.911
 8308SOL    HW125823   2.266   5.276   1.009
 8308SOL    HW225824   2.218   5.379   0.892
 8309SOL     OW25825   6.693   5.723   3.325
 8309SOL    HW125826   6.693   5.634   3.370
 8309SOL    HW225827   6.602   5.764   3.330
 8310SOL     OW25828   0.738   5.791   1.592
 8310SOL    HW125829   0.819   5.812   1.539
 8310SOL    HW225830   0.763   5.736   1.672
 8311SOL     OW25831   0.395   2.271   5.547
 8311SOL    HW125832   0.423   2.323   5.466
 8311SOL    HW225833   0.474   2.222   5.584
 8312SOL     OW25834   4.461   0.359   0.108
 8312SOL    HW125835   4.386   0.328   0.049
 8312SOL    HW225836   4.449   0.457   0.128
 8313SOL     OW25837   5.091   6.875   6.942
 8313SOL    HW125838   5.170   6.819   6.916
 8313SOL    HW225839   5.032   6.822   7.002
 8314SOL     OW25840   5.424   0.008   0.186
 8314SOL    HW125841   5.327   7.014   0.209
 8314SOL    HW225842   5.434   0.014   0.087
 8315SOL     OW25843   4.119   3.186   1.529
 8315SOL    HW125844   4.056   3.167   1.604
 8315SOL    HW225845   4.212   3.165   1.558
 8316SOL     OW25846   1.555   2.265   2.139
 8316SOL    HW125847   1.620   2.328   2.096
 8316SOL    HW225848   1.603   2.184   2.170
 8317SOL     OW25849   1.231   2.706   2.364
 8317SOL    HW125850   1.325   2.690   2.334
 8317SOL    HW225851   1.178   2.622   2.353
 8318SOL     OW25852   4.204   1.437   5.726
 8318SOL    HW125853   4.258   1.514   5.760
 8318SOL    HW225854   4.162   1.390   5.804
 8319SOL     OW25855   1.404   1.722   0.735
 8319SOL    HW125856   1.377   1.695   0.643
 8319SOL    HW225857   1.472   1.658   0.770
 8320SOL     OW25858   3.194   3.535   2.493
 8320SOL    HW125859   3.256   3.520   2.416
 8320SOL    HW225860   3.109   3.486   2.477
 8321SOL     OW25861   6.621   6.900   6.325
 8321SOL    HW125862   6.592   6.846   6.246
 8321SOL    HW225863   6.541   6.919   6.383
 8322SOL     OW25864   6.000   0.183   0.719
 8322SOL    HW125865   6.013   0.188   0.620
 8322SOL    HW225866   6.079   0.224   0.765
 8323SOL     OW25867   5.365   5.456   1.937
 8323SOL    HW125868   5.291   5.418   1.881
 8323SOL    HW225869   5.453   5.429   1.898
 8324SOL     OW25870   5.948   6.529   1.652
 8324SOL    HW125871   5.864   6.583   1.639
 8324SOL    HW225872   5.966   6.476   1.570
 8325SOL     OW25873   2.302   3.521   5.336
 8325SOL    HW125874   2.257   3.526   5.247
 8325SOL    HW225875   2.387   3.574   5.333
 8326SOL     OW25876   4.839   3.518   5.896
 8326SOL    HW125877   4.797   3.584   5.959
 8326SOL    HW225878   4.803   3.427   5.914
 8327SOL     OW25879   6.959   0.508   5.672
 8327SOL    HW125880   6.899   0.477   5.599
 8327SOL    HW225881   0.026   0.545   5.633
 8328SOL     OW25882   2.245   5.887   6.722
 8328SOL    HW125883   2.173   5.906   6.656
 8328SOL    HW225884   2.205   5.877   6.813
 8329SOL     OW25885   1.012   2.902   5.729
 8329SOL    HW125886   0.952   2.881   5.652
 8329SOL    HW225887   1.100   2.933   5.696
 8330SOL     OW25888   2.845   1.159   6.345
 8330SOL    HW125889   2.930   1.198   6.379
 8330SOL    HW225890   2.793   1.122   6.422
 8331SOL     OW25891   3.368   0.778   1.521
 8331SOL    HW125892   3.437   0.762   1.451
 8331SOL    HW225893   3.277   0.779   1.478
 8332SOL     OW25894   5.593   5.324   2.689
 8332SOL    HW125895   5.648   5.404   2.666
 8332SOL    HW225896   5.503   5.354   2.721
 8333SOL     OW25897   0.210   5.140   6.078
 8333SOL    HW125898   0.278   5.115   6.146
 8333SOL    HW225899   0.199   5.066   6.012
 8334SOL     OW25900   3.898   1.332   4.145
 8334SOL    HW125901   3.893   1.233   4.146
 8334SOL    HW225902   3.899   1.365   4.050
 8335SOL     OW25903   5.245   0.842   0.537
 8335SOL    HW125904   5.331   0.846   0.588
 8335SOL    HW225905   5.246   0.764   0.475
 8336SOL     OW25906   0.506   4.870   3.495
 8336SOL    HW125907   0.580   4.874   3.563
 8336SOL    HW225908   0.445   4.794   3.516
 8337SOL     OW25909   1.804   6.031   3.408
 8337SOL    HW125910   1.731   5.966   3.424
 8337SOL    HW225911   1.889   5.982   3.388
 8338SOL     OW25912   3.904   5.377   1.823
 8338SOL    HW125913   3.838   5.316   1.867
 8338SOL    HW225914   3.990   5.328   1.809
 8339SOL     OW25915   6.747   0.464   1.764
 8339SOL    HW125916   6.657   0.446   1.724
 8339SOL    HW225917   6.816   0.412   1.715
 8340SOL     OW25918   5.274   3.246   0.973
 8340SOL    HW125919   5.212   3.203   1.038
 8340SOL    HW225920   5.222   3.283   0.896
 8341SOL     OW25921   3.035   6.788   0.269
 8341SOL    HW125922   3.045   6.829   0.178
 8341SOL    HW225923   3.120   6.800   0.320
 8342SOL     OW25924   4.670   6.313   0.411
 8342SOL    HW125925   4.709   6.222   0.420
 8342SOL    HW225926   4.665   6.356   0.501
 8343SOL     OW25927   0.792   5.485   4.732
 8343SOL    HW125928   0.748   5.536   4.659
 8343SOL    HW225929   0.825   5.397   4.697
 8344SOL     OW25930   5.211   6.056   4.951
 8344SOL    HW125931   5.178   6.032   5.042
 8344SOL    HW225932   5.148   6.121   4.908
 8345SOL     OW25933   3.897   1.564   2.393
 8345SOL    HW125934   3.832   1.632   2.359
 8345SOL    HW225935   3.974   1.610   2.437
 8346SOL     OW25936   4.022   4.579   0.194
 8346SOL    HW125937   3.960   4.657   0.193
 8346SOL    HW225938   3.999   4.519   0.270
 8347SOL     OW25939   4.112   5.941   3.713
 8347SOL    HW125940   4.026   5.955   3.663
 8347SOL    HW225941   4.188   5.943   3.648
 8348SOL     OW25942   1.774   1.291   1.279
 8348SOL    HW125943   1.743   1.215   1.335
 8348SOL    HW225944   1.846   1.260   1.217
 8349SOL     OW25945   6.166   6.985   1.539
 8349SOL    HW125946   6.249   0.016   1.511
 8349SOL    HW225947   6.191   6.896   1.577
 8350SOL     OW25948   3.298   6.781   6.175
 8350SOL    HW125949   3.263   6.695   6.140
 8350SOL    HW225950   3.319   6.771   6.273
 8351SOL     OW25951   5.900   5.200   4.722
 8351SOL    HW125952   5.814   5.150   4.734
 8351SOL    HW225953   5.887   5.273   4.655
 8352SOL     OW25954   0.178   0.152   3.962
 8352SOL    HW125955   0.276   0.145   3.981
 8352SOL    HW225956   0.157   0.245   3.931
 8353SOL     OW25957   0.097   3.570   1.320
 8353SOL    HW125958   0.135   3.613   1.402
 8353SOL    HW225959   0.140   3.611   1.239
 8354SOL     OW25960   4.245   6.808   5.150
 8354SOL    HW125961   4.234   6.808   5.051
 8354SOL    HW225962   4.187   6.878   5.191
 8355SOL     OW25963   2.719   0.723   6.103
 8355SOL    HW125964   2.790   0.775   6.150
 8355SOL    HW225965   2.695   0.643   6.158
 8356SOL     OW25966   0.741   6.741   1.247
 8356SOL    HW125967   0.682   6.661   1.249
 8356SOL    HW225968   0.695   6.818   1.292
 8357SOL     OW25969   3.660   6.898   5.142
 8357SOL    HW125970   3.719   6.977   5.126
 8357SOL    HW225971   3.672   6.832   5.067
 8358SOL     OW25972   1.448   4.178   4.327
 8358SOL    HW125973   1.490   4.097   4.286
 8358SOL    HW225974   1.441   4.250   4.259
 8359SOL     OW25975   2.576   0.903   5.223
 8359SOL    HW125976   2.558   0.821   5.170
 8359SOL    HW225977   2.672   0.930   5.211
 8360SOL     OW25978   3.949   6.184   0.644
 8360SOL    HW125979   3.908   6.129   0.716
 8360SOL    HW225980   3.934   6.281   0.663
 8361SOL     OW25981   2.977   0.393   2.497
 8361SOL    HW125982   2.982   0.416   2.400
 8361SOL    HW225983   3.055   0.336   2.522
 8362SOL     OW25984   3.846   1.781   1.150
 8362SOL    HW125985   3.871   1.818   1.239
 8362SOL    HW225986   3.838   1.856   1.084
 8363SOL     OW25987   5.780   3.089   6.626
 8363SOL    HW125988   5.838   3.084   6.545
 8363SOL    HW225989   5.705   3.024   6.618
 8364SOL     OW25990   1.033   2.678   3.586
 8364SOL    HW125991   0.971   2.744   3.628
 8364SOL    HW225992   1.070   2.716   3.501
 8365SOL     OW25993   1.644   3.048   2.238
 8365SOL    HW125994   1.555   3.063   2.282
 8365SOL    HW225995   1.635   3.060   2.140
 8366SOL     OW25996   1.917   5.844   1.678
 8366SOL    HW125997   1.969   5.918   1.636
 8366SOL    HW225998   1.868   5.880   1.758
 8367SOL     OW25999   4.551   5.571   4.289
 8367SOL    HW126000   4.542   5.648   4.226
 8367SOL    HW226001   4.551   5.486   4.238
 8368SOL     OW26002   1.752   6.193   6.632
 8368SOL    HW126003   1.658   6.210   6.604
 8368SOL    HW226004   1.770   6.241   6.718
 8369SOL     OW26005   1.095   6.819   6.422
 8369SOL    HW126006   1.191   6.794   6.421
 8369SOL    HW226007   1.074   6.868   6.507
 8370SOL     OW26008   3.334   1.206   6.033
 8370SOL    HW126009   3.375   1.125   6.075
 8370SOL    HW226010   3.248   1.228   6.079
 8371SOL     OW26011   2.238   4.483   0.630
 8371SOL    HW126012   2.311   4.551   0.637
 8371SOL    HW226013   2.152   4.523   0.663
 8372SOL     OW26014   1.967   4.822   1.981
 8372SOL    HW126015   1.896   4.802   1.913
 8372SOL    HW226016   2.049   4.770   1.959
 8373SOL     OW26017   1.800   0.363   4.722
 8373SOL    HW126018   1.781   0.396   4.630
 8373SOL    HW226019   1.719   0.315   4.758
 8374SOL     OW26020   0.074   0.931   5.342
 8374SOL    HW126021   0.028   1.011   5.381
 8374SOL    HW226022   0.145   0.900   5.406
 8375SOL     OW26023   3.200   6.732   5.196
 8375SOL    HW126024   3.153   6.654   5.155
 8375SOL    HW226025   3.295   6.708   5.215
 8376SOL     OW26026   0.977   1.294   4.181
 8376SOL    HW126027   0.928   1.209   4.164
 8376SOL    HW226028   1.029   1.320   4.099
 8377SOL     OW26029   5.316   5.727   0.650
 8377SOL    HW126030   5.290   5.813   0.605
 8377SOL    HW226031   5.405   5.739   0.696
 8378SOL     OW26032   4.717   5.292   2.580
 8378SOL    HW126033   4.724   5.388   2.553
 8378SOL    HW226034   4.633   5.278   2.632
 8379SOL     OW26035   5.589   3.127   1.335
 8379SOL    HW126036   5.687   3.134   1.354
 8379SOL    HW226037   5.575   3.115   1.237
 8380SOL     OW26038   0.318   0.593   2.610
 8380SOL    HW126039   0.410   0.597   2.650
 8380SOL    HW226040   0.325   0.565   2.515
 8381SOL     OW26041   0.107   3.284   4.986
 8381SOL    HW126042   0.199   3.250   5.004
 8381SOL    HW226043   0.101   3.316   4.891
 8382SOL     OW26044   2.627   6.921   3.005
 8382SOL    HW126045   2.685   6.978   3.064
 8382SOL    HW226046   2.624   6.960   2.913
 8383SOL     OW26047   2.570   0.014   6.038
 8383SOL    HW126048   2.650   0.070   6.058
 8383SOL    HW226049   2.575   6.946   6.090
 8384SOL     OW26050   6.430   0.751   1.504
 8384SOL    HW126051   6.409   0.730   1.408
 8384SOL    HW226052   6.405   0.673   1.561
 8385SOL     OW26053   5.435   2.370   0.914
 8385SOL    HW126054   5.507   2.315   0.955
 8385SOL    HW226055   5.474   2.456   0.880
 8386SOL     OW26056   2.424   5.604   1.933
 8386SOL    HW126057   2.351   5.535   1.928
 8386SOL    HW226058   2.386   5.694   1.910
 8387SOL     OW26059   1.358   1.443   1.685
 8387SOL    HW126060   1.335   1.433   1.782
 8387SOL    HW226061   1.351   1.354   1.640
 8388SOL     OW26062   1.834   6.142   0.346
 8388SOL    HW126063   1.736   6.149   0.332
 8388SOL    HW226064   1.853   6.070   0.413
 8389SOL     OW26065   0.091   3.307   2.929
 8389SOL    HW126066   0.043   3.230   2.973
 8389SOL    HW226067   0.080   3.301   2.830
 8390SOL     OW26068   4.622   1.210   0.331
 8390SOL    HW126069   4.696   1.276   0.341
 8390SOL    HW226070   4.653   1.132   0.276
 8391SOL     OW26071   6.204   4.951   1.007
 8391SOL    HW126072   6.115   4.944   1.052
 8391SOL    HW226073   6.218   5.045   0.975
 8392SOL     OW26074   6.462   4.432   5.103
 8392SOL    HW126075   6.511   4.479   5.176
 8392SOL    HW226076   6.522   4.366   5.059
 8393SOL     OW26077   0.572   6.358   2.580
 8393SOL    HW126078   0.510   6.369   2.502
 8393SOL    HW226079   0.665   6.384   2.553
 8394SOL     OW26080   6.429   2.994   2.079
 8394SOL    HW126081   6.333   2.968   2.068
 8394SOL    HW226082   6.440   3.090   2.051
 8395SOL     OW26083   1.975   6.266   5.028
 8395SOL    HW126084   1.913   6.210   5.082
 8395SOL    HW226085   2.026   6.327   5.089
 8396SOL     OW26086   4.785   5.462   2.274
 8396SOL    HW126087   4.734   5.384   2.237
 8396SOL    HW226088   4.801   5.529   2.201
 8397SOL     OW26089   2.194   0.370   2.858
 8397SOL    HW126090   2.135   0.310   2.913
 8397SOL    HW226091   2.203   0.333   2.766
 8398SOL     OW26092   4.083   1.773   6.564
 8398SOL    HW126093   4.086   1.688   6.616
 8398SOL    HW226094   3.990   1.791   6.534
 8399SOL     OW26095   5.703   5.953   7.010
 8399SOL    HW126096   5.672   5.895   0.068
 8399SOL    HW226097   5.690   5.905   6.923
 8400SOL     OW26098   1.808   1.504   4.839
 8400SOL    HW126099   1.709   1.508   4.853
 8400SOL    HW226100   1.829   1.426   4.780
 8401SOL     OW26101   2.663   1.499   6.378
 8401SOL    HW126102   2.565   1.493   6.357
 8401SOL    HW226103   2.676   1.555   6.460
 8402SOL     OW26104   4.254   1.550   5.451
 8402SOL    HW126105   4.245   1.533   5.549
 8402SOL    HW226106   4.169   1.525   5.405
 8403SOL     OW26107   0.884   2.521   4.587
 8403SOL    HW126108   0.900   2.428   4.620
 8403SOL    HW226109   0.956   2.581   4.621
 8404SOL     OW26110   4.492   6.873   5.434
 8404SOL    HW126111   4.431   6.952   5.426
 8404SOL    HW226112   4.438   6.789   5.437
 8405SOL     OW26113   2.067   0.873   5.517
 8405SOL    HW126114   2.003   0.798   5.499
 8405SOL    HW226115   2.118   0.855   5.601
 8406SOL     OW26116   5.094   0.175   0.423
 8406SOL    HW126117   5.075   0.165   0.521
 8406SOL    HW226118   5.142   0.094   0.390
 8407SOL     OW26119   3.554   6.361   3.642
 8407SOL    HW126120   3.543   6.284   3.580
 8407SOL    HW226121   3.589   6.440   3.591
 8408SOL     OW26122   6.026   3.840   2.181
 8408SOL    HW126123   6.030   3.922   2.123
 8408SOL    HW226124   5.971   3.861   2.262
 8409SOL     OW26125   5.493   2.579   3.453
 8409SOL    HW126126   5.589   2.606   3.444
 8409SOL    HW226127   5.480   2.489   3.412
 8410SOL     OW26128   5.170   1.088   2.076
 8410SOL    HW126129   5.267   1.112   2.072
 8410SOL    HW226130   5.115   1.168   2.048
 8411SOL     OW26131   0.499   4.708   0.293
 8411SOL    HW126132   0.420   4.722   0.233
 8411SOL    HW226133   0.469   4.707   0.388
 8412SOL     OW26134   3.144   1.339   1.456
 8412SOL    HW126135   3.087   1.411   1.417
 8412SOL    HW226136   3.140   1.258   1.397
 8413SOL     OW26137   4.303   5.279   6.848
 8413SOL    HW126138   4.377   5.340   6.877
 8413SOL    HW226139   4.227   5.286   6.912
 8414SOL     OW26140   3.476   4.957   3.184
 8414SOL    HW126141   3.409   5.014   3.136
 8414SOL    HW226142   3.567   4.976   3.147
 8415SOL     OW26143   0.016   6.201   4.241
 8415SOL    HW126144   6.956   6.240   4.191
 8415SOL    HW226145   0.101   6.220   4.192
 8416SOL     OW26146   5.270   3.866   2.590
 8416SOL    HW126147   5.305   3.842   2.499
 8416SOL    HW226148   5.190   3.925   2.580
 8417SOL     OW26149   1.700   4.176   5.287
 8417SOL    HW126150   1.705   4.081   5.255
 8417SOL    HW226151   1.711   4.178   5.386
 8418SOL     OW26152   6.121   5.229   0.877
 8418SOL    HW126153   6.051   5.174   0.922
 8418SOL    HW226154   6.166   5.173   0.806
 8419SOL     OW26155   5.545   6.743   1.826
 8419SOL    HW126156   5.629   6.797   1.819
 8419SOL    HW226157   5.564   6.657   1.872
 8420SOL     OW26158   4.212   0.126   0.340
 8420SOL    HW126159   4.309   0.103   0.334
 8420SOL    HW226160   4.162   0.082   0.266
 8421SOL     OW26161   1.654   5.374   6.908
 8421SOL    HW126162   1.582   5.306   6.917
 8421SOL    HW226163   1.734   5.333   6.864
 8422SOL     OW26164   3.846   1.020   1.422
 8422SOL    HW126165   3.916   1.084   1.453
 8422SOL    HW226166   3.815   1.045   1.330
 8423SOL     OW26167   3.235   4.532   5.716
 8423SOL    HW126168   3.217   4.441   5.680
 8423SOL    HW226169   3.202   4.537   5.811
 8424SOL     OW26170   2.755   2.032   2.631
 8424SOL    HW126171   2.823   2.106   2.631
 8424SOL    HW226172   2.796   1.949   2.668
 8425SOL     OW26173   5.058   5.018   5.962
 8425SOL    HW126174   5.078   5.019   6.060
 8425SOL    HW226175   5.012   5.103   5.937
 8426SOL     OW26176   3.492   3.740   3.364
 8426SOL    HW126177   3.541   3.656   3.341
 8426SOL    HW226178   3.402   3.739   3.319
 8427SOL     OW26179   3.690   4.013   4.758
 8427SOL    HW126180   3.752   4.002   4.836
 8427SOL    HW226181   3.596   4.003   4.790
 8428SOL     OW26182   0.868   5.511   1.509
 8428SOL    HW126183   0.776   5.476   1.494
 8428SOL    HW226184   0.883   5.592   1.453
 8429SOL     OW26185   1.269   5.750   3.907
 8429SOL    HW126186   1.260   5.845   3.935
 8429SOL    HW226187   1.183   5.719   3.867
 8430SOL     OW26188   3.900   5.105   3.208
 8430SOL    HW126189   3.864   5.198   3.194
 8430SOL    HW226190   3.845   5.040   3.155
 8431SOL     OW26191   2.969   4.821   0.740
 8431SOL    HW126192   2.892   4.780   0.788
 8431SOL    HW226193   3.053   4.807   0.792
 8432SOL     OW26194   5.675   6.857   6.079
 8432SOL    HW126195   5.597   6.891   6.131
 8432SOL    HW226196   5.641   6.813   5.995
 8433SOL     OW26197   5.138   2.273   0.448
 8433SOL    HW126198   5.201   2.230   0.511
 8433SOL    HW226199   5.187   2.342   0.394
 8434SOL     OW26200   2.805   6.531   4.875
 8434SOL    HW126201   2.722   6.527   4.929
 8434SOL    HW226202   2.810   6.619   4.828
 8435SOL     OW26203   6.337   0.688   1.898
 8435SOL    HW126204   6.377   0.671   1.989
 8435SOL    HW226205   6.264   0.756   1.906
 8436SOL     OW26206   3.604   6.748   3.539
 8436SOL    HW126207   3.518   6.743   3.591
 8436SOL    HW226208   3.619   6.661   3.492
 8437SOL     OW26209   2.380   1.086   4.561
 8437SOL    HW126210   2.473   1.111   4.588
 8437SOL    HW226211   2.372   0.986   4.554
 8438SOL     OW26212   2.447   4.480   2.329
 8438SOL    HW126213   2.449   4.455   2.426
 8438SOL    HW226214   2.529   4.531   2.306
 8439SOL     OW26215   0.129   4.883   2.853
 8439SOL    HW126216   0.063   4.900   2.780
 8439SOL    HW226217   0.093   4.817   2.918
 8440SOL     OW26218   1.589   2.110   3.727
 8440SOL    HW126219   1.518   2.180   3.732
 8440SOL    HW226220   1.547   2.019   3.737
 8441SOL     OW26221   6.542   6.299   0.714
 8441SOL    HW126222   6.465   6.351   0.677
 8441SOL    HW226223   6.571   6.230   0.648
 8442SOL     OW26224   3.152   1.776   4.869
 8442SOL    HW126225   3.172   1.679   4.884
 8442SOL    HW226226   3.125   1.819   4.955
 8443SOL     OW26227   2.301   4.762   3.473
 8443SOL    HW126228   2.220   4.746   3.416
 8443SOL    HW226229   2.275   4.760   3.570
 8444SOL     OW26230   2.665   6.163   4.257
 8444SOL    HW126231   2.566   6.164   4.244
 8444SOL    HW226232   2.701   6.074   4.228
 8445SOL     OW26233   3.708   6.450   1.171
 8445SOL    HW126234   3.778   6.380   1.158
 8445SOL    HW226235   3.710   6.482   1.265
 8446SOL     OW26236   4.699   4.725   6.738
 8446SOL    HW126237   4.665   4.705   6.830
 8446SOL    HW226238   4.635   4.787   6.692
 8447SOL     OW26239   4.534   1.358   2.257
 8447SOL    HW126240   4.628   1.364   2.224
 8447SOL    HW226241   4.508   1.445   2.299
 8448SOL     OW26242   4.248   5.792   4.209
 8448SOL    HW126243   4.268   5.796   4.111
 8448SOL    HW226244   4.310   5.854   4.258
 8449SOL     OW26245   6.867   2.848   3.491
 8449SOL    HW126246   6.870   2.761   3.540
 8449SOL    HW226247   6.912   2.838   3.402
 8450SOL     OW26248   0.152   6.529   1.356
 8450SOL    HW126249   0.185   6.621   1.338
 8450SOL    HW226250   0.055   6.523   1.334
 8451SOL     OW26251   4.340   1.843   0.436
 8451SOL    HW126252   4.241   1.826   0.441
 8451SOL    HW226253   4.361   1.930   0.480
 8452SOL     OW26254   5.842   1.752   2.733
 8452SOL    HW126255   5.894   1.676   2.771
 8452SOL    HW226256   5.903   1.813   2.683
 8453SOL     OW26257   0.240   4.225   6.735
 8453SOL    HW126258   0.166   4.282   6.699
 8453SOL    HW226259   0.222   4.206   6.832
 8454SOL     OW26260   6.903   6.711   1.888
 8454SOL    HW126261   6.953   6.692   1.973
 8454SOL    HW226262   6.813   6.667   1.892
 8455SOL     OW26263   6.234   2.637   2.180
 8455SOL    HW126264   6.137   2.651   2.160
 8455SOL    HW226265   6.255   2.678   2.268
 8456SOL     OW26266   3.734   5.769   3.114
 8456SOL    HW126267   3.747   5.706   3.038
 8456SOL    HW226268   3.822   5.784   3.160
 8457SOL     OW26269   6.583   6.722   4.433
 8457SOL    HW126270   6.566   6.765   4.522
 8457SOL    HW226271   6.504   6.737   4.374
 8458SOL     OW26272   3.408   0.862   6.729
 8458SOL    HW126273   3.438   0.811   6.809
 8458SOL    HW226274   3.488   0.901   6.682
 8459SOL     OW26275   3.007   5.641   2.132
 8459SOL    HW126276   2.957   5.713   2.181
 8459SOL    HW226277   2.947   5.562   2.119
 8460SOL     OW26278   4.102   4.344   5.329
 8460SOL    HW126279   4.168   4.371   5.258
 8460SOL    HW226280   4.027   4.293   5.288
 8461SOL     OW26281   0.431   4.029   4.371
 8461SOL    HW126282   0.344   4.017   4.322
 8461SOL    HW226283   0.484   4.100   4.326
 8462SOL     OW26284   2.850   2.950   6.709
 8462SOL    HW126285   2.782   2.882   6.682
 8462SOL    HW226286   2.804   3.036   6.731
 8463SOL     OW26287   6.606   0.192   1.474
 8463SOL    HW126288   6.630   0.256   1.401
 8463SOL    HW226289   6.530   0.134   1.444
 8464SOL     OW26290   5.882   3.253   4.330
 8464SOL    HW126291   5.837   3.207   4.407
 8464SOL    HW226292   5.861   3.350   4.332
 8465SOL     OW26293   1.090   2.808   0.673
 8465SOL    HW126294   1.127   2.783   0.583
 8465SOL    HW226295   1.067   2.905   0.674
 8466SOL     OW26296   0.393   6.448   3.948
 8466SOL    HW126297   0.319   6.416   3.889
 8466SOL    HW226298   0.383   6.408   4.039
 8467SOL     OW26299   4.427   6.974   0.349
 8467SOL    HW126300   4.497   0.023   0.321
 8467SOL    HW226301   4.443   6.946   0.443
 8468SOL     OW26302   3.960   2.245   6.493
 8468SOL    HW126303   3.906   2.262   6.411
 8468SOL    HW226304   3.905   2.266   6.574
 8469SOL     OW26305   3.680   2.042   6.632
 8469SOL    HW126306   3.599   2.069   6.579
 8469SOL    HW226307   3.651   1.987   6.710
 8470SOL     OW26308   1.449   3.872   6.889
 8470SOL    HW126309   1.537   3.826   6.881
 8470SOL    HW226310   1.437   3.935   6.811
 8471SOL     OW26311   2.892   1.053   3.680
 8471SOL    HW126312   2.861   0.961   3.703
 8471SOL    HW226313   2.917   1.056   3.583
 8472SOL     OW26314   6.869   0.993   4.580
 8472SOL    HW126315   6.802   1.059   4.615
 8472SOL    HW226316   6.832   0.901   4.589
 8473SOL     OW26317   6.578   6.216   6.677
 8473SOL    HW126318   6.550   6.307   6.707
 8473SOL    HW226319   6.583   6.214   6.577
 8474SOL     OW26320   3.442   2.850   1.537
 8474SOL    HW126321   3.382   2.911   1.486
 8474SOL    HW226322   3.519   2.902   1.574
 8475SOL     OW26323   0.181   2.708   3.478
 8475SOL    HW126324   0.137   2.779   3.533
 8475SOL    HW226325   0.228   2.751   3.401
 8476SOL     OW26326   6.604   2.203   1.089
 8476SOL    HW126327   6.542   2.244   1.022
 8476SOL    HW226328   6.613   2.264   1.167
 8477SOL     OW26329   4.829   6.479   1.159
 8477SOL    HW126330   4.830   6.571   1.198
 8477SOL    HW226331   4.851   6.412   1.230
 8478SOL     OW26332   1.232   6.662   5.892
 8478SOL    HW126333   1.250   6.705   5.804
 8478SOL    HW226334   1.136   6.675   5.916
 8479SOL     OW26335   0.536   2.539   1.491
 8479SOL    HW126336   0.607   2.608   1.504
 8479SOL    HW226337   0.574   2.462   1.439
 8480SOL     OW26338   4.867   1.515   0.214
 8480SOL    HW126339   4.809   1.566   0.277
 8480SOL    HW226340   4.954   1.563   0.201
 8481SOL     OW26341   4.050   2.175   3.653
 8481SOL    HW126342   4.131   2.228   3.677
 8481SOL    HW226343   4.004   2.144   3.736
 8482SOL     OW26344   4.373   5.578   1.578
 8482SOL    HW126345   4.409   5.667   1.605
 8482SOL    HW226346   4.288   5.560   1.627
 8483SOL     OW26347   4.456   6.189   2.352
 8483SOL    HW126348   4.384   6.154   2.412
 8483SOL    HW226349   4.421   6.266   2.299
 8484SOL     OW26350   0.831   6.162   3.369
 8484SOL    HW126351   0.822   6.215   3.453
 8484SOL    HW226352   0.909   6.100   3.377
 8485SOL     OW26353   3.581   3.327   0.287
 8485SOL    HW126354   3.537   3.315   0.198
 8485SOL    HW226355   3.594   3.237   0.329
 8486SOL     OW26356   3.748   0.711   3.138
 8486SOL    HW126357   3.682   0.674   3.073
 8486SOL    HW226358   3.833   0.734   3.091
 8487SOL     OW26359   5.352   2.089   5.922
 8487SOL    HW126360   5.260   2.065   5.953
 8487SOL    HW226361   5.414   2.012   5.940
 8488SOL     OW26362   5.750   5.621   6.892
 8488SOL    HW126363   5.743   5.522   6.902
 8488SOL    HW226364   5.659   5.660   6.882
 8489SOL     OW26365   6.301   1.651   1.199
 8489SOL    HW126366   6.269   1.745   1.189
 8489SOL    HW226367   6.308   1.628   1.296
 8490SOL     OW26368   4.464   6.608   4.115
 8490SOL    HW126369   4.434   6.637   4.025
 8490SOL    HW226370   4.531   6.534   4.106
 8491SOL     OW26371   2.423   6.227   0.509
 8491SOL    HW126372   2.374   6.284   0.576
 8491SOL    HW226373   2.486   6.284   0.456
 8492SOL     OW26374   4.709   3.934   6.154
 8492SOL    HW126375   4.618   3.924   6.113
 8492SOL    HW226376   4.772   3.973   6.086
 8493SOL     OW26377   2.723   2.753   6.174
 8493SOL    HW126378   2.758   2.774   6.082
 8493SOL    HW226379   2.688   2.660   6.175
 8494SOL     OW26380   3.126   5.653   1.175
 8494SOL    HW126381   3.094   5.597   1.252
 8494SOL    HW226382   3.226   5.653   1.174
 8495SOL     OW26383   6.699   4.702   2.109
 8495SOL    HW126384   6.630   4.638   2.076
 8495SOL    HW226385   6.662   4.752   2.188
 8496SOL     OW26386   0.868   2.016   2.063
 8496SOL    HW126387   0.808   2.093   2.041
 8496SOL    HW226388   0.924   2.038   2.143
 8497SOL     OW26389   6.108   0.744   3.862
 8497SOL    HW126390   6.122   0.666   3.923
 8497SOL    HW226391   6.011   0.757   3.847
 8498SOL     OW26392   0.425   6.659   2.978
 8498SOL    HW126393   0.443   6.587   2.911
 8498SOL    HW226394   0.431   6.621   3.071
 8499SOL     OW26395   1.925   4.553   6.507
 8499SOL    HW126396   1.842   4.602   6.480
 8499SOL    HW226397   1.994   4.620   6.537
 8500SOL     OW26398   2.148   6.669   5.303
 8500SOL    HW126399   2.125   6.716   5.217
 8500SOL    HW226400   2.230   6.711   5.343
 8501SOL     OW26401   0.639   1.649   0.031
 8501SOL    HW126402   0.734   1.669   0.008
 8501SOL    HW226403   0.578   1.704   6.992
 8502SOL     OW26404   1.678   4.663   1.226
 8502SOL    HW126405   1.590   4.693   1.189
 8502SOL    HW226406   1.687   4.694   1.320
 8503SOL     OW26407   1.865   6.855   4.370
 8503SOL    HW126408   1.937   6.896   4.315
 8503SOL    HW226409   1.883   6.872   4.467
 8504SOL     OW26410   2.380   5.176   2.787
 8504SOL    HW126411   2.341   5.259   2.746
 8504SOL    HW226412   2.456   5.144   2.731
 8505SOL     OW26413   4.898   3.442   3.685
 8505SOL    HW126414   4.949   3.525   3.662
 8505SOL    HW226415   4.859   3.403   3.601
 8506SOL     OW26416   6.656   1.548   6.772
 8506SOL    HW126417   6.707   1.508   6.696
 8506SOL    HW226418   6.563   1.513   6.771
 8507SOL     OW26419   3.371   0.811   5.631
 8507SOL    HW126420   3.345   0.881   5.565
 8507SOL    HW226421   3.468   0.822   5.655
 8508SOL     OW26422   6.118   1.994   4.996
 8508SOL    HW126423   6.134   1.930   5.071
 8508SOL    HW226424   6.031   2.042   5.011
 8509SOL     OW26425   4.308   1.387   3.296
 8509SOL    HW126426   4.342   1.322   3.228
 8509SOL    HW226427   4.221   1.426   3.265
 8510SOL     OW26428   5.992   4.036   3.327
 8510SOL    HW126429   5.939   3.981   3.263
 8510SOL    HW226430   5.946   4.039   3.415
 8511SOL     OW26431   6.980   3.837   1.189
 8511SOL    HW126432   6.990   3.863   1.285
 8511SOL    HW226433   6.911   3.765   1.180
 8512SOL     OW26434   3.395   2.254   1.379
 8512SOL    HW126435   3.420   2.286   1.471
 8512SOL    HW226436   3.444   2.308   1.311
 8513SOL     OW26437   4.964   4.064   1.563
 8513SOL    HW126438   5.008   3.977   1.585
 8513SOL    HW226439   4.999   4.098   1.475
 8514SOL     OW26440   2.426   2.490   3.658
 8514SOL    HW126441   2.466   2.513   3.569
 8514SOL    HW226442   2.436   2.568   3.720
 8515SOL     OW26443   5.535   1.810   0.889
 8515SOL    HW126444   5.617   1.775   0.934
 8515SOL    HW226445   5.501   1.741   0.825
 8516SOL     OW26446   6.564   1.881   1.399
 8516SOL    HW126447   6.537   1.908   1.307
 8516SOL    HW226448   6.576   1.781   1.402
 8517SOL     OW26449   1.785   3.105   6.326
 8517SOL    HW126450   1.822   3.144   6.410
 8517SOL    HW226451   1.686   3.093   6.335
 8518SOL     OW26452   4.973   3.916   0.743
 8518SOL    HW126453   4.889   3.863   0.734
 8518SOL    HW226454   5.010   3.935   0.652
 8519SOL     OW26455   1.250   4.087   1.658
 8519SOL    HW126456   1.301   4.121   1.737
 8519SOL    HW226457   1.291   4.002   1.626
 8520SOL     OW26458   3.388   3.217   0.094
 8520SOL    HW126459   3.312   3.250   0.150
 8520SOL    HW226460   3.358   3.139   0.039
 8521SOL     OW26461   1.817   5.513   5.756
 8521SOL    HW126462   1.744   5.482   5.817
 8521SOL    HW226463   1.832   5.611   5.769
 8522SOL     OW26464   0.937   6.242   2.133
 8522SOL    HW126465   0.874   6.285   2.198
 8522SOL    HW226466   0.885   6.194   2.063
 8523SOL     OW26467   1.631   6.440   0.029
 8523SOL    HW126468   1.636   6.533   0.064
 8523SOL    HW226469   1.535   6.411   0.024
 8524SOL     OW26470   0.158   2.603   4.921
 8524SOL    HW126471   0.096   2.642   4.853
 8524SOL    HW226472   0.197   2.518   4.887
 8525SOL     OW26473   6.424   4.093   2.737
 8525SOL    HW126474   6.460   4.048   2.655
 8525SOL    HW226475   6.349   4.154   2.711
 8526SOL     OW26476   3.993   5.978   6.132
 8526SOL    HW126477   3.911   6.024   6.098
 8526SOL    HW226478   4.056   6.045   6.170
 8527SOL     OW26479   2.872   0.865   6.285
 8527SOL    HW126480   2.845   0.953   6.247
 8527SOL    HW226481   2.926   0.879   6.368
 8528SOL     OW26482   3.923   1.168   6.351
 8528SOL    HW126483   3.881   1.219   6.426
 8528SOL    HW226484   3.985   1.099   6.388
 8529SOL     OW26485   0.763   0.881   0.799
 8529SOL    HW126486   0.801   0.892   0.891
 8529SOL    HW226487   0.778   0.965   0.746
 8530SOL     OW26488   3.589   3.885   5.501
 8530SOL    HW126489   3.540   3.815   5.552
 8530SOL    HW226490   3.658   3.927   5.561
 8531SOL     OW26491   6.429   5.186   2.672
 8531SOL    HW126492   6.401   5.135   2.754
 8531SOL    HW226493   6.459   5.122   2.602
 8532SOL     OW26494   4.205   4.974   4.723
 8532SOL    HW126495   4.294   5.020   4.720
 8532SOL    HW226496   4.154   4.995   4.640
 8533SOL     OW26497   1.326   0.048   6.753
 8533SOL    HW126498   1.230   0.041   6.781
 8533SOL    HW226499   1.374   0.109   6.815
 8534SOL     OW26500   6.603   2.832   3.550
 8534SOL    HW126501   6.691   2.803   3.512
 8534SOL    HW226502   6.561   2.899   3.488
 8535SOL     OW26503   6.253   1.858   4.294
 8535SOL    HW126504   6.307   1.940   4.279
 8535SOL    HW226505   6.306   1.791   4.346
 8536SOL     OW26506   6.937   2.756   4.861
 8536SOL    HW126507   6.938   2.733   4.763
 8536SOL    HW226508   7.013   2.818   4.881
 8537SOL     OW26509   5.030   1.326   2.129
 8537SOL    HW126510   4.941   1.363   2.157
 8537SOL    HW226511   5.093   1.401   2.110
 8538SOL     OW26512   0.553   0.900   6.867
 8538SOL    HW126513   0.457   0.899   6.896
 8538SOL    HW226514   0.610   0.936   6.941
 8539SOL     OW26515   5.174   0.595   2.494
 8539SOL    HW126516   5.099   0.660   2.507
 8539SOL    HW226517   5.189   0.544   2.579
 8540SOL     OW26518   4.430   0.453   6.806
 8540SOL    HW126519   4.395   0.486   6.719
 8540SOL    HW226520   4.503   0.515   6.838
 8541SOL     OW26521   2.648   1.535   4.165
 8541SOL    HW126522   2.730   1.499   4.122
 8541SOL    HW226523   2.583   1.461   4.181
 8542SOL     OW26524   4.013   5.004   6.456
 8542SOL    HW126525   3.949   5.046   6.392
 8542SOL    HW226526   4.039   4.914   6.421
 8543SOL     OW26527   3.350   0.559   0.942
 8543SOL    HW126528   3.265   0.577   0.893
 8543SOL    HW226529   3.329   0.525   1.034
 8544SOL     OW26530   5.194   3.278   4.782
 8544SOL    HW126531   5.241   3.196   4.748
 8544SOL    HW226532   5.175   3.268   4.879
 8545SOL     OW26533   4.916   6.876   4.954
 8545SOL    HW126534   4.990   6.815   4.925
 8545SOL    HW226535   4.842   6.821   4.995
 8546SOL     OW26536   6.756   1.215   3.478
 8546SOL    HW126537   6.736   1.288   3.543
 8546SOL    HW226538   6.811   1.252   3.403
 8547SOL     OW26539   1.516   7.000   6.373
 8547SOL    HW126540   1.496   0.024   6.284
 8547SOL    HW226541   1.614   7.005   6.391
 8548SOL     OW26542   5.839   3.239   5.443
 8548SOL    HW126543   5.760   3.253   5.383
 8548SOL    HW226544   5.811   3.185   5.523
 8549SOL     OW26545   1.221   2.759   4.177
 8549SOL    HW126546   1.288   2.834   4.181
 8549SOL    HW226547   1.198   2.730   4.270
 8550SOL     OW26548   1.654   4.753   0.317
 8550SOL    HW126549   1.692   4.843   0.337
 8550SOL    HW226550   1.641   4.743   0.218
 8551SOL     OW26551   3.149   3.448   6.612
 8551SOL    HW126552   3.084   3.445   6.689
 8551SOL    HW226553   3.119   3.517   6.546
 8552SOL     OW26554   2.275   0.403   4.037
 8552SOL    HW126555   2.253   0.397   3.939
 8552SOL    HW226556   2.319   0.318   4.067
 8553SOL     OW26557   4.233   4.113   6.661
 8553SOL    HW126558   4.220   4.193   6.720
 8553SOL    HW226559   4.146   4.066   6.649
 8554SOL     OW26560   1.038   4.677   0.520
 8554SOL    HW126561   0.992   4.759   0.486
 8554SOL    HW226562   1.014   4.662   0.616
 8555SOL     OW26563   1.588   1.530   3.495
 8555SOL    HW126564   1.587   1.432   3.512
 8555SOL    HW226565   1.647   1.550   3.417
 8556SOL     OW26566   1.439   6.285   5.102
 8556SOL    HW126567   1.428   6.349   5.026
 8556SOL    HW226568   1.441   6.191   5.068
 8557SOL     OW26569   5.499   6.626   3.059
 8557SOL    HW126570   5.514   6.721   3.034
 8557SOL    HW226571   5.493   6.618   3.159
 8558SOL     OW26572   2.787   4.942   2.908
 8558SOL    HW126573   2.752   4.893   2.988
 8558SOL    HW226574   2.787   4.880   2.829
 8559SOL     OW26575   1.102   0.285   2.925
 8559SOL    HW126576   1.058   0.239   3.002
 8559SOL    HW226577   1.082   0.236   2.841
 8560SOL     OW26578   6.726   6.311   1.916
 8560SOL    HW126579   6.643   6.260   1.936
 8560SOL    HW226580   6.706   6.409   1.918
 8561SOL     OW26581   2.741   0.653   2.751
 8561SOL    HW126582   2.736   0.583   2.680
 8561SOL    HW226583   2.649   0.691   2.767
 8562SOL     OW26584   3.983   6.180   5.488
 8562SOL    HW126585   3.963   6.135   5.575
 8562SOL    HW226586   4.020   6.113   5.423
 8563SOL     OW26587   1.871   4.500   6.798
 8563SOL    HW126588   1.958   4.456   6.778
 8563SOL    HW226589   1.799   4.459   6.743
 8564SOL     OW26590   2.899   1.059   5.497
 8564SOL    HW126591   2.989   1.021   5.475
 8564SOL    HW226592   2.909   1.130   5.566
 8565SOL     OW26593   3.657   5.615   1.230
 8565SOL    HW126594   3.726   5.568   1.286
 8565SOL    HW226595   3.686   5.709   1.214
 8566SOL     OW26596   2.005   0.328   1.271
 8566SOL    HW126597   1.930   0.381   1.309
 8566SOL    HW226598   2.078   0.389   1.242
 8567SOL     OW26599   0.215   2.463   2.635
 8567SOL    HW126600   0.300   2.483   2.587
 8567SOL    HW226601   0.216   2.369   2.669
 8568SOL     OW26602   5.248   1.281   6.460
 8568SOL    HW126603   5.235   1.341   6.381
 8568SOL    HW226604   5.167   1.286   6.519
 8569SOL     OW26605   5.049   1.057   6.355
 8569SOL    HW126606   5.033   1.152   6.381
 8569SOL    HW226607   4.966   1.018   6.317
 8570SOL     OW26608   1.557   2.072   5.500
 8570SOL    HW126609   1.590   2.013   5.426
 8570SOL    HW226610   1.577   2.029   5.588
 8571SOL     OW26611   1.395   5.843   5.253
 8571SOL    HW126612   1.481   5.808   5.217
 8571SOL    HW226613   1.319   5.798   5.206
 8572SOL     OW26614   2.728   4.723   6.585
 8572SOL    HW126615   2.755   4.629   6.563
 8572SOL    HW226616   2.628   4.731   6.581
 8573SOL     OW26617   3.239   5.961   6.177
 8573SOL    HW126618   3.166   6.021   6.147
 8573SOL    HW226619   3.203   5.868   6.189
 8574SOL     OW26620   6.609   5.867   5.929
 8574SOL    HW126621   6.550   5.842   6.006
 8574SOL    HW226622   6.694   5.815   5.935
 8575SOL     OW26623   2.388   2.626   4.786
 8575SOL    HW126624   2.441   2.554   4.829
 8575SOL    HW226625   2.353   2.688   4.855
 8576SOL     OW26626   1.440   5.566   6.281
 8576SOL    HW126627   1.412   5.504   6.208
 8576SOL    HW226628   1.406   5.658   6.261
 8577SOL     OW26629   0.291   6.813   4.572
 8577SOL    HW126630   0.303   6.909   4.547
 8577SOL    HW226631   0.247   6.808   4.662
 8578SOL     OW26632   5.458   0.534   3.904
 8578SOL    HW126633   5.548   0.544   3.862
 8578SOL    HW226634   5.464   0.558   4.001
 8579SOL     OW26635   1.855   0.112   2.358
 8579SOL    HW126636   1.952   0.112   2.379
 8579SOL    HW226637   1.841   0.107   2.259
 8580SOL     OW26638   1.987   6.591   1.992
 8580SOL    HW126639   2.076   6.636   1.988
 8580SOL    HW226640   1.953   6.576   1.899
 8581SOL     OW26641   3.330   4.010   1.987
 8581SOL    HW126642   3.233   4.007   2.012
 8581SOL    HW226643   3.380   4.063   2.055
 8582SOL     OW26644   4.358   4.619   3.489
 8582SOL    HW126645   4.445   4.609   3.441
 8582SOL    HW226646   4.285   4.636   3.422
 8583SOL     OW26647   5.529   0.587   4.136
 8583SOL    HW126648   5.548   0.630   4.224
 8583SOL    HW226649   5.602   0.611   4.071
 8584SOL     OW26650   1.384   4.404   5.570
 8584SOL    HW126651   1.416   4.336   5.505
 8584SOL    HW226652   1.438   4.488   5.561
 8585SOL     OW26653   0.408   5.986   5.964
 8585SOL    HW126654   0.484   6.051   5.973
 8585SOL    HW226655   0.323   6.035   5.950
 8586SOL     OW26656   2.694   6.921   2.535
 8586SOL    HW126657   2.777   6.961   2.495
 8586SOL    HW226658   2.698   6.822   2.529
 8587SOL     OW26659   1.218   6.796   4.146
 8587SOL    HW126660   1.154   6.790   4.223
 8587SOL    HW226661   1.175   6.758   4.064
 8588SOL     OW26662   2.744   1.138   0.490
 8588SOL    HW126663   2.735   1.150   0.391
 8588SOL    HW226664   2.813   1.068   0.509
 8589SOL     OW26665   4.831   3.196   5.356
 8589SOL    HW126666   4.761   3.263   5.333
 8589SOL    HW226667   4.819   3.167   5.451
 8590SOL     OW26668   6.919   6.194   4.482
 8590SOL    HW126669   6.978   6.178   4.403
 8590SOL    HW226670   6.902   6.108   4.529
 8591SOL     OW26671   0.598   4.048   0.197
 8591SOL    HW126672   0.593   3.948   0.186
 8591SOL    HW226673   0.694   4.077   0.190
 8592SOL     OW26674   0.049   3.008   6.278
 8592SOL    HW126675   6.995   2.972   6.219
 8592SOL    HW226676   0.087   3.091   6.237
 8593SOL     OW26677   2.418   0.406   1.029
 8593SOL    HW126678   2.501   0.370   0.985
 8593SOL    HW226679   2.341   0.345   1.011
 8594SOL     OW26680   4.275   2.201   5.407
 8594SOL    HW126681   4.316   2.287   5.437
 8594SOL    HW226682   4.243   2.150   5.487
 8595SOL     OW26683   0.542   2.589   3.093
 8595SOL    HW126684   0.621   2.534   3.119
 8595SOL    HW226685   0.568   2.685   3.090
 8596SOL     OW26686   0.720   5.637   3.465
 8596SOL    HW126687   0.690   5.699   3.537
 8596SOL    HW226688   0.651   5.565   3.453
 8597SOL     OW26689   4.275   1.541   1.298
 8597SOL    HW126690   4.247   1.637   1.290
 8597SOL    HW226691   4.205   1.483   1.255
 8598SOL     OW26692   5.993   6.741   0.933
 8598SOL    HW126693   5.977   6.679   1.010
 8598SOL    HW226694   6.013   6.832   0.967
 8599SOL     OW26695   1.085   2.921   4.567
 8599SOL    HW126696   1.095   2.969   4.654
 8599SOL    HW226697   1.136   2.971   4.496
 8600SOL     OW26698   4.688   5.351   5.193
 8600SOL    HW126699   4.595   5.315   5.201
 8600SOL    HW226700   4.753   5.283   5.227
 8601SOL     OW26701   0.772   1.050   5.076
 8601SOL    HW126702   0.848   1.077   5.136
 8601SOL    HW226703   0.700   1.119   5.081
 8602SOL     OW26704   2.615   5.511   2.506
 8602SOL    HW126705   2.566   5.569   2.441
 8602SOL    HW226706   2.549   5.471   2.570
 8603SOL     OW26707   3.799   5.779   0.608
 8603SOL    HW126708   3.741   5.704   0.640
 8603SOL    HW226709   3.808   5.774   0.509
 8604SOL     OW26710   0.017   2.221   4.819
 8604SOL    HW126711   0.032   2.141   4.761
 8604SOL    HW226712   6.968   2.199   4.890
 8605SOL     OW26713   2.752   5.905   4.209
 8605SOL    HW126714   2.721   5.814   4.180
 8605SOL    HW226715   2.845   5.899   4.245
 8606SOL     OW26716   1.265   3.784   6.284
 8606SOL    HW126717   1.326   3.848   6.331
 8606SOL    HW226718   1.278   3.692   6.322
 8607SOL     OW26719   3.536   6.236   0.685
 8607SOL    HW126720   3.466   6.165   0.683
 8607SOL    HW226721   3.626   6.194   0.684
 8608SOL     OW26722   4.071   4.927   2.805
 8608SOL    HW126723   4.066   4.856   2.735
 8608SOL    HW226724   4.086   5.016   2.761
 8609SOL     OW26725   4.912   1.000   2.768
 8609SOL    HW126726   4.818   0.992   2.798
 8609SOL    HW226727   4.974   0.985   2.846
 8610SOL     OW26728   1.831   2.407   2.956
 8610SOL    HW126729   1.756   2.377   3.015
 8610SOL    HW226730   1.794   2.434   2.867
 8611SOL     OW26731   2.995   1.827   4.599
 8611SOL    HW126732   3.021   1.817   4.695
 8611SOL    HW226733   2.943   1.912   4.588
 8612SOL     OW26734   3.464   3.048   1.297
 8612SOL    HW126735   3.372   3.056   1.259
 8612SOL    HW226736   3.532   3.071   1.228
 8613SOL     OW26737   2.182   1.749   1.318
 8613SOL    HW126738   2.239   1.831   1.332
 8613SOL    HW226739   2.217   1.675   1.376
 8614SOL     OW26740   1.102   2.508   2.227
 8614SOL    HW126741   1.049   2.434   2.268
 8614SOL    HW226742   1.124   2.484   2.133
 8615SOL     OW26743   4.666   1.460   5.436
 8615SOL    HW126744   4.629   1.369   5.453
 8615SOL    HW226745   4.761   1.452   5.405
 8616SOL     OW26746   3.149   4.661   1.736
 8616SOL    HW126747   3.157   4.742   1.794
 8616SOL    HW226748   3.092   4.593   1.781
 8617SOL     OW26749   6.567   1.158   6.787
 8617SOL    HW126750   6.585   1.169   6.689
 8617SOL    HW226751   6.652   1.173   6.838
 8618SOL     OW26752   6.015   5.602   0.376
 8618SOL    HW126753   6.080   5.584   0.450
 8618SOL    HW226754   5.942   5.533   0.378
 8619SOL     OW26755   3.813   4.911   1.940
 8619SOL    HW126756   3.886   4.844   1.928
 8619SOL    HW226757   3.725   4.864   1.944
 8620SOL     OW26758   1.669   0.320   4.105
 8620SOL    HW126759   1.685   0.417   4.122
 8620SOL    HW226760   1.596   0.309   4.037
 8621SOL     OW26761   5.578   1.691   3.017
 8621SOL    HW126762   5.660   1.650   2.977
 8621SOL    HW226763   5.546   1.765   2.959
 8622SOL     OW26764   5.278   3.273   0.419
 8622SOL    HW126765   5.263   3.372   0.418
 8622SOL    HW226766   5.355   3.250   0.359
 8623SOL     OW26767   0.995   3.675   4.114
 8623SOL    HW126768   1.072   3.667   4.051
 8623SOL    HW226769   0.938   3.753   4.088
 8624SOL     OW26770   1.076   3.952   4.836
 8624SOL    HW126771   1.098   3.878   4.772
 8624SOL    HW226772   1.159   4.004   4.856
 8625SOL     OW26773   4.548   0.308   5.900
 8625SOL    HW126774   4.453   0.311   5.869
 8625SOL    HW226775   4.609   0.318   5.822
 8626SOL     OW26776   3.930   3.268   5.569
 8626SOL    HW126777   3.978   3.354   5.588
 8626SOL    HW226778   3.844   3.266   5.621
 8627SOL     OW26779   0.758   1.264   3.435
 8627SOL    HW126780   0.671   1.256   3.484
 8627SOL    HW226781   0.824   1.312   3.493
 8628SOL     OW26782   6.572   6.149   0.494
 8628SOL    HW126783   6.631   6.185   0.422
 8628SOL    HW226784   6.523   6.068   0.460
 8629SOL     OW26785   1.337   5.301   5.020
 8629SOL    HW126786   1.386   5.235   5.078
 8629SOL    HW226787   1.399   5.337   4.950
 8630SOL     OW26788   5.166   4.169   3.776
 8630SOL    HW126789   5.227   4.223   3.834
 8630SOL    HW226790   5.219   4.130   3.700
 8631SOL     OW26791   1.231   4.861   6.052
 8631SOL    HW126792   1.203   4.795   5.983
 8631SOL    HW226793   1.154   4.919   6.076
 8632SOL     OW26794   3.595   5.388   4.105
 8632SOL    HW126795   3.694   5.391   4.112
 8632SOL    HW226796   3.558   5.481   4.115
 8633SOL     OW26797   4.855   1.544   5.731
 8633SOL    HW126798   4.888   1.450   5.721
 8633SOL    HW226799   4.757   1.546   5.712
 8634SOL     OW26800   5.270   3.576   0.680
 8634SOL    HW126801   5.312   3.662   0.709
 8634SOL    HW226802   5.331   3.530   0.614
 8635SOL     OW26803   5.422   4.382   6.411
 8635SOL    HW126804   5.418   4.476   6.376
 8635SOL    HW226805   5.435   4.319   6.334
 8636SOL     OW26806   5.080   5.569   1.259
 8636SOL    HW126807   5.136   5.574   1.341
 8636SOL    HW226808   5.112   5.635   1.192
 8637SOL     OW26809   2.204   0.807   0.417
 8637SOL    HW126810   2.128   0.742   0.410
 8637SOL    HW226811   2.287   0.765   0.381
 8638SOL     OW26812   2.353   3.067   6.183
 8638SOL    HW126813   2.354   3.002   6.260
 8638SOL    HW226814   2.296   3.145   6.206
 8639SOL     OW26815   5.423   2.508   1.385
 8639SOL    HW126816   5.465   2.467   1.304
 8639SOL    HW226817   5.328   2.477   1.394
 8640SOL     OW26818   4.510   4.029   0.321
 8640SOL    HW126819   4.547   3.985   0.239
 8640SOL    HW226820   4.464   3.961   0.377
 8641SOL     OW26821   5.074   4.886   4.515
 8641SOL    HW126822   5.150   4.933   4.559
 8641SOL    HW226823   5.090   4.787   4.516
 8642SOL     OW26824   2.386   6.316   3.116
 8642SOL    HW126825   2.388   6.415   3.133
 8642SOL    HW226826   2.396   6.300   3.018
 8643SOL     OW26827   2.787   6.948   6.409
 8643SOL    HW126828   2.827   6.955   6.500
 8643SOL    HW226829   2.695   6.986   6.409
 8644SOL     OW26830   5.262   2.063   5.424
 8644SOL    HW126831   5.327   2.031   5.493
 8644SOL    HW226832   5.312   2.106   5.348
 8645SOL     OW26833   4.438   4.676   1.396
 8645SOL    HW126834   4.494   4.615   1.451
 8645SOL    HW226835   4.475   4.681   1.303
 8646SOL     OW26836   6.724   1.155   1.384
 8646SOL    HW126837   6.694   1.108   1.301
 8646SOL    HW226838   6.771   1.090   1.444
 8647SOL     OW26839   2.809   5.870   6.051
 8647SOL    HW126840   2.827   5.871   6.150
 8647SOL    HW226841   2.803   5.775   6.019
 8648SOL     OW26842   6.223   0.562   3.441
 8648SOL    HW126843   6.257   0.653   3.465
 8648SOL    HW226844   6.124   0.567   3.424
 8649SOL     OW26845   5.448   5.401   5.895
 8649SOL    HW126846   5.526   5.415   5.834
 8649SOL    HW226847   5.372   5.360   5.843
 8650SOL     OW26848   2.654   5.343   4.909
 8650SOL    HW126849   2.693   5.339   5.001
 8650SOL    HW226850   2.726   5.364   4.843
 8651SOL     OW26851   3.220   0.397   0.403
 8651SOL    HW126852   3.151   0.431   0.339
 8651SOL    HW226853   3.290   0.347   0.353
 8652SOL     OW26854   1.631   4.100   4.054
 8652SOL    HW126855   1.678   4.146   4.129
 8652SOL    HW226856   1.637   4.155   3.971
 8653SOL     OW26857   6.008   0.722   6.579
 8653SOL    HW126858   6.019   0.752   6.484
 8653SOL    HW226859   5.916   0.687   6.592
 8654SOL     OW26860   1.205   4.730   1.384
 8654SOL    HW126861   1.123   4.787   1.395
 8654SOL    HW226862   1.256   4.760   1.303
 8655SOL     OW26863   6.366   1.460   3.738
 8655SOL    HW126864   6.332   1.551   3.763
 8655SOL    HW226865   6.455   1.469   3.693
 8656SOL     OW26866   6.471   0.315   0.854
 8656SOL    HW126867   6.452   0.217   0.858
 8656SOL    HW226868   6.439   0.360   0.937
 8657SOL     OW26869   5.323   4.576   0.747
 8657SOL    HW126870   5.298   4.484   0.716
 8657SOL    HW226871   5.321   4.639   0.669
 8658SOL     OW26872   4.998   6.539   0.642
 8658SOL    HW126873   4.983   6.502   0.734
 8658SOL    HW226874   5.093   6.522   0.614
 8659SOL     OW26875   4.842   1.882   2.469
 8659SOL    HW126876   4.886   1.925   2.391
 8659SOL    HW226877   4.826   1.786   2.450
 8660SOL     OW26878   6.409   4.671   1.604
 8660SOL    HW126879   6.427   4.769   1.601
 8660SOL    HW226880   6.310   4.655   1.608
 8661SOL     OW26881   5.715   4.052   1.000
 8661SOL    HW126882   5.684   3.958   0.990
 8661SOL    HW226883   5.762   4.081   0.916
 8662SOL     OW26884   4.505   6.113   1.143
 8662SOL    HW126885   4.491   6.139   1.048
 8662SOL    HW226886   4.455   6.029   1.164
 8663SOL     OW26887   3.739   5.865   1.503
 8663SOL    HW126888   3.770   5.832   1.593
 8663SOL    HW226889   3.650   5.826   1.482
 8664SOL     OW26890   1.614   6.017   0.960
 8664SOL    HW126891   1.577   5.968   0.881
 8664SOL    HW226892   1.712   5.997   0.970
 8665SOL     OW26893   5.139   6.417   4.630
 8665SOL    HW126894   5.229   6.450   4.602
 8665SOL    HW226895   5.139   6.396   4.728
 8666SOL     OW26896   5.200   1.975   4.035
 8666SOL    HW126897   5.221   1.902   3.971
 8666SOL    HW226898   5.283   2.003   4.084
 8667SOL     OW26899   4.441   2.370   2.979
 8667SOL    HW126900   4.398   2.359   2.890
 8667SOL    HW226901   4.453   2.467   2.999
 8668SOL     OW26902   5.397   3.668   3.380
 8668SOL    HW126903   5.371   3.586   3.430
 8668SOL    HW226904   5.481   3.706   3.420
 8669SOL     OW26905   1.378   6.356   6.954
 8669SOL    HW126906   1.372   6.275   6.895
 8669SOL    HW226907   1.414   6.433   6.901
 8670SOL     OW26908   3.980   4.164   5.169
 8670SOL    HW126909   3.993   4.074   5.211
 8670SOL    HW226910   3.960   4.153   5.072
 8671SOL     OW26911   4.928   1.503   3.118
 8671SOL    HW126912   4.937   1.541   3.211
 8671SOL    HW226913   4.916   1.404   3.124
 8672SOL     OW26914   1.921   4.920   4.197
 8672SOL    HW126915   1.923   4.833   4.147
 8672SOL    HW226916   1.956   4.993   4.139
 8673SOL     OW26917   5.972   3.004   0.397
 8673SOL    HW126918   6.032   3.034   0.471
 8673SOL    HW226919   6.011   2.925   0.351
 8674SOL     OW26920   6.281   5.943   3.628
 8674SOL    HW126921   6.244   6.006   3.560
 8674SOL    HW226922   6.223   5.862   3.634
 8675SOL     OW26923   2.747   2.321   3.922
 8675SOL    HW126924   2.839   2.309   3.959
 8675SOL    HW226925   2.682   2.270   3.978
 8676SOL     OW26926   4.224   0.669   2.351
 8676SOL    HW126927   4.234   0.749   2.409
 8676SOL    HW226928   4.303   0.661   2.290
 8677SOL     OW26929   2.008   5.928   5.333
 8677SOL    HW126930   1.931   5.912   5.394
 8677SOL    HW226931   2.073   5.852   5.341
 8678SOL     OW26932   6.434   0.470   1.091
 8678SOL    HW126933   6.385   0.549   1.126
 8678SOL    HW226934   6.519   0.458   1.143
 8679SOL     OW26935   0.080   2.508   3.144
 8679SOL    HW126936   0.052   2.477   3.053
 8679SOL    HW226937   0.010   2.485   3.211
 8680SOL     OW26938   1.153   3.750   1.324
 8680SOL    HW126939   1.217   3.673   1.322
 8680SOL    HW226940   1.174   3.813   1.249
 8681SOL     OW26941   5.479   5.209   0.210
 8681SOL    HW126942   5.513   5.210   0.116
 8681SOL    HW226943   5.433   5.296   0.229
 8682SOL     OW26944   5.060   6.596   2.444
 8682SOL    HW126945   5.097   6.507   2.417
 8682SOL    HW226946   5.111   6.632   2.522
 8683SOL     OW26947   1.068   1.928   3.137
 8683SOL    HW126948   1.096   1.976   3.220
 8683SOL    HW226949   1.016   1.990   3.079
 8684SOL     OW26950   6.738   3.148   5.191
 8684SOL    HW126951   6.689   3.064   5.170
 8684SOL    HW226952   6.764   3.193   5.105
 8685SOL     OW26953   0.230   1.701   5.805
 8685SOL    HW126954   0.199   1.681   5.712
 8685SOL    HW226955   0.227   1.800   5.820
 8686SOL     OW26956   0.424   1.698   2.179
 8686SOL    HW126957   0.397   1.752   2.259
 8686SOL    HW226958   0.516   1.724   2.151
 8687SOL     OW26959   4.538   5.189   1.685
 8687SOL    HW126960   4.582   5.269   1.726
 8687SOL    HW226961   4.588   5.106   1.712
 8688SOL     OW26962   2.380   5.666   0.080
 8688SOL    HW126963   2.351   5.760   0.095
 8688SOL    HW226964   2.373   5.614   0.165
 8689SOL     OW26965   3.825   3.988   1.641
 8689SOL    HW126966   3.865   3.897   1.633
 8689SOL    HW226967   3.744   3.994   1.583
 8690SOL     OW26968   1.412   3.384   2.905
 8690SOL    HW126969   1.351   3.448   2.858
 8690SOL    HW226970   1.361   3.331   2.972
 8691SOL     OW26971   3.145   1.775   5.980
 8691SOL    HW126972   3.123   1.870   5.954
 8691SOL    HW226973   3.210   1.737   5.914
 8692SOL     OW26974   2.558   1.748   4.512
 8692SOL    HW126975   2.546   1.649   4.516
 8692SOL    HW226976   2.619   1.777   4.586
 8693SOL     OW26977   5.797   1.087   0.224
 8693SOL    HW126978   5.888   1.072   0.187
 8693SOL    HW226979   5.749   1.000   0.232
 8694SOL     OW26980   4.746   1.072   5.219
 8694SOL    HW126981   4.664   1.129   5.224
 8694SOL    HW226982   4.723   0.986   5.172
 8695SOL     OW26983   4.125   2.771   5.713
 8695SOL    HW126984   4.056   2.721   5.765
 8695SOL    HW226985   4.097   2.866   5.702
 8696SOL     OW26986   1.995   5.442   6.900
 8696SOL    HW126987   2.019   5.444   6.803
 8696SOL    HW226988   1.955   5.530   6.926
 8697SOL     OW26989   6.798   2.745   6.606
 8697SOL    HW126990   6.825   2.824   6.551
 8697SOL    HW226991   6.719   2.700   6.564
 8698SOL     OW26992   5.264   6.302   5.426
 8698SOL    HW126993   5.168   6.284   5.406
 8698SOL    HW226994   5.294   6.241   5.500
 8699SOL     OW26995   2.079   2.459   5.405
 8699SOL    HW126996   2.087   2.540   5.347
 8699SOL    HW226997   1.983   2.429   5.407
 8700SOL     OW26998   0.625   1.043   4.587
 8700SOL    HW126999   0.543   1.047   4.530
 8700SOL    HW227000   0.599   1.040   4.683
 8701SOL     OW27001   0.579   1.748   0.910
 8701SOL    HW127002   0.658   1.692   0.884
 8701SOL    HW227003   0.546   1.719   1.000
 8702SOL     OW27004   5.478   5.253   1.753
 8702SOL    HW127005   5.475   5.316   1.676
 8702SOL    HW227006   5.434   5.166   1.728
 8703SOL     OW27007   2.467   5.179   6.726
 8703SOL    HW127008   2.477   5.277   6.709
 8703SOL    HW227009   2.551   5.144   6.769
 8704SOL     OW27010   0.535   3.846   3.008
 8704SOL    HW127011   0.514   3.777   3.077
 8704SOL    HW227012   0.522   3.809   2.917
 8705SOL     OW27013   5.297   1.544   6.295
 8705SOL    HW127014   5.297   1.605   6.216
 8705SOL    HW227015   5.211   1.555   6.345
 8706SOL     OW27016   5.189   2.092   6.803
 8706SOL    HW127017   5.240   2.056   6.724
 8706SOL    HW227018   5.132   2.020   6.841
 8707SOL     OW27019   6.790   1.969   6.535
 8707SOL    HW127020   6.840   1.890   6.499
 8707SOL    HW227021   6.725   2.002   6.467
 8708SOL     OW27022   4.523   2.182   2.702
 8708SOL    HW127023   4.544   2.142   2.791
 8708SOL    HW227024   4.519   2.109   2.633
 8709SOL     OW27025   6.964   6.731   6.933
 8709SOL    HW127026   6.992   6.812   6.985
 8709SOL    HW227027   6.871   6.743   6.899
 8710SOL     OW27028   2.029   3.235   3.943
 8710SOL    HW127029   2.031   3.200   3.849
 8710SOL    HW227030   2.087   3.177   4.001
 8711SOL     OW27031   1.499   6.838   3.297
 8711SOL    HW127032   1.579   6.876   3.250
 8711SOL    HW227033   1.510   6.739   3.306
 8712SOL     OW27034   4.188   2.314   4.767
 8712SOL    HW127035   4.219   2.360   4.851
 8712SOL    HW227036   4.092   2.335   4.751
 8713SOL     OW27037   6.740   2.760   4.024
 8713SOL    HW127038   6.695   2.757   4.113
 8713SOL    HW227039   6.681   2.721   3.954
 8714SOL     OW27040   0.895   1.161   6.140
 8714SOL    HW127041   0.903   1.071   6.098
 8714SOL    HW227042   0.849   1.152   6.228
 8715SOL     OW27043   4.980   0.166   0.731
 8715SOL    HW127044   4.981   0.085   0.672
 8715SOL    HW227045   4.993   0.138   0.826
 8716SOL     OW27046   6.785   6.976   1.832
 8716SOL    HW127047   6.818   6.882   1.827
 8716SOL    HW227048   6.685   6.977   1.821
 8717SOL     OW27049   3.804   3.621   4.095
 8717SOL    HW127050   3.711   3.627   4.131
 8717SOL    HW227051   3.816   3.688   4.022
 8718SOL     OW27052   1.156   3.602   5.253
 8718SOL    HW127053   1.251   3.595   5.225
 8718SOL    HW227054   1.106   3.659   5.188
 8719SOL     OW27055   3.642   0.111   6.614
 8719SOL    HW127056   3.591   0.195   6.598
 8719SOL    HW227057   3.728   0.114   6.563
 8720SOL     OW27058   6.856   5.399   5.851
 8720SOL    HW127059   6.761   5.405   5.820
 8720SOL    HW227060   6.869   5.315   5.903
 8721SOL     OW27061   6.586   3.395   2.255
 8721SOL    HW127062   6.486   3.391   2.263
 8721SOL    HW227063   6.628   3.342   2.328
 8722SOL     OW27064   3.728   1.586   0.064
 8722SOL    HW127065   3.801   1.614   0.126
 8722SOL    HW227066   3.764   1.523   7.013
 8723SOL     OW27067   5.588   5.589   0.775
 8723SOL    HW127068   5.620   5.642   0.853
 8723SOL    HW227069   5.501   5.544   0.799
 8724SOL     OW27070   4.909   0.149   5.141
 8724SOL    HW127071   4.911   0.247   5.157
 8724SOL    HW227072   4.896   0.131   5.043
 8725SOL     OW27073   1.807   6.086   5.959
 8725SOL    HW127074   1.903   6.059   5.966
 8725SOL    HW227075   1.794   6.141   5.877
 8726SOL     OW27076   6.719   0.714   2.671
 8726SOL    HW127077   6.812   0.693   2.699
 8726SOL    HW227078   6.717   0.731   2.572
 8727SOL     OW27079   6.699   6.204   2.523
 8727SOL    HW127080   6.690   6.247   2.433
 8727SOL    HW227081   6.639   6.251   2.588
 8728SOL     OW27082   5.952   0.513   2.446
 8728SOL    HW127083   5.857   0.491   2.423
 8728SOL    HW227084   5.992   0.436   2.497
 8729SOL     OW27085   4.446   6.291   4.679
 8729SOL    HW127086   4.519   6.234   4.716
 8729SOL    HW227087   4.358   6.251   4.704
 8730SOL     OW27088   6.730   3.922   2.124
 8730SOL    HW127089   6.749   3.890   2.217
 8730SOL    HW227090   6.643   3.971   2.122
 8731SOL     OW27091   1.994   2.460   2.547
 8731SOL    HW127092   1.908   2.494   2.508
 8731SOL    HW227093   2.011   2.368   2.514
 8732SOL     OW27094   6.188   5.156   1.585
 8732SOL    HW127095   6.208   5.072   1.635
 8732SOL    HW227096   6.107   5.143   1.527
 8733SOL     OW27097   1.325   5.307   1.110
 8733SOL    HW127098   1.267   5.243   1.161
 8733SOL    HW227099   1.354   5.381   1.171
 8734SOL     OW27100   1.563   3.991   1.700
 8734SOL    HW127101   1.572   4.086   1.669
 8734SOL    HW227102   1.653   3.948   1.702
 8735SOL     OW27103   1.204   2.261   0.780
 8735SOL    HW127104   1.249   2.315   0.851
 8735SOL    HW227105   1.271   2.236   0.710
 8736SOL     OW27106   0.461   5.800   6.599
 8736SOL    HW127107   0.526   5.772   6.669
 8736SOL    HW227108   0.505   5.797   6.509
 8737SOL     OW27109   1.994   6.078   6.539
 8737SOL    HW127110   1.986   6.059   6.441
 8737SOL    HW227111   1.909   6.120   6.572
 8738SOL     OW27112   2.442   5.400   4.536
 8738SOL    HW127113   2.477   5.486   4.501
 8738SOL    HW227114   2.429   5.336   4.460
 8739SOL     OW27115   5.457   5.493   6.488
 8739SOL    HW127116   5.402   5.445   6.556
 8739SOL    HW227117   5.430   5.464   6.396
 8740SOL     OW27118   4.976   1.030   4.463
 8740SOL    HW127119   4.934   0.946   4.429
 8740SOL    HW227120   4.906   1.084   4.512
 8741SOL     OW27121   2.800   1.330   2.554
 8741SOL    HW127122   2.748   1.261   2.503
 8741SOL    HW227123   2.763   1.339   2.646
 8742SOL     OW27124   6.200   6.202   1.129
 8742SOL    HW127125   6.136   6.131   1.100
 8742SOL    HW227126   6.286   6.192   1.078
 8743SOL     OW27127   1.051   0.172   2.707
 8743SOL    HW127128   0.960   0.134   2.721
 8743SOL    HW227129   1.095   0.125   2.630
 8744SOL     OW27130   3.436   2.746   6.403
 8744SOL    HW127131   3.475   2.655   6.415
 8744SOL    HW227132   3.406   2.757   6.308
 8745SOL     OW27133   5.856   2.509   6.666
 8745SOL    HW127134   5.886   2.503   6.571
 8745SOL    HW227135   5.798   2.430   6.688
 8746SOL     OW27136   4.837   4.987   4.651
 8746SOL    HW127137   4.920   4.962   4.602
 8746SOL    HW227138   4.813   4.914   4.715
 8747SOL     OW27139   0.555   2.976   2.952
 8747SOL    HW127140   0.489   2.917   2.906
 8747SOL    HW227141   0.533   2.982   3.049
 8748SOL     OW27142   6.865   1.392   4.973
 8748SOL    HW127143   6.839   1.373   5.068
 8748SOL    HW227144   6.944   1.453   4.972
 8749SOL     OW27145   2.500   0.833   5.815
 8749SOL    HW127146   2.588   0.787   5.802
 8749SOL    HW227147   2.478   0.837   5.912
 8750SOL     OW27148   3.520   3.673   5.653
 8750SOL    HW127149   3.508   3.704   5.747
 8750SOL    HW227150   3.437   3.626   5.623
 8751SOL     OW27151   5.659   1.102   2.176
 8751SOL    HW127152   5.674   1.066   2.268
 8751SOL    HW227153   5.652   1.201   2.180
 8752SOL     OW27154   2.820   2.998   0.476
 8752SOL    HW127155   2.869   2.926   0.425
 8752SOL    HW227156   2.870   3.084   0.468
 8753SOL     OW27157   4.022   2.036   5.932
 8753SOL    HW127158   4.035   1.994   5.842
 8753SOL    HW227159   4.061   1.977   6.002
 8754SOL     OW27160   1.858   3.549   5.886
 8754SOL    HW127161   1.877   3.648   5.884
 8754SOL    HW227162   1.932   3.502   5.933
 8755SOL     OW27163   1.989   0.585   0.913
 8755SOL    HW127164   2.087   0.593   0.933
 8755SOL    HW227165   1.949   0.513   0.969
 8756SOL     OW27166   0.961   3.220   3.327
 8756SOL    HW127167   0.923   3.273   3.251
 8756SOL    HW227168   1.026   3.277   3.378
 8757SOL     OW27169   3.939   5.806   6.360
 8757SOL    HW127170   3.969   5.852   6.276
 8757SOL    HW227171   3.859   5.748   6.339
 8758SOL     OW27172   4.901   5.794   2.245
 8758SOL    HW127173   4.824   5.858   2.246
 8758SOL    HW227174   4.980   5.838   2.202
 8759SOL     OW27175   4.540   2.492   0.523
 8759SOL    HW127176   4.537   2.474   0.621
 8759SOL    HW227177   4.618   2.445   0.482
 8760SOL     OW27178   2.091   1.186   4.915
 8760SOL    HW127179   2.063   1.092   4.894
 8760SOL    HW227180   2.099   1.196   5.015
 8761SOL     OW27181   5.960   2.051   1.658
 8761SOL    HW127182   5.891   2.039   1.730
 8761SOL    HW227183   6.042   2.092   1.698
 8762SOL     OW27184   1.725   3.725   2.547
 8762SOL    HW127185   1.778   3.679   2.619
 8762SOL    HW227186   1.787   3.782   2.492
 8763SOL     OW27187   0.176   0.126   5.930
 8763SOL    HW127188   0.108   0.156   5.997
 8763SOL    HW227189   0.171   0.183   5.848
 8764SOL     OW27190   4.905   0.361   4.612
 8764SOL    HW127191   4.832   0.299   4.638
 8764SOL    HW227192   4.880   0.408   4.527
 8765SOL     OW27193   5.336   6.149   3.550
 8765SOL    HW127194   5.257   6.144   3.489
 8765SOL    HW227195   5.339   6.239   3.593
 8766SOL     OW27196   4.731   4.195   3.479
 8766SOL    HW127197   4.650   4.252   3.495
 8766SOL    HW227198   4.725   4.153   3.389
 8767SOL     OW27199   5.176   5.998   2.626
 8767SOL    HW127200   5.106   6.011   2.696
 8767SOL    HW227201   5.247   6.067   2.638
 8768SOL     OW27202   1.237   1.995   0.399
 8768SOL    HW127203   1.282   2.049   0.470
 8768SOL    HW227204   1.305   1.945   0.347
 8769SOL     OW27205   0.410   0.654   4.250
 8769SOL    HW127206   0.311   0.646   4.257
 8769SOL    HW227207   0.433   0.720   4.178
 8770SOL     OW27208   4.714   4.339   2.340
 8770SOL    HW127209   4.792   4.301   2.290
 8770SOL    HW227210   4.695   4.284   2.421
 8771SOL     OW27211   0.787   1.434   6.759
 8771SOL    HW127212   0.809   1.338   6.738
 8771SOL    HW227213   0.748   1.477   6.678
 8772SOL     OW27214   5.239   0.449   6.220
 8772SOL    HW127215   5.170   0.376   6.213
 8772SOL    HW227216   5.194   0.537   6.210
 8773SOL     OW27217   4.546   2.608   3.107
 8773SOL    HW127218   4.613   2.542   3.142
 8773SOL    HW227219   4.469   2.614   3.169
 8774SOL     OW27220   1.005   0.796   7.001
 8774SOL    HW127221   0.979   0.725   0.048
 8774SOL    HW227222   1.036   0.754   6.916
 8775SOL     OW27223   5.781   0.004   4.936
 8775SOL    HW127224   5.727   0.026   5.017
 8775SOL    HW227225   5.741   6.943   4.889
 8776SOL     OW27226   3.514   3.024   6.461
 8776SOL    HW127227   3.520   3.065   6.370
 8776SOL    HW227228   3.469   2.935   6.455
 8777SOL     OW27229   0.066   4.091   1.864
 8777SOL    HW127230   0.153   4.078   1.815
 8777SOL    HW227231   0.081   4.149   1.944
 8778SOL     OW27232   5.926   2.651   4.790
 8778SOL    HW127233   5.995   2.602   4.844
 8778SOL    HW227234   5.895   2.592   4.715
 8779SOL     OW27235   2.430   5.463   2.760
 8779SOL    HW127236   2.360   5.530   2.784
 8779SOL    HW227237   2.494   5.454   2.836
 8780SOL     OW27238   0.816   6.452   2.502
 8780SOL    HW127239   0.843   6.371   2.553
 8780SOL    HW227240   0.801   6.428   2.406
 8781SOL     OW27241   5.117   1.157   3.072
 8781SOL    HW127242   5.138   1.066   3.035
 8781SOL    HW227243   5.056   1.148   3.151
 8782SOL     OW27244   6.341   6.339   1.687
 8782SOL    HW127245   6.310   6.285   1.765
 8782SOL    HW227246   6.327   6.288   1.603
 8783SOL     OW27247   6.320   4.303   3.362
 8783SOL    HW127248   6.264   4.270   3.285
 8783SOL    HW227249   6.406   4.253   3.364
 8784SOL     OW27250   6.051   4.152   6.446
 8784SOL    HW127251   6.083   4.107   6.529
 8784SOL    HW227252   6.098   4.240   6.435
 8785SOL     OW27253   5.855   3.865   0.096
 8785SOL    HW127254   5.888   3.946   0.145
 8785SOL    HW227255   5.805   3.806   0.159
 8786SOL     OW27256   1.896   0.269   0.042
 8786SOL    HW127257   1.981   0.224   0.069
 8786SOL    HW227258   1.902   0.299   6.964
 8787SOL     OW27259   3.265   2.017   1.446
 8787SOL    HW127260   3.313   2.104   1.429
 8787SOL    HW227261   3.174   2.037   1.483
 8788SOL     OW27262   6.624   1.850   5.971
 8788SOL    HW127263   6.556   1.787   6.007
 8788SOL    HW227264   6.715   1.824   6.004
 8789SOL     OW27265   6.176   0.263   4.908
 8789SOL    HW127266   6.084   0.298   4.889
 8789SOL    HW227267   6.237   0.339   4.930
 8790SOL     OW27268   0.378   0.323   6.694
 8790SOL    HW127269   0.404   0.239   6.646
 8790SOL    HW227270   0.292   0.357   6.657
 8791SOL     OW27271   5.216   0.029   4.510
 8791SOL    HW127272   5.282   0.027   4.584
 8791SOL    HW227273   5.123   0.031   4.548
 8792SOL     OW27274   2.569   6.642   3.042
 8792SOL    HW127275   2.601   6.647   2.948
 8792SOL    HW227276   2.631   6.585   3.095
 8793SOL     OW27277   1.516   4.273   3.532
 8793SOL    HW127278   1.454   4.326   3.474
 8793SOL    HW227279   1.532   4.183   3.490
 8794SOL     OW27280   4.596   6.462   2.120
 8794SOL    HW127281   4.506   6.471   2.077
 8794SOL    HW227282   4.623   6.551   2.157
 8795SOL     OW27283   1.577   5.314   5.434
 8795SOL    HW127284   1.603   5.243   5.500
 8795SOL    HW227285   1.608   5.403   5.467
 8796SOL     OW27286   3.715   2.140   4.523
 8796SOL    HW127287   3.625   2.134   4.566
 8796SOL    HW227288   3.706   2.128   4.424
 8797SOL     OW27289   6.612   6.834   7.008
 8797SOL    HW127290   6.530   6.877   0.028
 8797SOL    HW227291   6.615   6.738   0.019
 8798SOL     OW27292   5.111   5.571   5.710
 8798SOL    HW127293   5.031   5.616   5.671
 8798SOL    HW227294   5.164   5.637   5.763
 8799SOL     OW27295   2.817   4.740   3.666
 8799SOL    HW127296   2.814   4.739   3.766
 8799SOL    HW227297   2.895   4.794   3.634
 8800SOL     OW27298   6.439   3.672   5.504
 8800SOL    HW127299   6.353   3.632   5.536
 8800SOL    HW227300   6.513   3.605   5.514
 8801SOL     OW27301   0.340   1.717   5.186
 8801SOL    HW127302   0.424   1.769   5.202
 8801SOL    HW227303   0.267   1.780   5.157
 8802SOL     OW27304   1.869   6.631   0.282
 8802SOL    HW127305   1.962   6.666   0.268
 8802SOL    HW227306   1.873   6.545   0.333
 8803SOL     OW27307   6.695   5.985   6.783
 8803SOL    HW127308   6.661   6.065   6.734
 8803SOL    HW227309   6.618   5.931   6.817
 8804SOL     OW27310   2.539   6.939   2.157
 8804SOL    HW127311   2.463   6.968   2.215
 8804SOL    HW227312   2.521   6.847   2.121
 8805SOL     OW27313   3.071   6.830   4.342
 8805SOL    HW127314   2.981   6.788   4.336
 8805SOL    HW227315   3.064   6.920   4.385
 8806SOL     OW27316   2.917   5.849   2.290
 8806SOL    HW127317   2.894   5.926   2.230
 8806SOL    HW227318   2.843   5.836   2.356
 8807SOL     OW27319   5.142   0.519   6.881
 8807SOL    HW127320   5.128   0.608   6.924
 8807SOL    HW227321   5.188   0.458   6.946
 8808SOL     OW27322   5.949   2.919   6.995
 8808SOL    HW127323   5.995   3.002   6.961
 8808SOL    HW227324   5.953   2.848   6.925
 8809SOL     OW27325   5.153   5.325   3.594
 8809SOL    HW127326   5.241   5.365   3.620
 8809SOL    HW227327   5.082   5.356   3.658
 8810SOL     OW27328   5.614   1.046   5.649
 8810SOL    HW127329   5.640   0.969   5.706
 8810SOL    HW227330   5.687   1.066   5.584
 8811SOL     OW27331   2.877   0.480   2.944
 8811SOL    HW127332   2.834   0.524   2.865
 8811SOL    HW227333   2.827   0.503   3.027
 8812SOL     OW27334   1.834   0.381   1.018
 8812SOL    HW127335   1.818   0.355   1.113
 8812SOL    HW227336   1.895   0.315   0.975
 8813SOL     OW27337   2.546   4.556   1.465
 8813SOL    HW127338   2.640   4.572   1.493
 8813SOL    HW227339   2.527   4.458   1.466
 8814SOL     OW27340   5.356   6.844   1.446
 8814SOL    HW127341   5.336   6.756   1.489
 8814SOL    HW227342   5.346   6.917   1.514
 8815SOL     OW27343   5.654   6.840   0.901
 8815SOL    HW127344   5.697   6.911   0.846
 8815SOL    HW227345   5.627   6.764   0.842
 8816SOL     OW27346   0.965   6.727   0.302
 8816SOL    HW127347   1.009   6.812   0.275
 8816SOL    HW227348   0.889   6.707   0.240
 8817SOL     OW27349   0.865   5.085   4.294
 8817SOL    HW127350   0.816   5.171   4.276
 8817SOL    HW227351   0.880   5.076   4.392
 8818SOL     OW27352   0.348   4.509   4.911
 8818SOL    HW127353   0.422   4.501   4.978
 8818SOL    HW227354   0.290   4.587   4.934
 8819SOL     OW27355   5.655   5.335   5.097
 8819SOL    HW127356   5.700   5.343   5.186
 8819SOL    HW227357   5.643   5.238   5.075
 8820SOL     OW27358   2.350   1.074   5.201
 8820SOL    HW127359   2.287   1.022   5.258
 8820SOL    HW227360   2.442   1.038   5.211
 8821SOL     OW27361   1.842   6.126   0.798
 8821SOL    HW127362   1.854   6.049   0.736
 8821SOL    HW227363   1.921   6.188   0.791
 8822SOL     OW27364   0.415   0.062   4.630
 8822SOL    HW127365   0.381   0.154   4.608
 8822SOL    HW227366   0.514   0.066   4.645
 8823SOL     OW27367   2.412   0.902   1.882
 8823SOL    HW127368   2.506   0.875   1.904
 8823SOL    HW227369   2.409   1.000   1.864
 8824SOL     OW27370   1.036   1.860   0.491
 8824SOL    HW127371   0.967   1.931   0.507
 8824SOL    HW227372   1.115   1.902   0.446
 8825SOL     OW27373   2.398   1.134   1.581
 8825SOL    HW127374   2.305   1.169   1.586
 8825SOL    HW227375   2.436   1.123   1.673
 8826SOL     OW27376   6.526   3.459   0.424
 8826SOL    HW127377   6.492   3.522   0.355
 8826SOL    HW227378   6.530   3.506   0.513
 8827SOL     OW27379   3.995   1.842   2.174
 8827SOL    HW127380   3.942   1.776   2.122
 8827SOL    HW227381   3.938   1.920   2.198
 8828SOL     OW27382   4.543   6.074   5.544
 8828SOL    HW127383   4.632   6.064   5.499
 8828SOL    HW227384   4.534   6.167   5.580
 8829SOL     OW27385   5.360   2.938   0.795
 8829SOL    HW127386   5.460   2.937   0.807
 8829SOL    HW227387   5.321   3.015   0.845
 8830SOL     OW27388   1.063   1.711   2.606
 8830SOL    HW127389   1.009   1.664   2.676
 8830SOL    HW227390   1.124   1.777   2.650
 8831SOL     OW27391   3.815   2.150   4.125
 8831SOL    HW127392   3.736   2.110   4.172
 8831SOL    HW227393   3.869   2.202   4.191
 8832SOL     OW27394   0.154   5.861   3.105
 8832SOL    HW127395   0.065   5.822   3.131
 8832SOL    HW227396   0.226   5.820   3.161
 8833SOL     OW27397   2.399   5.234   5.858
 8833SOL    HW127398   2.365   5.229   5.764
 8833SOL    HW227399   2.451   5.151   5.879
 8834SOL     OW27400   5.441   3.878   4.775
 8834SOL    HW127401   5.380   3.810   4.813
 8834SOL    HW227402   5.445   3.957   4.837
 8835SOL     OW27403   4.994   0.994   6.078
 8835SOL    HW127404   5.003   0.895   6.063
 8835SOL    HW227405   5.078   1.028   6.122
 8836SOL     OW27406   5.487   3.031   0.184
 8836SOL    HW127407   5.586   3.046   0.184
 8836SOL    HW227408   5.455   3.026   0.090
 8837SOL     OW27409   0.032   6.196   2.377
 8837SOL    HW127410   0.125   6.172   2.402
 8837SOL    HW227411   6.996   6.213   2.460
 8838SOL     OW27412   1.937   5.268   3.125
 8838SOL    HW127413   1.844   5.303   3.118
 8838SOL    HW227414   1.985   5.319   3.197
 8839SOL     OW27415   6.227   5.106   2.892
 8839SOL    HW127416   6.170   5.082   2.971
 8839SOL    HW227417   6.171   5.151   2.823
 8840SOL     OW27418   6.883   2.219   2.208
 8840SOL    HW127419   6.871   2.264   2.297
 8840SOL    HW227420   6.976   2.181   2.203
 8841SOL     OW27421   0.880   1.190   5.332
 8841SOL    HW127422   0.800   1.146   5.373
 8841SOL    HW227423   0.851   1.257   5.264
 8842SOL     OW27424   3.453   3.188   2.286
 8842SOL    HW127425   3.405   3.239   2.357
 8842SOL    HW227426   3.540   3.233   2.265
 8843SOL     OW27427   1.705   3.175   5.141
 8843SOL    HW127428   1.784   3.139   5.090
 8843SOL    HW227429   1.701   3.130   5.231
 8844SOL     OW27430   6.829   2.226   6.351
 8844SOL    HW127431   6.757   2.157   6.361
 8844SOL    HW227432   6.845   2.271   6.439
 8845SOL     OW27433   4.053   3.727   0.472
 8845SOL    HW127434   4.148   3.695   0.473
 8845SOL    HW227435   4.005   3.691   0.551
 8846SOL     OW27436   3.468   5.156   4.028
 8846SOL    HW127437   3.500   5.238   4.075
 8846SOL    HW227438   3.546   5.108   3.988
 8847SOL     OW27439   2.528   0.662   3.132
 8847SOL    HW127440   2.487   0.645   3.043
 8847SOL    HW227441   2.456   0.677   3.200
 8848SOL     OW27442   2.866   1.594   1.872
 8848SOL    HW127443   2.780   1.592   1.820
 8848SOL    HW227444   2.933   1.648   1.823
 8849SOL     OW27445   3.031   6.188   3.451
 8849SOL    HW127446   2.956   6.199   3.516
 8849SOL    HW227447   3.107   6.247   3.477
 8850SOL     OW27448   0.862   2.008   0.005
 8850SOL    HW127449   0.883   1.931   0.066
 8850SOL    HW227450   0.945   2.037   6.975
 8851SOL     OW27451   1.184   4.298   3.067
 8851SOL    HW127452   1.122   4.348   3.007
 8851SOL    HW227453   1.146   4.207   3.086
 8852SOL     OW27454   6.439   2.893   4.912
 8852SOL    HW127455   6.444   2.943   4.999
 8852SOL    HW227456   6.530   2.860   4.888
 8853SOL     OW27457   2.822   1.016   1.363
 8853SOL    HW127458   2.748   1.049   1.305
 8853SOL    HW227459   2.829   0.916   1.356
 8854SOL     OW27460   3.394   2.618   5.757
 8854SOL    HW127461   3.346   2.533   5.781
 8854SOL    HW227462   3.389   2.632   5.658
 8855SOL     OW27463   0.274   5.319   1.615
 8855SOL    HW127464   0.177   5.297   1.613
 8855SOL    HW227465   0.306   5.322   1.709
 8856SOL     OW27466   0.307   6.789   6.186
 8856SOL    HW127467   0.286   6.856   6.257
 8856SOL    HW227468   0.347   6.835   6.107
 8857SOL     OW27469   6.636   1.804   3.720
 8857SOL    HW127470   6.676   1.800   3.812
 8857SOL    HW227471   6.551   1.856   3.722
 8858SOL     OW27472   0.784   3.578   5.378
 8858SOL    HW127473   0.805   3.658   5.321
 8858SOL    HW227474   0.766   3.500   5.318
 8859SOL     OW27475   0.444   0.372   4.206
 8859SOL    HW127476   0.523   0.368   4.144
 8859SOL    HW227477   0.430   0.466   4.237
 8860SOL     OW27478   6.649   2.677   2.466
 8860SOL    HW127479   6.587   2.748   2.432
 8860SOL    HW227480   6.743   2.706   2.452
 8861SOL     OW27481   4.375   1.033   5.990
 8861SOL    HW127482   4.384   1.047   5.891
 8861SOL    HW227483   4.280   1.048   6.017
 8862SOL     OW27484   4.904   0.514   3.387
 8862SOL    HW127485   4.935   0.420   3.370
 8862SOL    HW227486   4.964   0.557   3.455
 8863SOL     OW27487   2.073   4.882   3.931
 8863SOL    HW127488   2.090   4.965   3.983
 8863SOL    HW227489   2.111   4.891   3.839
 8864SOL     OW27490   2.661   4.978   6.499
 8864SOL    HW127491   2.687   5.064   6.542
 8864SOL    HW227492   2.719   4.904   6.534
 8865SOL     OW27493   3.030   0.564   5.139
 8865SOL    HW127494   2.972   0.494   5.098
 8865SOL    HW227495   2.973   0.636   5.178
 8866SOL     OW27496   5.090   0.055   2.768
 8866SOL    HW127497   5.029   6.994   2.759
 8866SOL    HW227498   5.168   0.044   2.705
 8867SOL     OW27499   5.799   4.866   2.842
 8867SOL    HW127500   5.853   4.796   2.889
 8867SOL    HW227501   5.839   4.956   2.858
 8868SOL     OW27502   6.876   2.954   1.481
 8868SOL    HW127503   6.869   2.855   1.481
 8868SOL    HW227504   6.973   2.980   1.482
 8869SOL     OW27505   4.072   5.946   5.056
 8869SOL    HW127506   4.080   5.872   5.122
 8869SOL    HW227507   4.157   5.953   5.004
 8870SOL     OW27508   2.622   0.296   0.878
 8870SOL    HW127509   2.630   0.374   0.817
 8870SOL    HW227510   2.612   0.212   0.824
 8871SOL     OW27511   2.063   1.572   3.703
 8871SOL    HW127512   2.138   1.508   3.721
 8871SOL    HW227513   2.009   1.584   3.786
 8872SOL     OW27514   1.461   4.489   4.953
 8872SOL    HW127515   1.376   4.476   4.903
 8872SOL    HW227516   1.440   4.520   5.046
 8873SOL     OW27517   0.464   6.335   2.127
 8873SOL    HW127518   0.376   6.300   2.160
 8873SOL    HW227519   0.481   6.302   2.035
 8874SOL     OW27520   2.001   6.466   2.829
 8874SOL    HW127521   1.993   6.375   2.787
 8874SOL    HW227522   1.992   6.536   2.758
 8875SOL     OW27523   0.493   3.756   5.202
 8875SOL    HW127524   0.484   3.727   5.107
 8875SOL    HW227525   0.579   3.806   5.214
 8876SOL     OW27526   2.161   6.529   5.529
 8876SOL    HW127527   2.112   6.447   5.556
 8876SOL    HW227528   2.116   6.570   5.449
 8877SOL     OW27529   2.958   2.061   3.926
 8877SOL    HW127530   2.904   2.065   4.010
 8877SOL    HW227531   2.899   2.076   3.847
 8878SOL     OW27532   6.256   5.131   0.652
 8878SOL    HW127533   6.224   5.058   0.592
 8878SOL    HW227534   6.265   5.215   0.601
 8879SOL     OW27535   4.865   4.467   2.797
 8879SOL    HW127536   4.796   4.402   2.828
 8879SOL    HW227537   4.914   4.427   2.719
 8880SOL     OW27538   4.664   6.479   4.862
 8880SOL    HW127539   4.565   6.468   4.853
 8880SOL    HW227540   4.702   6.512   4.775
 8881SOL     OW27541   5.097   6.391   3.814
 8881SOL    HW127542   5.131   6.315   3.870
 8881SOL    HW227543   5.081   6.471   3.872
 8882SOL     OW27544   5.169   0.608   1.122
 8882SOL    HW127545   5.219   0.691   1.147
 8882SOL    HW227546   5.138   0.561   1.205
 8883SOL     OW27547   1.649   6.142   6.173
 8883SOL    HW127548   1.692   6.183   6.253
 8883SOL    HW227549   1.718   6.128   6.102
 8884SOL     OW27550   6.598   4.193   5.276
 8884SOL    HW127551   6.670   4.144   5.324
 8884SOL    HW227552   6.545   4.129   5.220
 8885SOL     OW27553   5.842   4.371   1.644
 8885SOL    HW127554   5.770   4.390   1.711
 8885SOL    HW227555   5.800   4.353   1.555
 8886SOL     OW27556   2.779   5.865   4.548
 8886SOL    HW127557   2.730   5.945   4.513
 8886SOL    HW227558   2.846   5.834   4.480
 8887SOL     OW27559   3.767   0.343   0.418
 8887SOL    HW127560   3.721   0.422   0.377
 8887SOL    HW227561   3.731   0.327   0.510
 8888SOL     OW27562   2.082   1.751   5.791
 8888SOL    HW127563   2.033   1.686   5.732
 8888SOL    HW227564   2.164   1.706   5.828
 8889SOL     OW27565   6.435   0.084   0.237
 8889SOL    HW127566   6.443   0.119   0.143
 8889SOL    HW227567   6.403   0.157   0.297
 8890SOL     OW27568   0.038   6.298   5.476
 8890SOL    HW127569   0.083   6.372   5.426
 8890SOL    HW227570   6.956   6.312   5.474
 8891SOL     OW27571   4.188   3.113   6.767
 8891SOL    HW127572   4.163   3.119   6.671
 8891SOL    HW227573   4.161   3.197   6.814
 8892SOL     OW27574   3.632   5.457   2.464
 8892SOL    HW127575   3.679   5.376   2.501
 8892SOL    HW227576   3.631   5.452   2.364
 8893SOL     OW27577   1.095   5.488   4.103
 8893SOL    HW127578   1.063   5.483   4.198
 8893SOL    HW227579   1.064   5.574   4.062
 8894SOL     OW27580   3.430   2.513   6.816
 8894SOL    HW127581   3.503   2.554   6.762
 8894SOL    HW227582   3.400   2.428   6.771
 8895SOL     OW27583   6.514   2.876   2.350
 8895SOL    HW127584   6.510   2.943   2.424
 8895SOL    HW227585   6.497   2.923   2.263
 8896SOL     OW27586   2.411   3.016   5.670
 8896SOL    HW127587   2.458   3.028   5.582
 8896SOL    HW227588   2.327   3.070   5.671
 8897SOL     OW27589   2.384   2.706   3.350
 8897SOL    HW127590   2.463   2.647   3.365
 8897SOL    HW227591   2.377   2.728   3.253
 8898SOL     OW27592   4.871   3.403   2.389
 8898SOL    HW127593   4.885   3.457   2.306
 8898SOL    HW227594   4.811   3.326   2.369
 8899SOL     OW27595   1.240   5.238   1.496
 8899SOL    HW127596   1.141   5.239   1.482
 8899SOL    HW227597   1.260   5.253   1.593
 8900SOL     OW27598   5.739   2.747   2.676
 8900SOL    HW127599   5.683   2.749   2.593
 8900SOL    HW227600   5.811   2.679   2.667
 8901SOL     OW27601   1.609   1.202   5.100
 8901SOL    HW127602   1.606   1.156   5.011
 8901SOL    HW227603   1.682   1.271   5.098
 8902SOL     OW27604   0.840   6.373   0.386
 8902SOL    HW127605   0.852   6.338   0.293
 8902SOL    HW227606   0.917   6.433   0.409
 8903SOL     OW27607   0.712   1.692   4.404
 8903SOL    HW127608   0.712   1.769   4.341
 8903SOL    HW227609   0.769   1.618   4.367
 8904SOL     OW27610   6.526   0.903   4.635
 8904SOL    HW127611   6.535   0.921   4.733
 8904SOL    HW227612   6.508   0.988   4.587
 8905SOL     OW27613   2.071   3.813   3.264
 8905SOL    HW127614   2.047   3.716   3.275
 8905SOL    HW227615   2.102   3.849   3.352
 8906SOL     OW27616   0.528   6.385   6.884
 8906SOL    HW127617   0.582   6.302   6.898
 8906SOL    HW227618   0.471   6.401   6.965
 8907SOL     OW27619   2.987   2.863   5.547
 8907SOL    HW127620   3.025   2.911   5.468
 8907SOL    HW227621   2.894   2.832   5.526
 8908SOL     OW27622   1.179   5.007   6.633
 8908SOL    HW127623   1.081   5.012   6.653
 8908SOL    HW227624   1.200   5.063   6.554
 8909SOL     OW27625   2.281   1.525   5.754
 8909SOL    HW127626   2.253   1.441   5.708
 8909SOL    HW227627   2.318   1.589   5.687
 8910SOL     OW27628   0.416   3.059   5.777
 8910SOL    HW127629   0.476   3.070   5.856
 8910SOL    HW227630   0.365   2.973   5.786
 8911SOL     OW27631   4.570   2.607   4.491
 8911SOL    HW127632   4.616   2.562   4.415
 8911SOL    HW227633   4.471   2.595   4.481
 8912SOL     OW27634   3.581   3.563   6.808
 8912SOL    HW127635   3.485   3.570   6.836
 8912SOL    HW227636   3.628   3.497   6.866
 8913SOL     OW27637   4.472   5.509   6.041
 8913SOL    HW127638   4.494   5.437   5.976
 8913SOL    HW227639   4.476   5.598   5.995
 8914SOL     OW27640   4.221   6.768   4.614
 8914SOL    HW127641   4.295   6.701   4.626
 8914SOL    HW227642   4.259   6.853   4.578
 8915SOL     OW27643   0.944   2.468   4.038
 8915SOL    HW127644   0.890   2.460   4.122
 8915SOL    HW227645   0.956   2.377   3.998
 8916SOL     OW27646   6.717   3.121   1.067
 8916SOL    HW127647   6.788   3.110   0.998
 8916SOL    HW227648   6.694   3.218   1.075
 8917SOL     OW27649   6.339   3.219   0.405
 8917SOL    HW127650   6.381   3.128   0.408
 8917SOL    HW227651   6.411   3.288   0.396
 8918SOL     OW27652   0.139   3.962   1.025
 8918SOL    HW127653   0.087   3.968   0.940
 8918SOL    HW227654   0.087   3.910   1.093
 8919SOL     OW27655   4.183   4.014   0.493
 8919SOL    HW127656   4.213   4.108   0.480
 8919SOL    HW227657   4.127   3.986   0.415
 8920SOL     OW27658   0.031   1.567   6.552
 8920SOL    HW127659   0.060   1.509   6.476
 8920SOL    HW227660   0.107   1.580   6.616
 8921SOL     OW27661   2.205   2.094   1.910
 8921SOL    HW127662   2.212   2.132   1.817
 8921SOL    HW227663   2.283   2.033   1.927
 8922SOL     OW27664   4.379   4.949   1.216
 8922SOL    HW127665   4.297   4.908   1.176
 8922SOL    HW227666   4.367   4.959   1.314
 8923SOL     OW27667   2.418   2.036   6.558
 8923SOL    HW127668   2.357   2.033   6.479
 8923SOL    HW227669   2.445   2.130   6.577
 8924SOL     OW27670   4.165   5.773   5.515
 8924SOL    HW127671   4.105   5.817   5.448
 8924SOL    HW227672   4.140   5.676   5.523
 8925SOL     OW27673   0.923   1.084   3.308
 8925SOL    HW127674   0.902   0.990   3.332
 8925SOL    HW227675   0.851   1.145   3.340
 8926SOL     OW27676   6.863   2.874   6.129
 8926SOL    HW127677   6.914   2.789   6.126
 8926SOL    HW227678   6.787   2.871   6.064
 8927SOL     OW27679   0.223   0.885   4.699
 8927SOL    HW127680   0.270   0.826   4.632
 8927SOL    HW227681   0.255   0.979   4.689
 8928SOL     OW27682   1.487   6.578   6.011
 8928SOL    HW127683   1.394   6.585   5.976
 8928SOL    HW227684   1.512   6.664   6.057
 8929SOL     OW27685   5.953   1.721   4.946
 8929SOL    HW127686   6.037   1.736   4.998
 8929SOL    HW227687   5.902   1.806   4.940
 8930SOL     OW27688   1.755   2.806   4.829
 8930SOL    HW127689   1.667   2.853   4.831
 8930SOL    HW227690   1.825   2.868   4.795
 8931SOL     OW27691   2.953   3.284   0.793
 8931SOL    HW127692   2.992   3.201   0.753
 8931SOL    HW227693   2.956   3.357   0.724
 8932SOL     OW27694   6.377   1.672   1.483
 8932SOL    HW127695   6.308   1.619   1.534
 8932SOL    HW227696   6.468   1.648   1.516
 8933SOL     OW27697   2.427   2.880   6.388
 8933SOL    HW127698   2.524   2.895   6.409
 8933SOL    HW227699   2.413   2.785   6.363
 8934SOL     OW27700   2.845   5.172   4.213
 8934SOL    HW127701   2.773   5.105   4.194
 8934SOL    HW227702   2.807   5.246   4.269
 8935SOL     OW27703   0.561   4.428   0.524
 8935SOL    HW127704   0.611   4.515   0.529
 8935SOL    HW227705   0.567   4.392   0.431
 8936SOL     OW27706   1.169   3.287   1.997
 8936SOL    HW127707   1.213   3.292   2.087
 8936SOL    HW227708   1.069   3.286   2.009
 8937SOL     OW27709   0.670   0.347   5.785
 8937SOL    HW127710   0.725   0.263   5.781
 8937SOL    HW227711   0.579   0.329   5.749
 8938SOL     OW27712   0.227   6.533   0.915
 8938SOL    HW127713   0.232   6.449   0.861
 8938SOL    HW227714   0.198   6.609   0.856
 8939SOL     OW27715   5.473   4.236   4.244
 8939SOL    HW127716   5.446   4.181   4.323
 8939SOL    HW227717   5.560   4.281   4.263
 8940SOL     OW27718   0.689   0.947   1.924
 8940SOL    HW127719   0.721   0.954   1.830
 8940SOL    HW227720   0.601   0.900   1.926
 8941SOL     OW27721   5.766   2.671   5.289
 8941SOL    HW127722   5.685   2.628   5.329
 8941SOL    HW227723   5.747   2.768   5.270
 8942SOL     OW27724   6.179   5.287   5.639
 8942SOL    HW127725   6.155   5.384   5.648
 8942SOL    HW227726   6.211   5.253   5.728
 8943SOL     OW27727   3.593   5.520   6.636
 8943SOL    HW127728   3.691   5.505   6.643
 8943SOL    HW227729   3.544   5.449   6.686
 8944SOL     OW27730   5.616   5.389   5.684
 8944SOL    HW127731   5.629   5.465   5.620
 8944SOL    HW227732   5.669   5.406   5.767
 8945SOL     OW27733   1.078   0.761   2.981
 8945SOL    HW127734   0.982   0.784   2.995
 8945SOL    HW227735   1.135   0.834   3.020
 8946SOL     OW27736   2.872   1.694   5.093
 8946SOL    HW127737   2.801   1.669   5.159
 8946SOL    HW227738   2.859   1.789   5.065
 8947SOL     OW27739   2.078   2.960   6.361
 8947SOL    HW127740   1.980   2.967   6.379
 8947SOL    HW227741   2.108   2.866   6.373
 8948SOL     OW27742   5.892   6.024   4.958
 8948SOL    HW127743   5.990   6.032   4.940
 8948SOL    HW227744   5.863   6.099   5.018
 8949SOL     OW27745   2.803   6.124   0.598
 8949SOL    HW127746   2.839   6.206   0.553
 8949SOL    HW227747   2.740   6.077   0.536
 8950SOL     OW27748   4.845   4.168   6.470
 8950SOL    HW127749   4.764   4.212   6.432
 8950SOL    HW227750   4.831   4.070   6.475
 8951SOL     OW27751   1.554   1.558   5.157
 8951SOL    HW127752   1.478   1.523   5.211
 8951SOL    HW227753   1.640   1.538   5.203
 8952SOL     OW27754   1.450   6.279   2.490
 8952SOL    HW127755   1.498   6.214   2.431
 8952SOL    HW227756   1.445   6.368   2.444
 8953SOL     OW27757   1.575   4.037   0.120
 8953SOL    HW127758   1.591   3.942   0.092
 8953SOL    HW227759   1.645   4.096   0.080
 8954SOL     OW27760   0.802   6.738   4.381
 8954SOL    HW127761   0.778   6.710   4.474
 8954SOL    HW227762   0.823   6.836   4.380
 8955SOL     OW27763   0.025   5.332   2.678
 8955SOL    HW127764   0.045   5.428   2.699
 8955SOL    HW227765   6.962   5.303   2.728
 8956SOL     OW27766   2.099   1.415   6.568
 8956SOL    HW127767   2.058   1.503   6.544
 8956SOL    HW227768   2.034   1.362   6.623
 8957SOL     OW27769   2.571   4.561   1.015
 8957SOL    HW127770   2.495   4.506   0.980
 8957SOL    HW227771   2.553   4.658   0.998
 8958SOL     OW27772   0.416   1.774   4.569
 8958SOL    HW127773   0.468   1.742   4.490
 8958SOL    HW227774   0.374   1.696   4.615
 8959SOL     OW27775   1.751   4.316   2.440
 8959SOL    HW127776   1.676   4.298   2.503
 8959SOL    HW227777   1.744   4.254   2.362
 8960SOL     OW27778   4.421   5.045   2.498
 8960SOL    HW127779   4.340   4.993   2.472
 8960SOL    HW227780   4.409   5.081   2.591
 8961SOL     OW27781   2.509   0.776   3.901
 8961SOL    HW127782   2.432   0.763   3.964
 8961SOL    HW227783   2.518   0.695   3.843
 8962SOL     OW27784   6.987   5.712   2.732
 8962SOL    HW127785   6.969   5.797   2.782
 8962SOL    HW227786   0.008   5.644   2.793
 8963SOL     OW27787   3.919   6.405   4.549
 8963SOL    HW127788   3.851   6.373   4.615
 8963SOL    HW227789   3.905   6.357   4.462
 8964SOL     OW27790   5.122   3.743   2.976
 8964SOL    HW127791   5.164   3.758   3.066
 8964SOL    HW227792   5.166   3.803   2.909
 8965SOL     OW27793   2.678   4.710   0.450
 8965SOL    HW127794   2.768   4.669   0.434
 8965SOL    HW227795   2.680   4.806   0.423
 8966SOL     OW27796   0.035   4.330   0.624
 8966SOL    HW127797   0.091   4.412   0.639
 8966SOL    HW227798   0.093   4.257   0.587
 8967SOL     OW27799   4.224   0.043   1.284
 8967SOL    HW127800   4.208   6.962   1.280
 8967SOL    HW227801   4.315   0.060   1.322
 8968SOL     OW27802   4.385   5.192   2.723
 8968SOL    HW127803   4.285   5.185   2.731
 8968SOL    HW227804   4.417   5.269   2.779
 8969SOL     OW27805   6.586   1.176   4.507
 8969SOL    HW127806   6.592   1.237   4.586
 8969SOL    HW227807   6.532   1.219   4.435
 8970SOL     OW27808   2.572   2.980   7.013
 8970SOL    HW127809   2.595   3.056   6.952
 8970SOL    HW227810   2.624   2.987   0.080
 8971SOL     OW27811   6.111   5.259   1.219
 8971SOL    HW127812   6.059   5.276   1.135
 8971SOL    HW227813   6.119   5.160   1.234
 8972SOL     OW27814   5.071   3.975   0.024
 8972SOL    HW127815   5.095   3.910   0.097
 8972SOL    HW227816   4.974   3.964   0.000
 8973SOL     OW27817   0.529   2.776   2.473
 8973SOL    HW127818   0.552   2.872   2.485
 8973SOL    HW227819   0.551   2.726   2.556
 8974SOL     OW27820   1.228   4.404   4.821
 8974SOL    HW127821   1.206   4.444   4.731
 8974SOL    HW227822   1.154   4.425   4.885
 8975SOL     OW27823   1.680   6.543   5.797
 8975SOL    HW127824   1.679   6.612   5.725
 8975SOL    HW227825   1.600   6.555   5.856
 8976SOL     OW27826   0.089   5.536   5.910
 8976SOL    HW127827   7.007   5.522   5.906
 8976SOL    HW227828   0.121   5.575   5.824
 8977SOL     OW27829   6.590   2.956   6.792
 8977SOL    HW127830   6.610   3.045   6.753
 8977SOL    HW227831   6.665   2.927   6.852
 8978SOL     OW27832   5.567   6.618   3.709
 8978SOL    HW127833   5.544   6.521   3.713
 8978SOL    HW227834   5.492   6.668   3.664
 8979SOL     OW27835   1.250   3.671   4.343
 8979SOL    HW127836   1.176   3.689   4.279
 8979SOL    HW227837   1.271   3.754   4.395
 8980SOL     OW27838   3.807   2.557   5.520
 8980SOL    HW127839   3.768   2.649   5.531
 8980SOL    HW227840   3.834   2.521   5.609
 8981SOL     OW27841   3.981   0.812   6.071
 8981SOL    HW127842   4.055   0.770   6.123
 8981SOL    HW227843   3.898   0.815   6.127
 8982SOL     OW27844   0.671   2.012   1.764
 8982SOL    HW127845   0.711   2.049   1.680
 8982SOL    HW227846   0.730   1.939   1.800
 8983SOL     OW27847   1.035   5.756   6.364
 8983SOL    HW127848   1.010   5.686   6.298
 8983SOL    HW227849   1.102   5.719   6.428
 8984SOL     OW27850   6.480   6.899   3.552
 8984SOL    HW127851   6.384   6.870   3.556
 8984SOL    HW227852   6.499   6.937   3.461
 8985SOL     OW27853   2.677   1.968   0.804
 8985SOL    HW127854   2.772   1.962   0.773
 8985SOL    HW227855   2.670   2.033   0.879
 8986SOL     OW27856   4.305   5.275   1.779
 8986SOL    HW127857   4.267   5.189   1.811
 8986SOL    HW227858   4.396   5.260   1.742
 8987SOL     OW27859   5.396   6.827   1.002
 8987SOL    HW127860   5.396   6.765   0.924
 8987SOL    HW227861   5.471   6.892   0.992
 8988SOL     OW27862   1.004   3.692   6.286
 8988SOL    HW127863   1.015   3.608   6.234
 8988SOL    HW227864   1.092   3.737   6.297
 8989SOL     OW27865   5.030   4.324   2.040
 8989SOL    HW127866   4.979   4.405   2.068
 8989SOL    HW227867   4.967   4.249   2.022
 8990SOL     OW27868   1.997   5.656   2.915
 8990SOL    HW127869   1.955   5.619   2.833
 8990SOL    HW227870   2.034   5.747   2.896
 8991SOL     OW27871   1.833   1.806   6.735
 8991SOL    HW127872   1.779   1.847   6.662
 8991SOL    HW227873   1.822   1.859   6.819
 8992SOL     OW27874   6.413   1.862   0.332
 8992SOL    HW127875   6.481   1.790   0.322
 8992SOL    HW227876   6.433   1.937   0.269
 8993SOL     OW27877   4.455   2.470   2.246
 8993SOL    HW127878   4.363   2.435   2.263
 8993SOL    HW227879   4.520   2.420   2.302
 8994SOL     OW27880   1.616   5.093   4.552
 8994SOL    HW127881   1.560   5.099   4.634
 8994SOL    HW227882   1.664   5.005   4.551
 8995SOL     OW27883   0.736   2.336   6.997
 8995SOL    HW127884   0.787   2.334   0.066
 8995SOL    HW227885   0.651   2.386   7.009
 8996SOL     OW27886   6.497   5.107   1.161
 8996SOL    HW127887   6.593   5.086   1.141
 8996SOL    HW227888   6.440   5.082   1.083
 8997SOL     OW27889   4.399   1.179   6.224
 8997SOL    HW127890   4.440   1.125   6.297
 8997SOL    HW227891   4.379   1.120   6.146
 8998SOL     OW27892   6.668   3.764   4.813
 8998SOL    HW127893   6.646   3.720   4.901
 8998SOL    HW227894   6.688   3.694   4.745
 8999SOL     OW27895   4.906   6.123   0.064
 8999SOL    HW127896   5.001   6.138   0.091
 8999SOL    HW227897   4.865   6.210   0.036
 9000SOL     OW27898   2.506   4.084   0.499
 9000SOL    HW127899   2.500   4.158   0.566
 9000SOL    HW227900   2.543   4.002   0.542
 9001SOL     OW27901   1.255   5.108   2.556
 9001SOL    HW127902   1.303   5.171   2.496
 9001SOL    HW227903   1.260   5.142   2.650
 9002SOL     OW27904   0.259   5.313   5.214
 9002SOL    HW127905   0.225   5.222   5.190
 9002SOL    HW227906   0.210   5.348   5.293
 9003SOL     OW27907   4.989   2.942   1.232
 9003SOL    HW127908   4.904   2.915   1.189
 9003SOL    HW227909   5.044   2.995   1.167
 9004SOL     OW27910   4.244   6.399   1.308
 9004SOL    HW127911   4.332   6.370   1.344
 9004SOL    HW227912   4.257   6.467   1.236
 9005SOL     OW27913   5.147   2.359   4.308
 9005SOL    HW127914   5.164   2.306   4.391
 9005SOL    HW227915   5.174   2.454   4.324
 9006SOL     OW27916   2.806   6.683   0.640
 9006SOL    HW127917   2.729   6.649   0.693
 9006SOL    HW227918   2.838   6.769   0.678
 9007SOL     OW27919   3.867   0.810   4.217
 9007SOL    HW127920   3.927   0.864   4.158
 9007SOL    HW227921   3.822   0.739   4.163
 9008SOL     OW27922   0.991   6.026   3.169
 9008SOL    HW127923   0.897   5.995   3.180
 9008SOL    HW227924   1.052   5.964   3.220
 9009SOL     OW27925   2.936   0.953   0.559
 9009SOL    HW127926   2.950   0.900   0.643
 9009SOL    HW227927   3.021   0.957   0.507
 9010SOL     OW27928   1.596   6.721   3.913
 9010SOL    HW127929   1.530   6.779   3.866
 9010SOL    HW227930   1.630   6.652   3.848
 9011SOL     OW27931   4.730   2.510   1.649
 9011SOL    HW127932   4.823   2.540   1.673
 9011SOL    HW227933   4.683   2.479   1.731
 9012SOL     OW27934   2.901   4.035   1.442
 9012SOL    HW127935   2.915   4.116   1.384
 9012SOL    HW227936   2.833   4.056   1.511
 9013SOL     OW27937   6.767   6.277   5.469
 9013SOL    HW127938   6.734   6.240   5.556
 9013SOL    HW227939   6.692   6.322   5.421
 9014SOL     OW27940   6.747   1.883   0.371
 9014SOL    HW127941   6.710   1.965   0.327
 9014SOL    HW227942   6.739   1.892   0.471
 9015SOL     OW27943   5.158   1.917   1.307
 9015SOL    HW127944   5.230   1.983   1.329
 9015SOL    HW227945   5.174   1.880   1.215
 9016SOL     OW27946   0.651   6.925   6.428
 9016SOL    HW127947   0.691   6.862   6.361
 9016SOL    HW227948   0.724   6.964   6.484
 9017SOL     OW27949   4.369   2.082   2.293
 9017SOL    HW127950   4.467   2.094   2.281
 9017SOL    HW227951   4.330   2.164   2.334
 9018SOL     OW27952   4.009   1.556   6.750
 9018SOL    HW127953   4.095   1.550   6.801
 9018SOL    HW227954   3.933   1.541   6.813
 9019SOL     OW27955   1.091   0.093   2.427
 9019SOL    HW127956   1.089   0.162   2.355
 9019SOL    HW227957   1.032   0.017   2.401
 9020SOL     OW27958   0.689   3.916   1.560
 9020SOL    HW127959   0.682   3.933   1.658
 9020SOL    HW227960   0.771   3.861   1.541
 9021SOL     OW27961   6.649   0.415   4.217
 9021SOL    HW127962   6.572   0.395   4.278
 9021SOL    HW227963   6.617   0.472   4.141
 9022SOL     OW27964   2.979   2.032   0.010
 9022SOL    HW127965   2.974   2.066   0.104
 9022SOL    HW227966   2.890   1.993   7.002
 9023SOL     OW27967   3.044   3.056   2.635
 9023SOL    HW127968   3.011   3.037   2.728
 9023SOL    HW227969   3.130   3.008   2.620
 9024SOL     OW27970   0.396   4.961   5.009
 9024SOL    HW127971   0.442   4.941   4.923
 9024SOL    HW227972   0.309   4.911   5.012
 9025SOL     OW27973   0.838   5.299   6.949
 9025SOL    HW127974   0.815   5.360   0.007
 9025SOL    HW227975   0.802   5.208   6.967
 9026SOL     OW27976   4.383   3.195   1.277
 9026SOL    HW127977   4.412   3.134   1.350
 9026SOL    HW227978   4.284   3.209   1.282
 9027SOL     OW27979   0.861   2.546   4.322
 9027SOL    HW127980   0.954   2.582   4.319
 9027SOL    HW227981   0.840   2.518   4.416
 9028SOL     OW27982   2.673   3.605   5.593
 9028SOL    HW127983   2.628   3.517   5.610
 9028SOL    HW227984   2.715   3.604   5.503
 9029SOL     OW27985   3.337   5.941   4.937
 9029SOL    HW127986   3.278   6.018   4.914
 9029SOL    HW227987   3.282   5.858   4.945
 9030SOL     OW27988   1.897   1.945   3.226
 9030SOL    HW127989   1.986   1.904   3.247
 9030SOL    HW227990   1.889   1.958   3.127
 9031SOL     OW27991   4.179   5.891   4.569
 9031SOL    HW127992   4.234   5.961   4.524
 9031SOL    HW227993   4.225   5.859   4.651
 9032SOL     OW27994   4.321   3.728   0.155
 9032SOL    HW127995   4.329   3.779   0.241
 9032SOL    HW227996   4.225   3.708   0.136
 9033SOL     OW27997   0.832   3.797   3.735
 9033SOL    HW127998   0.766   3.736   3.780
 9033SOL    HW227999   0.911   3.811   3.795
 9034SOL     OW28000   2.871   0.272   5.782
 9034SOL    HW128001   2.916   0.231   5.861
 9034SOL    HW228002   2.772   0.263   5.791
 9035SOL     OW28003   1.440   5.010   5.932
 9035SOL    HW128004   1.475   4.974   5.846
 9035SOL    HW228005   1.351   4.968   5.953
 9036SOL     OW28006   1.941   1.292   5.594
 9036SOL    HW128007   1.888   1.298   5.679
 9036SOL    HW228008   2.035   1.321   5.612
 9037SOL     OW28009   1.554   3.809   5.142
 9037SOL    HW128010   1.584   3.828   5.236
 9037SOL    HW228011   1.548   3.895   5.091
 9038SOL     OW28012   4.304   6.771   5.793
 9038SOL    HW128013   4.261   6.755   5.705
 9038SOL    HW228014   4.329   6.684   5.835
 9039SOL     OW28015   3.102   4.892   5.022
 9039SOL    HW128016   3.092   4.846   5.110
 9039SOL    HW228017   3.042   4.848   4.955
 9040SOL     OW28018   3.146   1.675   2.876
 9040SOL    HW128019   3.056   1.710   2.903
 9040SOL    HW228020   3.173   1.601   2.937
 9041SOL     OW28021   1.178   2.419   1.668
 9041SOL    HW128022   1.099   2.480   1.671
 9041SOL    HW228023   1.149   2.328   1.638
 9042SOL     OW28024   2.801   0.343   3.988
 9042SOL    HW128025   2.720   0.337   4.046
 9042SOL    HW228026   2.876   0.386   4.038
 9043SOL     OW28027   1.256   0.980   7.003
 9043SOL    HW128028   1.165   0.994   0.026
 9043SOL    HW228029   1.251   0.907   6.935
 9044SOL     OW28030   6.117   1.164   0.850
 9044SOL    HW128031   6.049   1.195   0.784
 9044SOL    HW228032   6.198   1.223   0.846
 9045SOL     OW28033   2.127   1.502   2.845
 9045SOL    HW128034   2.207   1.448   2.869
 9045SOL    HW228035   2.116   1.576   2.912
 9046SOL     OW28036   3.627   3.832   3.562
 9046SOL    HW128037   3.611   3.930   3.575
 9046SOL    HW228038   3.571   3.799   3.486
 9047SOL     OW28039   1.226   3.033   5.583
 9047SOL    HW128040   1.255   3.005   5.492
 9047SOL    HW228041   1.181   3.123   5.577
 9048SOL     OW28042   5.539   2.977   6.357
 9048SOL    HW128043   5.502   3.022   6.276
 9048SOL    HW228044   5.464   2.944   6.414
 9049SOL     OW28045   3.689   6.920   6.074
 9049SOL    HW128046   3.687   6.855   6.150
 9049SOL    HW228047   3.759   6.891   6.008
 9050SOL     OW28048   0.216   3.379   0.203
 9050SOL    HW128049   0.315   3.386   0.191
 9050SOL    HW228050   0.187   3.285   0.188
 9051SOL     OW28051   4.502   6.199   0.892
 9051SOL    HW128052   4.567   6.275   0.894
 9051SOL    HW228053   4.537   6.127   0.833
 9052SOL     OW28054   2.168   2.469   3.849
 9052SOL    HW128055   2.202   2.378   3.823
 9052SOL    HW228056   2.217   2.499   3.931
 9053SOL     OW28057   1.931   1.632   3.084
 9053SOL    HW128058   1.870   1.675   3.017
 9053SOL    HW228059   2.021   1.675   3.079
 9054SOL     OW28060   2.325   5.847   2.772
 9054SOL    HW128061   2.375   5.848   2.858
 9054SOL    HW228062   2.266   5.927   2.766
 9055SOL     OW28063   5.939   2.891   4.078
 9055SOL    HW128064   5.994   2.843   4.010
 9055SOL    HW228065   5.997   2.920   4.154
 9056SOL     OW28066   0.520   0.961   2.255
 9056SOL    HW128067   0.576   0.944   2.335
 9056SOL    HW228068   0.440   1.016   2.281
 9057SOL     OW28069   5.775   5.000   5.667
 9057SOL    HW128070   5.747   4.905   5.653
 9057SOL    HW228071   5.835   5.029   5.592
 9058SOL     OW28072   2.650   2.010   2.967
 9058SOL    HW128073   2.622   2.048   2.878
 9058SOL    HW228074   2.644   2.082   3.037
 9059SOL     OW28075   1.376   2.235   4.616
 9059SOL    HW128076   1.404   2.318   4.568
 9059SOL    HW228077   1.278   2.222   4.607
 9060SOL     OW28078   6.221   2.820   3.263
 9060SOL    HW128079   6.229   2.769   3.349
 9060SOL    HW228080   6.125   2.825   3.236
 9061SOL     OW28081   2.606   5.607   2.139
 9061SOL    HW128082   2.564   5.644   2.222
 9061SOL    HW228083   2.537   5.598   2.067
 9062SOL     OW28084   1.818   5.952   1.958
 9062SOL    HW128085   1.788   5.992   2.044
 9062SOL    HW228086   1.839   6.026   1.893
 9063SOL     OW28087   1.708   6.949   3.190
 9063SOL    HW128088   1.682   7.015   3.119
 9063SOL    HW228089   1.796   6.909   3.167
 9064SOL     OW28090   6.542   2.167   5.090
 9064SOL    HW128091   6.565   2.092   5.152
 9064SOL    HW228092   6.489   2.131   5.013
 9065SOL     OW28093   3.017   0.001   5.775
 9065SOL    HW128094   3.054   0.038   5.690
 9065SOL    HW228095   3.028   0.069   5.848
 9066SOL     OW28096   5.055   6.024   0.325
 9066SOL    HW128097   5.102   6.087   0.264
 9066SOL    HW228098   5.037   5.938   0.277
 9067SOL     OW28099   6.292   0.736   4.143
 9067SOL    HW128100   6.337   0.823   4.123
 9067SOL    HW228101   6.199   0.754   4.177
 9068SOL     OW28102   2.412   6.443   4.747
 9068SOL    HW128103   2.473   6.435   4.668
 9068SOL    HW228104   2.466   6.451   4.831
 9069SOL     OW28105   1.846   3.098   1.852
 9069SOL    HW128106   1.824   3.024   1.788
 9069SOL    HW228107   1.942   3.089   1.881
 9070SOL     OW28108   1.516   4.073   5.030
 9070SOL    HW128109   1.605   4.081   4.986
 9070SOL    HW228110   1.446   4.110   4.971
 9071SOL     OW28111   5.194   0.252   1.461
 9071SOL    HW128112   5.143   0.244   1.375
 9071SOL    HW228113   5.291   0.262   1.441
 9072SOL     OW28114   0.439   1.265   1.966
 9072SOL    HW128115   0.368   1.330   1.992
 9072SOL    HW228116   0.462   1.208   2.045
 9073SOL     OW28117   3.315   6.973   2.558
 9073SOL    HW128118   3.287   6.923   2.641
 9073SOL    HW228119   3.395   6.927   2.518
 9074SOL     OW28120   2.086   1.528   1.786
 9074SOL    HW128121   2.122   1.620   1.799
 9074SOL    HW228122   2.158   1.461   1.803
 9075SOL     OW28123   0.926   1.219   2.326
 9075SOL    HW128124   0.941   1.289   2.396
 9075SOL    HW228125   0.828   1.210   2.309
 9076SOL     OW28126   6.077   2.288   5.374
 9076SOL    HW128127   6.019   2.321   5.300
 9076SOL    HW228128   6.172   2.314   5.357
 9077SOL     OW28129   4.842   0.303   0.455
 9077SOL    HW128130   4.900   0.224   0.440
 9077SOL    HW228131   4.899   0.385   0.465
 9078SOL     OW28132   4.457   3.839   6.040
 9078SOL    HW128133   4.450   3.863   5.944
 9078SOL    HW228134   4.422   3.746   6.054
 9079SOL     OW28135   2.829   0.445   4.299
 9079SOL    HW128136   2.750   0.392   4.266
 9079SOL    HW228137   2.910   0.419   4.246
 9080SOL     OW28138   4.760   2.655   6.931
 9080SOL    HW128139   4.729   2.651   0.009
 9080SOL    HW228140   4.692   2.703   6.876
 9081SOL     OW28141   3.630   6.395   2.422
 9081SOL    HW128142   3.538   6.385   2.385
 9081SOL    HW228143   3.674   6.306   2.428
 9082SOL     OW28144   1.982   0.339   5.846
 9082SOL    HW128145   1.982   0.338   5.946
 9082SOL    HW228146   2.065   0.297   5.812
 9083SOL     OW28147   3.053   6.155   6.112
 9083SOL    HW128148   2.958   6.166   6.081
 9083SOL    HW228149   3.068   6.213   6.192
 9084SOL     OW28150   3.120   3.871   4.306
 9084SOL    HW128151   3.124   3.870   4.406
 9084SOL    HW228152   3.190   3.810   4.269
 9085SOL     OW28153   2.553   6.231   1.446
 9085SOL    HW128154   2.565   6.173   1.527
 9085SOL    HW228155   2.461   6.269   1.446
 9086SOL     OW28156   1.007   4.258   0.350
 9086SOL    HW128157   1.071   4.185   0.372
 9086SOL    HW228158   0.940   4.225   0.284
 9087SOL     OW28159   4.533   2.686   1.466
 9087SOL    HW128160   4.463   2.615   1.462
 9087SOL    HW228161   4.607   2.656   1.527
 9088SOL     OW28162   6.897   6.448   0.893
 9088SOL    HW128163   6.963   6.376   0.914
 9088SOL    HW228164   6.804   6.413   0.907
 9089SOL     OW28165   5.066   5.742   5.292
 9089SOL    HW128166   5.034   5.657   5.249
 9089SOL    HW228167   5.065   5.815   5.224
 9090SOL     OW28168   7.006   1.260   4.016
 9090SOL    HW128169   6.934   1.233   4.080
 9090SOL    HW228170   6.975   1.244   3.923
 9091SOL     OW28171   3.065   4.716   6.981
 9091SOL    HW128172   3.143   4.661   7.012
 9091SOL    HW228173   3.000   4.728   0.039
 9092SOL     OW28174   6.807   0.838   7.012
 9092SOL    HW128175   6.754   0.887   0.065
 9092SOL    HW228176   6.745   0.808   6.940
 9093SOL     OW28177   1.096   6.211   5.739
 9093SOL    HW128178   1.169   6.267   5.779
 9093SOL    HW228179   1.007   6.253   5.761
 9094SOL     OW28180   6.850   5.002   3.008
 9094SOL    HW128181   6.938   5.036   3.041
 9094SOL    HW228182   6.820   5.057   2.929
 9095SOL     OW28183   5.144   4.358   5.804
 9095SOL    HW128184   5.057   4.332   5.762
 9095SOL    HW228185   5.208   4.282   5.797
 9096SOL     OW28186   6.139   4.799   2.528
 9096SOL    HW128187   6.124   4.893   2.559
 9096SOL    HW228188   6.104   4.735   2.597
 9097SOL     OW28189   1.420   1.842   0.979
 9097SOL    HW128190   1.407   1.778   0.903
 9097SOL    HW228191   1.493   1.810   1.038
 9098SOL     OW28192   3.381   1.685   4.711
 9098SOL    HW128193   3.294   1.734   4.702
 9098SOL    HW228194   3.449   1.747   4.751
 9099SOL     OW28195   3.331   3.102   5.890
 9099SOL    HW128196   3.326   3.143   5.798
 9099SOL    HW228197   3.366   3.009   5.883
 9100SOL     OW28198   0.290   3.131   3.482
 9100SOL    HW128199   0.299   3.172   3.573
 9100SOL    HW228200   0.349   3.180   3.418
 9101SOL     OW28201   2.633   2.425   2.062
 9101SOL    HW128202   2.568   2.439   1.988
 9101SOL    HW228203   2.715   2.381   2.027
 9102SOL     OW28204   3.386   6.147   1.670
 9102SOL    HW128205   3.466   6.208   1.669
 9102SOL    HW228206   3.318   6.179   1.604
 9103SOL     OW28207   6.115   2.833   6.591
 9103SOL    HW128208   6.202   2.882   6.592
 9103SOL    HW228209   6.080   2.830   6.497
 9104SOL     OW28210   0.242   5.788   2.237
 9104SOL    HW128211   0.296   5.852   2.183
 9104SOL    HW228212   0.145   5.795   2.211
 9105SOL     OW28213   0.388   1.482   6.211
 9105SOL    HW128214   0.369   1.524   6.300
 9105SOL    HW228215   0.485   1.460   6.205
 9106SOL     OW28216   6.107   4.139   1.357
 9106SOL    HW128217   6.154   4.053   1.376
 9106SOL    HW228218   6.134   4.208   1.425
 9107SOL     OW28219   2.832   0.344   6.756
 9107SOL    HW128220   2.804   0.396   6.675
 9107SOL    HW228221   2.755   0.288   6.786
 9108SOL     OW28222   5.242   4.790   5.134
 9108SOL    HW128223   5.207   4.811   5.225
 9108SOL    HW228224   5.274   4.695   5.132
 9109SOL     OW28225   6.458   3.510   3.299
 9109SOL    HW128226   6.484   3.458   3.219
 9109SOL    HW228227   6.535   3.514   3.363
 9110SOL     OW28228   2.378   4.878   4.562
 9110SOL    HW128229   2.354   4.782   4.548
 9110SOL    HW228230   2.299   4.928   4.597
 9111SOL     OW28231   5.125   2.687   0.357
 9111SOL    HW128232   5.208   2.630   0.357
 9111SOL    HW228233   5.069   2.665   0.437
 9112SOL     OW28234   1.724   5.979   2.814
 9112SOL    HW128235   1.804   5.961   2.871
 9112SOL    HW228236   1.694   5.894   2.770
 9113SOL     OW28237   4.930   2.525   2.439
 9113SOL    HW128238   4.976   2.599   2.390
 9113SOL    HW228239   4.968   2.516   2.531
 9114SOL     OW28240   0.085   5.636   3.624
 9114SOL    HW128241   0.078   5.571   3.548
 9114SOL    HW228242   7.013   5.677   3.642
 9115SOL     OW28243   6.515   5.671   4.974
 9115SOL    HW128244   6.560   5.601   4.919
 9115SOL    HW228245   6.416   5.667   4.958
 9116SOL     OW28246   0.541   0.150   2.878
 9116SOL    HW128247   0.465   0.200   2.919
 9116SOL    HW228248   0.536   0.054   2.905
 9117SOL     OW28249   3.469   2.868   5.858
 9117SOL    HW128250   3.433   2.780   5.825
 9117SOL    HW228251   3.561   2.882   5.821
 9118SOL     OW28252   6.641   3.798   6.919
 9118SOL    HW128253   6.559   3.752   6.952
 9118SOL    HW228254   6.621   3.844   6.833
 9119SOL     OW28255   3.491   1.185   2.298
 9119SOL    HW128256   3.444   1.270   2.273
 9119SOL    HW228257   3.589   1.202   2.304
 9120SOL     OW28258   6.887   2.074   5.724
 9120SOL    HW128259   6.897   2.055   5.626
 9120SOL    HW228260   6.880   1.987   5.774
 9121SOL     OW28261   3.462   6.198   4.923
 9121SOL    HW128262   3.369   6.220   4.893
 9121SOL    HW228263   3.484   6.104   4.898
 9122SOL     OW28264   2.378   4.405   2.021
 9122SOL    HW128265   2.341   4.350   1.946
 9122SOL    HW228266   2.434   4.479   1.984
 9123SOL     OW28267   1.801   0.699   4.689
 9123SOL    HW128268   1.709   0.659   4.683
 9123SOL    HW228269   1.825   0.740   4.602
 9124SOL     OW28270   3.929   5.400   0.126
 9124SOL    HW128271   3.980   5.438   0.203
 9124SOL    HW228272   3.993   5.366   0.057
 9125SOL     OW28273   4.242   4.796   0.814
 9125SOL    HW128274   4.340   4.817   0.819
 9125SOL    HW228275   4.194   4.840   0.890
 9126SOL     OW28276   5.589   3.874   1.394
 9126SOL    HW128277   5.654   3.905   1.324
 9126SOL    HW228278   5.639   3.838   1.473
 9127SOL     OW28279   6.453   1.655   6.058
 9127SOL    HW128280   6.437   1.557   6.062
 9127SOL    HW228281   6.366   1.704   6.072
 9128SOL     OW28282   6.313   2.197   5.229
 9128SOL    HW128283   6.390   2.175   5.169
 9128SOL    HW228284   6.238   2.132   5.213
 9129SOL     OW28285   6.606   2.050   0.229
 9129SOL    HW128286   6.529   2.113   0.227
 9129SOL    HW228287   6.667   2.069   0.152
 9130SOL     OW28288   1.618   4.350   6.578
 9130SOL    HW128289   1.684   4.276   6.590
 9130SOL    HW228290   1.632   4.392   6.488
 9131SOL     OW28291   5.690   3.257   6.337
 9131SOL    HW128292   5.605   3.213   6.364
 9131SOL    HW228293   5.690   3.352   6.367
 9132SOL     OW28294   1.143   5.066   4.333
 9132SOL    HW128295   1.080   5.064   4.410
 9132SOL    HW228296   1.092   5.056   4.247
 9133SOL     OW28297   3.650   6.937   1.157
 9133SOL    HW128298   3.602   6.878   1.092
 9133SOL    HW228299   3.739   6.963   1.118
 9134SOL     OW28300   3.828   5.492   0.929
 9134SOL    HW128301   3.770   5.411   0.938
 9134SOL    HW228302   3.907   5.483   0.989
 9135SOL     OW28303   0.536   0.364   1.695
 9135SOL    HW128304   0.529   0.458   1.659
 9135SOL    HW228305   0.603   0.313   1.642
 9136SOL     OW28306   4.617   6.378   5.912
 9136SOL    HW128307   4.583   6.283   5.913
 9136SOL    HW228308   4.541   6.440   5.934
 9137SOL     OW28309   4.062   0.146   6.783
 9137SOL    HW128310   4.124   0.206   6.833
 9137SOL    HW228311   4.115   0.081   6.729
 9138SOL     OW28312   0.420   4.437   6.661
 9138SOL    HW128313   0.514   4.429   6.693
 9138SOL    HW228314   0.374   4.348   6.669
 9139SOL     OW28315   1.329   1.265   2.514
 9139SOL    HW128316   1.355   1.169   2.512
 9139SOL    HW228317   1.238   1.275   2.553
 9140SOL     OW28318   0.909   3.819   1.945
 9140SOL    HW128319   0.969   3.891   1.980
 9140SOL    HW228320   0.820   3.858   1.922
 9141SOL     OW28321   6.264   6.446   1.288
 9141SOL    HW128322   6.202   6.472   1.361
 9141SOL    HW228323   6.234   6.361   1.247
 9142SOL     OW28324   0.622   4.095   1.027
 9142SOL    HW128325   0.615   4.126   1.122
 9142SOL    HW228326   0.531   4.087   0.988
 9143SOL     OW28327   6.651   3.383   0.762
 9143SOL    HW128328   6.630   3.465   0.708
 9143SOL    HW228329   6.611   3.393   0.853
 9144SOL     OW28330   3.441   5.306   5.009
 9144SOL    HW128331   3.514   5.238   5.004
 9144SOL    HW228332   3.352   5.261   5.004
 9145SOL     OW28333   0.600   6.043   6.406
 9145SOL    HW128334   0.620   5.945   6.406
 9145SOL    HW228335   0.566   6.070   6.496
 9146SOL     OW28336   5.205   3.468   2.788
 9146SOL    HW128337   5.215   3.394   2.855
 9146SOL    HW228338   5.124   3.522   2.809
 9147SOL     OW28339   6.893   0.725   5.462
 9147SOL    HW128340   6.932   0.745   5.552
 9147SOL    HW228341   6.925   0.794   5.396
 9148SOL     OW28342   5.367   6.558   2.437
 9148SOL    HW128343   5.377   6.559   2.537
 9148SOL    HW228344   5.357   6.463   2.406
 9149SOL     OW28345   5.396   3.907   2.101
 9149SOL    HW128346   5.330   3.835   2.124
 9149SOL    HW228347   5.489   3.870   2.103
 9150SOL     OW28348   3.726   4.401   0.549
 9150SOL    HW128349   3.655   4.409   0.478
 9150SOL    HW228350   3.717   4.476   0.614
 9151SOL     OW28351   2.303   4.340   3.556
 9151SOL    HW128352   2.248   4.258   3.568
 9151SOL    HW228353   2.276   4.387   3.472
 9152SOL     OW28354   2.023   4.005   4.493
 9152SOL    HW128355   1.954   3.964   4.433
 9152SOL    HW228356   2.078   4.070   4.441
 9153SOL     OW28357   0.175   2.740   6.917
 9153SOL    HW128358   0.242   2.799   6.872
 9153SOL    HW228359   0.083   2.767   6.889
 9154SOL     OW28360   4.689   4.221   4.286
 9154SOL    HW128361   4.674   4.317   4.263
 9154SOL    HW228362   4.601   4.177   4.304
 9155SOL     OW28363   2.472   5.021   2.369
 9155SOL    HW128364   2.523   4.972   2.298
 9155SOL    HW228365   2.428   4.955   2.430
 9156SOL     OW28366   6.842   1.900   1.556
 9156SOL    HW128367   6.797   1.858   1.634
 9156SOL    HW228368   6.784   1.892   1.475
 9157SOL     OW28369   3.236   4.282   6.850
 9157SOL    HW128370   3.291   4.204   6.819
 9157SOL    HW228371   3.143   4.273   6.815
 9158SOL     OW28372   6.769   3.614   3.924
 9158SOL    HW128373   6.846   3.678   3.915
 9158SOL    HW228374   6.789   3.531   3.873
 9159SOL     OW28375   2.227   0.361   3.766
 9159SOL    HW128376   2.266   0.408   3.686
 9159SOL    HW228377   2.242   0.263   3.758
 9160SOL     OW28378   0.237   6.207   5.924
 9160SOL    HW128379   0.207   6.287   5.873
 9160SOL    HW228380   0.158   6.161   5.964
 9161SOL     OW28381   6.239   4.863   3.247
 9161SOL    HW128382   6.209   4.768   3.237
 9161SOL    HW228383   6.331   4.874   3.210
 9162SOL     OW28384   3.636   0.040   2.842
 9162SOL    HW128385   3.540   0.062   2.828
 9162SOL    HW228386   3.669   0.085   2.925
 9163SOL     OW28387   6.681   3.336   2.863
 9163SOL    HW128388   6.673   3.430   2.829
 9163SOL    HW228389   6.628   3.275   2.804
 9164SOL     OW28390   1.733   0.667   6.548
 9164SOL    HW128391   1.774   0.745   6.596
 9164SOL    HW228392   1.669   0.620   6.609
 9165SOL     OW28393   4.639   1.831   6.068
 9165SOL    HW128394   4.551   1.812   6.024
 9165SOL    HW228395   4.624   1.891   6.147
 9166SOL     OW28396   4.670   5.359   1.065
 9166SOL    HW128397   4.734   5.422   1.110
 9166SOL    HW228398   4.592   5.343   1.126
 9167SOL     OW28399   1.617   2.203   6.430
 9167SOL    HW128400   1.558   2.225   6.507
 9167SOL    HW228401   1.693   2.268   6.426
 9168SOL     OW28402   6.900   6.436   6.706
 9168SOL    HW128403   6.826   6.476   6.651
 9168SOL    HW228404   6.917   6.342   6.675
 9169SOL     OW28405   6.741   6.387   6.421
 9169SOL    HW128406   6.725   6.486   6.422
 9169SOL    HW228407   6.655   6.339   6.407
 9170SOL     OW28408   2.014   0.339   6.358
 9170SOL    HW128409   1.924   0.337   6.315
 9170SOL    HW228410   2.021   0.265   6.425
 9171SOL     OW28411   3.259   5.634   0.622
 9171SOL    HW128412   3.214   5.588   0.698
 9171SOL    HW228413   3.193   5.651   0.549
 9172SOL     OW28414   4.536   1.609   4.171
 9172SOL    HW128415   4.501   1.606   4.265
 9172SOL    HW228416   4.545   1.704   4.141
 9173SOL     OW28417   5.851   3.133   4.608
 9173SOL    HW128418   5.838   3.052   4.551
 9173SOL    HW228419   5.948   3.157   4.608
 9174SOL     OW28420   0.805   5.745   0.065
 9174SOL    HW128421   0.890   5.785   0.033
 9174SOL    HW228422   0.818   5.647   0.081
 9175SOL     OW28423   1.354   6.985   0.102
 9175SOL    HW128424   1.352   6.929   0.019
 9175SOL    HW228425   1.449   7.009   0.123
 9176SOL     OW28426   2.671   6.981   1.734
 9176SOL    HW128427   2.650   0.006   1.647
 9176SOL    HW228428   2.765   7.004   1.760
 9177SOL     OW28429   1.466   2.384   3.560
 9177SOL    HW128430   1.399   2.378   3.634
 9177SOL    HW228431   1.425   2.431   3.482
 9178SOL     OW28432   1.991   5.724   6.105
 9178SOL    HW128433   1.989   5.676   6.192
 9178SOL    HW228434   2.078   5.772   6.095
 9179SOL     OW28435   1.504   6.001   4.994
 9179SOL    HW128436   1.485   5.903   4.993
 9179SOL    HW228437   1.602   6.016   5.001
 9180SOL     OW28438   6.228   2.475   3.378
 9180SOL    HW128439   6.158   2.404   3.385
 9180SOL    HW228440   6.250   2.491   3.282
 9181SOL     OW28441   4.786   2.978   3.788
 9181SOL    HW128442   4.774   3.064   3.837
 9181SOL    HW228443   4.793   2.902   3.853
 9182SOL     OW28444   3.176   0.082   3.636
 9182SOL    HW128445   3.149   0.149   3.704
 9182SOL    HW228446   3.216   0.128   3.557
 9183SOL     OW28447   4.944   4.342   6.663
 9183SOL    HW128448   4.984   4.299   6.745
 9183SOL    HW228449   4.894   4.273   6.611
 9184SOL     OW28450   3.669   1.590   0.729
 9184SOL    HW128451   3.695   1.508   0.678
 9184SOL    HW228452   3.746   1.652   0.734
 9185SOL     OW28453   6.900   6.713   5.319
 9185SOL    HW128454   6.801   6.718   5.334
 9185SOL    HW228455   6.922   6.629   5.270
 9186SOL     OW28456   4.991   0.817   5.418
 9186SOL    HW128457   5.057   0.758   5.465
 9186SOL    HW228458   4.920   0.760   5.376
 9187SOL     OW28459   4.660   2.051   6.888
 9187SOL    HW128460   4.645   2.029   6.984
 9187SOL    HW228461   4.614   1.984   6.830
 9188SOL     OW28462   1.498   0.289   1.959
 9188SOL    HW128463   1.469   0.316   1.867
 9188SOL    HW228464   1.441   0.213   1.991
 9189SOL     OW28465   2.634   0.050   3.398
 9189SOL    HW128466   2.624   6.968   3.403
 9189SOL    HW228467   2.703   0.080   3.463
 9190SOL     OW28468   0.075   3.318   5.452
 9190SOL    HW128469   0.108   3.245   5.512
 9190SOL    HW228470   0.034   3.390   5.508
 9191SOL     OW28471   5.457   0.107   6.171
 9191SOL    HW128472   5.481   0.018   6.210
 9191SOL    HW228473   5.359   0.110   6.153
 9192SOL     OW28474   6.330   3.245   5.651
 9192SOL    HW128475   6.295   3.339   5.659
 9192SOL    HW228476   6.253   3.182   5.639
 9193SOL     OW28477   3.783   3.777   3.867
 9193SOL    HW128478   3.690   3.809   3.885
 9193SOL    HW228479   3.824   3.832   3.794
 9194SOL     OW28480   3.773   6.239   2.135
 9194SOL    HW128481   3.726   6.319   2.098
 9194SOL    HW228482   3.797   6.177   2.061
 9195SOL     OW28483   1.731   2.739   3.579
 9195SOL    HW128484   1.670   2.663   3.600
 9195SOL    HW228485   1.813   2.705   3.533
 9196SOL     OW28486   5.600   0.350   3.611
 9196SOL    HW128487   5.515   0.373   3.565
 9196SOL    HW228488   5.632   0.429   3.664
 9197SOL     OW28489   3.700   5.292   0.074
 9197SOL    HW128490   3.661   5.254   0.157
 9197SOL    HW228491   3.790   5.331   0.094
 9198SOL     OW28492   5.582   4.665   6.333
 9198SOL    HW128493   5.666   4.631   6.376
 9198SOL    HW228494   5.571   4.624   6.243
 9199SOL     OW28495   0.276   2.687   6.203
 9199SOL    HW128496   0.231   2.656   6.287
 9199SOL    HW228497   0.237   2.775   6.175
 9200SOL     OW28498   1.847   5.991   6.826
 9200SOL    HW128499   1.846   6.074   6.881
 9200SOL    HW228500   1.877   6.013   6.733
 9201SOL     OW28501   0.300   3.540   0.858
 9201SOL    HW128502   0.323   3.453   0.814
 9201SOL    HW228503   0.330   3.616   0.799
 9202SOL     OW28504   1.591   5.903   3.900
 9202SOL    HW128505   1.658   5.846   3.853
 9202SOL    HW228506   1.543   5.848   3.970
 9203SOL     OW28507   5.330   2.437   6.578
 9203SOL    HW128508   5.425   2.417   6.600
 9203SOL    HW228509   5.271   2.402   6.650
 9204SOL     OW28510   5.105   3.600   3.585
 9204SOL    HW128511   5.180   3.539   3.558
 9204SOL    HW228512   5.043   3.614   3.508
 9205SOL     OW28513   4.946   4.341   2.553
 9205SOL    HW128514   5.005   4.417   2.524
 9205SOL    HW228515   4.932   4.279   2.476
 9206SOL     OW28516   3.027   0.404   4.097
 9206SOL    HW128517   3.106   0.463   4.110
 9206SOL    HW228518   3.047   0.313   4.132
 9207SOL     OW28519   3.471   5.965   6.025
 9207SOL    HW128520   3.554   6.009   6.059
 9207SOL    HW228521   3.398   5.973   6.093
 9208SOL     OW28522   5.840   4.504   2.044
 9208SOL    HW128523   5.882   4.456   2.121
 9208SOL    HW228524   5.826   4.439   1.969
 9209SOL     OW28525   4.194   0.198   2.204
 9209SOL    HW128526   4.201   0.291   2.240
 9209SOL    HW228527   4.204   0.200   2.104
 9210SOL     OW28528   0.840   0.873   1.296
 9210SOL    HW128529   0.884   0.854   1.208
 9210SOL    HW228530   0.760   0.930   1.281
 9211SOL     OW28531   5.505   3.119   6.139
 9211SOL    HW128532   5.597   3.121   6.100
 9211SOL    HW228533   5.439   3.146   6.069
 9212SOL     OW28534   5.117   3.958   5.124
 9212SOL    HW128535   5.067   3.901   5.059
 9212SOL    HW228536   5.210   3.924   5.134
 9213SOL     OW28537   5.185   5.756   4.289
 9213SOL    HW128538   5.274   5.717   4.266
 9213SOL    HW228539   5.153   5.718   4.376
 9214SOL     OW28540   0.202   2.537   5.228
 9214SOL    HW128541   0.246   2.538   5.139
 9214SOL    HW228542   0.115   2.586   5.223
 9215SOL     OW28543   0.996   4.702   2.901
 9215SOL    HW128544   0.915   4.724   2.955
 9215SOL    HW228545   1.066   4.772   2.915
 9216SOL     OW28546   2.591   7.013   4.801
 9216SOL    HW128547   2.628   0.062   4.736
 9216SOL    HW228548   2.503   6.979   4.769
 9217SOL     OW28549   5.647   1.824   0.014
 9217SOL    HW128550   5.613   1.816   6.938
 9217SOL    HW228551   5.733   1.876   0.014
 9218SOL     OW28552   3.823   1.414   6.898
 9218SOL    HW128553   3.897   1.347   6.903
 9218SOL    HW228554   3.745   1.375   6.849
 9219SOL     OW28555   4.322   3.559   5.771
 9219SOL    HW128556   4.321   3.570   5.870
 9219SOL    HW228557   4.410   3.591   5.735
 9220SOL     OW28558   1.997   5.982   2.927
 9220SOL    HW128559   2.060   6.018   2.858
 9220SOL    HW228560   2.024   6.017   3.017
 9221SOL     OW28561   2.656   6.888   5.049
 9221SOL    HW128562   2.634   6.958   4.982
 9221SOL    HW228563   2.608   6.803   5.026
 9222SOL     OW28564   2.597   4.780   4.868
 9222SOL    HW128565   2.673   4.733   4.913
 9222SOL    HW228566   2.566   4.725   4.790
 9223SOL     OW28567   0.862   2.701   3.964
 9223SOL    HW128568   0.847   2.707   3.865
 9223SOL    HW228569   0.884   2.606   3.988
 9224SOL     OW28570   1.492   3.534   3.430
 9224SOL    HW128571   1.445   3.613   3.469
 9224SOL    HW228572   1.427   3.480   3.377
 9225SOL     OW28573   4.138   5.775   5.916
 9225SOL    HW128574   4.094   5.864   5.901
 9225SOL    HW228575   4.203   5.757   5.843
 9226SOL     OW28576   0.815   0.521   1.231
 9226SOL    HW128577   0.760   0.587   1.281
 9226SOL    HW228578   0.903   0.562   1.208
 9227SOL     OW28579   1.534   6.398   1.295
 9227SOL    HW128580   1.505   6.310   1.334
 9227SOL    HW228581   1.454   6.454   1.276
 9228SOL     OW28582   2.063   2.120   6.955
 9228SOL    HW128583   2.140   2.057   6.943
 9228SOL    HW228584   2.044   2.132   0.035
 9229SOL     OW28585   0.494   5.131   5.951
 9229SOL    HW128586   0.434   5.188   5.895
 9229SOL    HW228587   0.589   5.153   5.930
 9230SOL     OW28588   4.875   3.464   2.684
 9230SOL    HW128589   4.776   3.476   2.695
 9230SOL    HW228590   4.894   3.407   2.604
 9231SOL     OW28591   0.618   4.258   5.168
 9231SOL    HW128592   0.664   4.219   5.089
 9231SOL    HW228593   0.568   4.187   5.217
 9232SOL     OW28594   2.524   5.670   1.109
 9232SOL    HW128595   2.530   5.767   1.085
 9232SOL    HW228596   2.614   5.637   1.136
 9233SOL     OW28597   0.436   6.875   0.841
 9233SOL    HW128598   0.426   6.939   0.917
 9233SOL    HW228599   0.403   6.918   0.757
 9234SOL     OW28600   1.631   5.840   0.725
 9234SOL    HW128601   1.682   5.772   0.673
 9234SOL    HW228602   1.651   5.931   0.690
 9235SOL     OW28603   2.236   2.779   2.893
 9235SOL    HW128604   2.201   2.869   2.916
 9235SOL    HW228605   2.166   2.729   2.841
 9236SOL     OW28606   2.630   3.649   6.296
 9236SOL    HW128607   2.568   3.702   6.238
 9236SOL    HW228608   2.720   3.643   6.252
 9237SOL     OW28609   0.921   5.471   2.733
 9237SOL    HW128610   0.952   5.460   2.827
 9237SOL    HW228611   0.870   5.557   2.725
 9238SOL     OW28612   2.826   2.330   5.875
 9238SOL    HW128613   2.903   2.387   5.902
 9238SOL    HW228614   2.746   2.389   5.860
 9239SOL     OW28615   6.810   4.463   6.833
 9239SOL    HW128616   6.772   4.508   6.752
 9239SOL    HW228617   6.862   4.382   6.806
 9240SOL     OW28618   4.874   2.507   2.152
 9240SOL    HW128619   4.790   2.512   2.098
 9240SOL    HW228620   4.854   2.528   2.248
 9241SOL     OW28621   0.583   5.763   1.075
 9241SOL    HW128622   0.610   5.682   1.127
 9241SOL    HW228623   0.617   5.756   0.982
 9242SOL     OW28624   2.230   3.193   1.755
 9242SOL    HW128625   2.266   3.267   1.812
 9242SOL    HW228626   2.223   3.225   1.660
 9243SOL     OW28627   0.472   0.754   1.916
 9243SOL    HW128628   0.424   0.667   1.904
 9243SOL    HW228629   0.565   0.746   1.880
 9244SOL     OW28630   2.776   6.498   6.414
 9244SOL    HW128631   2.685   6.492   6.372
 9244SOL    HW228632   2.845   6.510   6.342
 9245SOL     OW28633   0.544   4.201   3.639
 9245SOL    HW128634   0.617   4.133   3.643
 9245SOL    HW228635   0.582   4.289   3.613
 9246SOL     OW28636   5.486   0.727   3.480
 9246SOL    HW128637   5.435   0.794   3.534
 9246SOL    HW228638   5.490   0.757   3.385
 9247SOL     OW28639   3.593   5.122   2.421
 9247SOL    HW128640   3.504   5.102   2.380
 9247SOL    HW228641   3.657   5.150   2.350
 9248SOL     OW28642   3.027   2.138   4.877
 9248SOL    HW128643   2.974   2.064   4.919
 9248SOL    HW228644   3.088   2.178   4.946
 9249SOL     OW28645   4.783   5.629   1.503
 9249SOL    HW128646   4.883   5.621   1.501
 9249SOL    HW228647   4.757   5.707   1.560
 9250SOL     OW28648   6.908   2.916   3.894
 9250SOL    HW128649   6.850   2.855   3.948
 9250SOL    HW228650   6.853   2.993   3.860
 9251SOL     OW28651   4.173   1.631   2.006
 9251SOL    HW128652   4.131   1.687   2.078
 9251SOL    HW228653   4.184   1.685   1.923
 9252SOL     OW28654   5.727   0.696   4.336
 9252SOL    HW128655   5.762   0.780   4.295
 9252SOL    HW228656   5.697   0.715   4.430
 9253SOL     OW28657   5.315   5.540   5.468
 9253SOL    HW128658   5.219   5.521   5.490
 9253SOL    HW228659   5.334   5.508   5.375
 9254SOL     OW28660   4.505   4.901   2.266
 9254SOL    HW128661   4.465   4.943   2.185
 9254SOL    HW228662   4.512   4.969   2.339
 9255SOL     OW28663   5.450   3.431   6.838
 9255SOL    HW128664   5.442   3.347   6.891
 9255SOL    HW228665   5.399   3.504   6.883
 9256SOL     OW28666   2.164   7.001   1.874
 9256SOL    HW128667   2.218   0.067   1.872
 9256SOL    HW228668   2.142   6.973   1.781
 9257SOL     OW28669   6.169   5.447   3.659
 9257SOL    HW128670   6.208   5.523   3.712
 9257SOL    HW228671   6.080   5.423   3.697
 9258SOL     OW28672   4.013   3.532   1.626
 9258SOL    HW128673   4.004   3.614   1.570
 9258SOL    HW228674   4.087   3.544   1.691
 9259SOL     OW28675   2.179   1.169   0.683
 9259SOL    HW128676   2.233   1.102   0.632
 9259SOL    HW228677   2.153   1.244   0.622
 9260SOL     OW28678   6.527   2.682   5.781
 9260SOL    HW128679   6.563   2.772   5.804
 9260SOL    HW228680   6.523   2.626   5.864
 9261SOL     OW28681   4.108   1.193   6.872
 9261SOL    HW128682   4.192   1.228   6.912
 9261SOL    HW228683   4.062   1.133   6.938
 9262SOL     OW28684   0.937   5.936   4.648
 9262SOL    HW128685   0.986   5.865   4.597
 9262SOL    HW228686   0.871   5.982   4.588
 9263SOL     OW28687   3.152   5.195   2.319
 9263SOL    HW128688   3.147   5.295   2.325
 9263SOL    HW228689   3.084   5.155   2.381
 9264SOL     OW28690   5.124   3.578   0.047
 9264SOL    HW128691   5.155   3.499   0.099
 9264SOL    HW228692   5.145   3.662   0.098
 9265SOL     OW28693   4.233   2.362   0.012
 9265SOL    HW128694   4.146   2.411   0.019
 9265SOL    HW228695   4.299   2.420   6.982
 9266SOL     OW28696   0.228   6.237   1.207
 9266SOL    HW128697   0.238   6.310   1.275
 9266SOL    HW228698   0.317   6.215   1.169
 9267SOL     OW28699   0.804   1.996   4.553
 9267SOL    HW128700   0.771   2.001   4.458
 9267SOL    HW228701   0.855   1.911   4.566
 9268SOL     OW28702   1.315   6.708   2.678
 9268SOL    HW128703   1.219   6.731   2.694
 9268SOL    HW228704   1.337   6.622   2.723
 9269SOL     OW28705   4.344   6.940   6.324
 9269SOL    HW128706   4.250   6.972   6.336
 9269SOL    HW228707   4.344   6.842   6.306
 9270SOL     OW28708   4.040   0.101   5.767
 9270SOL    HW128709   3.989   0.026   5.726
 9270SOL    HW228710   3.977   0.175   5.792
 9271SOL     OW28711   5.945   0.513   0.518
 9271SOL    HW128712   5.898   0.466   0.443
 9271SOL    HW228713   5.893   0.499   0.603
 9272SOL     OW28714   0.851   6.670   6.464
 9272SOL    HW128715   0.811   6.739   6.525
 9272SOL    HW228716   0.946   6.693   6.445
 9273SOL     OW28717   6.519   6.144   3.328
 9273SOL    HW128718   6.575   6.156   3.409
 9273SOL    HW228719   6.487   6.050   3.323
 9274SOL     OW28720   6.870   2.338   0.153
 9274SOL    HW128721   6.821   2.258   0.117
 9274SOL    HW228722   6.925   2.379   0.080
 9275SOL     OW28723   6.474   0.531   0.459
 9275SOL    HW128724   6.391   0.588   0.461
 9275SOL    HW228725   6.455   0.443   0.503
 9276SOL     OW28726   1.875   4.858   0.063
 9276SOL    HW128727   1.920   4.856   6.991
 9276SOL    HW228728   1.807   4.785   0.068
 9277SOL     OW28729   4.100   5.242   2.141
 9277SOL    HW128730   4.086   5.333   2.103
 9277SOL    HW228731   4.163   5.191   2.083
 9278SOL     OW28732   1.897   0.624   5.740
 9278SOL    HW128733   1.935   0.617   5.647
 9278SOL    HW228734   1.917   0.541   5.791
 9279SOL     OW28735   3.736   6.674   1.798
 9279SOL    HW128736   3.734   6.680   1.898
 9279SOL    HW228737   3.827   6.699   1.766
 9280SOL     OW28738   2.470   1.274   2.709
 9280SOL    HW128739   2.399   1.206   2.728
 9280SOL    HW228740   2.432   1.347   2.653
 9281SOL     OW28741   3.211   4.691   6.701
 9281SOL    HW128742   3.257   4.641   6.774
 9281SOL    HW228743   3.115   4.663   6.696
 9282SOL     OW28744   4.639   1.111   3.996
 9282SOL    HW128745   4.571   1.044   3.969
 9282SOL    HW228746   4.689   1.143   3.915
 9283SOL     OW28747   5.344   0.221   5.211
 9283SOL    HW128748   5.354   0.274   5.127
 9283SOL    HW228749   5.389   0.269   5.286
 9284SOL     OW28750   2.774   3.630   5.285
 9284SOL    HW128751   2.854   3.659   5.233
 9284SOL    HW228752   2.781   3.532   5.304
 9285SOL     OW28753   5.016   3.423   1.391
 9285SOL    HW128754   4.924   3.392   1.414
 9285SOL    HW228755   5.010   3.501   1.328
 9286SOL     OW28756   5.411   4.952   0.718
 9286SOL    HW128757   5.347   5.027   0.732
 9286SOL    HW228758   5.405   4.921   0.622
 9287SOL     OW28759   3.566   4.703   6.163
 9287SOL    HW128760   3.614   4.616   6.176
 9287SOL    HW228761   3.538   4.712   6.067
 9288SOL     OW28762   4.441   1.623   2.380
 9288SOL    HW128763   4.386   1.700   2.349
 9288SOL    HW228764   4.446   1.625   2.480
 9289SOL     OW28765   4.846   0.697   0.761
 9289SOL    HW128766   4.887   0.655   0.679
 9289SOL    HW228767   4.754   0.730   0.739
 9290SOL     OW28768   6.025   1.072   3.849
 9290SOL    HW128769   6.027   1.150   3.787
 9290SOL    HW228770   6.056   0.990   3.801
 9291SOL     OW28771   1.365   5.763   5.971
 9291SOL    HW128772   1.388   5.830   5.900
 9291SOL    HW228773   1.334   5.811   6.053
 9292SOL     OW28774   2.105   1.700   6.789
 9292SOL    HW128775   2.138   1.683   6.882
 9292SOL    HW228776   2.006   1.711   6.790
 9293SOL     OW28777   5.811   3.845   6.511
 9293SOL    HW128778   5.724   3.805   6.541
 9293SOL    HW228779   5.797   3.897   6.427
 9294SOL     OW28780   5.000   1.355   6.590
 9294SOL    HW128781   4.919   1.356   6.532
 9294SOL    HW228782   4.979   1.309   6.676
 9295SOL     OW28783   5.969   0.463   5.025
 9295SOL    HW128784   5.905   0.427   5.093
 9295SOL    HW228785   5.918   0.493   4.944
 9296SOL     OW28786   2.053   4.950   0.268
 9296SOL    HW128787   1.985   4.946   0.194
 9296SOL    HW228788   2.140   4.916   0.234
 9297SOL     OW28789   0.615   6.909   3.525
 9297SOL    HW128790   0.558   6.990   3.511
 9297SOL    HW228791   0.615   6.885   3.622
 9298SOL     OW28792   1.471   6.507   6.301
 9298SOL    HW128793   1.377   6.481   6.322
 9298SOL    HW228794   1.480   6.525   6.203
 9299SOL     OW28795   1.055   1.635   4.419
 9299SOL    HW128796   1.137   1.580   4.438
 9299SOL    HW228797   1.079   1.732   4.420
 9300SOL     OW28798   6.904   5.374   5.182
 9300SOL    HW128799   6.955   5.460   5.190
 9300SOL    HW228800   6.888   5.335   5.272
 9301SOL     OW28801   6.348   4.574   4.926
 9301SOL    HW128802   6.293   4.639   4.979
 9301SOL    HW228803   6.403   4.519   4.989
 9302SOL     OW28804   1.899   3.239   4.797
 9302SOL    HW128805   1.964   3.311   4.818
 9302SOL    HW228806   1.885   3.234   4.698
 9303SOL     OW28807   3.003   3.663   0.791
 9303SOL    HW128808   3.090   3.704   0.819
 9303SOL    HW228809   3.021   3.577   0.743
 9304SOL     OW28810   4.325   5.145   0.487
 9304SOL    HW128811   4.255   5.083   0.522
 9304SOL    HW228812   4.387   5.095   0.426
 9305SOL     OW28813   3.962   0.798   0.599
 9305SOL    HW128814   4.042   0.748   0.565
 9305SOL    HW228815   3.880   0.765   0.552
 9306SOL     OW28816   1.292   4.448   5.278
 9306SOL    HW128817   1.347   4.370   5.310
 9306SOL    HW228818   1.353   4.523   5.253
 9307SOL     OW28819   1.138   3.632   0.360
 9307SOL    HW128820   1.049   3.644   0.316
 9307SOL    HW228821   1.140   3.686   0.444
 9308SOL     OW28822   1.302   3.908   2.075
 9308SOL    HW128823   1.283   3.822   2.028
 9308SOL    HW228824   1.216   3.951   2.101
 9309SOL     OW28825   3.699   6.058   5.736
 9309SOL    HW128826   3.796   6.035   5.734
 9309SOL    HW228827   3.679   6.123   5.662
 9310SOL     OW28828   5.826   6.736   5.660
 9310SOL    HW128829   5.752   6.701   5.603
 9310SOL    HW228830   5.902   6.670   5.659
 9311SOL     OW28831   5.460   4.567   1.593
 9311SOL    HW128832   5.408   4.506   1.652
 9311SOL    HW228833   5.436   4.549   1.498
 9312SOL     OW28834   1.753   2.135   0.939
 9312SOL    HW128835   1.848   2.165   0.931
 9312SOL    HW228836   1.750   2.035   0.940
 9313SOL     OW28837   6.989   0.370   1.623
 9313SOL    HW128838   6.940   0.282   1.621
 9313SOL    HW228839   7.003   0.398   1.718
 9314SOL     OW28840   6.816   3.485   0.419
 9314SOL    HW128841   6.777   3.407   0.372
 9314SOL    HW228842   6.906   3.460   0.456
 9315SOL     OW28843   6.169   0.050   5.451
 9315SOL    HW128844   6.208   6.976   5.448
 9315SOL    HW228845   6.182   0.095   5.362
 9316SOL     OW28846   5.702   0.118   5.350
 9316SOL    HW128847   5.627   0.097   5.414
 9316SOL    HW228848   5.789   0.094   5.393
 9317SOL     OW28849   3.998   5.387   2.874
 9317SOL    HW128850   3.909   5.341   2.874
 9317SOL    HW228851   4.061   5.338   2.935
 9318SOL     OW28852   5.151   6.986   0.234
 9318SOL    HW128853   5.135   6.898   0.279
 9318SOL    HW228854   5.069   7.013   0.183
 9319SOL     OW28855   2.544   2.766   1.182
 9319SOL    HW128856   2.604   2.713   1.242
 9319SOL    HW228857   2.595   2.842   1.141
 9320SOL     OW28858   4.284   0.221   5.170
 9320SOL    HW128859   4.227   0.199   5.090
 9320SOL    HW228860   4.244   0.298   5.220
 9321SOL     OW28861   0.908   1.124   5.715
 9321SOL    HW128862   0.899   1.178   5.632
 9321SOL    HW228863   0.834   1.148   5.778
 9322SOL     OW28864   0.027   4.491   0.003
 9322SOL    HW128865   0.052   4.555   6.947
 9322SOL    HW228866   6.945   4.484   0.009
 9323SOL     OW28867   2.116   1.590   5.363
 9323SOL    HW128868   2.108   1.684   5.330
 9323SOL    HW228869   2.212   1.570   5.384
 9324SOL     OW28870   2.092   3.778   2.485
 9324SOL    HW128871   2.075   3.680   2.476
 9324SOL    HW228872   2.083   3.822   2.396
 9325SOL     OW28873   6.988   0.043   0.792
 9325SOL    HW128874   6.896   0.035   0.753
 9325SOL    HW228875   0.038   0.010   0.725
 9326SOL     OW28876   2.980   5.119   6.654
 9326SOL    HW128877   3.026   5.042   6.699
 9326SOL    HW228878   2.937   5.088   6.570
 9327SOL     OW28879   4.348   6.541   2.711
 9327SOL    HW128880   4.417   6.609   2.686
 9327SOL    HW228881   4.391   6.451   2.718
 9328SOL     OW28882   1.829   0.932   4.988
 9328SOL    HW128883   1.781   0.953   5.073
 9328SOL    HW228884   1.847   0.833   4.984
 9329SOL     OW28885   6.860   5.597   0.892
 9329SOL    HW128886   6.941   5.655   0.906
 9329SOL    HW228887   6.889   5.506   0.863
 9330SOL     OW28888   0.515   0.348   6.009
 9330SOL    HW128889   0.520   0.371   5.911
 9330SOL    HW228890   0.540   0.253   6.022
 9331SOL     OW28891   2.042   1.363   6.208
 9331SOL    HW128892   1.997   1.411   6.283
 9331SOL    HW228893   2.094   1.429   6.153
 9332SOL     OW28894   4.242   5.377   0.342
 9332SOL    HW128895   4.221   5.285   0.376
 9332SOL    HW228896   4.331   5.377   0.297
 9333SOL     OW28897   3.889   5.483   6.430
 9333SOL    HW128898   3.905   5.494   6.528
 9333SOL    HW228899   3.809   5.538   6.404
 9334SOL     OW28900   4.836   6.542   4.242
 9334SOL    HW128901   4.883   6.621   4.203
 9334SOL    HW228902   4.902   6.485   4.292
 9335SOL     OW28903   1.837   1.588   0.001
 9335SOL    HW128904   1.746   1.565   6.985
 9335SOL    HW228905   1.837   1.680   0.040
 9336SOL     OW28906   5.596   7.008   4.194
 9336SOL    HW128907   5.506   6.973   4.168
 9336SOL    HW228908   5.637   0.039   4.116
 9337SOL     OW28909   4.785   1.324   6.408
 9337SOL    HW128910   4.703   1.373   6.380
 9337SOL    HW228911   4.778   1.229   6.378
 9338SOL     OW28912   6.628   6.367   0.983
 9338SOL    HW128913   6.610   6.327   0.894
 9338SOL    HW228914   6.551   6.427   1.009
 9339SOL     OW28915   5.879   6.097   0.216
 9339SOL    HW128916   5.828   6.081   0.132
 9339SOL    HW228917   5.892   6.196   0.229
 9340SOL     OW28918   4.041   4.739   2.624
 9340SOL    HW128919   4.076   4.649   2.597
 9340SOL    HW228920   3.970   4.768   2.560
 9341SOL     OW28921   6.491   4.046   1.043
 9341SOL    HW128922   6.505   4.070   0.947
 9341SOL    HW228923   6.472   4.129   1.095
 9342SOL     OW28924   2.140   0.764   4.575
 9342SOL    HW128925   2.122   0.789   4.480
 9342SOL    HW228926   2.235   0.782   4.598
 9343SOL     OW28927   4.939   3.763   1.941
 9343SOL    HW128928   5.023   3.803   1.906
 9343SOL    HW228929   4.895   3.828   2.004
 9344SOL     OW28930   5.248   5.390   0.258
 9344SOL    HW128931   5.152   5.373   0.278
 9344SOL    HW228932   5.293   5.429   0.338
 9345SOL     OW28933   0.180   4.633   2.227
 9345SOL    HW128934   0.273   4.656   2.197
 9345SOL    HW228935   0.165   4.671   2.318
 9346SOL     OW28936   5.111   6.987   2.162
 9346SOL    HW128937   5.103   7.016   2.067
 9346SOL    HW228938   5.110   6.887   2.166
 9347SOL     OW28939   2.929   6.006   0.221
 9347SOL    HW128940   2.969   5.959   0.299
 9347SOL    HW228941   2.830   6.000   0.225
 9348SOL     OW28942   2.709   5.810   2.461
 9348SOL    HW128943   2.736   5.801   2.557
 9348SOL    HW228944   2.609   5.816   2.454
 9349SOL     OW28945   6.789   5.457   2.824
 9349SOL    HW128946   6.757   5.454   2.729
 9349SOL    HW228947   6.721   5.413   2.882
 9350SOL     OW28948   0.151   1.833   4.021
 9350SOL    HW128949   0.183   1.752   3.972
 9350SOL    HW228950   0.140   1.909   3.956
 9351SOL     OW28951   2.740   0.277   6.305
 9351SOL    HW128952   2.757   0.205   6.237
 9351SOL    HW228953   2.824   0.298   6.354
 9352SOL     OW28954   2.916   3.030   5.764
 9352SOL    HW128955   2.961   2.986   5.686
 9352SOL    HW228956   2.874   3.115   5.733
 9353SOL     OW28957   1.965   4.247   1.107
 9353SOL    HW128958   1.911   4.321   1.146
 9353SOL    HW228959   2.062   4.264   1.126
 9354SOL     OW28960   6.662   1.676   0.202
 9354SOL    HW128961   6.698   1.751   0.256
 9354SOL    HW228962   6.642   1.707   0.109
 9355SOL     OW28963   6.570   1.861   4.573
 9355SOL    HW128964   6.589   1.866   4.475
 9355SOL    HW228965   6.652   1.830   4.622
 9356SOL     OW28966   4.207   5.754   1.146
 9356SOL    HW128967   4.302   5.724   1.158
 9356SOL    HW228968   4.183   5.750   1.049
 9357SOL     OW28969   3.398   3.343   6.587
 9357SOL    HW128970   3.307   3.382   6.600
 9357SOL    HW228971   3.416   3.275   6.657
 9358SOL     OW28972   6.763   3.531   2.099
 9358SOL    HW128973   6.688   3.480   2.141
 9358SOL    HW228974   6.726   3.606   2.045
 9359SOL     OW28975   1.307   3.680   5.861
 9359SOL    HW128976   1.333   3.586   5.837
 9359SOL    HW228977   1.386   3.740   5.847
 9360SOL     OW28978   1.407   6.944   5.954
 9360SOL    HW128979   1.493   6.893   5.967
 9360SOL    HW228980   1.330   6.887   5.983
 9361SOL     OW28981   2.151   6.208   3.439
 9361SOL    HW128982   2.115   6.184   3.529
 9361SOL    HW228983   2.205   6.292   3.447
 9362SOL     OW28984   1.310   2.063   2.296
 9362SOL    HW128985   1.349   2.153   2.277
 9362SOL    HW228986   1.365   1.993   2.250
 9363SOL     OW28987   4.122   5.567   1.713
 9363SOL    HW128988   4.095   5.491   1.655
 9363SOL    HW228989   4.060   5.644   1.699
 9364SOL     OW28990   4.496   3.144   5.893
 9364SOL    HW128991   4.529   3.050   5.893
 9364SOL    HW228992   4.446   3.161   5.808
 9365SOL     OW28993   2.802   2.005   5.074
 9365SOL    HW128994   2.817   2.053   5.160
 9365SOL    HW228995   2.716   2.036   5.033
 9366SOL     OW28996   2.863   0.699   6.873
 9366SOL    HW128997   2.883   0.646   6.790
 9366SOL    HW228998   2.944   0.748   6.902
 9367SOL     OW28999   0.062   6.094   2.979
 9367SOL    HW129000   0.109   6.046   3.053
 9367SOL    HW229001   7.017   6.030   2.933
 9368SOL     OW29002   2.448   1.561   3.804
 9368SOL    HW129003   2.405   1.650   3.815
 9368SOL    HW229004   2.517   1.566   3.733
 9369SOL     OW29005   0.018   0.497   5.176
 9369SOL    HW129006   0.070   0.419   5.142
 9369SOL    HW229007   6.949   0.504   5.126
 9370SOL     OW29008   4.607   0.193   2.220
 9370SOL    HW129009   4.541   0.192   2.295
 9370SOL    HW229010   4.581   0.265   2.154
 9371SOL     OW29011   2.118   5.125   0.750
 9371SOL    HW129012   2.172   5.190   0.803
 9371SOL    HW229013   2.082   5.054   0.810
 9372SOL     OW29014   5.111   5.957   3.043
 9372SOL    HW129015   5.134   5.930   3.136
 9372SOL    HW229016   5.091   5.875   2.988
 9373SOL     OW29017   4.094   2.219   2.590
 9373SOL    HW129018   4.025   2.188   2.524
 9373SOL    HW229019   4.064   2.195   2.683
 9374SOL     OW29020   0.545   2.697   0.868
 9374SOL    HW129021   0.544   2.797   0.864
 9374SOL    HW229022   0.640   2.665   0.873
 9375SOL     OW29023   6.204   1.700   3.190
 9375SOL    HW129024   6.129   1.656   3.240
 9375SOL    HW229025   6.167   1.745   3.108
 9376SOL     OW29026   2.729   4.167   1.001
 9376SOL    HW129027   2.805   4.104   0.986
 9376SOL    HW229028   2.750   4.256   0.961
 9377SOL     OW29029   1.806   5.435   3.679
 9377SOL    HW129030   1.789   5.349   3.632
 9377SOL    HW229031   1.862   5.494   3.621
 9378SOL     OW29032   1.054   0.865   5.136
 9378SOL    HW129033   1.064   0.850   5.234
 9378SOL    HW229034   1.108   0.945   5.109
 9379SOL     OW29035   4.577   6.092   4.837
 9379SOL    HW129036   4.484   6.058   4.848
 9379SOL    HW229037   4.621   6.099   4.926
 9380SOL     OW29038   5.650   4.549   4.842
 9380SOL    HW129039   5.749   4.542   4.832
 9380SOL    HW229040   5.610   4.585   4.758
 9381SOL     OW29041   3.079   3.015   5.980
 9381SOL    HW129042   3.010   3.010   5.908
 9381SOL    HW229043   3.162   3.057   5.944
 9382SOL     OW29044   3.368   0.991   3.309
 9382SOL    HW129045   3.323   0.906   3.338
 9382SOL    HW229046   3.335   1.067   3.365
 9383SOL     OW29047   2.018   6.201   4.497
 9383SOL    HW129048   2.045   6.120   4.444
 9383SOL    HW229049   2.073   6.207   4.580
 9384SOL     OW29050   2.889   6.647   1.461
 9384SOL    HW129051   2.808   6.588   1.450
 9384SOL    HW229052   2.860   6.743   1.464
 9385SOL     OW29053   3.895   0.757   2.726
 9385SOL    HW129054   3.822   0.718   2.671
 9385SOL    HW229055   3.973   0.695   2.727
 9386SOL     OW29056   2.529   6.404   5.011
 9386SOL    HW129057   2.568   6.339   4.946
 9386SOL    HW229058   2.504   6.357   5.095
 9387SOL     OW29059   2.492   1.591   0.062
 9387SOL    HW129060   2.407   1.557   0.102
 9387SOL    HW229061   2.564   1.522   0.074
 9388SOL     OW29062   1.715   5.063   2.781
 9388SOL    HW129063   1.800   5.054   2.730
 9388SOL    HW229064   1.651   4.991   2.753
 9389SOL     OW29065   1.479   6.429   4.861
 9389SOL    HW129066   1.418   6.474   4.796
 9389SOL    HW229067   1.550   6.492   4.891
 9390SOL     OW29068   3.916   5.243   4.736
 9390SOL    HW129069   3.921   5.145   4.716
 9390SOL    HW229070   3.965   5.294   4.664
 9391SOL     OW29071   2.368   1.348   4.813
 9391SOL    HW129072   2.346   1.251   4.820
 9391SOL    HW229073   2.283   1.401   4.808
 9392SOL     OW29074   0.045   0.659   4.839
 9392SOL    HW129075   0.011   0.638   4.931
 9392SOL    HW229076   6.995   0.716   4.791
 9393SOL     OW29077   2.620   6.653   5.279
 9393SOL    HW129078   2.651   6.614   5.365
 9393SOL    HW229079   2.653   6.747   5.271
 9394SOL     OW29080   0.281   1.447   2.070
 9394SOL    HW129081   0.348   1.501   2.121
 9394SOL    HW229082   0.205   1.422   2.131
 9395SOL     OW29083   2.803   1.732   0.615
 9395SOL    HW129084   2.849   1.657   0.663
 9395SOL    HW229085   2.863   1.767   0.544
 9396SOL     OW29086   2.015   5.355   3.856
 9396SOL    HW129087   1.927   5.374   3.812
 9396SOL    HW229088   2.080   5.428   3.833
 9397SOL     OW29089   3.527   0.072   0.014
 9397SOL    HW129090   3.567   0.130   0.085
 9397SOL    HW229091   3.595   0.007   6.999
 9398SOL     OW29092   0.197   1.168   5.291
 9398SOL    HW129093   0.199   1.072   5.261
 9398SOL    HW229094   0.104   1.191   5.319
 9399SOL     OW29095   6.909   1.863   5.910
 9399SOL    HW129096   6.982   1.866   5.979
 9399SOL    HW229097   6.892   1.768   5.884
 9400SOL     OW29098   4.200   1.415   2.260
 9400SOL    HW129099   4.282   1.470   2.277
 9400SOL    HW229100   4.184   1.409   2.161
 9401SOL     OW29101   5.558   0.001   3.408
 9401SOL    HW129102   5.649   0.030   3.438
 9401SOL    HW229103   5.489   0.062   3.446
 9402SOL     OW29104   1.313   4.727   3.888
 9402SOL    HW129105   1.255   4.646   3.900
 9402SOL    HW229106   1.377   4.733   3.965
 9403SOL     OW29107   6.372   1.488   2.915
 9403SOL    HW129108   6.335   1.518   2.827
 9403SOL    HW229109   6.323   1.534   2.989
 9404SOL     OW29110   1.382   3.086   6.644
 9404SOL    HW129111   1.403   3.066   6.740
 9404SOL    HW229112   1.358   3.183   6.635
 9405SOL     OW29113   1.591   5.290   2.780
 9405SOL    HW129114   1.615   5.323   2.688
 9405SOL    HW229115   1.628   5.198   2.792
 9406SOL     OW29116   6.701   2.863   5.883
 9406SOL    HW129117   6.737   2.957   5.889
 9406SOL    HW229118   6.770   2.804   5.841
 9407SOL     OW29119   2.559   5.323   3.251
 9407SOL    HW129120   2.459   5.319   3.251
 9407SOL    HW229121   2.596   5.230   3.253
 9408SOL     OW29122   4.602   1.925   6.455
 9408SOL    HW129123   4.665   1.977   6.398
 9408SOL    HW229124   4.631   1.830   6.458
 9409SOL     OW29125   6.147   4.909   6.232
 9409SOL    HW129126   6.228   4.967   6.222
 9409SOL    HW229127   6.080   4.954   6.291
 9410SOL     OW29128   3.025   0.197   2.209
 9410SOL    HW129129   3.064   0.279   2.251
 9410SOL    HW229130   3.081   0.170   2.131
 9411SOL     OW29131   3.316   3.206   2.042
 9411SOL    HW129132   3.228   3.228   2.084
 9411SOL    HW229133   3.385   3.194   2.113
 9412SOL     OW29134   6.885   2.537   1.571
 9412SOL    HW129135   6.888   2.461   1.507
 9412SOL    HW229136   6.963   2.597   1.556
 9413SOL     OW29137   3.516   5.636   4.041
 9413SOL    HW129138   3.567   5.636   3.955
 9413SOL    HW229139   3.432   5.689   4.030
 9414SOL     OW29140   2.947   0.683   3.521
 9414SOL    HW129141   2.873   0.617   3.528
 9414SOL    HW229142   2.938   0.735   3.436
 9415SOL     OW29143   3.236   6.730   2.297
 9415SOL    HW129144   3.146   6.761   2.266
 9415SOL    HW229145   3.225   6.659   2.366
 9416SOL     OW29146   0.518   2.371   1.144
 9416SOL    HW129147   0.572   2.346   1.064
 9416SOL    HW229148   0.478   2.462   1.130
 9417SOL     OW29149   4.184   0.017   6.000
 9417SOL    HW129150   4.152   0.071   5.922
 9417SOL    HW229151   4.272   6.993   5.979
 9418SOL     OW29152   3.852   6.206   1.126
 9418SOL    HW129153   3.820   6.136   1.189
 9418SOL    HW229154   3.952   6.201   1.117
 9419SOL     OW29155   3.730   5.405   5.938
 9419SOL    HW129156   3.655   5.471   5.930
 9419SOL    HW229157   3.816   5.450   5.917
 9420SOL     OW29158   6.696   3.160   5.635
 9420SOL    HW129159   6.755   3.199   5.565
 9420SOL    HW229160   6.626   3.103   5.593
 9421SOL     OW29161   1.954   6.879   4.670
 9421SOL    HW129162   1.974   6.977   4.675
 9421SOL    HW229163   2.038   6.830   4.648
 9422SOL     OW29164   4.706   5.915   3.201
 9422SOL    HW129165   4.707   5.996   3.141
 9422SOL    HW229166   4.714   5.833   3.145
 9423SOL     OW29167   3.952   0.558   3.979
 9423SOL    HW129168   3.857   0.587   3.991
 9423SOL    HW229169   4.006   0.635   3.945
 9424SOL     OW29170   5.007   0.731   4.846
 9424SOL    HW129171   5.027   0.817   4.893
 9424SOL    HW229172   5.091   0.696   4.805
 9425SOL     OW29173   6.171   3.107   6.788
 9425SOL    HW129174   6.211   3.192   6.755
 9425SOL    HW229175   6.221   3.029   6.751
 9426SOL     OW29176   3.530   2.247   0.129
 9426SOL    HW129177   3.593   2.318   0.098
 9426SOL    HW229178   3.436   2.282   0.122
 9427SOL     OW29179   3.196   5.664   3.382
 9427SOL    HW129180   3.245   5.657   3.469
 9427SOL    HW229181   3.113   5.608   3.387
 9428SOL     OW29182   5.990   0.785   1.246
 9428SOL    HW129183   6.073   0.763   1.298
 9428SOL    HW229184   6.015   0.828   1.159
 9429SOL     OW29185   2.050   3.422   2.144
 9429SOL    HW129186   2.116   3.462   2.080
 9429SOL    HW229187   2.085   3.334   2.176
 9430SOL     OW29188   0.687   4.051   2.425
 9430SOL    HW129189   0.607   3.992   2.412
 9430SOL    HW229190   0.680   4.098   2.513
 9431SOL     OW29191   6.322   4.103   1.744
 9431SOL    HW129192   6.417   4.071   1.749
 9431SOL    HW229193   6.270   4.043   1.683
 9432SOL     OW29194   4.114   0.510   3.227
 9432SOL    HW129195   4.106   0.486   3.130
 9432SOL    HW229196   4.065   0.595   3.245
 9433SOL     OW29197   2.597   5.460   3.026
 9433SOL    HW129198   2.652   5.384   2.993
 9433SOL    HW229199   2.571   5.445   3.121
 9434SOL     OW29200   5.454   4.989   3.103
 9434SOL    HW129201   5.543   5.033   3.101
 9434SOL    HW229202   5.383   5.058   3.117
 9435SOL     OW29203   0.786   2.917   4.597
 9435SOL    HW129204   0.877   2.903   4.557
 9435SOL    HW229205   0.722   2.851   4.560
 9436SOL     OW29206   1.206   2.740   1.885
 9436SOL    HW129207   1.249   2.830   1.881
 9436SOL    HW229208   1.113   2.746   1.850
 9437SOL     OW29209   2.748   5.981   3.010
 9437SOL    HW129210   2.753   5.881   3.008
 9437SOL    HW229211   2.825   6.017   3.063
 9438SOL     OW29212   0.055   0.482   1.870
 9438SOL    HW129213   0.103   0.425   1.937
 9438SOL    HW229214   0.009   0.557   1.917
 9439SOL     OW29215   0.578   3.536   1.614
 9439SOL    HW129216   0.559   3.441   1.639
 9439SOL    HW229217   0.671   3.543   1.577
 9440SOL     OW29218   4.182   4.973   3.543
 9440SOL    HW129219   4.093   4.959   3.500
 9440SOL    HW229220   4.254   4.974   3.474
 9441SOL     OW29221   0.919   3.288   4.822
 9441SOL    HW129222   1.002   3.287   4.877
 9441SOL    HW229223   0.866   3.204   4.839
 9442SOL     OW29224   4.664   3.159   0.339
 9442SOL    HW129225   4.758   3.140   0.309
 9442SOL    HW229226   4.603   3.157   0.260
 9443SOL     OW29227   2.159   5.601   0.911
 9443SOL    HW129228   2.072   5.571   0.872
 9443SOL    HW229229   2.152   5.603   1.011
 9444SOL     OW29230   1.281   3.553   6.431
 9444SOL    HW129231   1.364   3.506   6.403
 9444SOL    HW229232   1.218   3.488   6.474
 9445SOL     OW29233   5.647   3.331   3.480
 9445SOL    HW129234   5.558   3.316   3.438
 9445SOL    HW229235   5.699   3.398   3.427
 9446SOL     OW29236   6.254   6.108   4.321
 9446SOL    HW129237   6.177   6.126   4.260
 9446SOL    HW229238   6.294   6.194   4.351
 9447SOL     OW29239   5.727   3.437   4.733
 9447SOL    HW129240   5.815   3.391   4.747
 9447SOL    HW229241   5.742   3.534   4.713
 9448SOL     OW29242   6.792   6.907   6.789
 9448SOL    HW129243   6.722   6.886   6.858
 9448SOL    HW229244   6.780   7.001   6.757
 9449SOL     OW29245   0.055   6.163   0.124
 9449SOL    HW129246   0.126   6.169   0.053
 9449SOL    HW229247   0.000   6.081   0.109
 9450SOL     OW29248   2.815   5.589   5.470
 9450SOL    HW129249   2.898   5.641   5.489
 9450SOL    HW229250   2.774   5.621   5.385
 9451SOL     OW29251   4.331   6.519   5.921
 9451SOL    HW129252   4.270   6.469   5.861
 9451SOL    HW229253   4.325   6.482   6.013
 9452SOL     OW29254   1.976   4.032   0.041
 9452SOL    HW129255   1.968   3.962   0.112
 9452SOL    HW229256   2.002   3.989   6.972
 9453SOL     OW29257   1.860   4.504   3.120
 9453SOL    HW129258   1.828   4.473   3.210
 9453SOL    HW229259   1.791   4.560   3.077
 9454SOL     OW29260   3.270   3.133   6.796
 9454SOL    HW129261   3.222   3.106   6.879
 9454SOL    HW229262   3.211   3.118   6.717
 9455SOL     OW29263   3.264   1.790   3.180
 9455SOL    HW129264   3.310   1.773   3.093
 9455SOL    HW229265   3.166   1.806   3.164
 9456SOL     OW29266   1.392   3.489   0.995
 9456SOL    HW129267   1.425   3.423   0.927
 9456SOL    HW229268   1.293   3.483   1.002
 9457SOL     OW29269   2.129   3.924   5.197
 9457SOL    HW129270   2.110   3.848   5.135
 9457SOL    HW229271   2.212   3.971   5.168
 9458SOL     OW29272   1.921   3.102   6.673
 9458SOL    HW129273   2.017   3.130   6.676
 9458SOL    HW229274   1.914   3.004   6.688
 9459SOL     OW29275   5.129   4.549   3.271
 9459SOL    HW129276   5.169   4.473   3.219
 9459SOL    HW229277   5.200   4.616   3.292
 9460SOL     OW29278   0.557   2.447   3.762
 9460SOL    HW129279   0.552   2.466   3.860
 9460SOL    HW229280   0.475   2.480   3.717
 9461SOL     OW29281   5.926   1.363   2.309
 9461SOL    HW129282   6.024   1.340   2.309
 9461SOL    HW229283   5.876   1.296   2.363
 9462SOL     OW29284   2.133   3.747   2.969
 9462SOL    HW129285   2.127   3.779   3.063
 9462SOL    HW229286   2.160   3.823   2.910
 9463SOL     OW29287   0.330   0.927   1.633
 9463SOL    HW129288   0.364   1.016   1.664
 9463SOL    HW229289   0.407   0.864   1.624
 9464SOL     OW29290   6.190   0.280   1.367
 9464SOL    HW129291   6.151   0.338   1.296
 9464SOL    HW229292   6.117   0.244   1.426
 9465SOL     OW29293   1.930   5.285   2.865
 9465SOL    HW129294   1.947   5.281   2.963
 9465SOL    HW229295   1.904   5.194   2.832
 9466SOL     OW29296   4.674   4.702   5.680
 9466SOL    HW129297   4.604   4.636   5.706
 9466SOL    HW229298   4.749   4.699   5.747
 9467SOL     OW29299   1.263   3.030   1.534
 9467SOL    HW129300   1.354   3.071   1.532
 9467SOL    HW229301   1.270   2.934   1.558
 9468SOL     OW29302   5.618   2.814   5.954
 9468SOL    HW129303   5.673   2.734   5.977
 9468SOL    HW229304   5.604   2.819   5.855
 9469SOL     OW29305   6.530   5.818   1.827
 9469SOL    HW129306   6.514   5.721   1.843
 9469SOL    HW229307   6.628   5.837   1.827
 9470SOL     OW29308   4.255   3.822   5.231
 9470SOL    HW129309   4.268   3.907   5.282
 9470SOL    HW229310   4.332   3.761   5.248
 9471SOL     OW29311   6.664   2.254   4.397
 9471SOL    HW129312   6.689   2.272   4.493
 9471SOL    HW229313   6.565   2.242   4.390
 9472SOL     OW29314   5.788   3.789   5.063
 9472SOL    HW129315   5.746   3.699   5.071
 9472SOL    HW229316   5.876   3.789   5.111
 9473SOL     OW29317   2.762   5.600   5.967
 9473SOL    HW129318   2.677   5.549   5.951
 9473SOL    HW229319   2.840   5.540   5.948
 9474SOL     OW29320   0.191   3.047   0.153
 9474SOL    HW129321   0.277   3.023   0.109
 9474SOL    HW229322   0.171   2.981   0.226
 9475SOL     OW29323   3.740   3.232   6.611
 9475SOL    HW129324   3.676   3.230   6.688
 9475SOL    HW229325   3.794   3.316   6.615
 9476SOL     OW29326   2.982   3.945   4.892
 9476SOL    HW129327   2.997   3.864   4.949
 9476SOL    HW229328   2.884   3.965   4.886
 9477SOL     OW29329   0.284   3.523   1.710
 9477SOL    HW129330   0.295   3.448   1.644
 9477SOL    HW229331   0.370   3.536   1.758
 9478SOL     OW29332   5.617   3.404   6.614
 9478SOL    HW129333   5.552   3.423   6.688
 9478SOL    HW229334   5.675   3.327   6.640
 9479SOL     OW29335   4.446   6.064   6.796
 9479SOL    HW129336   4.399   5.980   6.771
 9479SOL    HW229337   4.486   6.106   6.714
 9480SOL     OW29338   4.365   3.973   1.115
 9480SOL    HW129339   4.419   3.940   1.037
 9480SOL    HW229340   4.359   3.901   1.184
 9481SOL     OW29341   5.097   3.661   2.371
 9481SOL    HW129342   5.041   3.699   2.445
 9481SOL    HW229343   5.110   3.563   2.387
 9482SOL     OW29344   6.743   0.597   3.190
 9482SOL    HW129345   6.709   0.564   3.102
 9482SOL    HW229346   6.715   0.533   3.262
 9483SOL     OW29347   1.041   1.659   1.769
 9483SOL    HW129348   0.997   1.585   1.718
 9483SOL    HW229349   1.123   1.689   1.720
 9484SOL     OW29350   3.192   1.214   3.819
 9484SOL    HW129351   3.189   1.305   3.778
 9484SOL    HW229352   3.218   1.146   3.750
 9485SOL     OW29353   0.332   0.548   1.811
 9485SOL    HW129354   0.269   0.505   1.876
 9485SOL    HW229355   0.306   0.522   1.718
 9486SOL     OW29356   2.996   6.173   1.048
 9486SOL    HW129357   2.975   6.229   1.128
 9486SOL    HW229358   2.939   6.201   0.971
 9487SOL     OW29359   3.622   3.526   3.278
 9487SOL    HW129360   3.679   3.497   3.202
 9487SOL    HW229361   3.670   3.509   3.364
 9488SOL     OW29362   1.244   6.330   0.750
 9488SOL    HW129363   1.162   6.382   0.728
 9488SOL    HW229364   1.299   6.380   0.818
 9489SOL     OW29365   4.366   4.299   1.577
 9489SOL    HW129366   4.443   4.357   1.554
 9489SOL    HW229367   4.383   4.254   1.665
 9490SOL     OW29368   0.154   5.526   0.871
 9490SOL    HW129369   0.177   5.526   0.968
 9490SOL    HW229370   0.237   5.520   0.816
 9491SOL     OW29371   6.616   4.609   3.815
 9491SOL    HW129372   6.680   4.647   3.881
 9491SOL    HW229373   6.649   4.626   3.722
 9492SOL     OW29374   3.395   2.899   2.844
 9492SOL    HW129375   3.479   2.845   2.846
 9492SOL    HW229376   3.373   2.930   2.936
 9493SOL     OW29377   3.696   5.067   3.909
 9493SOL    HW129378   3.691   4.980   3.958
 9493SOL    HW229379   3.785   5.110   3.928
 9494SOL     OW29380   4.634   4.931   1.773
 9494SOL    HW129381   4.544   4.898   1.799
 9494SOL    HW229382   4.704   4.870   1.811
 9495SOL     OW29383   6.631   1.754   3.287
 9495SOL    HW129384   6.621   1.656   3.303
 9495SOL    HW229385   6.686   1.795   3.361
 9496SOL     OW29386   6.113   4.986   1.334
 9496SOL    HW129387   6.210   4.961   1.341
 9496SOL    HW229388   6.057   4.910   1.368
 9497SOL     OW29389   5.564   6.160   6.887
 9497SOL    HW129390   5.641   6.105   6.920
 9497SOL    HW229391   5.517   6.112   6.813
 9498SOL     OW29392   5.002   6.766   4.204
 9498SOL    HW129393   4.980   6.851   4.156
 9498SOL    HW229394   5.078   6.783   4.267
 9499SOL     OW29395   1.745   5.188   6.253
 9499SOL    HW129396   1.648   5.196   6.273
 9499SOL    HW229397   1.758   5.163   6.158
 9500SOL     OW29398   5.821   0.722   0.955
 9500SOL    HW129399   5.878   0.796   0.918
 9500SOL    HW229400   5.757   0.761   1.022
 9501SOL     OW29401   2.745   1.303   5.106
 9501SOL    HW129402   2.675   1.356   5.057
 9501SOL    HW229403   2.807   1.262   5.040
 9502SOL     OW29404   6.495   2.316   5.441
 9502SOL    HW129405   6.438   2.270   5.372
 9502SOL    HW229406   6.443   2.391   5.481
 9503SOL     OW29407   0.271   1.564   1.597
 9503SOL    HW129408   0.286   1.606   1.686
 9503SOL    HW229409   0.327   1.610   1.528
 9504SOL     OW29410   6.557   2.348   1.323
 9504SOL    HW129411   6.578   2.275   1.388
 9504SOL    HW229412   6.529   2.430   1.373
 9505SOL     OW29413   5.364   5.035   3.374
 9505SOL    HW129414   5.421   5.073   3.447
 9505SOL    HW229415   5.420   5.017   3.293
 9506SOL     OW29416   0.901   2.550   6.120
 9506SOL    HW129417   0.923   2.501   6.204
 9506SOL    HW229418   0.984   2.589   6.081
 9507SOL     OW29419   0.925   2.260   3.315
 9507SOL    HW129420   0.963   2.176   3.354
 9507SOL    HW229421   0.995   2.305   3.259
 9508SOL     OW29422   6.701   3.388   1.107
 9508SOL    HW129423   6.704   3.394   1.206
 9508SOL    HW229424   6.658   3.470   1.070
 9509SOL     OW29425   0.661   0.769   4.642
 9509SOL    HW129426   0.729   0.824   4.593
 9509SOL    HW229427   0.700   0.681   4.666
 9510SOL     OW29428   1.496   3.443   2.083
 9510SOL    HW129429   1.581   3.495   2.082
 9510SOL    HW229430   1.440   3.470   2.160
 9511SOL     OW29431   0.546   1.075   0.480
 9511SOL    HW129432   0.471   1.137   0.503
 9511SOL    HW229433   0.512   1.002   0.421
 9512SOL     OW29434   5.147   1.786   1.657
 9512SOL    HW129435   5.135   1.749   1.564
 9512SOL    HW229436   5.244   1.805   1.672
 9513SOL     OW29437   1.937   3.188   6.045
 9513SOL    HW129438   1.958   3.101   6.000
 9513SOL    HW229439   1.891   3.170   6.132
 9514SOL     OW29440   1.695   4.747   6.346
 9514SOL    HW129441   1.704   4.844   6.370
 9514SOL    HW229442   1.703   4.737   6.247
 9515SOL     OW29443   1.433   6.139   1.382
 9515SOL    HW129444   1.435   6.096   1.473
 9515SOL    HW229445   1.374   6.085   1.322
 9516SOL     OW29446   5.291   4.183   5.174
 9516SOL    HW129447   5.194   4.167   5.193
 9516SOL    HW229448   5.317   4.132   5.092
 9517SOL     OW29449   1.174   4.747   0.807
 9517SOL    HW129450   1.078   4.718   0.803
 9517SOL    HW229451   1.229   4.674   0.848
 9518SOL     OW29452   1.566   1.529   6.931
 9518SOL    HW129453   1.528   1.601   6.872
 9518SOL    HW229454   1.510   1.521   7.013
 9519SOL     OW29455   3.605   4.010   4.331
 9519SOL    HW129456   3.543   4.047   4.262
 9519SOL    HW229457   3.631   4.082   4.394
 9520SOL     OW29458   0.772   1.430   3.202
 9520SOL    HW129459   0.857   1.479   3.222
 9520SOL    HW229460   0.750   1.368   3.277
 9521SOL     OW29461   5.180   4.669   1.448
 9521SOL    HW129462   5.129   4.603   1.393
 9521SOL    HW229463   5.255   4.708   1.394
 9522SOL     OW29464   3.831   5.040   1.484
 9522SOL    HW129465   3.789   4.957   1.449
 9522SOL    HW229466   3.760   5.098   1.524
 9523SOL     OW29467   2.897   5.195   4.684
 9523SOL    HW129468   2.857   5.125   4.625
 9523SOL    HW229469   2.990   5.169   4.708
 9524SOL     OW29470   3.028   3.445   0.592
 9524SOL    HW129471   3.088   3.506   0.540
 9524SOL    HW229472   2.974   3.389   0.530
 9525SOL     OW29473   2.394   2.437   6.076
 9525SOL    HW129474   2.309   2.475   6.039
 9525SOL    HW229475   2.471   2.464   6.017
 9526SOL     OW29476   6.305   4.738   1.169
 9526SOL    HW129477   6.276   4.831   1.146
 9526SOL    HW229478   6.404   4.735   1.175
 9527SOL     OW29479   0.589   1.454   4.210
 9527SOL    HW129480   0.682   1.483   4.233
 9527SOL    HW229481   0.534   1.450   4.293
 9528SOL     OW29482   6.457   1.473   1.073
 9528SOL    HW129483   6.419   1.545   1.130
 9528SOL    HW229484   6.556   1.466   1.088
 9529SOL     OW29485   6.436   3.532   6.357
 9529SOL    HW129486   6.493   3.603   6.316
 9529SOL    HW229487   6.340   3.553   6.342
 9530SOL     OW29488   1.605   2.936   2.866
 9530SOL    HW129489   1.569   3.009   2.924
 9530SOL    HW229490   1.705   2.936   2.872
 9531SOL     OW29491   5.097   4.953   2.694
 9531SOL    HW129492   5.077   4.994   2.605
 9531SOL    HW229493   5.181   4.993   2.731
 9532SOL     OW29494   0.249   5.806   1.451
 9532SOL    HW129495   0.340   5.841   1.473
 9532SOL    HW229496   0.184   5.882   1.444
 9533SOL     OW29497   0.380   5.790   5.342
 9533SOL    HW129498   0.423   5.841   5.417
 9533SOL    HW229499   0.445   5.781   5.266
 9534SOL     OW29500   0.101   4.358   5.008
 9534SOL    HW129501   0.046   4.277   4.986
 9534SOL    HW229502   0.173   4.332   5.073
 9535SOL     OW29503   2.116   0.659   6.066
 9535SOL    HW129504   2.199   0.639   6.014
 9535SOL    HW229505   2.129   0.743   6.119
 9536SOL     OW29506   2.853   4.302   6.048
 9536SOL    HW129507   2.876   4.244   5.970
 9536SOL    HW229508   2.936   4.331   6.095
 9537SOL     OW29509   2.657   0.135   4.567
 9537SOL    HW129510   2.663   0.048   4.517
 9537SOL    HW229511   2.604   0.200   4.512
 9538SOL     OW29512   5.532   1.029   3.390
 9538SOL    HW129513   5.467   1.006   3.462
 9538SOL    HW229514   5.505   1.117   3.349
 9539SOL     OW29515   3.520   3.387   4.897
 9539SOL    HW129516   3.586   3.351   4.831
 9539SOL    HW229517   3.564   3.398   4.986
 9540SOL     OW29518   6.116   4.276   4.215
 9540SOL    HW129519   6.045   4.266   4.145
 9540SOL    HW229520   6.201   4.234   4.182
 9541SOL     OW29521   3.245   0.496   5.872
 9541SOL    HW129522   3.328   0.445   5.847
 9541SOL    HW229523   3.206   0.537   5.789
 9542SOL     OW29524   4.794   4.011   4.793
 9542SOL    HW129525   4.824   4.070   4.718
 9542SOL    HW229526   4.778   3.919   4.757
 9543SOL     OW29527   3.456   6.810   5.960
 9543SOL    HW129528   3.397   6.778   6.033
 9543SOL    HW229529   3.542   6.844   5.998
 9544SOL     OW29530   7.005   2.370   2.937
 9544SOL    HW129531   7.016   2.306   2.862
 9544SOL    HW229532   6.977   2.320   3.020
 9545SOL     OW29533   5.618   5.832   4.536
 9545SOL    HW129534   5.645   5.884   4.617
 9545SOL    HW229535   5.523   5.852   4.514
 9546SOL     OW29536   3.982   1.745   5.117
 9546SOL    HW129537   3.910   1.807   5.083
 9546SOL    HW229538   3.957   1.714   5.209
 9547SOL     OW29539   2.394   6.161   4.193
 9547SOL    HW129540   2.443   6.138   4.109
 9547SOL    HW229541   2.323   6.228   4.172
 9548SOL     OW29542   6.257   5.261   6.352
 9548SOL    HW129543   6.241   5.356   6.378
 9548SOL    HW229544   6.241   5.201   6.430
 9549SOL     OW29545   2.565   3.287   1.070
 9549SOL    HW129546   2.493   3.259   1.134
 9549SOL    HW229547   2.536   3.268   0.977
 9550SOL     OW29548   0.298   0.989   0.215
 9550SOL    HW129549   0.278   1.039   0.299
 9550SOL    HW229550   0.365   0.918   0.234
 9551SOL     OW29551   5.757   1.926   4.920
 9551SOL    HW129552   5.686   1.976   4.871
 9551SOL    HW229553   5.724   1.904   5.012
 9552SOL     OW29554   1.494   6.673   4.176
 9552SOL    HW129555   1.405   6.719   4.171
 9552SOL    HW229556   1.536   6.671   4.085
 9553SOL     OW29557   6.377   2.996   6.352
 9553SOL    HW129558   6.406   3.086   6.318
 9553SOL    HW229559   6.281   2.981   6.329
 9554SOL     OW29560   2.249   6.741   1.967
 9554SOL    HW129561   2.244   6.683   1.886
 9554SOL    HW229562   2.220   6.834   1.943
 9555SOL     OW29563   1.095   0.487   3.117
 9555SOL    HW129564   1.103   0.427   3.038
 9555SOL    HW229565   1.093   0.583   3.087
 9556SOL     OW29566   1.654   3.274   1.739
 9556SOL    HW129567   1.731   3.210   1.743
 9556SOL    HW229568   1.689   3.368   1.747
 9557SOL     OW29569   0.307   6.153   2.491
 9557SOL    HW129570   0.349   6.240   2.468
 9557SOL    HW229571   0.358   6.110   2.567
 9558SOL     OW29572   6.249   6.339   4.914
 9558SOL    HW129573   6.177   6.315   4.850
 9558SOL    HW229574   6.217   6.413   4.974
 9559SOL     OW29575   0.551   4.501   0.948
 9559SOL    HW129576   0.564   4.441   0.869
 9559SOL    HW229577   0.476   4.467   1.004
 9560SOL     OW29578   1.505   1.305   3.122
 9560SOL    HW129579   1.518   1.380   3.058
 9560SOL    HW229580   1.589   1.252   3.129
 9561SOL     OW29581   1.566   0.311   0.529
 9561SOL    HW129582   1.506   0.232   0.537
 9561SOL    HW229583   1.661   0.281   0.525
 9562SOL     OW29584   2.793   0.245   5.279
 9562SOL    HW129585   2.821   0.325   5.225
 9562SOL    HW229586   2.696   0.254   5.304
 9563SOL     OW29587   6.236   5.842   0.620
 9563SOL    HW129588   6.253   5.856   0.523
 9563SOL    HW229589   6.320   5.810   0.664
 9564SOL     OW29590   2.699   6.922   0.967
 9564SOL    HW129591   2.738   7.004   1.010
 9564SOL    HW229592   2.648   6.948   0.885
 9565SOL     OW29593   3.757   0.225   4.911
 9565SOL    HW129594   3.809   0.147   4.877
 9565SOL    HW229595   3.717   0.275   4.835
 9566SOL     OW29596   1.891   5.181   6.901
 9566SOL    HW129597   1.928   5.274   6.897
 9566SOL    HW229598   1.956   5.117   6.860
 9567SOL     OW29599   5.088   4.866   0.774
 9567SOL    HW129600   5.146   4.857   0.693
 9567SOL    HW229601   5.049   4.777   0.796
 9568SOL     OW29602   4.322   2.327   6.662
 9568SOL    HW129603   4.416   2.310   6.632
 9568SOL    HW229604   4.263   2.252   6.630
 9569SOL     OW29605   0.310   1.389   2.519
 9569SOL    HW129606   0.221   1.417   2.554
 9569SOL    HW229607   0.298   1.329   2.440
 9570SOL     OW29608   0.779   3.006   1.888
 9570SOL    HW129609   0.797   2.949   1.969
 9570SOL    HW229610   0.735   3.091   1.917
 9571SOL     OW29611   4.127   4.349   6.060
 9571SOL    HW129612   4.045   4.406   6.065
 9571SOL    HW229613   4.106   4.257   6.093
 9572SOL     OW29614   2.269   4.873   1.544
 9572SOL    HW129615   2.224   4.834   1.624
 9572SOL    HW229616   2.224   4.842   1.461
 9573SOL     OW29617   0.309   1.911   6.654
 9573SOL    HW129618   0.229   1.947   6.606
 9573SOL    HW229619   0.383   1.979   6.652
 9574SOL     OW29620   3.993   3.119   3.548
 9574SOL    HW129621   4.037   3.119   3.637
 9574SOL    HW229622   3.973   3.213   3.520
 9575SOL     OW29623   0.370   1.403   1.339
 9575SOL    HW129624   0.369   1.474   1.269
 9575SOL    HW229625   0.319   1.434   1.419
 9576SOL     OW29626   2.408   0.174   1.939
 9576SOL    HW129627   2.461   0.126   2.009
 9576SOL    HW229628   2.341   0.234   1.983
 9577SOL     OW29629   1.486   0.667   5.843
 9577SOL    HW129630   1.411   0.731   5.857
 9577SOL    HW229631   1.461   0.601   5.772
 9578SOL     OW29632   0.765   4.021   3.587
 9578SOL    HW129633   0.790   3.944   3.645
 9578SOL    HW229634   0.698   3.991   3.519
 9579SOL     OW29635   1.480   4.667   2.882
 9579SOL    HW129636   1.488   4.684   2.980
 9579SOL    HW229637   1.404   4.605   2.865
 9580SOL     OW29638   4.271   3.110   0.509
 9580SOL    HW129639   4.212   3.180   0.470
 9580SOL    HW229640   4.361   3.150   0.530
 9581SOL     OW29641   0.413   5.524   6.328
 9581SOL    HW129642   0.411   5.525   6.228
 9581SOL    HW229643   0.351   5.453   6.361
 9582SOL     OW29644   4.581   5.337   6.228
 9582SOL    HW129645   4.576   5.397   6.147
 9582SOL    HW229646   4.494   5.291   6.240
 9583SOL     OW29647   3.950   4.734   1.220
 9583SOL    HW129648   3.967   4.635   1.227
 9583SOL    HW229649   3.894   4.763   1.298
 9584SOL     OW29650   0.101   5.859   0.296
 9584SOL    HW129651   0.039   5.795   0.250
 9584SOL    HW229652   0.051   5.944   0.316
 9585SOL     OW29653   6.334   0.529   4.331
 9585SOL    HW129654   6.352   0.580   4.415
 9585SOL    HW229655   6.343   0.591   4.252
 9586SOL     OW29656   6.072   4.554   2.791
 9586SOL    HW129657   5.993   4.595   2.837
 9586SOL    HW229658   6.039   4.498   2.715
 9587SOL     OW29659   0.061   1.113   1.780
 9587SOL    HW129660   0.084   1.015   1.773
 9587SOL    HW229661   0.105   1.162   1.705
 9588SOL     OW29662   0.294   1.680   1.875
 9588SOL    HW129663   0.340   1.669   1.963
 9588SOL    HW229664   0.195   1.674   1.889
 9589SOL     OW29665   2.146   5.153   5.981
 9589SOL    HW129666   2.073   5.217   6.004
 9589SOL    HW229667   2.224   5.203   5.944
 9590SOL     OW29668   6.765   3.259   1.752
 9590SOL    HW129669   6.692   3.326   1.734
 9590SOL    HW229670   6.733   3.168   1.727
 9591SOL     OW29671   3.627   6.281   6.473
 9591SOL    HW129672   3.617   6.187   6.506
 9591SOL    HW229673   3.579   6.292   6.386
 9592SOL     OW29674   3.619   4.273   0.877
 9592SOL    HW129675   3.563   4.311   0.803
 9592SOL    HW229676   3.585   4.182   0.900
 9593SOL     OW29677   0.367   1.087   4.893
 9593SOL    HW129678   0.428   1.011   4.917
 9593SOL    HW229679   0.272   1.059   4.903
 9594SOL     OW29680   1.347   6.089   3.279
 9594SOL    HW129681   1.425   6.068   3.218
 9594SOL    HW229682   1.382   6.116   3.368
 9595SOL     OW29683   1.855   4.386   5.207
 9595SOL    HW129684   1.771   4.343   5.240
 9595SOL    HW229685   1.932   4.325   5.221
 9596SOL     OW29686   0.267   5.487   0.066
 9596SOL    HW129687   0.350   5.473   0.012
 9596SOL    HW229688   0.238   5.583   0.058
 9597SOL     OW29689   0.643   4.761   1.043
 9597SOL    HW129690   0.660   4.830   0.973
 9597SOL    HW229691   0.603   4.680   1.002
 9598SOL     OW29692   1.731   3.251   4.546
 9598SOL    HW129693   1.795   3.322   4.516
 9598SOL    HW229694   1.651   3.252   4.487
 9599SOL     OW29695   3.972   6.943   5.020
 9599SOL    HW129696   4.026   6.865   4.987
 9599SOL    HW229697   3.936   6.923   5.112
 9600SOL     OW29698   2.068   0.041   6.791
 9600SOL    HW129699   2.087   6.980   6.850
 9600SOL    HW229700   1.971   0.066   6.798
 9601SOL     OW29701   6.181   3.852   1.350
 9601SOL    HW129702   6.252   3.830   1.417
 9601SOL    HW229703   6.209   3.820   1.260
 9602SOL     OW29704   6.883   5.375   6.481
 9602SOL    HW129705   6.810   5.432   6.519
 9602SOL    HW229706   6.929   5.326   6.555
 9603SOL     OW29707   3.796   1.740   4.747
 9603SOL    HW129708   3.718   1.765   4.804
 9603SOL    HW229709   3.813   1.642   4.755
 9604SOL     OW29710   3.879   0.603   0.160
 9604SOL    HW129711   3.800   0.555   0.200
 9604SOL    HW229712   3.913   0.552   0.082
 9605SOL     OW29713   0.259   5.013   4.037
 9605SOL    HW129714   0.277   4.923   3.996
 9605SOL    HW229715   0.214   5.001   4.125
 9606SOL     OW29716   2.129   6.328   6.054
 9606SOL    HW129717   2.221   6.323   6.017
 9606SOL    HW229718   2.093   6.421   6.043
 9607SOL     OW29719   1.549   1.501   0.817
 9607SOL    HW129720   1.563   1.423   0.756
 9607SOL    HW229721   1.523   1.469   0.908
 9608SOL     OW29722   6.732   6.268   2.259
 9608SOL    HW129723   6.826   6.269   2.225
 9608SOL    HW229724   6.680   6.199   2.209
 9609SOL     OW29725   2.061   3.792   6.166
 9609SOL    HW129726   2.100   3.747   6.086
 9609SOL    HW229727   1.966   3.762   6.177
 9610SOL     OW29728   2.043   5.168   4.082
 9610SOL    HW129729   2.128   5.206   4.045
 9610SOL    HW229730   1.966   5.225   4.051
 9611SOL     OW29731   0.169   6.879   6.677
 9611SOL    HW129732   0.105   6.804   6.691
 9611SOL    HW229733   0.166   6.941   6.755
 9612SOL     OW29734   0.495   3.499   1.926
 9612SOL    HW129735   0.516   3.528   2.019
 9612SOL    HW229736   0.570   3.523   1.865
 9613SOL     OW29737   4.351   6.288   3.953
 9613SOL    HW129738   4.300   6.257   3.873
 9613SOL    HW229739   4.439   6.327   3.923
 9614SOL     OW29740   3.932   2.338   0.926
 9614SOL    HW129741   3.972   2.379   0.844
 9614SOL    HW229742   3.924   2.409   0.997
 9615SOL     OW29743   0.533   6.574   1.292
 9615SOL    HW129744   0.453   6.572   1.351
 9615SOL    HW229745   0.514   6.524   1.208
 9616SOL     OW29746   4.478   3.601   1.242
 9616SOL    HW129747   4.434   3.621   1.154
 9616SOL    HW229748   4.543   3.674   1.263
 9617SOL     OW29749   1.545   3.394   4.121
 9617SOL    HW129750   1.529   3.385   4.023
 9617SOL    HW229751   1.644   3.389   4.139
 9618SOL     OW29752   3.790   7.002   5.730
 9618SOL    HW129753   3.829   6.960   5.812
 9618SOL    HW229754   3.775   6.933   5.660
 9619SOL     OW29755   0.496   6.893   0.410
 9619SOL    HW129756   0.553   6.821   0.448
 9619SOL    HW229757   0.538   6.930   0.327
 9620SOL     OW29758   5.053   2.844   0.018
 9620SOL    HW129759   4.984   2.772   0.027
 9620SOL    HW229760   5.057   2.897   0.103
 9621SOL     OW29761   1.190   0.987   2.693
 9621SOL    HW129762   1.156   1.001   2.600
 9621SOL    HW229763   1.233   0.897   2.699
 9622SOL     OW29764   5.607   0.909   0.101
 9622SOL    HW129765   5.546   0.927   0.178
 9622SOL    HW229766   5.552   0.893   0.019
 9623SOL     OW29767   3.973   5.166   5.536
 9623SOL    HW129768   3.939   5.166   5.630
 9623SOL    HW229769   4.064   5.207   5.533
 9624SOL     OW29770   6.027   4.568   3.683
 9624SOL    HW129771   5.946   4.547   3.738
 9624SOL    HW229772   6.109   4.555   3.738
 9625SOL     OW29773   5.012   5.438   6.824
 9625SOL    HW129774   4.977   5.358   6.775
 9625SOL    HW229775   4.950   5.461   6.899
 9626SOL     OW29776   2.088   6.478   0.409
 9626SOL    HW129777   2.177   6.502   0.371
 9626SOL    HW229778   2.044   6.408   0.352
 9627SOL     OW29779   6.797   3.999   3.415
 9627SOL    HW129780   6.831   3.982   3.508
 9627SOL    HW229781   6.759   3.914   3.378
 9628SOL     OW29782   6.602   4.755   0.095
 9628SOL    HW129783   6.658   4.823   0.049
 9628SOL    HW229784   6.632   4.663   0.069
 9629SOL     OW29785   0.246   6.865   2.905
 9629SOL    HW129786   0.225   6.928   2.979
 9629SOL    HW229787   0.325   6.810   2.931
 9630SOL     OW29788   6.096   6.297   5.179
 9630SOL    HW129789   6.035   6.295   5.100
 9630SOL    HW229790   6.051   6.341   5.256
 9631SOL     OW29791   5.693   1.164   6.948
 9631SOL    HW129792   5.723   1.127   0.018
 9631SOL    HW229793   5.644   1.094   6.897
 9632SOL     OW29794   2.358   5.136   2.159
 9632SOL    HW129795   2.387   5.061   2.100
 9632SOL    HW229796   2.372   5.111   2.255
 9633SOL     OW29797   5.184   5.188   0.086
 9633SOL    HW129798   5.246   5.242   0.142
 9633SOL    HW229799   5.094   5.233   0.083
 9634SOL     OW29800   0.925   6.482   4.239
 9634SOL    HW129801   0.878   6.408   4.189
 9634SOL    HW229802   0.858   6.550   4.268
 9635SOL     OW29803   2.558   4.526   5.115
 9635SOL    HW129804   2.536   4.589   5.189
 9635SOL    HW229805   2.622   4.570   5.052
 9636SOL     OW29806   4.248   1.406   6.145
 9636SOL    HW129807   4.313   1.482   6.151
 9636SOL    HW229808   4.296   1.319   6.161
 9637SOL     OW29809   2.942   2.580   0.236
 9637SOL    HW129810   2.845   2.593   0.214
 9637SOL    HW229811   2.988   2.536   0.159
 9638SOL     OW29812   0.043   4.020   6.709
 9638SOL    HW129813   0.107   3.989   6.780
 9638SOL    HW229814   0.038   3.952   6.637
 9639SOL     OW29815   4.800   1.855   2.182
 9639SOL    HW129816   4.752   1.879   2.098
 9639SOL    HW229817   4.742   1.795   2.237
 9640SOL     OW29818   2.945   1.216   2.964
 9640SOL    HW129819   2.895   1.130   2.957
 9640SOL    HW229820   3.028   1.212   2.908
 9641SOL     OW29821   5.498   5.686   1.138
 9641SOL    HW129822   5.451   5.598   1.144
 9641SOL    HW229823   5.474   5.742   1.217
 9642SOL     OW29824   2.176   5.851   4.711
 9642SOL    HW129825   2.080   5.866   4.691
 9642SOL    HW229826   2.191   5.755   4.733
 9643SOL     OW29827   5.979   4.807   3.934
 9643SOL    HW129828   5.999   4.902   3.958
 9643SOL    HW229829   6.064   4.754   3.934
 9644SOL     OW29830   0.075   4.871   4.700
 9644SOL    HW129831   0.028   4.929   4.767
 9644SOL    HW229832   0.144   4.816   4.745
 9645SOL     OW29833   3.037   4.884   3.597
 9645SOL    HW129834   3.120   4.915   3.550
 9645SOL    HW229835   3.058   4.864   3.692
 9646SOL     OW29836   2.655   4.613   2.228
 9646SOL    HW129837   2.708   4.585   2.148
 9646SOL    HW229838   2.705   4.683   2.278
 9647SOL     OW29839   0.906   5.107   1.887
 9647SOL    HW129840   0.873   5.016   1.911
 9647SOL    HW229841   0.884   5.171   1.961
 9648SOL     OW29842   3.630   2.183   0.385
 9648SOL    HW129843   3.562   2.181   0.459
 9648SOL    HW229844   3.588   2.219   0.302
 9649SOL     OW29845   2.152   4.667   6.879
 9649SOL    HW129846   2.222   4.600   6.904
 9649SOL    HW229847   2.096   4.688   6.959
 9650SOL     OW29848   4.571   4.452   3.019
 9650SOL    HW129849   4.541   4.547   3.013
 9650SOL    HW229850   4.546   4.403   2.936
 9651SOL     OW29851   5.911   1.284   0.526
 9651SOL    HW129852   5.823   1.297   0.571
 9651SOL    HW229853   5.905   1.318   0.432
 9652SOL     OW29854   2.373   4.428   0.866
 9652SOL    HW129855   2.390   4.504   0.802
 9652SOL    HW229856   2.425   4.348   0.837
 9653SOL     OW29857   4.233   5.267   5.506
 9653SOL    HW129858   4.212   5.283   5.409
 9653SOL    HW229859   4.330   5.282   5.522
 9654SOL     OW29860   3.720   3.376   2.282
 9654SOL    HW129861   3.724   3.469   2.246
 9654SOL    HW229862   3.761   3.313   2.215
 9655SOL     OW29863   6.781   1.389   0.347
 9655SOL    HW129864   6.692   1.411   0.309
 9655SOL    HW229865   6.849   1.454   0.313
 9656SOL     OW29866   4.580   2.070   0.961
 9656SOL    HW129867   4.589   1.991   1.022
 9656SOL    HW229868   4.591   2.154   1.013
 9657SOL     OW29869   6.190   2.732   3.579
 9657SOL    HW129870   6.279   2.692   3.558
 9657SOL    HW229871   6.118   2.664   3.566
 9658SOL     OW29872   5.566   2.157   2.519
 9658SOL    HW129873   5.625   2.172   2.440
 9658SOL    HW229874   5.619   2.165   2.603
 9659SOL     OW29875   6.890   2.786   0.447
 9659SOL    HW129876   6.838   2.842   0.512
 9659SOL    HW229877   6.905   2.696   0.486
 9660SOL     OW29878   0.394   6.638   2.203
 9660SOL    HW129879   0.383   6.733   2.172
 9660SOL    HW229880   0.480   6.601   2.168
 9661SOL     OW29881   3.449   6.332   1.353
 9661SOL    HW129882   3.354   6.334   1.384
 9661SOL    HW229883   3.467   6.246   1.306
 9662SOL     OW29884   4.446   2.819   5.414
 9662SOL    HW129885   4.353   2.780   5.409
 9662SOL    HW229886   4.491   2.808   5.325
 9663SOL     OW29887   6.410   6.755   3.169
 9663SOL    HW129888   6.389   6.686   3.237
 9663SOL    HW229889   6.440   6.711   3.084
 9664SOL     OW29890   5.466   6.061   4.259
 9664SOL    HW129891   5.441   6.008   4.340
 9664SOL    HW229892   5.430   6.154   4.269
 9665SOL     OW29893   5.665   6.406   6.760
 9665SOL    HW129894   5.666   6.328   6.822
 9665SOL    HW229895   5.758   6.440   6.748
 9666SOL     OW29896   6.775   4.156   2.604
 9666SOL    HW129897   6.752   4.091   2.677
 9666SOL    HW229898   6.714   4.142   2.526
 9667SOL     OW29899   4.068   3.582   6.102
 9667SOL    HW129900   4.037   3.674   6.126
 9667SOL    HW229901   3.999   3.537   6.045
 9668SOL     OW29902   6.988   0.772   6.302
 9668SOL    HW129903   6.898   0.816   6.302
 9668SOL    HW229904   6.980   0.681   6.262
 9669SOL     OW29905   1.731   0.332   2.550
 9669SOL    HW129906   1.658   0.264   2.534
 9669SOL    HW229907   1.805   0.316   2.485
 9670SOL     OW29908   6.215   4.542   6.660
 9670SOL    HW129909   6.259   4.617   6.611
 9670SOL    HW229910   6.284   4.476   6.691
 9671SOL     OW29911   6.229   4.636   0.169
 9671SOL    HW129912   6.152   4.689   0.133
 9671SOL    HW229913   6.288   4.608   0.093
 9672SOL     OW29914   1.482   5.487   3.310
 9672SOL    HW129915   1.469   5.565   3.248
 9672SOL    HW229916   1.420   5.496   3.388
 9673SOL     OW29917   5.162   3.627   1.019
 9673SOL    HW129918   5.255   3.610   1.052
 9673SOL    HW229919   5.136   3.556   0.953
 9674SOL     OW29920   2.318   6.683   2.761
 9674SOL    HW129921   2.316   6.708   2.665
 9674SOL    HW229922   2.318   6.583   2.770
 9675SOL     OW29923   5.668   2.744   0.602
 9675SOL    HW129924   5.639   2.819   0.661
 9675SOL    HW229925   5.767   2.747   0.590
 9676SOL     OW29926   1.684   3.919   5.354
 9676SOL    HW129927   1.605   3.910   5.415
 9676SOL    HW229928   1.768   3.910   5.406
 9677SOL     OW29929   0.200   5.836   5.035
 9677SOL    HW129930   0.226   5.756   4.982
 9677SOL    HW229931   0.101   5.835   5.050
 9678SOL     OW29932   3.252   4.050   3.200
 9678SOL    HW129933   3.316   4.074   3.127
 9678SOL    HW229934   3.170   4.008   3.160
 9679SOL     OW29935   2.738   1.334   3.178
 9679SOL    HW129936   2.733   1.431   3.200
 9679SOL    HW229937   2.829   1.313   3.142
 9680SOL     OW29938   4.522   0.971   3.113
 9680SOL    HW129939   4.456   0.895   3.114
 9680SOL    HW229940   4.474   1.058   3.111
 9681SOL     OW29941   3.374   1.629   0.399
 9681SOL    HW129942   3.378   1.535   0.433
 9681SOL    HW229943   3.440   1.641   0.325
 9682SOL     OW29944   4.987   4.751   3.571
 9682SOL    HW129945   4.975   4.734   3.669
 9682SOL    HW229946   4.999   4.849   3.555
 9683SOL     OW29947   2.725   5.344   0.495
 9683SOL    HW129948   2.805   5.375   0.444
 9683SOL    HW229949   2.691   5.419   0.553
 9684SOL     OW29950   0.265   3.384   5.962
 9684SOL    HW129951   0.326   3.412   6.036
 9684SOL    HW229952   0.203   3.460   5.939
 9685SOL     OW29953   3.263   4.906   1.138
 9685SOL    HW129954   3.358   4.935   1.131
 9685SOL    HW229955   3.242   4.883   1.233
 9686SOL     OW29956   6.647   1.769   6.937
 9686SOL    HW129957   6.653   1.683   6.887
 9686SOL    HW229958   6.675   1.844   6.877
 9687SOL     OW29959   1.795   0.847   4.437
 9687SOL    HW129960   1.870   0.896   4.480
 9687SOL    HW229961   1.832   0.784   4.367
 9688SOL     OW29962   0.789   3.203   2.642
 9688SOL    HW129963   0.776   3.187   2.740
 9688SOL    HW229964   0.867   3.150   2.609
 9689SOL     OW29965   1.012   4.732   6.423
 9689SOL    HW129966   1.104   4.711   6.455
 9689SOL    HW229967   0.997   4.691   6.334
 9690SOL     OW29968   5.539   5.029   6.817
 9690SOL    HW129969   5.551   5.104   6.882
 9690SOL    HW229970   5.625   5.011   6.770
 9691SOL     OW29971   2.934   5.523   0.673
 9691SOL    HW129972   2.850   5.481   0.707
 9691SOL    HW229973   2.976   5.577   0.745
 9692SOL     OW29974   3.739   5.271   2.834
 9692SOL    HW129975   3.793   5.256   2.752
 9692SOL    HW229976   3.643   5.250   2.816
 9693SOL     OW29977   5.972   4.978   2.033
 9693SOL    HW129978   6.049   5.022   1.986
 9693SOL    HW229979   5.965   5.014   2.126
 9694SOL     OW29980   2.607   0.736   0.816
 9694SOL    HW129981   2.619   0.769   0.910
 9694SOL    HW229982   2.598   0.814   0.754
 9695SOL     OW29983   6.876   3.147   2.601
 9695SOL    HW129984   6.905   3.062   2.646
 9695SOL    HW229985   6.932   3.223   2.636
 9696SOL     OW29986   5.431   3.577   1.111
 9696SOL    HW129987   5.414   3.676   1.117
 9696SOL    HW229988   5.428   3.537   1.203
 9697SOL     OW29989   0.473   5.440   6.926
 9697SOL    HW129990   0.536   5.371   6.963
 9697SOL    HW229991   0.497   5.461   6.832
 9698SOL     OW29992   4.463   1.531   5.845
 9698SOL    HW129993   4.512   1.482   5.917
 9698SOL    HW229994   4.529   1.574   5.783
 9699SOL     OW29995   7.007   4.858   6.945
 9699SOL    HW129996   0.043   4.941   6.931
 9699SOL    HW229997   0.008   4.793   6.871
 9700SOL     OW29998   4.629   5.651   5.078
 9700SOL    HW129999   4.677   5.631   4.992
 9700SOL    HW230000   4.621   5.568   5.132
 9701SOL     OW30001   4.635   4.963   5.615
 9701SOL    HW130002   4.669   4.870   5.607
 9701SOL    HW230003   4.628   4.988   5.711
 9702SOL     OW30004   4.617   0.608   6.901
 9702SOL    HW130005   4.660   0.575   6.985
 9702SOL    HW230006   4.626   0.707   6.896
 9703SOL     OW30007   4.518   4.455   3.275
 9703SOL    HW130008   4.534   4.430   3.179
 9703SOL    HW230009   4.449   4.394   3.314
 9704SOL     OW30010   3.523   1.151   2.731
 9704SOL    HW130011   3.599   1.166   2.669
 9704SOL    HW230012   3.438   1.183   2.689
 9705SOL     OW30013   5.876   4.800   5.921
 9705SOL    HW130014   5.883   4.772   6.017
 9705SOL    HW230015   5.783   4.828   5.901
 9706SOL     OW30016   1.392   3.386   0.523
 9706SOL    HW130017   1.335   3.468   0.527
 9706SOL    HW230018   1.417   3.368   0.428
 9707SOL     OW30019   6.955   4.954   2.662
 9707SOL    HW130020   6.885   5.019   2.692
 9707SOL    HW230021   6.975   4.969   2.565
 9708SOL     OW30022   1.263   2.113   2.848
 9708SOL    HW130023   1.164   2.117   2.862
 9708SOL    HW230024   1.308   2.093   2.935
 9709SOL     OW30025   5.652   6.076   3.551
 9709SOL    HW130026   5.567   6.036   3.584
 9709SOL    HW230027   5.640   6.175   3.539
 9710SOL     OW30028   6.898   1.006   1.525
 9710SOL    HW130029   6.991   1.032   1.499
 9710SOL    HW230030   6.900   0.914   1.566
 9711SOL     OW30031   2.533   5.452   5.920
 9711SOL    HW130032   2.475   5.520   5.875
 9711SOL    HW230033   2.498   5.360   5.900
 9712SOL     OW30034   5.643   3.692   6.968
 9712SOL    HW130035   5.715   3.623   6.953
 9712SOL    HW230036   5.664   3.774   6.915
 9713SOL     OW30037   0.839   4.537   3.653
 9713SOL    HW130038   0.761   4.490   3.612
 9713SOL    HW230039   0.923   4.491   3.626
 9714SOL     OW30040   3.578   6.668   6.592
 9714SOL    HW130041   3.563   6.742   6.659
 9714SOL    HW230042   3.587   6.581   6.641
 9715SOL     OW30043   5.530   3.793   6.236
 9715SOL    HW130044   5.504   3.697   6.245
 9715SOL    HW230045   5.495   3.829   6.150
 9716SOL     OW30046   3.996   3.869   6.866
 9716SOL    HW130047   3.910   3.912   6.893
 9716SOL    HW230048   4.000   3.861   6.767
 9717SOL     OW30049   5.675   6.693   6.448
 9717SOL    HW130050   5.722   6.777   6.422
 9717SOL    HW230051   5.742   6.626   6.479
 9718SOL     OW30052   4.764   2.680   0.593
 9718SOL    HW130053   4.762   2.760   0.533
 9718SOL    HW230054   4.684   2.623   0.574
 9719SOL     OW30055   6.334   1.668   5.535
 9719SOL    HW130056   6.399   1.593   5.524
 9719SOL    HW230057   6.243   1.630   5.551
 9720SOL     OW30058   0.262   5.066   2.627
 9720SOL    HW130059   0.175   5.110   2.605
 9720SOL    HW230060   0.246   4.970   2.649
 9721SOL     OW30061   6.938   1.648   1.183
 9721SOL    HW130062   7.003   1.641   1.108
 9721SOL    HW230063   6.940   1.741   1.220
 9722SOL     OW30064   6.192   1.136   4.327
 9722SOL    HW130065   6.282   1.175   4.345
 9722SOL    HW230066   6.156   1.093   4.410
 9723SOL     OW30067   2.261   6.840   2.506
 9723SOL    HW130068   2.279   6.818   2.410
 9723SOL    HW230069   2.165   6.862   2.517
 9724SOL     OW30070   1.591   4.526   0.464
 9724SOL    HW130071   1.589   4.598   0.395
 9724SOL    HW230072   1.497   4.503   0.490
 9725SOL     OW30073   4.034   4.914   6.106
 9725SOL    HW130074   4.082   4.980   6.047
 9725SOL    HW230075   3.943   4.897   6.069
 9726SOL     OW30076   5.231   1.114   4.371
 9726SOL    HW130077   5.133   1.117   4.387
 9726SOL    HW230078   5.273   1.198   4.407
 9727SOL     OW30079   1.160   3.834   6.021
 9727SOL    HW130080   1.203   3.816   6.109
 9727SOL    HW230081   1.215   3.793   5.948
 9728SOL     OW30082   0.253   0.805   5.946
 9728SOL    HW130083   0.286   0.780   6.037
 9728SOL    HW230084   0.300   0.750   5.877
 9729SOL     OW30085   0.709   3.826   4.050
 9729SOL    HW130086   0.693   3.917   4.011
 9729SOL    HW230087   0.676   3.825   4.145
 9730SOL     OW30088   1.059   3.431   3.697
 9730SOL    HW130089   1.104   3.406   3.783
 9730SOL    HW230090   0.992   3.361   3.673
 9731SOL     OW30091   4.789   4.533   1.197
 9731SOL    HW130092   4.819   4.471   1.269
 9731SOL    HW230093   4.689   4.537   1.195
 9732SOL     OW30094   6.500   5.831   3.038
 9732SOL    HW130095   6.532   5.922   3.013
 9732SOL    HW230096   6.461   5.834   3.130
 9733SOL     OW30097   5.850   4.901   0.632
 9733SOL    HW130098   5.878   4.988   0.592
 9733SOL    HW230099   5.769   4.915   0.689
 9734SOL     OW30100   6.663   1.757   1.741
 9734SOL    HW130101   6.593   1.824   1.765
 9734SOL    HW230102   6.717   1.734   1.822
 9735SOL     OW30103   2.420   4.371   3.802
 9735SOL    HW130104   2.391   4.376   3.707
 9735SOL    HW230105   2.519   4.356   3.806
 9736SOL     OW30106   6.421   1.352   6.359
 9736SOL    HW130107   6.322   1.351   6.365
 9736SOL    HW230108   6.456   1.434   6.405
 9737SOL     OW30109   5.402   2.587   3.706
 9737SOL    HW130110   5.442   2.593   3.614
 9737SOL    HW230111   5.370   2.494   3.722
 9738SOL     OW30112   1.385   0.142   1.116
 9738SOL    HW130113   1.430   0.232   1.116
 9738SOL    HW230114   1.297   0.149   1.068
 9739SOL     OW30115   5.659   5.012   2.177
 9739SOL    HW130116   5.615   5.097   2.207
 9739SOL    HW230117   5.758   5.023   2.182
 9740SOL     OW30118   6.465   1.254   2.977
 9740SOL    HW130119   6.442   1.178   2.916
 9740SOL    HW230120   6.426   1.339   2.941
 9741SOL     OW30121   3.681   1.146   2.983
 9741SOL    HW130122   3.609   1.122   2.918
 9741SOL    HW230123   3.678   1.083   3.061
 9742SOL     OW30124   4.320   6.954   0.860
 9742SOL    HW130125   4.297   0.001   0.933
 9742SOL    HW230126   4.281   6.986   0.774
 9743SOL     OW30127   0.067   1.958   5.249
 9743SOL    HW130128   0.115   2.045   5.240
 9743SOL    HW230129   0.090   1.916   5.336
 9744SOL     OW30130   1.044   6.752   2.717
 9744SOL    HW130131   1.052   6.670   2.773
 9744SOL    HW230132   1.055   6.833   2.775
 9745SOL     OW30133   5.581   3.364   5.578
 9745SOL    HW130134   5.562   3.324   5.489
 9745SOL    HW230135   5.646   3.306   5.628
 9746SOL     OW30136   6.527   0.399   5.297
 9746SOL    HW130137   6.591   0.476   5.301
 9746SOL    HW230138   6.578   0.313   5.309
 9747SOL     OW30139   1.935   0.940   1.489
 9747SOL    HW130140   1.961   0.868   1.553
 9747SOL    HW230141   1.981   0.925   1.402
 9748SOL     OW30142   0.243   1.502   3.272
 9748SOL    HW130143   0.146   1.516   3.256
 9748SOL    HW230144   0.284   1.586   3.307
 9749SOL     OW30145   2.558   1.114   4.990
 9749SOL    HW130146   2.648   1.145   5.019
 9749SOL    HW230147   2.490   1.144   5.058
 9750SOL     OW30148   5.383   4.562   3.584
 9750SOL    HW130149   5.322   4.488   3.557
 9750SOL    HW230150   5.421   4.606   3.503
 9751SOL     OW30151   0.917   0.844   1.035
 9751SOL    HW130152   1.015   0.824   1.023
 9751SOL    HW230153   0.906   0.938   1.064
 9752SOL     OW30154   4.613   1.744   5.443
 9752SOL    HW130155   4.612   1.644   5.447
 9752SOL    HW230156   4.696   1.775   5.397
 9753SOL     OW30157   5.726   5.975   5.694
 9753SOL    HW130158   5.697   5.975   5.598
 9753SOL    HW230159   5.795   6.045   5.708
 9754SOL     OW30160   0.662   1.428   6.207
 9754SOL    HW130161   0.651   1.521   6.241
 9754SOL    HW230162   0.754   1.395   6.230
 9755SOL     OW30163   3.912   3.027   4.534
 9755SOL    HW130164   3.882   2.987   4.448
 9755SOL    HW230165   3.879   2.972   4.610
 9756SOL     OW30166   6.554   3.608   0.641
 9756SOL    HW130167   6.596   3.696   0.617
 9756SOL    HW230168   6.478   3.623   0.704
 9757SOL     OW30169   5.575   3.680   3.827
 9757SOL    HW130170   5.519   3.757   3.798
 9757SOL    HW230171   5.622   3.703   3.912
 9758SOL     OW30172   2.066   6.258   6.949
 9758SOL    HW130173   2.016   6.173   6.930
 9758SOL    HW230174   2.157   6.253   6.909
 9759SOL     OW30175   1.788   0.062   6.803
 9759SOL    HW130176   1.720   7.006   6.802
 9759SOL    HW230177   1.779   0.117   6.720
 9760SOL     OW30178   4.422   2.362   5.181
 9760SOL    HW130179   4.467   2.442   5.222
 9760SOL    HW230180   4.358   2.393   5.110
 9761SOL     OW30181   5.615   1.277   2.988
 9761SOL    HW130182   5.585   1.191   2.948
 9761SOL    HW230183   5.548   1.348   2.968
 9762SOL     OW30184   3.492   1.250   4.228
 9762SOL    HW130185   3.485   1.322   4.297
 9762SOL    HW230186   3.506   1.292   4.138
 9763SOL     OW30187   5.093   1.956   1.896
 9763SOL    HW130188   5.187   1.986   1.909
 9763SOL    HW230189   5.089   1.891   1.819
 9764SOL     OW30190   0.117   2.740   2.627
 9764SOL    HW130191   0.190   2.799   2.663
 9764SOL    HW230192   0.148   2.645   2.627
 9765SOL     OW30193   6.601   1.512   3.387
 9765SOL    HW130194   6.630   1.503   3.482
 9765SOL    HW230195   6.540   1.436   3.363
 9766SOL     OW30196   2.733   0.110   3.152
 9766SOL    HW130197   2.691   0.184   3.100
 9766SOL    HW230198   2.687   0.101   3.240
 9767SOL     OW30199   4.961   1.065   5.392
 9767SOL    HW130200   4.888   1.091   5.329
 9767SOL    HW230201   4.957   0.967   5.410
 9768SOL     OW30202   5.450   1.931   2.839
 9768SOL    HW130203   5.371   1.993   2.846
 9768SOL    HW230204   5.441   1.875   2.757
 9769SOL     OW30205   3.236   1.079   3.085
 9769SOL    HW130206   3.294   1.026   3.148
 9769SOL    HW230207   3.170   1.132   3.138
 9770SOL     OW30208   5.466   7.011   6.765
 9770SOL    HW130209   5.391   0.016   6.827
 9770SOL    HW230210   5.533   0.068   6.765
 9771SOL     OW30211   3.054   5.592   0.448
 9771SOL    HW130212   3.011   5.550   0.528
 9771SOL    HW230213   3.028   5.540   0.366
 9772SOL     OW30214   1.311   6.161   2.880
 9772SOL    HW130215   1.325   6.235   2.947
 9772SOL    HW230216   1.394   6.151   2.825
 9773SOL     OW30217   5.957   5.442   4.572
 9773SOL    HW130218   6.011   5.482   4.498
 9773SOL    HW230219   5.909   5.515   4.621
 9774SOL     OW30220   0.425   4.731   2.119
 9774SOL    HW130221   0.520   4.747   2.094
 9774SOL    HW230222   0.365   4.777   2.054
 9775SOL     OW30223   2.108   0.795   3.353
 9775SOL    HW130224   2.176   0.748   3.408
 9775SOL    HW230225   2.149   0.820   3.265
 9776SOL     OW30226   0.992   4.587   4.405
 9776SOL    HW130227   1.045   4.656   4.356
 9776SOL    HW230228   0.992   4.501   4.354
 9777SOL     OW30229   6.005   5.333   6.002
 9777SOL    HW130230   6.097   5.300   5.981
 9777SOL    HW230231   5.937   5.266   5.971
 9778SOL     OW30232   0.275   0.801   3.731
 9778SOL    HW130233   0.182   0.775   3.703
 9778SOL    HW230234   0.330   0.719   3.746
 9779SOL     OW30235   1.831   1.549   5.297
 9779SOL    HW130236   1.927   1.558   5.325
 9779SOL    HW230237   1.792   1.467   5.339
 9780SOL     OW30238   2.677   1.963   1.285
 9780SOL    HW130239   2.700   1.872   1.319
 9780SOL    HW230240   2.645   2.020   1.361
 9781SOL     OW30241   1.676   3.710   4.411
 9781SOL    HW130242   1.739   3.651   4.359
 9781SOL    HW230243   1.641   3.659   4.490
 9782SOL     OW30244   6.610   0.920   1.288
 9782SOL    HW130245   6.563   0.882   1.368
 9782SOL    HW230246   6.545   0.972   1.233
 9783SOL     OW30247   4.485   2.186   3.370
 9783SOL    HW130248   4.530   2.123   3.434
 9783SOL    HW230249   4.463   2.137   3.286
 9784SOL     OW30250   4.145   1.508   4.492
 9784SOL    HW130251   4.069   1.573   4.481
 9784SOL    HW230252   4.132   1.457   4.577
 9785SOL     OW30253   1.044   3.469   6.129
 9785SOL    HW130254   1.096   3.393   6.167
 9785SOL    HW230255   1.059   3.473   6.030
 9786SOL     OW30256   2.297   4.081   6.843
 9786SOL    HW130257   2.234   4.100   6.768
 9786SOL    HW230258   2.389   4.070   6.808
 9787SOL     OW30259   4.772   3.673   1.714
 9787SOL    HW130260   4.807   3.697   1.804
 9787SOL    HW230261   4.771   3.754   1.656
 9788SOL     OW30262   0.500   0.320   3.743
 9788SOL    HW130263   0.412   0.281   3.769
 9788SOL    HW230264   0.574   0.264   3.780
 9789SOL     OW30265   1.519   5.554   0.923
 9789SOL    HW130266   1.462   5.633   0.899
 9789SOL    HW230267   1.537   5.500   0.840
 9790SOL     OW30268   5.737   4.309   6.150
 9790SOL    HW130269   5.717   4.310   6.248
 9790SOL    HW230270   5.797   4.231   6.130
 9791SOL     OW30271   0.420   0.618   3.263
 9791SOL    HW130272   0.473   0.558   3.203
 9791SOL    HW230273   0.468   0.630   3.350
 9792SOL     OW30274   5.068   5.373   1.519
 9792SOL    HW130275   5.144   5.399   1.459
 9792SOL    HW230276   4.982   5.376   1.468
 9793SOL     OW30277   4.823   5.857   3.539
 9793SOL    HW130278   4.883   5.877   3.460
 9793SOL    HW230279   4.846   5.919   3.614
 9794SOL     OW30280   6.811   4.055   0.969
 9794SOL    HW130281   6.833   3.971   1.018
 9794SOL    HW230282   6.737   4.037   0.903
 9795SOL     OW30283   2.308   1.895   4.401
 9795SOL    HW130284   2.402   1.874   4.430
 9795SOL    HW230285   2.250   1.814   4.416
 9796SOL     OW30286   4.252   2.493   1.042
 9796SOL    HW130287   4.327   2.558   1.032
 9796SOL    HW230288   4.168   2.541   1.068
 9797SOL     OW30289   2.246   5.089   6.567
 9797SOL    HW130290   2.294   5.070   6.482
 9797SOL    HW230291   2.309   5.133   6.631
 9798SOL     OW30292   2.732   0.275   1.368
 9798SOL    HW130293   2.677   0.337   1.424
 9798SOL    HW230294   2.825   0.311   1.361
 9799SOL     OW30295   3.640   4.145   3.840
 9799SOL    HW130296   3.619   4.144   3.743
 9799SOL    HW230297   3.555   4.141   3.893
 9800SOL     OW30298   3.726   6.633   4.630
 9800SOL    HW130299   3.726   6.534   4.646
 9800SOL    HW230300   3.771   6.653   4.543
 9801SOL     OW30301   4.561   3.482   0.753
 9801SOL    HW130302   4.570   3.450   0.847
 9801SOL    HW230303   4.613   3.421   0.692
 9802SOL     OW30304   0.894   2.994   1.531
 9802SOL    HW130305   0.938   3.068   1.480
 9802SOL    HW230306   0.957   2.957   1.598
 9803SOL     OW30307   0.176   2.497   6.632
 9803SOL    HW130308   0.136   2.520   6.543
 9803SOL    HW230309   0.259   2.550   6.646
 9804SOL     OW30310   0.790   6.804   3.161
 9804SOL    HW130311   0.876   6.842   3.195
 9804SOL    HW230312   0.808   6.746   3.082
 9805SOL     OW30313   0.800   0.729   5.157
 9805SOL    HW130314   0.733   0.803   5.145
 9805SOL    HW230315   0.886   0.767   5.190
 9806SOL     OW30316   1.725   1.025   0.675
 9806SOL    HW130317   1.752   1.074   0.757
 9806SOL    HW230318   1.801   1.024   0.610
 9807SOL     OW30319   2.358   3.160   0.269
 9807SOL    HW130320   2.397   3.137   0.358
 9807SOL    HW230321   2.335   3.076   0.219
 9808SOL     OW30322   4.546   0.551   5.453
 9808SOL    HW130323   4.624   0.544   5.515
 9808SOL    HW230324   4.554   0.482   5.381
 9809SOL     OW30325   0.595   2.041   0.017
 9809SOL    HW130326   0.552   2.066   0.103
 9809SOL    HW230327   0.695   2.048   0.026
 9810SOL     OW30328   2.313   2.806   3.576
 9810SOL    HW130329   2.344   2.759   3.494
 9810SOL    HW230330   2.363   2.771   3.656
 9811SOL     OW30331   5.740   5.164   4.026
 9811SOL    HW130332   5.820   5.122   3.982
 9811SOL    HW230333   5.677   5.092   4.055
 9812SOL     OW30334   3.450   2.022   5.856
 9812SOL    HW130335   3.477   1.926   5.866
 9812SOL    HW230336   3.491   2.076   5.930
 9813SOL     OW30337   5.747   0.662   6.680
 9813SOL    HW130338   5.775   0.610   6.760
 9813SOL    HW230339   5.743   0.760   6.702
 9814SOL     OW30340   0.609   0.576   0.599
 9814SOL    HW130341   0.709   0.569   0.609
 9814SOL    HW230342   0.568   0.601   0.686
 9815SOL     OW30343   5.714   4.204   3.150
 9815SOL    HW130344   5.752   4.118   3.117
 9815SOL    HW230345   5.673   4.191   3.240
 9816SOL     OW30346   6.838   1.454   6.217
 9816SOL    HW130347   6.802   1.374   6.264
 9816SOL    HW230348   6.772   1.529   6.223
 9817SOL     OW30349   2.499   6.214   2.366
 9817SOL    HW130350   2.526   6.292   2.422
 9817SOL    HW230351   2.530   6.129   2.411
 9818SOL     OW30352   1.525   0.850   4.905
 9818SOL    HW130353   1.483   0.790   4.974
 9818SOL    HW230354   1.619   0.872   4.932
 9819SOL     OW30355   5.183   3.053   4.037
 9819SOL    HW130356   5.252   3.019   3.973
 9819SOL    HW230357   5.118   3.112   3.988
 9820SOL     OW30358   4.451   3.298   6.141
 9820SOL    HW130359   4.417   3.251   6.223
 9820SOL    HW230360   4.443   3.237   6.062
 9821SOL     OW30361   5.130   0.414   0.938
 9821SOL    HW130362   5.155   0.481   1.007
 9821SOL    HW230363   5.031   0.406   0.934
 9822SOL     OW30364   2.750   5.969   3.581
 9822SOL    HW130365   2.724   5.875   3.557
 9822SOL    HW230366   2.680   6.032   3.547
 9823SOL     OW30367   2.669   0.524   1.499
 9823SOL    HW130368   2.742   0.537   1.566
 9823SOL    HW230369   2.581   0.547   1.540
 9824SOL     OW30370   1.728   5.702   4.183
 9824SOL    HW130371   1.771   5.778   4.134
 9824SOL    HW230372   1.633   5.692   4.153
 9825SOL     OW30373   5.435   6.418   4.078
 9825SOL    HW130374   5.512   6.372   4.033
 9825SOL    HW230375   5.431   6.390   4.173
 9826SOL     OW30376   3.867   6.108   5.110
 9826SOL    HW130377   3.834   6.050   5.185
 9826SOL    HW230378   3.946   6.066   5.067
 9827SOL     OW30379   1.871   3.326   3.622
 9827SOL    HW130380   1.832   3.260   3.557
 9827SOL    HW230381   1.970   3.324   3.617
 9828SOL     OW30382   3.221   2.546   5.379
 9828SOL    HW130383   3.228   2.492   5.295
 9828SOL    HW230384   3.243   2.488   5.457
 9829SOL     OW30385   4.551   5.828   6.250
 9829SOL    HW130386   4.597   5.775   6.321
 9829SOL    HW230387   4.464   5.862   6.284
 9830SOL     OW30388   5.375   1.371   1.966
 9830SOL    HW130389   5.316   1.399   2.043
 9830SOL    HW230390   5.333   1.401   1.880
 9831SOL     OW30391   1.209   4.872   2.964
 9831SOL    HW130392   1.259   4.954   2.939
 9831SOL    HW230393   1.236   4.842   3.056
 9832SOL     OW30394   5.351   5.444   2.728
 9832SOL    HW130395   5.346   5.425   2.826
 9832SOL    HW230396   5.310   5.533   2.708
 9833SOL     OW30397   3.549   3.883   3.917
 9833SOL    HW130398   3.457   3.865   3.881
 9833SOL    HW230399   3.585   3.965   3.872
 9834SOL     OW30400   2.355   4.811   4.995
 9834SOL    HW130401   2.350   4.891   5.055
 9834SOL    HW230402   2.443   4.811   4.947
 9835SOL     OW30403   3.595   3.256   4.196
 9835SOL    HW130404   3.585   3.319   4.273
 9835SOL    HW230405   3.597   3.162   4.230
 9836SOL     OW30406   0.445   3.887   3.824
 9836SOL    HW130407   0.528   3.936   3.852
 9836SOL    HW230408   0.441   3.799   3.872
 9837SOL     OW30409   4.441   0.754   2.730
 9837SOL    HW130410   4.515   0.739   2.795
 9837SOL    HW230411   4.354   0.757   2.779
 9838SOL     OW30412   1.741   6.872   0.292
 9838SOL    HW130413   1.687   6.926   0.227
 9838SOL    HW230414   1.740   6.776   0.265
 9839SOL     OW30415   4.991   6.612   3.545
 9839SOL    HW130416   5.046   6.570   3.473
 9839SOL    HW230417   5.004   6.711   3.543
 9840SOL     OW30418   5.527   2.074   0.793
 9840SOL    HW130419   5.508   2.132   0.873
 9840SOL    HW230420   5.544   1.980   0.824
 9841SOL     OW30421   1.016   4.339   4.527
 9841SOL    HW130422   1.074   4.288   4.464
 9841SOL    HW230423   1.057   4.429   4.545
 9842SOL     OW30424   3.541   3.428   1.241
 9842SOL    HW130425   3.603   3.498   1.205
 9842SOL    HW230426   3.500   3.377   1.165
 9843SOL     OW30427   6.289   0.119   2.242
 9843SOL    HW130428   6.337   0.083   2.162
 9843SOL    HW230429   6.303   0.058   2.320
 9844SOL     OW30430   6.034   1.188   3.378
 9844SOL    HW130431   6.093   1.259   3.340
 9844SOL    HW230432   5.968   1.158   3.309
 9845SOL     OW30433   1.505   1.812   3.840
 9845SOL    HW130434   1.511   1.868   3.922
 9845SOL    HW230435   1.596   1.777   3.817
 9846SOL     OW30436   3.821   2.364   1.415
 9846SOL    HW130437   3.821   2.265   1.428
 9846SOL    HW230438   3.838   2.410   1.502
 9847SOL     OW30439   3.833   3.143   2.604
 9847SOL    HW130440   3.924   3.122   2.640
 9847SOL    HW230441   3.790   3.059   2.570
 9848SOL     OW30442   4.523   4.532   5.824
 9848SOL    HW130443   4.551   4.557   5.917
 9848SOL    HW230444   4.533   4.433   5.812
 9849SOL     OW30445   0.975   0.305   6.683
 9849SOL    HW130446   1.033   0.262   6.614
 9849SOL    HW230447   1.015   0.291   6.773
 9850SOL     OW30448   6.646   0.649   3.909
 9850SOL    HW130449   6.667   0.661   3.812
 9850SOL    HW230450   6.633   0.738   3.952
 9851SOL     OW30451   1.768   0.181   4.369
 9851SOL    HW130452   1.751   0.236   4.288
 9851SOL    HW230453   1.712   0.098   4.365
 9852SOL     OW30454   2.304   1.780   4.692
 9852SOL    HW130455   2.343   1.721   4.621
 9852SOL    HW230456   2.209   1.801   4.669
 9853SOL     OW30457   6.335   3.475   5.253
 9853SOL    HW130458   6.315   3.404   5.185
 9853SOL    HW230459   6.373   3.432   5.336
 9854SOL     OW30460   0.302   5.979   4.216
 9854SOL    HW130461   0.355   5.962   4.133
 9854SOL    HW230462   0.253   5.895   4.241
 9855SOL     OW30463   2.362   3.251   1.242
 9855SOL    HW130464   2.325   3.170   1.197
 9855SOL    HW230465   2.313   3.267   1.328
 9856SOL     OW30466   5.005   4.411   3.721
 9856SOL    HW130467   5.048   4.324   3.744
 9856SOL    HW230468   5.018   4.475   3.797
 9857SOL     OW30469   5.100   2.611   2.987
 9857SOL    HW130470   5.034   2.685   3.002
 9857SOL    HW230471   5.119   2.565   3.074
 9858SOL     OW30472   0.327   6.742   1.458
 9858SOL    HW130473   0.346   6.840   1.462
 9858SOL    HW230474   0.318   6.706   1.551
 9859SOL     OW30475   6.629   5.352   3.671
 9859SOL    HW130476   6.556   5.372   3.607
 9859SOL    HW230477   6.636   5.427   3.738
 9860SOL     OW30478   2.631   2.188   4.988
 9860SOL    HW130479   2.690   2.267   5.004
 9860SOL    HW230480   2.597   2.192   4.894
 9861SOL     OW30481   2.747   0.493   3.496
 9861SOL    HW130482   2.768   0.437   3.576
 9861SOL    HW230483   2.660   0.464   3.457
 9862SOL     OW30484   2.635   3.686   6.945
 9862SOL    HW130485   2.555   3.656   6.893
 9862SOL    HW230486   2.605   3.744   0.003
 9863SOL     OW30487   2.938   6.342   1.242
 9863SOL    HW130488   2.886   6.392   1.311
 9863SOL    HW230489   3.026   6.388   1.227
 9864SOL     OW30490   3.366   0.653   4.544
 9864SOL    HW130491   3.280   0.699   4.523
 9864SOL    HW230492   3.408   0.620   4.460
 9865SOL     OW30493   1.367   6.391   4.392
 9865SOL    HW130494   1.387   6.302   4.434
 9865SOL    HW230495   1.448   6.424   4.343
 9866SOL     OW30496   6.067   4.532   5.810
 9866SOL    HW130497   6.094   4.621   5.849
 9866SOL    HW230498   6.125   4.512   5.731
 9867SOL     OW30499   6.767   1.659   2.261
 9867SOL    HW130500   6.785   1.585   2.326
 9867SOL    HW230501   6.677   1.645   2.220
 9868SOL     OW30502   0.208   3.462   4.538
 9868SOL    HW130503   0.126   3.496   4.493
 9868SOL    HW230504   0.215   3.363   4.526
 9869SOL     OW30505   0.167   2.268   1.375
 9869SOL    HW130506   0.193   2.357   1.413
 9869SOL    HW230507   0.068   2.259   1.376
 9870SOL     OW30508   4.196   5.844   2.501
 9870SOL    HW130509   4.139   5.871   2.423
 9870SOL    HW230510   4.198   5.745   2.507
 9871SOL     OW30511   6.640   4.285   5.768
 9871SOL    HW130512   6.670   4.259   5.676
 9871SOL    HW230513   6.717   4.279   5.831
 9872SOL     OW30514   3.455   5.229   4.511
 9872SOL    HW130515   3.489   5.305   4.456
 9872SOL    HW230516   3.447   5.257   4.606
 9873SOL     OW30517   2.267   2.720   0.671
 9873SOL    HW130518   2.323   2.762   0.742
 9873SOL    HW230519   2.302   2.629   0.650
 9874SOL     OW30520   0.181   2.700   5.599
 9874SOL    HW130521   0.145   2.772   5.540
 9874SOL    HW230522   0.138   2.613   5.575
 9875SOL     OW30523   6.204   6.172   3.085
 9875SOL    HW130524   6.231   6.239   3.015
 9875SOL    HW230525   6.108   6.187   3.109
 9876SOL     OW30526   5.338   0.312   3.867
 9876SOL    HW130527   5.388   0.398   3.880
 9876SOL    HW230528   5.404   0.237   3.858
 9877SOL     OW30529   6.961   4.526   4.252
 9877SOL    HW130530   6.968   4.616   4.209
 9877SOL    HW230531   6.881   4.478   4.215
 9878SOL     OW30532   2.758   3.459   5.834
 9878SOL    HW130533   2.707   3.527   5.782
 9878SOL    HW230534   2.695   3.404   5.889
 9879SOL     OW30535   6.196   4.781   5.519
 9879SOL    HW130536   6.108   4.813   5.553
 9879SOL    HW230537   6.201   4.681   5.528
 9880SOL     OW30538   2.677   0.854   1.059
 9880SOL    HW130539   2.649   0.776   1.115
 9880SOL    HW230540   2.710   0.927   1.119
 9881SOL     OW30541   6.872   1.759   4.424
 9881SOL    HW130542   6.922   1.721   4.346
 9881SOL    HW230543   6.839   1.685   4.482
 9882SOL     OW30544   3.158   4.006   5.873
 9882SOL    HW130545   3.174   3.911   5.847
 9882SOL    HW230546   3.222   4.032   5.945
 9883SOL     OW30547   0.735   6.456   1.431
 9883SOL    HW130548   0.654   6.490   1.382
 9883SOL    HW230549   0.709   6.432   1.525
 9884SOL     OW30550   4.173   1.700   0.941
 9884SOL    HW130551   4.136   1.753   0.865
 9884SOL    HW230552   4.169   1.755   1.025
 9885SOL     OW30553   0.715   3.521   4.810
 9885SOL    HW130554   0.760   3.433   4.825
 9885SOL    HW230555   0.741   3.558   4.721
 9886SOL     OW30556   0.378   6.174   1.868
 9886SOL    HW130557   0.460   6.161   1.812
 9886SOL    HW230558   0.297   6.150   1.814
 9887SOL     OW30559   3.337   0.276   0.181
 9887SOL    HW130560   3.244   0.246   0.201
 9887SOL    HW230561   3.349   0.284   0.082
 9888SOL     OW30562   5.771   5.322   3.546
 9888SOL    HW130563   5.802   5.325   3.641
 9888SOL    HW230564   5.846   5.351   3.486
 9889SOL     OW30565   0.243   4.460   1.777
 9889SOL    HW130566   0.232   4.556   1.750
 9889SOL    HW230567   0.321   4.451   1.838
 9890SOL     OW30568   0.242   2.902   0.956
 9890SOL    HW130569   0.209   2.992   0.985
 9890SOL    HW230570   0.310   2.869   1.021
 9891SOL     OW30571   5.944   4.763   1.358
 9891SOL    HW130572   5.882   4.779   1.434
 9891SOL    HW230573   5.967   4.666   1.353
 9892SOL     OW30574   1.665   5.293   3.047
 9892SOL    HW130575   1.599   5.218   3.060
 9892SOL    HW230576   1.645   5.341   2.962
 9893SOL     OW30577   6.419   6.993   2.038
 9893SOL    HW130578   6.397   6.928   1.965
 9893SOL    HW230579   6.509   6.973   2.075
 9894SOL     OW30580   2.900   1.545   6.244
 9894SOL    HW130581   2.821   1.509   6.294
 9894SOL    HW230582   2.962   1.590   6.308
 9895SOL     OW30583   6.137   2.678   5.457
 9895SOL    HW130584   6.079   2.686   5.538
 9895SOL    HW230585   6.090   2.623   5.388
 9896SOL     OW30586   4.961   1.844   0.768
 9896SOL    HW130587   4.977   1.914   0.838
 9896SOL    HW230588   4.919   1.764   0.811
 9897SOL     OW30589   4.680   0.878   2.895
 9897SOL    HW130590   4.724   0.788   2.909
 9897SOL    HW230591   4.642   0.909   2.982
 9898SOL     OW30592   6.831   4.903   5.143
 9898SOL    HW130593   6.783   4.818   5.121
 9898SOL    HW230594   6.782   4.981   5.104
 9899SOL     OW30595   6.878   5.236   2.468
 9899SOL    HW130596   6.857   5.314   2.409
 9899SOL    HW230597   6.961   5.255   2.520
 9900SOL     OW30598   1.684   2.539   2.733
 9900SOL    HW130599   1.695   2.589   2.648
 9900SOL    HW230600   1.586   2.527   2.752
 9901SOL     OW30601   2.068   1.229   7.004
 9901SOL    HW130602   2.155   1.277   7.002
 9901SOL    HW230603   2.084   1.131   0.001
 9902SOL     OW30604   3.948   3.771   1.508
 9902SOL    HW130605   4.032   3.825   1.503
 9902SOL    HW230606   3.902   3.773   1.419
 9903SOL     OW30607   5.099   6.718   2.192
 9903SOL    HW130608   5.063   6.649   2.255
 9903SOL    HW230609   5.043   6.718   2.109
 9904SOL     OW30610   0.124   3.972   6.980
 9904SOL    HW130611   0.030   3.941   6.986
 9904SOL    HW230612   0.126   4.072   6.989
 9905SOL     OW30613   1.476   6.491   6.747
 9905SOL    HW130614   1.498   6.416   6.684
 9905SOL    HW230615   1.400   6.544   6.710
 9906SOL     OW30616   2.145   3.469   6.747
 9906SOL    HW130617   2.121   3.388   6.694
 9906SOL    HW230618   2.063   3.524   6.763
 9907SOL     OW30619   1.467   0.557   3.765
 9907SOL    HW130620   1.546   0.616   3.780
 9907SOL    HW230621   1.396   0.608   3.716
 9908SOL     OW30622   0.559   3.524   5.803
 9908SOL    HW130623   0.625   3.496   5.734
 9908SOL    HW230624   0.544   3.448   5.867
 9909SOL     OW30625   3.305   0.195   3.402
 9909SOL    HW130626   3.397   0.208   3.438
 9909SOL    HW230627   3.294   0.247   3.317
 9910SOL     OW30628   1.621   5.477   1.507
 9910SOL    HW130629   1.677   5.555   1.479
 9910SOL    HW230630   1.574   5.499   1.593
 9911SOL     OW30631   4.467   5.874   2.284
 9911SOL    HW130632   4.477   5.780   2.318
 9911SOL    HW230633   4.410   5.926   2.347
 9912SOL     OW30634   4.127   0.682   1.242
 9912SOL    HW130635   4.204   0.649   1.297
 9912SOL    HW230636   4.094   0.769   1.280
 9913SOL     OW30637   6.392   3.813   1.955
 9913SOL    HW130638   6.412   3.899   2.002
 9913SOL    HW230639   6.379   3.741   2.023
 9914SOL     OW30640   0.792   0.812   5.548
 9914SOL    HW130641   0.889   0.833   5.534
 9914SOL    HW230642   0.783   0.727   5.602
 9915SOL     OW30643   4.730   2.947   4.211
 9915SOL    HW130644   4.822   2.915   4.187
 9915SOL    HW230645   4.665   2.914   4.142
 9916SOL     OW30646   1.818   2.189   3.316
 9916SOL    HW130647   1.854   2.119   3.254
 9916SOL    HW230648   1.736   2.154   3.362
 9917SOL     OW30649   3.320   3.495   4.718
 9917SOL    HW130650   3.378   3.449   4.785
 9917SOL    HW230651   3.373   3.564   4.669
 9918SOL     OW30652   1.022   2.145   1.473
 9918SOL    HW130653   0.937   2.172   1.519
 9918SOL    HW230654   1.085   2.107   1.541
 9919SOL     OW30655   2.554   5.960   1.102
 9919SOL    HW130656   2.633   6.022   1.101
 9919SOL    HW230657   2.504   5.968   1.016
 9920SOL     OW30658   3.400   0.423   2.907
 9920SOL    HW130659   3.401   0.400   2.809
 9920SOL    HW230660   3.308   0.455   2.932
 9921SOL     OW30661   4.887   6.190   4.294
 9921SOL    HW130662   4.900   6.164   4.198
 9921SOL    HW230663   4.792   6.216   4.309
 9922SOL     OW30664   4.670   4.466   0.890
 9922SOL    HW130665   4.612   4.483   0.969
 9922SOL    HW230666   4.647   4.532   0.818
 9923SOL     OW30667   6.784   3.434   6.581
 9923SOL    HW130668   6.719   3.368   6.547
 9923SOL    HW230669   6.846   3.390   6.646
 9924SOL     OW30670   4.962   2.026   3.663
 9924SOL    HW130671   4.937   1.933   3.689
 9924SOL    HW230672   4.952   2.037   3.564
 9925SOL     OW30673   1.718   4.364   4.171
 9925SOL    HW130674   1.619   4.369   4.185
 9925SOL    HW230675   1.765   4.403   4.251
 9926SOL     OW30676   3.438   2.689   0.780
 9926SOL    HW130677   3.363   2.670   0.843
 9926SOL    HW230678   3.464   2.786   0.788
 9927SOL     OW30679   0.850   2.072   0.684
 9927SOL    HW130680   0.809   2.004   0.744
 9927SOL    HW230681   0.872   2.154   0.736
 9928SOL     OW30682   5.362   3.714   2.787
 9928SOL    HW130683   5.321   3.769   2.715
 9928SOL    HW230684   5.345   3.617   2.770
 9929SOL     OW30685   3.655   4.208   5.076
 9929SOL    HW130686   3.753   4.193   5.090
 9929SOL    HW230687   3.636   4.214   4.978
 9930SOL     OW30688   0.799   0.261   6.062
 9930SOL    HW130689   0.736   0.338   6.054
 9930SOL    HW230690   0.750   0.181   6.097
 9931SOL     OW30691   6.975   5.477   4.812
 9931SOL    HW130692   6.999   5.491   4.716
 9931SOL    HW230693   0.041   5.479   4.867
 9932SOL     OW30694   1.617   1.256   6.767
 9932SOL    HW130695   1.578   1.326   6.827
 9932SOL    HW230696   1.700   1.219   6.808
 9933SOL     OW30697   1.535   1.173   4.211
 9933SOL    HW130698   1.616   1.228   4.232
 9933SOL    HW230699   1.540   1.087   4.262
 9934SOL     OW30700   6.122   1.644   6.693
 9934SOL    HW130701   6.094   1.580   6.764
 9934SOL    HW230702   6.084   1.735   6.713
 9935SOL     OW30703   2.333   0.983   0.553
 9935SOL    HW130704   2.278   0.919   0.498
 9935SOL    HW230705   2.403   0.931   0.603
 9936SOL     OW30706   6.936   5.219   0.107
 9936SOL    HW130707   0.011   5.183   0.098
 9936SOL    HW230708   6.900   5.198   0.198
 9937SOL     OW30709   1.405   0.907   3.510
 9937SOL    HW130710   1.485   0.902   3.449
 9937SOL    HW230711   1.398   0.999   3.547
 9938SOL     OW30712   5.776   0.202   3.991
 9938SOL    HW130713   5.714   0.236   4.062
 9938SOL    HW230714   5.830   0.278   3.955
 9939SOL     OW30715   2.263   2.758   1.149
 9939SOL    HW130716   2.246   2.790   1.242
 9939SOL    HW230717   2.361   2.760   1.129
 9940SOL     OW30718   0.781   0.689   4.141
 9940SOL    HW130719   0.799   0.657   4.235
 9940SOL    HW230720   0.703   0.751   4.142
 9941SOL     OW30721   3.182   5.598   5.637
 9941SOL    HW130722   3.255   5.598   5.705
 9941SOL    HW230723   3.157   5.692   5.614
 9942SOL     OW30724   4.576   5.490   1.413
 9942SOL    HW130725   4.664   5.533   1.433
 9942SOL    HW230726   4.514   5.506   1.489
 9943SOL     OW30727   0.997   4.018   6.206
 9943SOL    HW130728   1.016   3.928   6.168
 9943SOL    HW230729   0.899   4.033   6.209
 9944SOL     OW30730   0.157   5.516   6.639
 9944SOL    HW130731   0.104   5.590   6.598
 9944SOL    HW230732   0.112   5.486   6.723
 9945SOL     OW30733   5.289   4.200   6.612
 9945SOL    HW130734   5.221   4.138   6.573
 9945SOL    HW230735   5.340   4.245   6.539
 9946SOL     OW30736   6.063   0.338   3.131
 9946SOL    HW130737   5.970   0.324   3.095
 9946SOL    HW230738   6.061   0.331   3.231
 9947SOL     OW30739   2.277   1.332   4.172
 9947SOL    HW130740   2.342   1.325   4.096
 9947SOL    HW230741   2.189   1.364   4.137
 9948SOL     OW30742   6.434   5.764   5.706
 9948SOL    HW130743   6.486   5.839   5.747
 9948SOL    HW230744   6.473   5.740   5.618
 9949SOL     OW30745   6.864   5.048   4.308
 9949SOL    HW130746   6.827   5.135   4.343
 9949SOL    HW230747   6.876   4.985   4.385
 9950SOL     OW30748   6.707   6.166   5.750
 9950SOL    HW130749   6.654   6.143   5.832
 9950SOL    HW230750   6.804   6.149   5.767
 9951SOL     OW30751   1.983   2.184   2.509
 9951SOL    HW130752   1.952   2.198   2.415
 9951SOL    HW230753   1.905   2.155   2.565
 9952SOL     OW30754   1.703   3.702   0.635
 9952SOL    HW130755   1.632   3.731   0.571
 9952SOL    HW230756   1.689   3.606   0.660
 9953SOL     OW30757   5.334   2.977   3.815
 9953SOL    HW130758   5.407   3.028   3.769
 9953SOL    HW230759   5.371   2.893   3.855
 9954SOL     OW30760   1.288   6.962   5.051
 9954SOL    HW130761   1.252   6.949   5.143
 9954SOL    HW230762   1.375   7.012   5.056
 9955SOL     OW30763   4.259   3.732   6.812
 9955SOL    HW130764   4.226   3.689   6.727
 9955SOL    HW230765   4.182   3.777   6.857
 9956SOL     OW30766   0.573   3.429   2.598
 9956SOL    HW130767   0.642   3.359   2.613
 9956SOL    HW230768   0.563   3.485   2.681
 9957SOL     OW30769   5.729   0.219   1.767
 9957SOL    HW130770   5.753   0.312   1.793
 9957SOL    HW230771   5.708   0.166   1.850
 9958SOL     OW30772   3.474   6.223   5.824
 9958SOL    HW130773   3.559   6.182   5.792
 9958SOL    HW230774   3.398   6.160   5.808
 9959SOL     OW30775   4.139   3.596   2.557
 9959SOL    HW130776   4.200   3.658   2.607
 9959SOL    HW230777   4.048   3.638   2.550
 9960SOL     OW30778   0.520   6.192   1.149
 9960SOL    HW130779   0.592   6.128   1.119
 9960SOL    HW230780   0.527   6.276   1.096
 9961SOL     OW30781   2.306   4.441   3.095
 9961SOL    HW130782   2.377   4.477   3.035
 9961SOL    HW230783   2.310   4.341   3.095
 9962SOL     OW30784   3.685   0.459   2.397
 9962SOL    HW130785   3.733   0.545   2.378
 9962SOL    HW230786   3.608   0.450   2.335
 9963SOL     OW30787   2.845   3.198   6.185
 9963SOL    HW130788   2.899   3.257   6.124
 9963SOL    HW230789   2.789   3.137   6.129
 9964SOL     OW30790   4.393   5.102   5.847
 9964SOL    HW130791   4.297   5.130   5.842
 9964SOL    HW230792   4.400   5.006   5.820
 9965SOL     OW30793   3.362   4.912   5.117
 9965SOL    HW130794   3.279   4.894   5.065
 9965SOL    HW230795   3.434   4.944   5.055
 9966SOL     OW30796   2.496   4.734   1.658
 9966SOL    HW130797   2.419   4.793   1.632
 9966SOL    HW230798   2.517   4.671   1.584
 9967SOL     OW30799   6.148   5.054   2.593
 9967SOL    HW130800   6.091   5.123   2.640
 9967SOL    HW230801   6.226   5.100   2.550
 9968SOL     OW30802   4.009   5.741   6.621
 9968SOL    HW130803   4.027   5.833   6.657
 9968SOL    HW230804   4.003   5.745   6.522
 9969SOL     OW30805   1.621   2.765   3.825
 9969SOL    HW130806   1.641   2.854   3.866
 9969SOL    HW230807   1.681   2.751   3.746
 9970SOL     OW30808   0.183   4.758   2.462
 9970SOL    HW130809   0.128   4.841   2.454
 9970SOL    HW230810   0.152   4.705   2.541
 9971SOL     OW30811   2.555   3.882   0.669
 9971SOL    HW130812   2.644   3.849   0.698
 9971SOL    HW230813   2.483   3.836   0.721
 9972SOL     OW30814   3.242   4.504   0.943
 9972SOL    HW130815   3.326   4.524   0.993
 9972SOL    HW230816   3.168   4.485   1.008
 9973SOL     OW30817   3.946   2.209   4.653
 9973SOL    HW130818   3.894   2.214   4.739
 9973SOL    HW230819   3.882   2.202   4.576
 9974SOL     OW30820   6.474   2.786   2.845
 9974SOL    HW130821   6.507   2.723   2.915
 9974SOL    HW230822   6.374   2.780   2.840
 9975SOL     OW30823   0.099   4.641   6.794
 9975SOL    HW130824   0.068   4.622   6.701
 9975SOL    HW230825   0.192   4.607   6.805
 9976SOL     OW30826   0.124   5.085   5.135
 9976SOL    HW130827   0.125   5.000   5.187
 9976SOL    HW230828   0.033   5.098   5.096
 9977SOL     OW30829   6.640   5.561   6.083
 9977SOL    HW130830   6.716   5.568   6.148
 9977SOL    HW230831   6.601   5.469   6.087
 9978SOL     OW30832   6.219   1.733   5.105
 9978SOL    HW130833   6.237   1.763   5.199
 9978SOL    HW230834   6.213   1.634   5.102
 9979SOL     OW30835   6.335   4.206   6.051
 9979SOL    HW130836   6.251   4.230   6.003
 9979SOL    HW230837   6.396   4.285   6.054
 9980SOL     OW30838   1.521   0.749   0.288
 9980SOL    HW130839   1.474   0.714   0.207
 9980SOL    HW230840   1.503   0.847   0.298
 9981SOL     OW30841   3.129   1.719   0.497
 9981SOL    HW130842   3.113   1.811   0.531
 9981SOL    HW230843   3.225   1.710   0.469
 9982SOL     OW30844   0.810   1.787   3.875
 9982SOL    HW130845   0.836   1.694   3.901
 9982SOL    HW230846   0.828   1.801   3.778
 9983SOL     OW30847   1.032   0.858   1.698
 9983SOL    HW130848   1.013   0.765   1.666
 9983SOL    HW230849   1.054   0.916   1.619
 9984SOL     OW30850   0.388   0.028   0.627
 9984SOL    HW130851   0.449   0.107   0.638
 9984SOL    HW230852   0.411   6.997   0.543
 9985SOL     OW30853   3.377   0.079   1.226
 9985SOL    HW130854   3.374   0.014   1.302
 9985SOL    HW230855   3.453   0.057   1.166
 9986SOL     OW30856   5.343   4.534   0.009
 9986SOL    HW130857   5.366   4.626   6.996
 9986SOL    HW230858   5.413   4.469   6.997
 9987SOL     OW30859   6.327   2.034   2.415
 9987SOL    HW130860   6.415   2.021   2.370
 9987SOL    HW230861   6.323   2.126   2.455
 9988SOL     OW30862   0.228   5.014   4.502
 9988SOL    HW130863   0.177   4.954   4.563
 9988SOL    HW230864   0.293   5.068   4.555
 9989SOL     OW30865   5.846   3.950   3.077
 9989SOL    HW130866   5.798   3.870   3.114
 9989SOL    HW230867   5.936   3.923   3.045
 9990SOL     OW30868   2.430   0.543   3.600
 9990SOL    HW130869   2.448   0.512   3.506
 9990SOL    HW230870   2.508   0.521   3.658
 9991SOL     OW30871   1.459   2.959   4.309
 9991SOL    HW130872   1.494   2.866   4.297
 9991SOL    HW230873   1.505   3.021   4.245
 9992SOL     OW30874   3.963   3.727   0.736
 9992SOL    HW130875   4.043   3.783   0.716
 9992SOL    HW230876   3.904   3.775   0.801
 9993SOL     OW30877   3.928   6.367   3.002
 9993SOL    HW130878   3.987   6.444   2.980
 9993SOL    HW230879   3.865   6.351   2.926
 9994SOL     OW30880   0.046   3.692   3.398
 9994SOL    HW130881   0.105   3.683   3.318
 9994SOL    HW230882   0.041   3.788   3.426
 9995SOL     OW30883   3.330   6.945   3.847
 9995SOL    HW130884   3.392   6.994   3.908
 9995SOL    HW230885   3.281   7.010   3.789
 9996SOL     OW30886   2.847   3.213   1.266
 9996SOL    HW130887   2.784   3.258   1.204
 9996SOL    HW230888   2.868   3.122   1.232
 9997SOL     OW30889   5.020   1.202   1.531
 9997SOL    HW130890   5.087   1.175   1.601
 9997SOL    HW230891   4.962   1.123   1.508
 9998SOL     OW30892   5.097   4.075   2.626
 9998SOL    HW130893   5.161   4.150   2.611
 9998SOL    HW230894   5.054   4.086   2.715
 9999SOL     OW30895   6.942   5.610   5.543
 9999SOL    HW130896   6.996   5.618   5.627
 9999SOL    HW230897   6.967   5.683   5.480
10000SOL     OW30898   6.116   2.376   6.706
10000SOL    HW130899   6.198   2.427   6.681
10000SOL    HW230900   6.038   2.439   6.714
10001SOL     OW30901   4.309   0.628   1.463
10001SOL    HW130902   4.310   0.632   1.563
10001SOL    HW230903   4.289   0.534   1.434
10002SOL     OW30904   1.232   1.171   1.873
10002SOL    HW130905   1.215   1.175   1.971
10002SOL    HW230906   1.147   1.150   1.825
10003SOL     OW30907   3.009   2.010   2.320
10003SOL    HW130908   3.026   1.912   2.318
10003SOL    HW230909   2.945   2.034   2.247
10004SOL     OW30910   5.426   3.327   5.093
10004SOL    HW130911   5.475   3.307   5.008
10004SOL    HW230912   5.328   3.331   5.074
10005SOL     OW30913   3.546   5.538   2.947
10005SOL    HW130914   3.486   5.459   2.949
10005SOL    HW230915   3.628   5.516   2.893
10006SOL     OW30916   5.574   1.501   5.626
10006SOL    HW130917   5.563   1.403   5.609
10006SOL    HW230918   5.493   1.550   5.593
10007SOL     OW30919   0.787   3.039   4.205
10007SOL    HW130920   0.783   3.110   4.275
10007SOL    HW230921   0.875   2.992   4.209
10008SOL     OW30922   3.905   1.302   2.993
10008SOL    HW130923   3.958   1.289   3.077
10008SOL    HW230924   3.816   1.257   3.002
10009SOL     OW30925   2.130   4.289   1.502
10009SOL    HW130926   2.099   4.375   1.460
10009SOL    HW230927   2.054   4.223   1.502
10010SOL     OW30928   1.955   5.940   0.538
10010SOL    HW130929   1.966   5.841   0.544
10010SOL    HW230930   2.045   5.984   0.546
10011SOL     OW30931   0.834   3.316   6.785
10011SOL    HW130932   0.929   3.313   6.754
10011SOL    HW230933   0.817   3.403   6.833
10012SOL     OW30934   5.244   6.144   2.055
10012SOL    HW130935   5.236   6.199   1.972
10012SOL    HW230936   5.314   6.183   2.115
10013SOL     OW30937   2.213   1.625   4.330
10013SOL    HW130938   2.243   1.634   4.235
10013SOL    HW230939   2.216   1.529   4.357
10014SOL     OW30940   0.447   1.703   1.419
10014SOL    HW130941   0.380   1.765   1.378
10014SOL    HW230942   0.471   1.736   1.511
10015SOL     OW30943   4.145   4.811   6.990
10015SOL    HW130944   4.073   4.803   6.922
10015SOL    HW230945   4.188   4.722   7.005
10016SOL     OW30946   1.557   0.215   4.721
10016SOL    HW130947   1.497   0.295   4.732
10016SOL    HW230948   1.543   0.152   4.796
10017SOL     OW30949   1.925   1.601   2.706
10017SOL    HW130950   1.967   1.678   2.657
10017SOL    HW230951   1.997   1.543   2.744
10018SOL     OW30952   6.360   4.827   5.894
10018SOL    HW130953   6.382   4.895   5.823
10018SOL    HW230954   6.444   4.783   5.924
10019SOL     OW30955   0.320   2.007   3.109
10019SOL    HW130956   0.230   1.968   3.093
10019SOL    HW230957   0.379   1.939   3.153
10020SOL     OW30958   0.606   0.997   1.289
10020SOL    HW130959   0.522   0.943   1.291
10020SOL    HW230960   0.588   1.085   1.245
10021SOL     OW30961   0.825   1.779   2.424
10021SOL    HW130962   0.921   1.782   2.398
10021SOL    HW230963   0.797   1.684   2.439
10022SOL     OW30964   3.882   0.014   1.023
10022SOL    HW130965   3.912   0.102   0.986
10022SOL    HW230966   3.948   6.961   0.997
10023SOL     OW30967   2.612   5.052   4.809
10023SOL    HW130968   2.584   4.958   4.829
10023SOL    HW230969   2.642   5.096   4.894
10024SOL     OW30970   1.571   6.279   2.089
10024SOL    HW130971   1.569   6.309   1.994
10024SOL    HW230972   1.490   6.313   2.137
10025SOL     OW30973   2.296   2.103   1.632
10025SOL    HW130974   2.395   2.089   1.627
10025SOL    HW230975   2.249   2.016   1.619
10026SOL     OW30976   4.398   6.167   2.826
10026SOL    HW130977   4.363   6.224   2.900
10026SOL    HW230978   4.353   6.077   2.830
10027SOL     OW30979   1.075   3.693   4.992
10027SOL    HW130980   0.976   3.705   4.985
10027SOL    HW230981   1.120   3.746   4.920
10028SOL     OW30982   1.252   1.629   2.096
10028SOL    HW130983   1.231   1.656   2.190
10028SOL    HW230984   1.183   1.565   2.063
10029SOL     OW30985   2.396   1.626   4.080
10029SOL    HW130986   2.472   1.629   4.145
10029SOL    HW230987   2.425   1.580   3.996
10030SOL     OW30988   2.067   0.525   4.632
10030SOL    HW130989   1.980   0.535   4.680
10030SOL    HW230990   2.101   0.615   4.606
10031SOL     OW30991   5.829   4.791   4.168
10031SOL    HW130992   5.740   4.835   4.178
10031SOL    HW230993   5.869   4.817   4.080
10032SOL     OW30994   3.733   0.420   5.208
10032SOL    HW130995   3.802   0.490   5.223
10032SOL    HW230996   3.688   0.435   5.120
10033SOL     OW30997   4.680   1.934   4.352
10033SOL    HW130998   4.634   1.965   4.268
10033SOL    HW230999   4.632   1.970   4.432
10034SOL     OW31000   3.686   0.384   4.249
10034SOL    HW131001   3.651   0.321   4.317
10034SOL    HW231002   3.770   0.426   4.282
10035SOL     OW31003   0.266   4.612   2.690
10035SOL    HW131004   0.330   4.688   2.697
10035SOL    HW231005   0.270   4.557   2.774
10036SOL     OW31006   5.848   0.534   1.236
10036SOL    HW131007   5.887   0.625   1.224
10036SOL    HW231008   5.917   0.473   1.276
10037SOL     OW31009   6.044   1.494   0.713
10037SOL    HW131010   5.972   1.432   0.682
10037SOL    HW231011   6.056   1.484   0.812
10038SOL     OW31012   4.198   1.245   6.592
10038SOL    HW131013   4.159   1.320   6.537
10038SOL    HW231014   4.147   1.236   6.677
10039SOL     OW31015   4.110   0.175   4.974
10039SOL    HW131016   4.082   0.210   4.884
10039SOL    HW231017   4.040   0.111   5.007
10040SOL     OW31018   4.301   5.958   6.096
10040SOL    HW131019   4.323   5.873   6.048
10040SOL    HW231020   4.264   5.937   6.186
10041SOL     OW31021   4.531   5.799   6.605
10041SOL    HW131022   4.555   5.709   6.569
10041SOL    HW231023   4.435   5.799   6.634
10042SOL     OW31024   1.426   1.998   4.989
10042SOL    HW131025   1.504   2.018   5.049
10042SOL    HW231026   1.459   1.970   4.899
10043SOL     OW31027   0.175   2.480   4.364
10043SOL    HW131028   0.152   2.467   4.268
10043SOL    HW231029   0.141   2.402   4.417
10044SOL     OW31030   2.882   1.494   4.900
10044SOL    HW131031   2.888   1.570   4.965
10044SOL    HW231032   2.796   1.445   4.914
10045SOL     OW31033   4.847   0.074   3.410
10045SOL    HW131034   4.874   0.002   3.474
10045SOL    HW231035   4.752   0.099   3.425
10046SOL     OW31036   1.989   3.838   1.547
10046SOL    HW131037   2.050   3.812   1.472
10046SOL    HW231038   2.019   3.794   1.631
10047SOL     OW31039   6.413   4.000   5.137
10047SOL    HW131040   6.335   4.038   5.187
10047SOL    HW231041   6.448   3.921   5.186
10048SOL     OW31042   6.065   1.159   2.779
10048SOL    HW131043   6.134   1.090   2.761
10048SOL    HW231044   6.077   1.197   2.871
10049SOL     OW31045   0.116   0.047   6.872
10049SOL    HW131046   0.062   0.131   6.857
10049SOL    HW231047   0.065   7.002   6.930
10050SOL     OW31048   6.134   3.155   4.165
10050SOL    HW131049   6.083   3.179   4.247
10050SOL    HW231050   6.151   3.238   4.111
10051SOL     OW31051   5.030   2.450   5.219
10051SOL    HW131052   5.097   2.449   5.294
10051SOL    HW231053   4.981   2.537   5.219
10052SOL     OW31054   2.280   1.917   2.877
10052SOL    HW131055   2.345   1.960   2.815
10052SOL    HW231056   2.195   1.969   2.878
10053SOL     OW31057   3.021   5.732   2.557
10053SOL    HW131058   3.081   5.660   2.523
10053SOL    HW231059   2.969   5.772   2.481
10054SOL     OW31060   5.313   5.374   6.261
10054SOL    HW131061   5.351   5.400   6.172
10054SOL    HW231062   5.231   5.317   6.247
10055SOL     OW31063   6.143   2.285   4.643
10055SOL    HW131064   6.124   2.291   4.545
10055SOL    HW231065   6.139   2.189   4.672
10056SOL     OW31066   5.538   4.069   3.359
10056SOL    HW131067   5.534   4.147   3.421
10056SOL    HW231068   5.541   3.984   3.412
10057SOL     OW31069   4.421   1.629   4.900
10057SOL    HW131070   4.421   1.685   4.817
10057SOL    HW231071   4.383   1.682   4.976
10058SOL     OW31072   0.415   3.585   4.436
10058SOL    HW131073   0.334   3.557   4.487
10058SOL    HW231074   0.461   3.505   4.399
10059SOL     OW31075   5.932   0.239   1.527
10059SOL    HW131076   5.863   0.305   1.499
10059SOL    HW231077   5.906   0.199   1.615
10060SOL     OW31078   1.646   2.049   1.489
10060SOL    HW131079   1.707   2.025   1.564
10060SOL    HW231080   1.694   2.038   1.402
10061SOL     OW31081   4.312   1.573   3.776
10061SOL    HW131082   4.401   1.580   3.731
10061SOL    HW231083   4.304   1.642   3.847
10062SOL     OW31084   5.988   7.003   4.289
10062SOL    HW131085   5.967   6.951   4.206
10062SOL    HW231086   6.028   0.074   4.263
10063SOL     OW31087   2.256   0.985   3.741
10063SOL    HW131088   2.217   0.896   3.720
10063SOL    HW231089   2.356   0.980   3.733
10064SOL     OW31090   4.944   6.689   0.072
10064SOL    HW131091   4.940   6.641   7.002
10064SOL    HW231092   4.912   6.629   0.145
10065SOL     OW31093   2.125   0.540   2.390
10065SOL    HW131094   2.128   0.466   2.322
10065SOL    HW231095   2.081   0.620   2.349
10066SOL     OW31096   0.523   2.503   4.031
10066SOL    HW131097   0.447   2.534   4.089
10066SOL    HW231098   0.579   2.438   4.082
10067SOL     OW31099   6.858   4.230   5.089
10067SOL    HW131100   6.846   4.133   5.109
10067SOL    HW231101   6.776   4.264   5.041
10068SOL     OW31102   0.339   3.370   3.064
10068SOL    HW131103   0.413   3.314   3.028
10068SOL    HW231104   0.259   3.363   3.004
10069SOL     OW31105   2.263   4.869   2.627
10069SOL    HW131106   2.220   4.956   2.605
10069SOL    HW231107   2.291   4.823   2.542
10070SOL     OW31108   6.633   6.223   4.846
10070SOL    HW131109   6.700   6.155   4.875
10070SOL    HW231110   6.666   6.269   4.764
10071SOL     OW31111   6.349   5.872   4.662
10071SOL    HW131112   6.354   5.863   4.762
10071SOL    HW231113   6.255   5.890   4.635
10072SOL     OW31114   6.683   6.643   3.799
10072SOL    HW131115   6.640   6.641   3.709
10072SOL    HW231116   6.781   6.663   3.788
10073SOL     OW31117   6.016   4.316   5.306
10073SOL    HW131118   5.929   4.365   5.293
10073SOL    HW231119   6.090   4.369   5.265
10074SOL     OW31120   2.230   0.800   5.287
10074SOL    HW131121   2.326   0.794   5.315
10074SOL    HW231122   2.174   0.827   5.365
10075SOL     OW31123   2.014   2.663   2.742
10075SOL    HW131124   1.915   2.662   2.755
10075SOL    HW231125   2.037   2.618   2.655
10076SOL     OW31126   6.755   0.626   4.361
10076SOL    HW131127   6.713   0.547   4.316
10076SOL    HW231128   6.848   0.602   4.390
10077SOL     OW31129   3.963   2.665   5.907
10077SOL    HW131130   3.923   2.697   5.993
10077SOL    HW231131   3.920   2.578   5.881
10078SOL     OW31132   0.552   5.983   3.503
10078SOL    HW131133   0.457   5.952   3.503
10078SOL    HW231134   0.590   5.974   3.411
10079SOL     OW31135   5.935   3.899   4.121
10079SOL    HW131136   6.016   3.872   4.069
10079SOL    HW231137   5.859   3.839   4.096
10080SOL     OW31138   4.329   0.444   5.559
10080SOL    HW131139   4.404   0.494   5.516
10080SOL    HW231140   4.340   0.346   5.540
10081SOL     OW31141   6.730   0.406   0.869
10081SOL    HW131142   6.644   0.361   0.843
10081SOL    HW231143   6.729   0.425   0.967
10082SOL     OW31144   0.601   5.450   1.974
10082SOL    HW131145   0.508   5.482   1.986
10082SOL    HW231146   0.625   5.450   1.877
10083SOL     OW31147   3.908   0.903   3.500
10083SOL    HW131148   3.846   0.852   3.560
10083SOL    HW231149   3.991   0.926   3.550
10084SOL     OW31150   1.931   1.079   5.426
10084SOL    HW131151   1.944   1.139   5.505
10084SOL    HW231152   1.988   0.998   5.437
10085SOL     OW31153   2.501   5.512   0.869
10085SOL    HW131154   2.430   5.454   0.909
10085SOL    HW231155   2.508   5.597   0.921
10086SOL     OW31156   4.715   5.962   2.558
10086SOL    HW131157   4.706   5.984   2.461
10086SOL    HW231158   4.624   5.957   2.599
10087SOL     OW31159   6.799   6.745   4.266
10087SOL    HW131160   6.795   6.684   4.186
10087SOL    HW231161   6.720   6.729   4.325
10088SOL     OW31162   6.348   0.199   1.888
10088SOL    HW131163   6.378   0.125   1.948
10088SOL    HW231164   6.250   0.189   1.870
10089SOL     OW31165   2.892   1.760   2.896
10089SOL    HW131166   2.869   1.668   2.929
10089SOL    HW231167   2.858   1.771   2.803
10090SOL     OW31168   1.347   4.857   1.714
10090SOL    HW131169   1.379   4.791   1.646
10090SOL    HW231170   1.249   4.842   1.731
10091SOL     OW31171   0.324   4.622   6.465
10091SOL    HW131172   0.359   4.565   6.540
10091SOL    HW231173   0.229   4.599   6.447
10092SOL     OW31174   2.339   2.658   5.602
10092SOL    HW131175   2.346   2.569   5.558
10092SOL    HW231176   2.254   2.702   5.575
10093SOL     OW31177   5.960   3.273   5.013
10093SOL    HW131178   5.940   3.371   5.013
10093SOL    HW231179   5.903   3.227   4.945
10094SOL     OW31180   3.507   5.751   1.479
10094SOL    HW131181   3.420   5.800   1.475
10094SOL    HW231182   3.491   5.653   1.464
10095SOL     OW31183   5.822   2.207   5.264
10095SOL    HW131184   5.739   2.249   5.228
10095SOL    HW231185   5.797   2.127   5.319
10096SOL     OW31186   4.393   4.998   2.962
10096SOL    HW131187   4.387   5.051   2.878
10096SOL    HW231188   4.466   4.930   2.954
10097SOL     OW31189   0.744   1.211   0.117
10097SOL    HW131190   0.714   1.247   0.205
10097SOL    HW231191   0.790   1.283   0.065
10098SOL     OW31192   2.787   0.447   5.072
10098SOL    HW131193   2.722   0.371   5.082
10098SOL    HW231194   2.794   0.473   4.976
10099SOL     OW31195   0.427   5.086   1.086
10099SOL    HW131196   0.328   5.094   1.089
10099SOL    HW231197   0.462   5.140   1.009
10100SOL     OW31198   4.841   6.315   5.086
10100SOL    HW131199   4.778   6.244   5.053
10100SOL    HW231200   4.790   6.398   5.108
10101SOL     OW31201   6.202   3.973   2.494
10101SOL    HW131202   6.256   3.891   2.514
10101SOL    HW231203   6.238   4.017   2.412
10102SOL     OW31204   0.688   1.144   2.181
10102SOL    HW131205   0.629   1.065   2.197
10102SOL    HW231206   0.745   1.128   2.101
10103SOL     OW31207   2.964   0.552   5.739
10103SOL    HW131208   2.993   0.465   5.778
10103SOL    HW231209   3.014   0.568   5.653
10104SOL     OW31210   1.894   1.886   4.828
10104SOL    HW131211   1.824   1.828   4.787
10104SOL    HW231212   1.970   1.899   4.763
10105SOL     OW31213   1.602   0.881   6.904
10105SOL    HW131214   1.667   0.948   6.868
10105SOL    HW231215   1.520   0.880   6.847
10106SOL     OW31216   4.021   5.970   0.415
10106SOL    HW131217   3.967   6.051   0.438
10106SOL    HW231218   3.961   5.894   0.391
10107SOL     OW31219   5.853   1.740   5.532
10107SOL    HW131220   5.841   1.677   5.456
10107SOL    HW231221   5.924   1.705   5.594
10108SOL     OW31222   6.557   0.494   0.186
10108SOL    HW131223   6.550   0.486   0.285
10108SOL    HW231224   6.649   0.527   0.162
10109SOL     OW31225   5.502   0.908   0.591
10109SOL    HW131226   5.531   0.994   0.549
10109SOL    HW231227   5.551   0.896   0.678
10110SOL     OW31228   4.560   4.576   4.549
10110SOL    HW131229   4.551   4.476   4.551
10110SOL    HW231230   4.509   4.615   4.626
10111SOL     OW31231   5.937   3.904   3.728
10111SOL    HW131232   5.937   3.812   3.768
10111SOL    HW231233   5.983   3.967   3.792
10112SOL     OW31234   5.829   4.041   3.537
10112SOL    HW131235   5.834   4.140   3.549
10112SOL    HW231236   5.870   3.996   3.616
10113SOL     OW31237   4.380   6.960   6.621
10113SOL    HW131238   4.405   6.863   6.623
10113SOL    HW231239   4.439   7.008   6.557
10114SOL     OW31240   4.362   2.448   1.526
10114SOL    HW131241   4.347   2.471   1.622
10114SOL    HW231242   4.305   2.369   1.502
10115SOL     OW31243   3.642   0.573   4.985
10115SOL    HW131244   3.578   0.646   5.008
10115SOL    HW231245   3.734   0.612   4.974
10116SOL     OW31246   0.434   6.659   0.175
10116SOL    HW131247   0.509   6.645   0.239
10116SOL    HW231248   0.377   6.577   0.172
10117SOL     OW31249   0.098   6.620   6.057
10117SOL    HW131250   0.026   6.598   6.123
10117SOL    HW231251   0.164   6.683   6.099
10118SOL     OW31252   2.287   4.258   2.713
10118SOL    HW131253   2.281   4.245   2.812
10118SOL    HW231254   2.201   4.232   2.670
10119SOL     OW31255   6.951   5.723   4.909
10119SOL    HW131256   0.002   5.746   4.840
10119SOL    HW231257   6.920   5.629   4.895
10120SOL     OW31258   2.294   2.943   4.370
10120SOL    HW131259   2.313   3.040   4.355
10120SOL    HW231260   2.195   2.931   4.384
10121SOL     OW31261   6.062   3.717   0.001
10121SOL    HW131262   5.985   3.772   0.035
10121SOL    HW231263   6.093   3.656   0.073
10122SOL     OW31264   5.661   3.156   2.441
10122SOL    HW131265   5.747   3.104   2.447
10122SOL    HW231266   5.584   3.094   2.453
10123SOL     OW31267   5.752   5.760   0.606
10123SOL    HW131268   5.690   5.681   0.610
10123SOL    HW231269   5.764   5.788   0.511
10124SOL     OW31270   1.326   4.528   0.573
10124SOL    HW131271   1.291   4.440   0.604
10124SOL    HW231272   1.268   4.563   0.500
10125SOL     OW31273   1.660   1.354   1.878
10125SOL    HW131274   1.602   1.393   1.949
10125SOL    HW231275   1.648   1.255   1.875
10126SOL     OW31276   6.958   0.250   6.855
10126SOL    HW131277   6.955   0.335   6.908
10126SOL    HW231278   6.865   0.222   6.832
10127SOL     OW31279   2.550   4.007   6.784
10127SOL    HW131280   2.533   3.927   6.726
10127SOL    HW231281   2.648   4.024   6.788
10128SOL     OW31282   3.113   0.921   6.896
10128SOL    HW131283   3.145   0.826   6.890
10128SOL    HW231284   3.150   0.974   6.820
10129SOL     OW31285   6.264   1.295   2.615
10129SOL    HW131286   6.211   1.240   2.681
10129SOL    HW231287   6.353   1.252   2.601
10130SOL     OW31288   1.320   2.359   1.016
10130SOL    HW131289   1.387   2.286   1.004
10130SOL    HW231290   1.264   2.339   1.097
10131SOL     OW31291   1.758   6.576   4.589
10131SOL    HW131292   1.783   6.482   4.613
10131SOL    HW231293   1.773   6.635   4.668
10132SOL     OW31294   3.381   0.598   3.701
10132SOL    HW131295   3.311   0.663   3.729
10132SOL    HW231296   3.410   0.544   3.781
10133SOL     OW31297   4.313   6.360   0.726
10133SOL    HW131298   4.235   6.379   0.785
10133SOL    HW231299   4.390   6.330   0.783
10134SOL     OW31300   6.563   0.098   2.500
10134SOL    HW131301   6.537   0.195   2.501
10134SOL    HW231302   6.486   0.044   2.466
10135SOL     OW31303   4.897   3.366   3.395
10135SOL    HW131304   4.873   3.306   3.319
10135SOL    HW231305   4.906   3.460   3.362
10136SOL     OW31306   5.089   1.630   2.714
10136SOL    HW131307   5.092   1.730   2.713
10136SOL    HW231308   5.139   1.596   2.794
10137SOL     OW31309   0.293   3.660   4.157
10137SOL    HW131310   0.204   3.616   4.143
10137SOL    HW231311   0.324   3.641   4.250
10138SOL     OW31312   5.397   3.904   0.476
10138SOL    HW131313   5.444   3.856   0.549
10138SOL    HW231314   5.323   3.960   0.514
10139SOL     OW31315   3.238   3.389   3.273
10139SOL    HW131316   3.151   3.363   3.314
10139SOL    HW231317   3.313   3.361   3.333
10140SOL     OW31318   0.132   6.521   6.917
10140SOL    HW131319   0.059   6.586   6.898
10140SOL    HW231320   0.209   6.538   6.856
10141SOL     OW31321   4.040   0.818   5.801
10141SOL    HW131322   3.978   0.784   5.730
10141SOL    HW231323   3.993   0.819   5.889
10142SOL     OW31324   6.472   0.094   5.645
10142SOL    HW131325   6.395   0.099   5.708
10142SOL    HW231326   6.484   0.183   5.599
10143SOL     OW31327   5.133   1.674   0.480
10143SOL    HW131328   5.060   1.648   0.543
10143SOL    HW231329   5.182   1.753   0.516
10144SOL     OW31330   4.067   0.188   6.211
10144SOL    HW131331   4.125   0.114   6.177
10144SOL    HW231332   4.116   0.274   6.205
10145SOL     OW31333   3.222   5.204   3.234
10145SOL    HW131334   3.214   5.296   3.194
10145SOL    HW231335   3.165   5.198   3.316
10146SOL     OW31336   4.821   4.075   5.068
10146SOL    HW131337   4.820   4.047   4.972
10146SOL    HW231338   4.792   3.998   5.125
10147SOL     OW31339   5.086   4.349   6.341
10147SOL    HW131340   5.106   4.433   6.290
10147SOL    HW231341   5.044   4.372   6.429
10148SOL     OW31342   4.926   4.807   6.466
10148SOL    HW131343   5.022   4.815   6.491
10148SOL    HW231344   4.891   4.719   6.500
10149SOL     OW31345   5.714   3.945   1.841
10149SOL    HW131346   5.741   3.888   1.918
10149SOL    HW231347   5.623   3.983   1.859
10150SOL     OW31348   3.824   3.200   0.949
10150SOL    HW131349   3.866   3.282   0.986
10150SOL    HW231350   3.855   3.120   0.999
10151SOL     OW31351   0.748   5.754   0.365
10151SOL    HW131352   0.803   5.713   0.438
10151SOL    HW231353   0.788   5.734   0.276
10152SOL     OW31354   6.745   6.601   4.048
10152SOL    HW131355   6.742   6.503   4.064
10152SOL    HW231356   6.726   6.620   3.952
10153SOL     OW31357   4.442   6.098   3.225
10153SOL    HW131358   4.464   6.002   3.243
10153SOL    HW231359   4.497   6.157   3.284
10154SOL     OW31360   3.846   6.019   4.620
10154SOL    HW131361   3.892   5.933   4.638
10154SOL    HW231362   3.753   6.015   4.656
10155SOL     OW31363   4.195   2.112   6.512
10155SOL    HW131364   4.098   2.134   6.503
10155SOL    HW231365   4.249   2.182   6.465
10156SOL     OW31366   4.859   0.594   2.264
10156SOL    HW131367   4.903   0.513   2.226
10156SOL    HW231368   4.930   0.656   2.300
10157SOL     OW31369   0.198   2.126   0.397
10157SOL    HW131370   0.174   2.074   0.478
10157SOL    HW231371   0.250   2.208   0.423
10158SOL     OW31372   6.492   5.789   0.722
10158SOL    HW131373   6.505   5.731   0.803
10158SOL    HW231374   6.547   5.872   0.732
10159SOL     OW31375   2.880   2.645   1.100
10159SOL    HW131376   2.835   2.664   1.013
10159SOL    HW231377   2.811   2.640   1.173
10160SOL     OW31378   1.441   2.635   2.172
10160SOL    HW131379   1.409   2.703   2.106
10160SOL    HW231380   1.539   2.621   2.160
10161SOL     OW31381   3.852   4.136   0.482
10161SOL    HW131382   3.919   4.178   0.421
10161SOL    HW231383   3.781   4.203   0.504
10162SOL     OW31384   3.776   4.628   0.706
10162SOL    HW131385   3.870   4.600   0.689
10162SOL    HW231386   3.757   4.623   0.805
10163SOL     OW31387   6.691   3.701   0.323
10163SOL    HW131388   6.606   3.676   0.276
10163SOL    HW231389   6.727   3.620   0.370
10164SOL     OW31390   6.117   3.590   4.455
10164SOL    HW131391   6.167   3.503   4.456
10164SOL    HW231392   6.146   3.646   4.532
10165SOL     OW31393   6.617   1.248   3.790
10165SOL    HW131394   6.537   1.249   3.850
10165SOL    HW231395   6.666   1.161   3.801
10166SOL     OW31396   3.286   1.871   1.689
10166SOL    HW131397   3.314   1.947   1.749
10166SOL    HW231398   3.286   1.903   1.595
10167SOL     OW31399   0.878   4.664   0.002
10167SOL    HW131400   0.886   4.756   6.979
10167SOL    HW231401   0.957   4.646   0.060
10168SOL     OW31402   5.993   2.446   6.425
10168SOL    HW131403   6.061   2.516   6.446
10168SOL    HW231404   6.039   2.359   6.409
10169SOL     OW31405   0.264   3.901   3.496
10169SOL    HW131406   0.327   3.834   3.537
10169SOL    HW231407   0.239   3.969   3.565
10170SOL     OW31408   6.404   5.973   6.141
10170SOL    HW131409   6.331   6.000   6.078
10170SOL    HW231410   6.391   5.877   6.168
10171SOL     OW31411   0.644   2.313   4.607
10171SOL    HW131412   0.743   2.301   4.611
10171SOL    HW231413   0.599   2.224   4.606
10172SOL     OW31414   1.101   5.454   5.047
10172SOL    HW131415   1.165   5.383   5.019
10172SOL    HW231416   1.044   5.419   5.122
10173SOL     OW31417   2.304   2.466   0.614
10173SOL    HW131418   2.287   2.373   0.647
10173SOL    HW231419   2.257   2.480   0.527
10174SOL     OW31420   5.062   5.276   3.297
10174SOL    HW131421   5.074   5.218   3.377
10174SOL    HW231422   4.982   5.336   3.310
10175SOL     OW31423   5.350   2.660   2.891
10175SOL    HW131424   5.410   2.601   2.945
10175SOL    HW231425   5.259   2.661   2.932
10176SOL     OW31426   0.346   3.193   5.046
10176SOL    HW131427   0.292   3.182   5.130
10176SOL    HW231428   0.393   3.108   5.025
10177SOL     OW31429   1.751   0.752   1.281
10177SOL    HW131430   1.807   0.778   1.203
10177SOL    HW231431   1.745   0.829   1.345
10178SOL     OW31432   6.777   0.545   0.028
10178SOL    HW131433   6.865   0.560   0.074
10178SOL    HW231434   6.785   0.576   6.950
10179SOL     OW31435   0.320   2.601   0.114
10179SOL    HW131436   0.237   2.585   0.168
10179SOL    HW231437   0.296   2.652   0.032
10180SOL     OW31438   4.281   0.380   6.188
10180SOL    HW131439   4.379   0.368   6.174
10180SOL    HW231440   4.263   0.471   6.225
10181SOL     OW31441   6.466   3.275   1.402
10181SOL    HW131442   6.562   3.247   1.400
10181SOL    HW231443   6.410   3.197   1.431
10182SOL     OW31444   4.360   1.221   0.988
10182SOL    HW131445   4.411   1.270   0.917
10182SOL    HW231446   4.348   1.125   0.960
10183SOL     OW31447   6.510   2.571   6.029
10183SOL    HW131448   6.584   2.515   6.065
10183SOL    HW231449   6.512   2.661   6.073
10184SOL     OW31450   4.555   1.403   6.312
10184SOL    HW131451   4.518   1.486   6.354
10184SOL    HW231452   4.483   1.334   6.307
10185SOL     OW31453   5.971   6.054   3.220
10185SOL    HW131454   5.887   6.096   3.256
10185SOL    HW231455   5.960   5.955   3.219
10186SOL     OW31456   5.160   3.897   4.382
10186SOL    HW131457   5.186   3.920   4.288
10186SOL    HW231458   5.062   3.877   4.385
10187SOL     OW31459   1.359   3.969   6.635
10187SOL    HW131460   1.329   4.064   6.646
10187SOL    HW231461   1.402   3.958   6.546
10188SOL     OW31462   3.867   4.288   6.785
10188SOL    HW131463   3.770   4.278   6.763
10188SOL    HW231464   3.878   4.355   6.859
10189SOL     OW31465   6.960   1.226   6.719
10189SOL    HW131466   6.986   1.167   6.643
10189SOL    HW231467   6.907   1.304   6.685
10190SOL     OW31468   3.894   3.379   1.159
10190SOL    HW131469   3.976   3.427   1.191
10190SOL    HW231470   3.865   3.313   1.228
10191SOL     OW31471   4.679   5.643   6.417
10191SOL    HW131472   4.676   5.544   6.436
10191SOL    HW231473   4.752   5.684   6.470
10192SOL     OW31474   4.214   1.125   5.457
10192SOL    HW131475   4.225   1.182   5.539
10192SOL    HW231476   4.117   1.112   5.438
10193SOL     OW31477   3.761   3.131   2.124
10193SOL    HW131478   3.841   3.079   2.154
10193SOL    HW231479   3.686   3.067   2.103
10194SOL     OW31480   4.777   0.603   5.605
10194SOL    HW131481   4.849   0.591   5.674
10194SOL    HW231482   4.738   0.694   5.614
10195SOL     OW31483   6.947   6.503   0.621
10195SOL    HW131484   6.922   6.460   0.708
10195SOL    HW231485   6.946   6.435   0.548
10196SOL     OW31486   3.569   2.135   3.719
10196SOL    HW131487   3.482   2.115   3.673
10196SOL    HW231488   3.643   2.138   3.651
10197SOL     OW31489   5.626   1.992   4.547
10197SOL    HW131490   5.592   2.020   4.637
10197SOL    HW231491   5.578   1.910   4.517
10198SOL     OW31492   3.328   6.985   2.131
10198SOL    HW131493   3.365   0.020   2.207
10198SOL    HW231494   3.317   6.889   2.158
10199SOL     OW31495   0.943   2.326   0.809
10199SOL    HW131496   0.943   2.345   0.908
10199SOL    HW231497   1.038   2.318   0.777
10200SOL     OW31498   4.677   3.401   5.345
10200SOL    HW131499   4.582   3.381   5.321
10200SOL    HW231500   4.700   3.494   5.314
10201SOL     OW31501   1.491   5.349   0.165
10201SOL    HW131502   1.466   5.258   0.131
10201SOL    HW231503   1.587   5.348   0.192
10202SOL     OW31504   2.897   4.573   0.370
10202SOL    HW131505   2.890   4.599   0.273
10202SOL    HW231506   2.977   4.617   0.411
10203SOL     OW31507   6.506   3.258   2.019
10203SOL    HW131508   6.527   3.327   1.950
10203SOL    HW231509   6.548   3.285   2.106
10204SOL     OW31510   4.359   5.578   6.314
10204SOL    HW131511   4.409   5.515   6.374
10204SOL    HW231512   4.376   5.553   6.219
10205SOL     OW31513   2.374   1.019   2.321
10205SOL    HW131514   2.336   0.985   2.406
10205SOL    HW231515   2.389   0.943   2.258
10206SOL     OW31516   6.794   0.206   6.475
10206SOL    HW131517   6.883   0.241   6.448
10206SOL    HW231518   6.747   0.168   6.395
10207SOL     OW31519   1.099   1.804   6.804
10207SOL    HW131520   1.087   1.901   6.825
10207SOL    HW231521   1.149   1.794   6.718
10208SOL     OW31522   6.632   5.606   3.797
10208SOL    HW131523   6.691   5.686   3.805
10208SOL    HW231524   6.598   5.579   3.887
10209SOL     OW31525   0.164   7.000   6.332
10209SOL    HW131526   0.095   6.932   6.309
10209SOL    HW231527   0.145   0.020   6.423
10210SOL     OW31528   4.819   6.053   0.452
10210SOL    HW131529   4.909   6.059   0.408
10210SOL    HW231530   4.831   6.027   0.548
10211SOL     OW31531   4.101   6.133   4.783
10211SOL    HW131532   4.169   6.065   4.811
10211SOL    HW231533   4.042   6.094   4.712
10212SOL     OW31534   6.976   0.026   5.528
10212SOL    HW131535   6.920   0.032   5.610
10212SOL    HW231536   6.923   0.056   5.449
10213SOL     OW31537   5.179   3.089   2.310
10213SOL    HW131538   5.116   3.113   2.384
10213SOL    HW231539   5.128   3.045   2.236
10214SOL     OW31540   0.732   1.632   1.726
10214SOL    HW131541   0.635   1.655   1.727
10214SOL    HW231542   0.783   1.703   1.776
10215SOL     OW31543   3.528   2.888   3.961
10215SOL    HW131544   3.557   2.796   3.934
10215SOL    HW231545   3.436   2.884   3.998
10216SOL     OW31546   0.694   1.453   0.636
10216SOL    HW131547   0.607   1.424   0.674
10216SOL    HW231548   0.690   1.549   0.610
10217SOL     OW31549   1.795   2.236   3.873
10217SOL    HW131550   1.709   2.235   3.822
10217SOL    HW231551   1.848   2.317   3.846
10218SOL     OW31552   1.271   0.645   1.434
10218SOL    HW131553   1.353   0.611   1.387
10218SOL    HW231554   1.298   0.700   1.513
10219SOL     OW31555   0.319   2.173   2.678
10219SOL    HW131556   0.269   2.155   2.594
10219SOL    HW231557   0.321   2.091   2.735
10220SOL     OW31558   3.976   1.297   1.732
10220SOL    HW131559   4.038   1.235   1.685
10220SOL    HW231560   3.973   1.384   1.682
10221SOL     OW31561   1.699   3.546   4.767
10221SOL    HW131562   1.778   3.510   4.718
10221SOL    HW231563   1.621   3.552   4.705
10222SOL     OW31564   3.111   3.787   5.460
10222SOL    HW131565   3.194   3.830   5.424
10222SOL    HW231566   3.050   3.763   5.386
10223SOL     OW31567   2.613   5.356   0.240
10223SOL    HW131568   2.649   5.331   0.330
10223SOL    HW231569   2.596   5.273   0.186
10224SOL     OW31570   6.570   1.986   5.315
10224SOL    HW131571   6.479   1.951   5.337
10224SOL    HW231572   6.616   2.016   5.398
10225SOL     OW31573   1.878   5.762   5.841
10225SOL    HW131574   1.916   5.850   5.814
10225SOL    HW231575   1.923   5.730   5.925
10226SOL     OW31576   2.062   0.392   6.095
10226SOL    HW131577   2.077   0.490   6.081
10226SOL    HW231578   2.039   0.375   6.191
10227SOL     OW31579   4.805   4.041   0.373
10227SOL    HW131580   4.707   4.050   0.358
10227SOL    HW231581   4.854   4.105   0.313
10228SOL     OW31582   1.662   5.607   2.215
10228SOL    HW131583   1.670   5.679   2.284
10228SOL    HW231584   1.738   5.614   2.150
10229SOL     OW31585   1.964   1.972   4.456
10229SOL    HW131586   1.933   1.877   4.456
10229SOL    HW231587   1.988   2.000   4.363
10230SOL     OW31588   6.575   6.974   3.302
10230SOL    HW131589   6.671   6.977   3.272
10230SOL    HW231590   6.518   6.942   3.227
10231SOL     OW31591   6.334   5.197   5.433
10231SOL    HW131592   6.273   5.241   5.500
10231SOL    HW231593   6.303   5.104   5.416
10232SOL     OW31594   2.722   1.786   3.988
10232SOL    HW131595   2.703   1.751   4.080
10232SOL    HW231596   2.767   1.876   3.995
10233SOL     OW31597   4.169   4.033   5.811
10233SOL    HW131598   4.141   4.061   5.903
10233SOL    HW231599   4.264   4.004   5.813
10234SOL     OW31600   6.259   0.854   6.871
10234SOL    HW131601   6.352   0.843   6.906
10234SOL    HW231602   6.195   0.806   6.931
10235SOL     OW31603   3.608   1.978   0.782
10235SOL    HW131604   3.559   1.971   0.869
10235SOL    HW231605   3.682   1.911   0.779
10236SOL     OW31606   1.547   0.892   1.425
10236SOL    HW131607   1.527   0.807   1.474
10236SOL    HW231608   1.552   0.872   1.327
10237SOL     OW31609   6.983   4.272   6.647
10237SOL    HW131610   6.994   4.175   6.667
10237SOL    HW231611   6.895   4.287   6.601
10238SOL     OW31612   3.843   3.925   2.381
10238SOL    HW131613   3.801   3.977   2.456
10238SOL    HW231614   3.815   3.964   2.294
10239SOL     OW31615   2.134   3.664   5.540
10239SOL    HW131616   2.210   3.623   5.490
10239SOL    HW231617   2.074   3.592   5.574
10240SOL     OW31618   2.003   4.444   2.892
10240SOL    HW131619   1.957   4.363   2.856
10240SOL    HW231620   1.968   4.464   2.983
10241SOL     OW31621   6.930   6.335   3.008
10241SOL    HW131622   7.012   6.279   2.998
10241SOL    HW231623   6.872   6.323   2.927
10242SOL     OW31624   0.191   1.301   1.615
10242SOL    HW131625   0.220   1.395   1.602
10242SOL    HW231626   0.269   1.245   1.645
10243SOL     OW31627   2.017   4.738   2.258
10243SOL    HW131628   2.107   4.698   2.241
10243SOL    HW231629   1.978   4.772   2.172
10244SOL     OW31630   1.657   4.059   0.538
10244SOL    HW131631   1.745   4.076   0.494
10244SOL    HW231632   1.660   4.093   0.632
10245SOL     OW31633   3.433   4.908   0.508
10245SOL    HW131634   3.372   4.918   0.587
10245SOL    HW231635   3.482   4.994   0.493
10246SOL     OW31636   3.431   3.366   3.475
10246SOL    HW131637   3.472   3.285   3.517
10246SOL    HW231638   3.496   3.406   3.411
10247SOL     OW31639   6.814   4.263   5.987
10247SOL    HW131640   6.888   4.330   5.979
10247SOL    HW231641   6.787   4.254   6.083
10248SOL     OW31642   1.613   0.071   2.976
10248SOL    HW131643   1.542   0.138   2.997
10248SOL    HW231644   1.688   0.117   2.928
10249SOL     OW31645   2.364   6.620   6.784
10249SOL    HW131646   2.390   6.714   6.803
10249SOL    HW231647   2.343   6.573   6.870
10250SOL     OW31648   6.165   3.027   1.965
10250SOL    HW131649   6.071   3.054   1.945
10250SOL    HW231650   6.199   2.970   1.890
10251SOL     OW31651   2.513   1.427   4.581
10251SOL    HW131652   2.606   1.436   4.617
10251SOL    HW231653   2.449   1.414   4.657
10252SOL     OW31654   4.283   5.034   6.501
10252SOL    HW131655   4.307   4.987   6.415
10252SOL    HW231656   4.186   5.022   6.520
10253SOL     OW31657   2.794   0.031   0.326
10253SOL    HW131658   2.801   6.955   0.363
10253SOL    HW231659   2.865   0.088   0.368
10254SOL     OW31660   4.791   0.700   5.266
10254SOL    HW131661   4.727   0.625   5.250
10254SOL    HW231662   4.785   0.765   5.191
10255SOL     OW31663   1.650   6.303   0.833
10255SOL    HW131664   1.572   6.284   0.892
10255SOL    HW231665   1.717   6.229   0.842
10256SOL     OW31666   5.468   1.121   1.466
10256SOL    HW131667   5.464   1.199   1.529
10256SOL    HW231668   5.462   1.036   1.518
10257SOL     OW31669   2.734   5.008   4.567
10257SOL    HW131670   2.760   4.913   4.580
10257SOL    HW231671   2.679   5.039   4.645
10258SOL     OW31672   3.525   0.885   4.034
10258SOL    HW131673   3.474   0.933   4.105
10258SOL    HW231674   3.549   0.948   3.961
10259SOL     OW31675   0.513   4.907   3.211
10259SOL    HW131676   0.498   4.909   3.310
10259SOL    HW231677   0.425   4.900   3.164
10260SOL     OW31678   1.243   0.955   3.972
10260SOL    HW131679   1.206   0.866   3.947
10260SOL    HW231680   1.339   0.960   3.945
10261SOL     OW31681   0.142   5.331   3.495
10261SOL    HW131682   0.112   5.395   3.425
10261SOL    HW231683   0.145   5.239   3.457
10262SOL     OW31684   2.401   0.020   5.175
10262SOL    HW131685   2.491   7.007   5.143
10262SOL    HW231686   2.377   0.106   5.129
10263SOL     OW31687   5.423   0.821   6.908
10263SOL    HW131688   5.446   0.883   6.833
10263SOL    HW231689   5.430   0.726   6.875
10264SOL     OW31690   6.046   0.697   6.991
10264SOL    HW131691   6.010   0.778   6.945
10264SOL    HW231692   5.973   0.653   0.027
10265SOL     OW31693   2.152   2.383   1.919
10265SOL    HW131694   2.167   2.399   1.821
10265SOL    HW231695   2.198   2.299   1.947
10266SOL     OW31696   4.037   3.156   3.844
10266SOL    HW131697   4.097   3.119   3.914
10266SOL    HW231698   4.061   3.251   3.826
10267SOL     OW31699   5.749   2.305   6.841
10267SOL    HW131700   5.814   2.301   6.916
10267SOL    HW231701   5.675   2.239   6.857
10268SOL     OW31702   6.343   5.929   2.175
10268SOL    HW131703   6.404   5.872   2.229
10268SOL    HW231704   6.307   6.003   2.232
10269SOL     OW31705   0.470   3.381   0.120
10269SOL    HW131706   0.530   3.460   0.136
10269SOL    HW231707   0.488   3.343   0.029
10270SOL     OW31708   3.760   4.889   2.819
10270SOL    HW131709   3.845   4.872   2.770
10270SOL    HW231710   3.685   4.901   2.754
10271SOL     OW31711   3.302   2.347   5.580
10271SOL    HW131712   3.264   2.280   5.644
10271SOL    HW231713   3.399   2.329   5.568
10272SOL     OW31714   0.921   1.382   4.620
10272SOL    HW131715   0.991   1.325   4.576
10272SOL    HW231716   0.834   1.368   4.573
10273SOL     OW31717   3.047   5.809   2.818
10273SOL    HW131718   3.069   5.905   2.802
10273SOL    HW231719   3.025   5.765   2.731
10274SOL     OW31720   0.434   5.590   4.869
10274SOL    HW131721   0.374   5.604   4.790
10274SOL    HW231722   0.506   5.525   4.844
10275SOL     OW31723   0.334   6.717   1.739
10275SOL    HW131724   0.250   6.663   1.741
10275SOL    HW231725   0.316   6.809   1.774
10276SOL     OW31726   5.685   5.048   5.207
10276SOL    HW131727   5.627   5.062   5.287
10276SOL    HW231728   5.781   5.054   5.234
10277SOL     OW31729   1.797   5.202   3.508
10277SOL    HW131730   1.724   5.226   3.444
10277SOL    HW231731   1.880   5.178   3.456
10278SOL     OW31732   0.002   1.971   4.729
10278SOL    HW131733   0.078   1.957   4.665
10278SOL    HW231734   6.933   1.970   4.678
10279SOL     OW31735   3.089   5.220   3.489
10279SOL    HW131736   3.177   5.216   3.536
10279SOL    HW231737   3.016   5.192   3.552
10280SOL     OW31738   0.187   3.155   1.042
10280SOL    HW131739   0.274   3.189   1.006
10280SOL    HW231740   0.125   3.232   1.058
10281SOL     OW31741   5.863   1.646   2.312
10281SOL    HW131742   5.878   1.551   2.285
10281SOL    HW231743   5.781   1.653   2.368
10282SOL     OW31744   5.140   3.894   4.651
10282SOL    HW131745   5.169   3.931   4.563
10282SOL    HW231746   5.121   3.969   4.714
10283SOL     OW31747   0.979   3.025   0.491
10283SOL    HW131748   0.993   3.124   0.488
10283SOL    HW231749   0.989   2.987   0.399
10284SOL     OW31750   4.791   3.019   5.152
10284SOL    HW131751   4.844   3.049   5.073
10284SOL    HW231752   4.790   3.091   5.221
10285SOL     OW31753   5.700   0.434   2.390
10285SOL    HW131754   5.688   0.476   2.300
10285SOL    HW231755   5.618   0.448   2.445
10286SOL     OW31756   3.166   2.078   3.746
10286SOL    HW131757   3.109   2.103   3.824
10286SOL    HW231758   3.139   2.133   3.666
10287SOL     OW31759   1.775   0.117   1.223
10287SOL    HW131760   1.740   0.094   1.132
10287SOL    HW231761   1.863   0.164   1.214
10288SOL     OW31762   4.533   6.705   3.421
10288SOL    HW131763   4.574   6.754   3.498
10288SOL    HW231764   4.582   6.729   3.337
10289SOL     OW31765   1.795   6.703   1.080
10289SOL    HW131766   1.846   6.705   0.994
10289SOL    HW231767   1.714   6.645   1.070
10290SOL     OW31768   3.260   3.884   2.298
10290SOL    HW131769   3.273   3.802   2.242
10290SOL    HW231770   3.163   3.896   2.317
10291SOL     OW31771   4.213   1.421   2.966
10291SOL    HW131772   4.132   1.366   2.945
10291SOL    HW231773   4.186   1.504   3.014
10292SOL     OW31774   1.516   0.640   5.128
10292SOL    HW131775   1.441   0.675   5.184
10292SOL    HW231776   1.603   0.665   5.170
10293SOL     OW31777   2.240   4.155   2.971
10293SOL    HW131778   2.177   4.147   3.048
10293SOL    HW231779   2.244   4.069   2.921
10294SOL     OW31780   5.361   2.767   3.233
10294SOL    HW131781   5.365   2.676   3.191
10294SOL    HW231782   5.432   2.775   3.302
10295SOL     OW31783   6.178   4.730   6.040
10295SOL    HW131784   6.238   4.763   5.967
10295SOL    HW231785   6.164   4.804   6.106
10296SOL     OW31786   4.502   1.800   0.810
10296SOL    HW131787   4.571   1.867   0.836
10296SOL    HW231788   4.411   1.832   0.839
10297SOL     OW31789   1.964   6.657   6.501
10297SOL    HW131790   2.059   6.627   6.504
10297SOL    HW231791   1.922   6.626   6.416
10298SOL     OW31792   2.891   4.230   1.276
10298SOL    HW131793   2.830   4.309   1.268
10298SOL    HW231794   2.909   4.192   1.186
10299SOL     OW31795   5.127   4.927   3.105
10299SOL    HW131796   5.220   4.895   3.122
10299SOL    HW231797   5.130   5.021   3.070
10300SOL     OW31798   1.308   3.740   3.473
10300SOL    HW131799   1.217   3.698   3.472
10300SOL    HW231800   1.300   3.836   3.444
10301SOL     OW31801   5.227   2.756   4.832
10301SOL    HW131802   5.251   2.809   4.750
10301SOL    HW231803   5.130   2.769   4.852
10302SOL     OW31804   2.452   6.500   4.178
10302SOL    HW131805   2.534   6.524   4.126
10302SOL    HW231806   2.472   6.501   4.276
10303SOL     OW31807   1.941   6.261   2.625
10303SOL    HW131808   1.937   6.168   2.591
10303SOL    HW231809   1.964   6.324   2.551
10304SOL     OW31810   5.309   7.002   1.656
10304SOL    HW131811   5.318   6.986   1.754
10304SOL    HW231812   5.225   0.036   1.638
10305SOL     OW31813   0.875   4.380   6.485
10305SOL    HW131814   0.955   4.421   6.528
10305SOL    HW231815   0.858   4.290   6.524
10306SOL     OW31816   4.934   6.906   5.849
10306SOL    HW131817   4.899   6.839   5.915
10306SOL    HW231818   4.863   6.972   5.827
10307SOL     OW31819   2.790   2.272   5.575
10307SOL    HW131820   2.748   2.363   5.576
10307SOL    HW231821   2.826   2.251   5.667
10308SOL     OW31822   2.683   4.642   3.429
10308SOL    HW131823   2.588   4.624   3.455
10308SOL    HW231824   2.740   4.649   3.511
10309SOL     OW31825   0.045   1.833   4.951
10309SOL    HW131826   7.006   1.868   5.026
10309SOL    HW231827   0.022   1.883   4.867
10310SOL     OW31828   3.179   4.026   1.543
10310SOL    HW131829   3.127   4.016   1.628
10310SOL    HW231830   3.124   3.995   1.466
10311SOL     OW31831   0.423   6.130   0.426
10311SOL    HW131832   0.468   6.206   0.379
10311SOL    HW231833   0.377   6.072   0.359
10312SOL     OW31834   3.375   6.392   2.320
10312SOL    HW131835   3.331   6.375   2.232
10312SOL    HW231836   3.314   6.445   2.379
10313SOL     OW31837   4.877   6.790   1.534
10313SOL    HW131838   4.781   6.795   1.506
10313SOL    HW231839   4.935   6.772   1.455
10314SOL     OW31840   6.366   0.549   1.667
10314SOL    HW131841   6.358   0.597   1.754
10314SOL    HW231842   6.413   0.462   1.681
10315SOL     OW31843   5.316   6.098   4.674
10315SOL    HW131844   5.285   6.037   4.747
10315SOL    HW231845   5.337   6.188   4.713
10316SOL     OW31846   6.709   2.401   4.171
10316SOL    HW131847   6.716   2.355   4.260
10316SOL    HW231848   6.788   2.375   4.115
10317SOL     OW31849   3.818   5.574   5.241
10317SOL    HW131850   3.815   5.579   5.141
10317SOL    HW231851   3.787   5.485   5.271
10318SOL     OW31852   5.238   5.962   5.912
10318SOL    HW131853   5.281   6.005   5.832
10318SOL    HW231854   5.269   5.867   5.919
10319SOL     OW31855   1.725   2.187   6.141
10319SOL    HW131856   1.652   2.205   6.206
10319SOL    HW231857   1.771   2.272   6.118
10320SOL     OW31858   0.198   0.436   3.237
10320SOL    HW131859   0.106   0.475   3.229
10320SOL    HW231860   0.261   0.507   3.268
10321SOL     OW31861   3.852   1.035   2.628
10321SOL    HW131862   3.868   1.022   2.530
10321SOL    HW231863   3.868   0.948   2.675
10322SOL     OW31864   6.245   6.213   6.218
10322SOL    HW131865   6.172   6.201   6.285
10322SOL    HW231866   6.271   6.125   6.180
10323SOL     OW31867   6.230   3.530   5.613
10323SOL    HW131868   6.141   3.490   5.592
10323SOL    HW231869   6.220   3.600   5.683
10324SOL     OW31870   3.286   2.946   2.587
10324SOL    HW131871   3.327   2.912   2.503
10324SOL    HW231872   3.348   2.931   2.664
10325SOL     OW31873   0.184   3.927   3.039
10325SOL    HW131874   0.084   3.926   3.035
10325SOL    HW231875   0.215   3.854   3.100
10326SOL     OW31876   4.541   3.584   0.289
10326SOL    HW131877   4.469   3.626   0.233
10326SOL    HW231878   4.588   3.514   0.235
10327SOL     OW31879   2.697   2.528   1.736
10327SOL    HW131880   2.773   2.509   1.797
10327SOL    HW231881   2.712   2.482   1.649
10328SOL     OW31882   5.880   2.047   1.367
10328SOL    HW131883   5.951   2.034   1.299
10328SOL    HW231884   5.918   2.033   1.458
10329SOL     OW31885   3.144   0.285   3.814
10329SOL    HW131886   3.147   0.372   3.764
10329SOL    HW231887   3.158   0.303   3.912
10330SOL     OW31888   4.151   6.812   2.529
10330SOL    HW131889   4.152   6.884   2.599
10330SOL    HW231890   4.143   6.853   2.439
10331SOL     OW31891   0.107   1.622   4.648
10331SOL    HW131892   0.048   1.612   4.728
10331SOL    HW231893   0.193   1.574   4.663
10332SOL     OW31894   6.037   0.945   0.965
10332SOL    HW131895   6.093   0.940   1.048
10332SOL    HW231896   6.055   1.032   0.919
10333SOL     OW31897   6.362   4.245   4.821
10333SOL    HW131898   6.322   4.266   4.732
10333SOL    HW231899   6.347   4.148   4.843
10334SOL     OW31900   3.892   6.041   3.597
10334SOL    HW131901   3.828   5.994   3.536
10334SOL    HW231902   3.937   6.115   3.548
10335SOL     OW31903   2.573   4.252   6.380
10335SOL    HW131904   2.576   4.320   6.307
10335SOL    HW231905   2.543   4.164   6.342
10336SOL     OW31906   6.227   7.013   2.685
10336SOL    HW131907   6.158   0.057   2.720
10336SOL    HW231908   6.315   0.014   2.730
10337SOL     OW31909   0.143   6.958   5.712
10337SOL    HW131910   0.101   6.959   5.803
10337SOL    HW231911   0.075   6.983   5.644
10338SOL     OW31912   2.599   6.159   1.954
10338SOL    HW131913   2.601   6.238   2.015
10338SOL    HW231914   2.673   6.096   1.978
10339SOL     OW31915   2.926   5.669   0.066
10339SOL    HW131916   2.879   5.625   0.143
10339SOL    HW231917   2.861   5.686   7.009
10340SOL     OW31918   1.529   5.855   1.165
10340SOL    HW131919   1.551   5.902   1.251
10340SOL    HW231920   1.530   5.921   1.090
10341SOL     OW31921   1.974   3.414   1.757
10341SOL    HW131922   1.908   3.423   1.831
10341SOL    HW231923   2.054   3.472   1.776
10342SOL     OW31924   0.775   6.678   4.959
10342SOL    HW131925   0.730   6.727   5.034
10342SOL    HW231926   0.794   6.584   4.987
10343SOL     OW31927   2.834   5.242   0.032
10343SOL    HW131928   2.768   5.307   0.070
10343SOL    HW231929   2.927   5.279   0.042
10344SOL     OW31930   4.056   4.453   1.716
10344SOL    HW131931   4.149   4.472   1.747
10344SOL    HW231932   3.998   4.532   1.735
10345SOL     OW31933   1.963   1.426   6.818
10345SOL    HW131934   2.015   1.358   6.870
10345SOL    HW231935   1.910   1.483   6.881
10346SOL     OW31936   5.977   6.852   1.414
10346SOL    HW131937   6.022   6.911   1.481
10346SOL    HW231938   5.895   6.897   1.380
10347SOL     OW31939   5.308   2.284   2.504
10347SOL    HW131940   5.397   2.238   2.508
10347SOL    HW231941   5.309   2.350   2.428
10348SOL     OW31942   6.222   1.664   0.343
10348SOL    HW131943   6.203   1.618   0.257
10348SOL    HW231944   6.280   1.744   0.326
10349SOL     OW31945   6.787   1.356   1.572
10349SOL    HW131946   6.882   1.385   1.560
10349SOL    HW231947   6.770   1.275   1.516
10350SOL     OW31948   2.153   6.133   5.463
10350SOL    HW131949   2.231   6.179   5.421
10350SOL    HW231950   2.129   6.052   5.409
10351SOL     OW31951   4.745   5.106   6.204
10351SOL    HW131952   4.768   5.090   6.300
10351SOL    HW231953   4.681   5.183   6.198
10352SOL     OW31954   4.872   2.108   6.730
10352SOL    HW131955   4.794   2.120   6.791
10352SOL    HW231956   4.955   2.097   6.784
10353SOL     OW31957   6.714   2.513   5.635
10353SOL    HW131958   6.662   2.472   5.560
10353SOL    HW231959   6.666   2.594   5.668
10354SOL     OW31960   6.065   2.151   2.164
10354SOL    HW131961   6.056   2.183   2.070
10354SOL    HW231962   6.130   2.209   2.213
10355SOL     OW31963   2.055   0.353   2.202
10355SOL    HW131964   2.080   0.334   2.107
10355SOL    HW231965   1.980   0.419   2.204
10356SOL     OW31966   6.783   3.911   5.951
10356SOL    HW131967   6.725   3.843   5.905
10356SOL    HW231968   6.774   3.999   5.904
10357SOL     OW31969   3.224   2.783   6.575
10357SOL    HW131970   3.192   2.875   6.600
10357SOL    HW231971   3.314   2.790   6.533
10358SOL     OW31972   6.160   3.382   3.700
10358SOL    HW131973   6.104   3.299   3.705
10358SOL    HW231974   6.159   3.428   3.788
10359SOL     OW31975   6.506   1.431   1.926
10359SOL    HW131976   6.576   1.363   1.905
10359SOL    HW231977   6.502   1.499   1.853
10360SOL     OW31978   4.423   5.228   1.180
10360SOL    HW131979   4.358   5.294   1.218
10360SOL    HW231980   4.391   5.135   1.200
10361SOL     OW31981   2.566   1.115   3.088
10361SOL    HW131982   2.622   1.187   3.129
10361SOL    HW231983   2.585   1.110   2.990
10362SOL     OW31984   0.842   5.343   3.753
10362SOL    HW131985   0.787   5.260   3.762
10362SOL    HW231986   0.786   5.422   3.778
10363SOL     OW31987   4.314   2.819   0.751
10363SOL    HW131988   4.286   2.760   0.675
10363SOL    HW231989   4.235   2.835   0.811
10364SOL     OW31990   3.406   3.515   1.931
10364SOL    HW131991   3.496   3.471   1.927
10364SOL    HW231992   3.364   3.512   1.841
10365SOL     OW31993   5.354   4.545   5.464
10365SOL    HW131994   5.257   4.532   5.487
10365SOL    HW231995   5.390   4.462   5.423
10366SOL     OW31996   3.837   0.046   4.272
10366SOL    HW131997   3.769   0.012   4.336
10366SOL    HW231998   3.854   6.995   4.202
10367SOL     OW31999   6.898   1.731   2.517
10367SOL    HW132000   6.817   1.690   2.477
10367SOL    HW232001   6.978   1.710   2.460
10368SOL     OW32002   2.201   0.971   2.524
10368SOL    HW132003   2.144   0.905   2.573
10368SOL    HW232004   2.145   1.049   2.496
10369SOL     OW32005   3.515   1.051   5.794
10369SOL    HW132006   3.522   1.086   5.888
10369SOL    HW232007   3.555   0.960   5.790
10370SOL     OW32008   5.712   1.257   5.285
10370SOL    HW132009   5.702   1.253   5.186
10370SOL    HW232010   5.628   1.224   5.328
10371SOL     OW32011   2.391   5.969   4.611
10371SOL    HW132012   2.295   5.940   4.612
10371SOL    HW232013   2.434   5.937   4.527
10372SOL     OW32014   1.957   1.022   0.511
10372SOL    HW132015   1.966   1.081   0.430
10372SOL    HW232016   2.040   0.969   0.523
10373SOL     OW32017   1.556   6.517   5.406
10373SOL    HW132018   1.649   6.488   5.432
10373SOL    HW232019   1.490   6.453   5.445
10374SOL     OW32020   2.628   1.234   3.409
10374SOL    HW132021   2.658   1.294   3.335
10374SOL    HW232022   2.702   1.221   3.475
10375SOL     OW32023   2.711   1.893   6.471
10375SOL    HW132024   2.734   1.913   6.376
10375SOL    HW232025   2.665   1.972   6.512
10376SOL     OW32026   1.094   5.799   3.523
10376SOL    HW132027   1.072   5.838   3.612
10376SOL    HW232028   1.078   5.700   3.525
10377SOL     OW32029   6.313   0.862   3.735
10377SOL    HW132030   6.274   0.923   3.666
10377SOL    HW232031   6.242   0.831   3.797
10378SOL     OW32032   5.573   6.610   5.249
10378SOL    HW132033   5.653   6.597   5.191
10378SOL    HW232034   5.508   6.670   5.203
10379SOL     OW32035   3.420   6.505   4.065
10379SOL    HW132036   3.505   6.475   4.109
10379SOL    HW232037   3.376   6.575   4.122
10380SOL     OW32038   0.506   2.348   5.041
10380SOL    HW132039   0.509   2.433   4.988
10380SOL    HW232040   0.424   2.297   5.017
10381SOL     OW32041   4.160   4.590   0.652
10381SOL    HW132042   4.198   4.669   0.699
10381SOL    HW232043   4.169   4.602   0.553
10382SOL     OW32044   2.095   4.802   1.268
10382SOL    HW132045   2.149   4.882   1.241
10382SOL    HW232046   2.150   4.719   1.259
10383SOL     OW32047   0.438   3.992   0.864
10383SOL    HW132048   0.470   3.913   0.915
10383SOL    HW232049   0.467   3.985   0.769
10384SOL     OW32050   6.710   0.458   1.172
10384SOL    HW132051   6.762   0.402   1.236
10384SOL    HW232052   6.736   0.554   1.182
10385SOL     OW32053   3.937   6.575   5.784
10385SOL    HW132054   3.908   6.625   5.703
10385SOL    HW232055   3.990   6.495   5.757
10386SOL     OW32056   6.523   1.570   5.205
10386SOL    HW132057   6.454   1.642   5.206
10386SOL    HW232058   6.608   1.605   5.245
10387SOL     OW32059   4.704   1.656   2.339
10387SOL    HW132060   4.610   1.642   2.369
10387SOL    HW232061   4.759   1.575   2.363
10388SOL     OW32062   2.157   5.653   2.184
10388SOL    HW132063   2.059   5.673   2.185
10388SOL    HW232064   2.183   5.615   2.095
10389SOL     OW32065   6.799   6.165   1.258
10389SOL    HW132066   6.724   6.231   1.267
10389SOL    HW232067   6.860   6.173   1.337
10390SOL     OW32068   1.937   2.304   1.231
10390SOL    HW132069   1.949   2.398   1.265
10390SOL    HW232070   1.981   2.240   1.294
10391SOL     OW32071   0.277   6.061   3.763
10391SOL    HW132072   0.302   6.009   3.681
10391SOL    HW232073   0.266   6.157   3.739
10392SOL     OW32074   6.764   4.203   6.250
10392SOL    HW132075   6.783   4.229   6.344
10392SOL    HW232076   6.795   4.109   6.234
10393SOL     OW32077   2.629   2.344   2.648
10393SOL    HW132078   2.533   2.367   2.634
10393SOL    HW232079   2.666   2.301   2.566
10394SOL     OW32080   2.165   6.046   4.915
10394SOL    HW132081   2.158   5.969   4.852
10394SOL    HW232082   2.186   6.014   5.007
10395SOL     OW32083   6.962   1.015   3.661
10395SOL    HW132084   6.868   0.986   3.646
10395SOL    HW232085   6.993   0.986   3.752
10396SOL     OW32086   2.988   0.659   3.888
10396SOL    HW132087   3.079   0.696   3.905
10396SOL    HW232088   2.958   0.606   3.967
10397SOL     OW32089   3.043   1.507   4.309
10397SOL    HW132090   3.055   1.493   4.211
10397SOL    HW232091   2.980   1.584   4.324
10398SOL     OW32092   4.920   2.151   0.562
10398SOL    HW132093   4.937   2.053   0.568
10398SOL    HW232094   4.995   2.196   0.513
10399SOL     OW32095   4.304   1.817   4.668
10399SOL    HW132096   4.291   1.916   4.660
10399SOL    HW232097   4.217   1.774   4.695
10400SOL     OW32098   4.082   5.607   0.293
10400SOL    HW132099   4.043   5.618   0.385
10400SOL    HW232100   4.159   5.543   0.298
10401SOL     OW32101   0.034   0.295   2.447
10401SOL    HW132102   0.110   0.340   2.401
10401SOL    HW232103   0.047   0.301   2.546
10402SOL     OW32104   0.647   2.363   6.053
10402SOL    HW132105   0.735   2.325   6.024
10402SOL    HW232106   0.604   2.412   5.977
10403SOL     OW32107   4.364   1.200   3.053
10403SOL    HW132108   4.303   1.129   3.088
10403SOL    HW232109   4.332   1.231   2.964
10404SOL     OW32110   6.973   7.001   4.727
10404SOL    HW132111   6.993   6.946   4.646
10404SOL    HW232112   0.041   0.014   4.768
10405SOL     OW32113   1.475   5.744   4.442
10405SOL    HW132114   1.396   5.792   4.480
10405SOL    HW232115   1.449   5.702   4.355
10406SOL     OW32116   2.175   3.265   5.403
10406SOL    HW132117   2.216   3.356   5.393
10406SOL    HW232118   2.149   3.229   5.313
10407SOL     OW32119   2.296   0.754   6.363
10407SOL    HW132120   2.378   0.796   6.324
10407SOL    HW232121   2.313   0.729   6.459
10408SOL     OW32122   4.119   6.281   1.806
10408SOL    HW132123   4.152   6.225   1.882
10408SOL    HW232124   4.028   6.317   1.827
10409SOL     OW32125   0.764   3.945   0.577
10409SOL    HW132126   0.675   3.989   0.563
10409SOL    HW232127   0.750   3.852   0.611
10410SOL     OW32128   5.689   2.469   1.207
10410SOL    HW132129   5.652   2.425   1.126
10410SOL    HW232130   5.714   2.400   1.275
10411SOL     OW32131   3.926   5.744   4.667
10411SOL    HW132132   4.010   5.724   4.616
10411SOL    HW232133   3.944   5.734   4.765
10412SOL     OW32134   6.764   0.933   0.761
10412SOL    HW132135   6.785   0.835   0.753
10412SOL    HW232136   6.831   0.977   0.820
10413SOL     OW32137   0.022   1.653   1.791
10413SOL    HW132138   6.985   1.731   1.823
10413SOL    HW232139   0.008   1.641   1.693
10414SOL     OW32140   3.953   5.986   5.688
10414SOL    HW132141   3.943   5.904   5.631
10414SOL    HW232142   4.047   5.992   5.721
10415SOL     OW32143   2.086   4.121   3.858
10415SOL    HW132144   2.040   4.206   3.883
10415SOL    HW232145   2.160   4.102   3.922
10416SOL     OW32146   5.720   0.342   5.159
10416SOL    HW132147   5.747   0.414   5.223
10416SOL    HW232148   5.707   0.256   5.209
10417SOL     OW32149   4.633   5.362   4.487
10417SOL    HW132150   4.658   5.301   4.412
10417SOL    HW232151   4.619   5.454   4.451
10418SOL     OW32152   6.123   3.994   5.894
10418SOL    HW132153   6.219   3.986   5.920
10418SOL    HW232154   6.108   4.084   5.852
10419SOL     OW32155   2.977   0.001   5.375
10419SOL    HW132156   2.991   0.070   5.447
10419SOL    HW232157   3.055   0.002   5.312
10420SOL     OW32158   6.988   3.793   3.964
10420SOL    HW132159   6.917   3.851   4.004
10420SOL    HW232160   0.031   3.848   3.908
10421SOL     OW32161   1.629   3.191   4.811
10421SOL    HW132162   1.571   3.240   4.746
10421SOL    HW232163   1.725   3.215   4.796
10422SOL     OW32164   7.016   3.695   4.977
10422SOL    HW132165   6.959   3.618   4.948
10422SOL    HW232166   0.086   3.692   4.928
10423SOL     OW32167   4.432   5.237   5.246
10423SOL    HW132168   4.471   5.210   5.334
10423SOL    HW232169   4.473   5.182   5.173
10424SOL     OW32170   4.027   3.119   0.267
10424SOL    HW132171   4.084   3.049   0.224
10424SOL    HW232172   4.084   3.196   0.294
10425SOL     OW32173   1.056   5.778   2.845
10425SOL    HW132174   1.073   5.872   2.875
10425SOL    HW232175   1.114   5.715   2.898
10426SOL     OW32176   5.329   4.346   6.054
10426SOL    HW132177   5.354   4.278   6.123
10426SOL    HW232178   5.290   4.300   5.974
10427SOL     OW32179   5.186   0.617   0.321
10427SOL    HW132180   5.183   0.638   0.223
10427SOL    HW232181   5.207   0.520   0.334
10428SOL     OW32182   3.118   1.452   4.063
10428SOL    HW132183   3.215   1.425   4.059
10428SOL    HW232184   3.099   1.519   3.991
10429SOL     OW32185   0.873   3.597   2.789
10429SOL    HW132186   0.964   3.617   2.825
10429SOL    HW232187   0.881   3.563   2.696
10430SOL     OW32188   3.491   6.620   4.983
10430SOL    HW132189   3.524   6.700   4.934
10430SOL    HW232190   3.391   6.615   4.976
10431SOL     OW32191   3.058   0.035   4.522
10431SOL    HW132192   3.006   0.113   4.555
10431SOL    HW232193   3.068   6.986   4.596
10432SOL     OW32194   0.049   1.560   4.959
10432SOL    HW132195   0.040   1.658   4.945
10432SOL    HW232196   0.100   1.543   5.044
10433SOL     OW32197   0.572   6.678   2.624
10433SOL    HW132198   0.527   6.592   2.648
10433SOL    HW232199   0.643   6.699   2.691
10434SOL     OW32200   3.618   6.078   4.368
10434SOL    HW132201   3.607   6.110   4.274
10434SOL    HW232202   3.712   6.049   4.384
10435SOL     OW32203   2.087   2.179   6.141
10435SOL    HW132204   2.061   2.138   6.229
10435SOL    HW232205   2.159   2.246   6.155
10436SOL     OW32206   6.525   3.747   4.530
10436SOL    HW132207   6.455   3.771   4.597
10436SOL    HW232208   6.494   3.668   4.476
10437SOL     OW32209   6.272   4.966   5.281
10437SOL    HW132210   6.194   4.945   5.341
10437SOL    HW232211   6.315   4.881   5.251
10438SOL     OW32212   0.769   6.288   5.872
10438SOL    HW132213   0.750   6.201   5.916
10438SOL    HW232214   0.824   6.345   5.934
10439SOL     OW32215   5.303   1.147   5.094
10439SOL    HW132216   5.288   1.054   5.126
10439SOL    HW232217   5.351   1.145   5.006
10440SOL     OW32218   0.230   6.867   0.249
10440SOL    HW132219   0.236   6.963   0.221
10440SOL    HW232220   0.316   6.840   0.292
10441SOL     OW32221   2.753   1.722   1.412
10441SOL    HW132222   2.736   1.632   1.372
10441SOL    HW232223   2.852   1.740   1.414
10442SOL     OW32224   4.466   6.801   4.871
10442SOL    HW132225   4.446   6.705   4.888
10442SOL    HW232226   4.493   6.845   4.957
10443SOL     OW32227   5.314   2.507   3.167
10443SOL    HW132228   5.348   2.470   3.253
10443SOL    HW232229   5.332   2.443   3.093
10444SOL     OW32230   4.027   5.868   2.026
10444SOL    HW132231   4.104   5.820   1.985
10444SOL    HW232232   3.950   5.868   1.962
10445SOL     OW32233   0.779   3.485   3.185
10445SOL    HW132234   0.780   3.498   3.284
10445SOL    HW232235   0.803   3.571   3.140
10446SOL     OW32236   1.976   3.424   6.344
10446SOL    HW132237   1.933   3.479   6.273
10446SOL    HW232238   2.029   3.351   6.302
10447SOL     OW32239   0.277   0.306   2.969
10447SOL    HW132240   0.286   0.405   2.956
10447SOL    HW232241   0.240   0.288   3.061
10448SOL     OW32242   3.937   0.678   2.033
10448SOL    HW132243   4.030   0.643   2.023
10448SOL    HW232244   3.933   0.773   2.000
10449SOL     OW32245   1.741   5.504   6.309
10449SOL    HW132246   1.782   5.442   6.242
10449SOL    HW232247   1.649   5.530   6.278
10450SOL     OW32248   6.963   1.581   0.062
10450SOL    HW132249   6.875   1.542   0.090
10450SOL    HW232250   7.008   1.518   7.015
10451SOL     OW32251   2.579   6.132   3.231
10451SOL    HW132252   2.505   6.195   3.209
10451SOL    HW232253   2.658   6.152   3.172
10452SOL     OW32254   6.211   2.896   2.865
10452SOL    HW132255   6.113   2.884   2.850
10452SOL    HW232256   6.226   2.967   2.934
10453SOL     OW32257   5.716   6.286   1.263
10453SOL    HW132258   5.736   6.234   1.346
10453SOL    HW232259   5.782   6.262   1.192
10454SOL     OW32260   5.790   2.184   0.347
10454SOL    HW132261   5.726   2.108   0.356
10454SOL    HW232262   5.882   2.148   0.328
10455SOL     OW32263   6.885   6.301   3.286
10455SOL    HW132264   6.881   6.338   3.193
10455SOL    HW232265   6.873   6.375   3.352
10456SOL     OW32266   1.270   5.161   0.715
10456SOL    HW132267   1.317   5.105   0.783
10456SOL    HW232268   1.262   5.255   0.749
10457SOL     OW32269   4.286   3.208   0.114
10457SOL    HW132270   4.246   3.251   0.033
10457SOL    HW232271   4.245   3.117   0.127
10458SOL     OW32272   6.402   0.414   5.810
10458SOL    HW132273   6.499   0.405   5.788
10458SOL    HW232274   6.361   0.323   5.814
10459SOL     OW32275   4.448   5.624   1.213
10459SOL    HW132276   4.525   5.681   1.186
10459SOL    HW232277   4.479   5.551   1.274
10460SOL     OW32278   1.888   4.274   1.724
10460SOL    HW132279   1.885   4.359   1.672
10460SOL    HW232280   1.932   4.203   1.669
10461SOL     OW32281   5.919   4.770   5.367
10461SOL    HW132282   5.943   4.862   5.335
10461SOL    HW232283   5.829   4.744   5.331
10462SOL     OW32284   5.603   2.326   2.932
10462SOL    HW132285   5.503   2.329   2.943
10462SOL    HW232286   5.640   2.250   2.984
10463SOL     OW32287   4.290   2.381   6.020
10463SOL    HW132288   4.195   2.372   6.049
10463SOL    HW232289   4.316   2.478   6.021
10464SOL     OW32290   6.011   6.506   2.298
10464SOL    HW132291   5.969   6.476   2.213
10464SOL    HW232292   6.024   6.428   2.359
10465SOL     OW32293   5.693   5.740   0.990
10465SOL    HW132294   5.731   5.833   0.992
10465SOL    HW232295   5.608   5.738   1.043
10466SOL     OW32296   4.644   4.668   5.203
10466SOL    HW132297   4.716   4.701   5.265
10466SOL    HW232298   4.643   4.725   5.121
10467SOL     OW32299   2.208   1.897   0.293
10467SOL    HW132300   2.217   1.990   0.258
10467SOL    HW232301   2.113   1.879   0.317
10468SOL     OW32302   3.661   4.882   3.398
10468SOL    HW132303   3.601   4.921   3.328
10468SOL    HW232304   3.628   4.909   3.489
10469SOL     OW32305   3.907   4.250   5.808
10469SOL    HW132306   3.950   4.287   5.725
10469SOL    HW232307   3.970   4.256   5.884
10470SOL     OW32308   1.567   1.849   3.362
10470SOL    HW132309   1.657   1.806   3.356
10470SOL    HW232310   1.578   1.945   3.386
10471SOL     OW32311   2.060   0.145   0.393
10471SOL    HW132312   2.138   0.090   0.425
10471SOL    HW232313   2.066   0.157   0.294
10472SOL     OW32314   3.028   5.864   0.428
10472SOL    HW132315   3.036   5.900   0.520
10472SOL    HW232316   3.049   5.766   0.428
10473SOL     OW32317   6.236   6.911   6.244
10473SOL    HW132318   6.217   6.858   6.327
10473SOL    HW232319   6.220   6.854   6.164
10474SOL     OW32320   4.162   1.354   4.241
10474SOL    HW132321   4.066   1.340   4.217
10474SOL    HW232322   4.168   1.404   4.327
10475SOL     OW32323   4.009   6.473   1.424
10475SOL    HW132324   4.095   6.465   1.373
10475SOL    HW232325   3.974   6.566   1.414
10476SOL     OW32326   6.137   6.223   6.532
10476SOL    HW132327   6.138   6.151   6.463
10476SOL    HW232328   6.049   6.223   6.579
10477SOL     OW32329   0.061   1.501   4.392
10477SOL    HW132330   0.086   1.547   4.477
10477SOL    HW232331   6.997   1.444   4.409
10478SOL     OW32332   6.212   0.378   0.700
10478SOL    HW132333   6.139   0.445   0.691
10478SOL    HW232334   6.273   0.405   0.774
10479SOL     OW32335   0.044   1.383   2.621
10479SOL    HW132336   0.029   1.285   2.616
10479SOL    HW232337   7.013   1.420   2.701
10480SOL     OW32338   0.941   0.654   2.179
10480SOL    HW132339   1.041   0.652   2.176
10480SOL    HW232340   0.909   0.748   2.185
10481SOL     OW32341   1.940   6.079   3.850
10481SOL    HW132342   1.943   6.011   3.776
10481SOL    HW232343   2.026   6.129   3.852
10482SOL     OW32344   6.476   4.957   4.199
10482SOL    HW132345   6.548   4.895   4.229
10482SOL    HW232346   6.387   4.911   4.205
10483SOL     OW32347   6.363   5.426   0.253
10483SOL    HW132348   6.337   5.411   0.348
10483SOL    HW232349   6.447   5.376   0.233
10484SOL     OW32350   5.690   1.846   1.655
10484SOL    HW132351   5.758   1.860   1.584
10484SOL    HW232352   5.729   1.789   1.728
10485SOL     OW32353   3.307   4.062   0.644
10485SOL    HW132354   3.362   3.993   0.597
10485SOL    HW232355   3.265   4.122   0.576
10486SOL     OW32356   0.308   0.480   0.610
10486SOL    HW132357   0.363   0.401   0.582
10486SOL    HW232358   0.277   0.468   0.704
10487SOL     OW32359   4.969   0.688   1.310
10487SOL    HW132360   5.021   0.735   1.239
10487SOL    HW232361   4.918   0.756   1.363
10488SOL     OW32362   3.590   1.171   6.332
10488SOL    HW132363   3.627   1.253   6.289
10488SOL    HW232364   3.526   1.126   6.270
10489SOL     OW32365   0.922   6.799   5.315
10489SOL    HW132366   0.954   6.809   5.409
10489SOL    HW232367   0.986   6.741   5.264
10490SOL     OW32368   5.891   1.352   1.170
10490SOL    HW132369   5.816   1.312   1.117
10490SOL    HW232370   5.965   1.380   1.108
10491SOL     OW32371   2.102   2.541   0.077
10491SOL    HW132372   2.170   2.587   0.134
10491SOL    HW232373   2.025   2.603   0.060
10492SOL     OW32374   5.611   4.875   5.967
10492SOL    HW132375   5.538   4.843   6.027
10492SOL    HW232376   5.571   4.918   5.886
10493SOL     OW32377   3.279   0.773   2.391
10493SOL    HW132378   3.349   0.844   2.403
10493SOL    HW232379   3.189   0.810   2.416
10494SOL     OW32380   5.518   3.960   6.016
10494SOL    HW132381   5.435   3.933   5.967
10494SOL    HW232382   5.598   3.931   5.963
10495SOL     OW32383   1.588   6.717   0.066
10495SOL    HW132384   1.680   6.727   0.026
10495SOL    HW232385   1.520   6.752   0.001
10496SOL     OW32386   0.191   4.025   6.417
10496SOL    HW132387   0.153   4.083   6.489
10496SOL    HW232388   0.141   3.938   6.413
10497SOL     OW32389   1.677   6.822   1.948
10497SOL    HW132390   1.723   6.902   1.909
10497SOL    HW232391   1.680   6.747   1.882
10498SOL     OW32392   3.278   5.289   0.702
10498SOL    HW132393   3.250   5.193   0.702
10498SOL    HW232394   3.245   5.334   0.784
10499SOL     OW32395   3.686   6.947   2.588
10499SOL    HW132396   3.658   6.989   2.675
10499SOL    HW232397   3.605   6.930   2.532
10500SOL     OW32398   6.222   1.689   6.417
10500SOL    HW132399   6.171   1.645   6.342
10500SOL    HW232400   6.174   1.673   6.503
10501SOL     OW32401   2.017   5.786   2.581
10501SOL    HW132402   1.961   5.716   2.626
10501SOL    HW232403   2.106   5.747   2.557
10502SOL     OW32404   2.409   0.349   1.412
10502SOL    HW132405   2.391   0.299   1.496
10502SOL    HW232406   2.387   0.446   1.426
10503SOL     OW32407   4.405   2.586   0.301
10503SOL    HW132408   4.354   2.658   0.347
10503SOL    HW232409   4.477   2.551   0.361
10504SOL     OW32410   1.022   1.994   5.773
10504SOL    HW132411   1.016   2.022   5.869
10504SOL    HW232412   1.047   2.073   5.717
10505SOL     OW32413   5.469   5.276   0.509
10505SOL    HW132414   5.497   5.198   0.565
10505SOL    HW232415   5.472   5.251   0.413
10506SOL     OW32416   0.310   4.457   0.669
10506SOL    HW132417   0.406   4.466   0.642
10506SOL    HW232418   0.285   4.532   0.731
10507SOL     OW32419   1.945   6.909   0.057
10507SOL    HW132420   1.888   6.898   6.994
10507SOL    HW232421   1.887   6.916   0.138
10508SOL     OW32422   6.100   6.752   4.780
10508SOL    HW132423   6.139   6.796   4.699
10508SOL    HW232424   6.023   6.694   4.752
10509SOL     OW32425   1.178   5.281   3.961
10509SOL    HW132426   1.156   5.357   4.022
10509SOL    HW232427   1.123   5.287   3.878
10510SOL     OW32428   4.575   6.117   6.003
10510SOL    HW132429   4.645   6.090   6.069
10510SOL    HW232430   4.485   6.115   6.046
10511SOL     OW32431   3.754   1.199   2.326
10511SOL    HW132432   3.795   1.166   2.241
10511SOL    HW232433   3.772   1.297   2.336
10512SOL     OW32434   4.545   0.347   6.161
10512SOL    HW132435   4.609   0.420   6.184
10512SOL    HW232436   4.552   0.326   6.063
10513SOL     OW32437   6.216   2.808   4.326
10513SOL    HW132438   6.251   2.715   4.333
10513SOL    HW232439   6.199   2.844   4.418
10514SOL     OW32440   0.274   3.941   0.591
10514SOL    HW132441   0.232   3.947   0.500
10514SOL    HW232442   0.204   3.959   0.660
10515SOL     OW32443   1.002   3.333   2.893
10515SOL    HW132444   0.915   3.291   2.916
10515SOL    HW232445   0.987   3.424   2.853
10516SOL     OW32446   3.974   1.244   0.332
10516SOL    HW132447   4.025   1.241   0.418
10516SOL    HW232448   3.888   1.294   0.346
10517SOL     OW32449   1.000   2.382   2.667
10517SOL    HW132450   1.000   2.444   2.746
10517SOL    HW232451   1.094   2.351   2.649
10518SOL     OW32452   0.857   5.944   6.515
10518SOL    HW132453   0.825   6.022   6.462
10518SOL    HW232454   0.898   5.876   6.454
10519SOL     OW32455   2.241   3.316   0.057
10519SOL    HW132456   2.301   3.306   0.137
10519SOL    HW232457   2.282   3.269   6.996
10520SOL     OW32458   0.860   2.599   6.405
10520SOL    HW132459   0.844   2.527   6.473
10520SOL    HW232460   0.946   2.646   6.425
10521SOL     OW32461   6.470   6.561   2.500
10521SOL    HW132462   6.541   6.601   2.557
10521SOL    HW232463   6.506   6.546   2.408
10522SOL     OW32464   0.431   0.372   5.707
10522SOL    HW132465   0.420   0.387   5.609
10522SOL    HW232466   0.395   0.451   5.757
10523SOL     OW32467   0.200   4.784   3.743
10523SOL    HW132468   0.242   4.778   3.834
10523SOL    HW232469   0.188   4.880   3.718
10524SOL     OW32470   1.698   0.413   5.038
10524SOL    HW132471   1.626   0.455   5.093
10524SOL    HW232472   1.715   0.320   5.070
10525SOL     OW32473   3.815   6.489   6.896
10525SOL    HW132474   3.779   6.457   6.809
10525SOL    HW232475   3.767   6.573   6.923
10526SOL     OW32476   1.461   6.967   3.823
10526SOL    HW132477   1.416   6.989   3.909
10526SOL    HW232478   1.560   6.966   3.836
10527SOL     OW32479   0.307   1.917   4.876
10527SOL    HW132480   0.214   1.883   4.890
10527SOL    HW232481   0.371   1.859   4.927
10528SOL     OW32482   1.508   3.453   6.324
10528SOL    HW132483   1.558   3.520   6.380
10528SOL    HW232484   1.536   3.464   6.228
10529SOL     OW32485   3.216   5.518   4.147
10529SOL    HW132486   3.209   5.611   4.110
10529SOL    HW232487   3.260   5.459   4.080
10530SOL     OW32488   2.089   0.114   6.533
10530SOL    HW132489   2.081   0.061   6.617
10530SOL    HW232490   2.101   0.052   6.455
10531SOL     OW32491   1.430   3.129   3.819
10531SOL    HW132492   1.523   3.166   3.817
10531SOL    HW232493   1.390   3.146   3.909
10532SOL     OW32494   0.973   5.625   5.506
10532SOL    HW132495   0.920   5.573   5.439
10532SOL    HW232496   0.934   5.716   5.517
10533SOL     OW32497   2.829   0.978   5.166
10533SOL    HW132498   2.898   0.988   5.237
10533SOL    HW232499   2.869   1.002   5.077
10534SOL     OW32500   6.910   5.856   1.459
10534SOL    HW132501   6.927   5.772   1.408
10534SOL    HW232502   6.967   5.930   1.423
10535SOL     OW32503   0.951   1.947   1.308
10535SOL    HW132504   0.972   1.852   1.331
10535SOL    HW232505   0.982   2.007   1.382
10536SOL     OW32506   4.062   0.501   2.951
10536SOL    HW132507   4.060   0.485   2.853
10536SOL    HW232508   3.984   0.456   2.994
10537SOL     OW32509   3.879   5.363   4.144
10537SOL    HW132510   3.869   5.327   4.236
10537SOL    HW232511   3.900   5.289   4.080
10538SOL     OW32512   5.231   1.850   0.718
10538SOL    HW132513   5.135   1.831   0.738
10538SOL    HW232514   5.285   1.846   0.802
10539SOL     OW32515   0.890   4.364   0.015
10539SOL    HW132516   0.852   4.354   6.940
10539SOL    HW232517   0.986   4.392   0.008
10540SOL     OW32518   1.671   2.379   4.975
10540SOL    HW132519   1.638   2.329   5.055
10540SOL    HW232520   1.663   2.321   4.894
10541SOL     OW32521   3.441   4.103   2.237
10541SOL    HW132522   3.376   4.027   2.244
10541SOL    HW232523   3.465   4.135   2.329
10542SOL     OW32524   6.818   0.386   5.473
10542SOL    HW132525   6.828   0.292   5.440
10542SOL    HW232526   6.822   0.449   5.395
10543SOL     OW32527   0.367   0.801   5.055
10543SOL    HW132528   0.269   0.787   5.041
10543SOL    HW232529   0.417   0.721   5.022
10544SOL     OW32530   2.389   6.415   1.881
10544SOL    HW132531   2.440   6.480   1.826
10544SOL    HW232532   2.450   6.373   1.948
10545SOL     OW32533   6.272   1.172   2.133
10545SOL    HW132534   6.212   1.194   2.209
10545SOL    HW232535   6.269   1.246   2.065
10546SOL     OW32536   1.815   1.078   6.881
10546SOL    HW132537   1.845   1.026   6.801
10546SOL    HW232538   1.888   1.139   6.911
10547SOL     OW32539   5.548   2.555   2.436
10547SOL    HW132540   5.467   2.580   2.489
10547SOL    HW232541   5.522   2.490   2.364
10548SOL     OW32542   5.480   4.576   4.582
10548SOL    HW132543   5.513   4.603   4.491
10548SOL    HW232544   5.428   4.491   4.574
10549SOL     OW32545   0.050   0.033   1.893
10549SOL    HW132546   6.997   6.987   1.859
10549SOL    HW232547   0.009   0.094   1.961
10550SOL     OW32548   4.038   6.066   3.965
10550SOL    HW132549   4.027   6.024   3.874
10550SOL    HW232550   4.104   6.012   4.018
10551SOL     OW32551   1.116   2.514   5.580
10551SOL    HW132552   1.075   2.549   5.495
10551SOL    HW232553   1.205   2.556   5.594
10552SOL     OW32554   3.086   1.298   6.849
10552SOL    HW132555   3.115   1.228   6.783
10552SOL    HW232556   3.000   1.269   6.892
10553SOL     OW32557   0.701   4.756   1.731
10553SOL    HW132558   0.625   4.712   1.683
10553SOL    HW232559   0.785   4.743   1.678
10554SOL     OW32560   5.580   5.008   0.367
10554SOL    HW132561   5.559   5.069   0.290
10554SOL    HW232562   5.513   4.935   0.371
10555SOL     OW32563   2.001   2.660   0.360
10555SOL    HW132564   1.945   2.632   0.439
10555SOL    HW232565   1.943   2.665   0.279
10556SOL     OW32566   2.060   1.999   5.719
10556SOL    HW132567   2.065   1.904   5.751
10556SOL    HW232568   2.127   2.014   5.646
10557SOL     OW32569   2.406   2.365   3.280
10557SOL    HW132570   2.323   2.336   3.328
10557SOL    HW232571   2.447   2.287   3.234
10558SOL     OW32572   3.573   1.555   3.590
10558SOL    HW132573   3.578   1.654   3.603
10558SOL    HW232574   3.659   1.513   3.620
10559SOL     OW32575   5.352   0.190   0.924
10559SOL    HW132576   5.296   0.272   0.914
10559SOL    HW232577   5.391   0.166   0.835
10560SOL     OW32578   3.565   6.216   2.685
10560SOL    HW132579   3.654   6.262   2.685
10560SOL    HW232580   3.543   6.185   2.593
10561SOL     OW32581   3.034   4.173   0.766
10561SOL    HW132582   3.123   4.128   0.767
10561SOL    HW232583   3.015   4.208   0.674
10562SOL     OW32584   4.458   5.337   0.175
10562SOL    HW132585   4.409   5.256   0.144
10562SOL    HW232586   4.472   5.399   0.098
10563SOL     OW32587   0.871   1.442   3.640
10563SOL    HW132588   0.971   1.453   3.640
10563SOL    HW232589   0.829   1.525   3.676
10564SOL     OW32590   5.891   5.992   1.756
10564SOL    HW132591   5.863   5.994   1.852
10564SOL    HW232592   5.969   5.929   1.746
10565SOL     OW32593   0.608   0.731   5.955
10565SOL    HW132594   0.599   0.814   6.011
10565SOL    HW232595   0.618   0.652   6.015
10566SOL     OW32596   3.887   2.230   0.076
10566SOL    HW132597   3.885   2.306   0.141
10566SOL    HW232598   3.899   2.265   7.001
10567SOL     OW32599   3.184   1.854   4.422
10567SOL    HW132600   3.167   1.824   4.328
10567SOL    HW232601   3.109   1.826   4.481
10568SOL     OW32602   6.231   2.819   1.753
10568SOL    HW132603   6.312   2.863   1.715
10568SOL    HW232604   6.191   2.758   1.685
10569SOL     OW32605   5.779   1.682   1.847
10569SOL    HW132606   5.736   1.656   1.934
10569SOL    HW232607   5.875   1.653   1.848
10570SOL     OW32608   1.559   4.997   3.378
10570SOL    HW132609   1.585   4.969   3.470
10570SOL    HW232610   1.569   5.097   3.370
10571SOL     OW32611   6.928   4.689   5.511
10571SOL    HW132612   6.942   4.774   5.460
10571SOL    HW232613   6.993   4.620   5.480
10572SOL     OW32614   0.126   4.302   3.289
10572SOL    HW132615   0.038   4.257   3.274
10572SOL    HW232616   0.199   4.244   3.253
10573SOL     OW32617   4.665   0.212   4.733
10573SOL    HW132618   4.584   0.250   4.776
10573SOL    HW232619   4.643   0.124   4.692
10574SOL     OW32620   1.817   1.619   3.919
10574SOL    HW132621   1.750   1.605   3.992
10574SOL    HW232622   1.771   1.644   3.834
10575SOL     OW32623   6.760   1.086   3.035
10575SOL    HW132624   6.736   1.135   3.119
10575SOL    HW232625   6.781   0.991   3.057
10576SOL     OW32626   6.818   6.122   5.241
10576SOL    HW132627   6.860   6.183   5.174
10576SOL    HW232628   6.793   6.173   5.323
10577SOL     OW32629   2.026   3.484   0.026
10577SOL    HW132630   1.997   3.523   0.113
10577SOL    HW232631   2.109   3.430   0.040
10578SOL     OW32632   5.879   1.638   2.999
10578SOL    HW132633   5.968   1.613   2.961
10578SOL    HW232634   5.888   1.722   3.052
10579SOL     OW32635   4.001   2.453   1.661
10579SOL    HW132636   3.970   2.383   1.725
10579SOL    HW232637   4.086   2.493   1.694
10580SOL     OW32638   6.416   0.428   6.559
10580SOL    HW132639   6.383   0.431   6.654
10580SOL    HW232640   6.342   0.453   6.497
10581SOL     OW32641   7.017   6.796   3.356
10581SOL    HW132642   0.016   6.859   3.431
10581SOL    HW232643   0.086   6.759   3.323
10582SOL     OW32644   5.834   5.381   6.546
10582SOL    HW132645   5.795   5.473   6.554
10582SOL    HW232646   5.791   5.334   6.469
10583SOL     OW32647   3.848   1.480   4.772
10583SOL    HW132648   3.792   1.398   4.768
10583SOL    HW232649   3.945   1.455   4.768
10584SOL     OW32650   6.651   6.617   1.621
10584SOL    HW132651   6.665   6.692   1.557
10584SOL    HW232652   6.727   6.552   1.614
10585SOL     OW32653   2.349   2.330   5.762
10585SOL    HW132654   2.332   2.263   5.834
10585SOL    HW232655   2.263   2.369   5.731
10586SOL     OW32656   6.201   4.977   5.018
10586SOL    HW132657   6.175   4.883   4.997
10586SOL    HW232658   6.211   4.987   5.117
10587SOL     OW32659   6.114   4.365   0.236
10587SOL    HW132660   6.073   4.344   0.147
10587SOL    HW232661   6.154   4.456   0.234
10588SOL     OW32662   0.380   2.984   3.791
10588SOL    HW132663   0.367   2.976   3.890
10588SOL    HW232664   0.400   3.080   3.768
10589SOL     OW32665   5.814   1.545   4.222
10589SOL    HW132666   5.904   1.502   4.230
10589SOL    HW232667   5.781   1.570   4.313
10590SOL     OW32668   0.544   0.373   1.988
10590SOL    HW132669   0.494   0.398   1.905
10590SOL    HW232670   0.613   0.443   2.007
10591SOL     OW32671   0.830   1.932   6.740
10591SOL    HW132672   0.836   1.832   6.746
10591SOL    HW232673   0.792   1.968   6.825
10592SOL     OW32674   6.103   3.957   1.637
10592SOL    HW132675   6.021   4.004   1.669
10592SOL    HW232676   6.111   3.966   1.538
10593SOL     OW32677   2.379   5.493   0.300
10593SOL    HW132678   2.395   5.556   0.377
10593SOL    HW232679   2.467   5.460   0.266
10594SOL     OW32680   4.609   6.940   2.089
10594SOL    HW132681   4.690   6.959   2.034
10594SOL    HW232682   4.577   0.007   2.132
10595SOL     OW32683   4.016   6.884   6.336
10595SOL    HW132684   4.030   6.821   6.259
10595SOL    HW232685   3.933   6.858   6.385
10596SOL     OW32686   4.585   0.179   0.285
10596SOL    HW132687   4.528   0.253   0.250
10596SOL    HW232688   4.670   0.217   0.321
10597SOL     OW32689   3.686   0.753   5.223
10597SOL    HW132690   3.773   0.705   5.236
10597SOL    HW232691   3.670   0.815   5.300
10598SOL     OW32692   2.882   2.697   0.577
10598SOL    HW132693   2.812   2.745   0.525
10598SOL    HW232694   2.878   2.599   0.556
10599SOL     OW32695   5.393   2.513   5.851
10599SOL    HW132696   5.345   2.463   5.924
10599SOL    HW232697   5.490   2.488   5.852
10600SOL     OW32698   2.056   2.173   0.639
10600SOL    HW132699   2.144   2.151   0.681
10600SOL    HW232700   2.025   2.262   0.673
10601SOL     OW32701   1.413   4.673   5.193
10601SOL    HW132702   1.339   4.703   5.133
10601SOL    HW232703   1.451   4.752   5.241
10602SOL     OW32704   3.749   1.774   2.366
10602SOL    HW132705   3.724   1.763   2.270
10602SOL    HW232706   3.667   1.769   2.423
10603SOL     OW32707   3.264   5.881   3.186
10603SOL    HW132708   3.221   5.930   3.111
10603SOL    HW232709   3.207   5.802   3.211
10604SOL     OW32710   6.036   5.067   5.554
10604SOL    HW132711   6.063   5.159   5.582
10604SOL    HW232712   6.064   5.001   5.624
10605SOL     OW32713   1.350   5.792   0.333
10605SOL    HW132714   1.427   5.729   0.326
10605SOL    HW232715   1.384   5.885   0.345
10606SOL     OW32716   6.905   0.486   2.702
10606SOL    HW132717   6.937   0.539   2.780
10606SOL    HW232718   6.871   0.397   2.733
10607SOL     OW32719   4.158   4.747   5.625
10607SOL    HW132720   4.073   4.753   5.677
10607SOL    HW232721   4.137   4.739   5.527
10608SOL     OW32722   5.123   2.260   5.597
10608SOL    HW132723   5.125   2.247   5.696
10608SOL    HW232724   5.213   2.239   5.559
10609SOL     OW32725   2.781   6.758   0.374
10609SOL    HW132726   2.801   6.700   0.453
10609SOL    HW232727   2.865   6.775   0.323
10610SOL     OW32728   1.378   2.621   5.646
10610SOL    HW132729   1.386   2.577   5.736
10610SOL    HW232730   1.395   2.719   5.655
10611SOL     OW32731   4.066   3.819   6.385
10611SOL    HW132732   4.149   3.863   6.349
10611SOL    HW232733   3.996   3.818   6.314
10612SOL     OW32734   3.096   0.947   5.293
10612SOL    HW132735   3.155   0.995   5.358
10612SOL    HW232736   3.146   0.930   5.208
10613SOL     OW32737   5.949   6.805   5.022
10613SOL    HW132738   5.891   6.885   5.009
10613SOL    HW232739   6.015   6.799   4.947
10614SOL     OW32740   6.297   2.255   3.833
10614SOL    HW132741   6.311   2.207   3.747
10614SOL    HW232742   6.376   2.242   3.893
10615SOL     OW32743   3.370   6.411   5.680
10615SOL    HW132744   3.400   6.386   5.589
10615SOL    HW232745   3.394   6.338   5.745
10616SOL     OW32746   2.645   5.845   0.739
10616SOL    HW132747   2.706   5.889   0.805
10616SOL    HW232748   2.555   5.829   0.781
10617SOL     OW32749   2.193   2.458   1.366
10617SOL    HW132750   2.275   2.515   1.376
10617SOL    HW232751   2.112   2.516   1.365
10618SOL     OW32752   0.336   3.965   6.669
10618SOL    HW132753   0.251   3.912   6.663
10618SOL    HW232754   0.316   4.056   6.706
10619SOL     OW32755   0.295   4.352   2.220
10619SOL    HW132756   0.363   4.279   2.214
10619SOL    HW232757   0.276   4.373   2.316
10620SOL     OW32758   1.502   5.731   4.987
10620SOL    HW132759   1.410   5.708   5.019
10620SOL    HW232760   1.537   5.657   4.930
10621SOL     OW32761   1.230   6.267   2.177
10621SOL    HW132762   1.139   6.261   2.135
10621SOL    HW232763   1.275   6.351   2.148
10622SOL     OW32764   5.112   1.533   1.213
10622SOL    HW132765   5.199   1.556   1.169
10622SOL    HW232766   5.129   1.505   1.308
10623SOL     OW32767   0.193   4.832   5.294
10623SOL    HW132768   0.126   4.883   5.347
10623SOL    HW232769   0.281   4.831   5.342
10624SOL     OW32770   0.189   2.957   4.831
10624SOL    HW132771   0.112   2.990   4.886
10624SOL    HW232772   0.256   3.030   4.820
10625SOL     OW32773   0.532   4.296   0.275
10625SOL    HW132774   0.438   4.309   0.306
10625SOL    HW232775   0.546   4.201   0.248
10626SOL     OW32776   2.832   3.410   1.011
10626SOL    HW132777   2.886   3.368   0.937
10626SOL    HW232778   2.735   3.390   0.997
10627SOL     OW32779   5.004   6.756   0.435
10627SOL    HW132780   5.008   6.682   0.502
10627SOL    HW232781   5.076   6.743   0.367
10628SOL     OW32782   4.483   6.030   0.057
10628SOL    HW132783   4.419   5.953   0.061
10628SOL    HW232784   4.488   6.064   6.981
10629SOL     OW32785   2.705   5.068   5.118
10629SOL    HW132786   2.780   5.008   5.148
10629SOL    HW232787   2.725   5.162   5.144
10630SOL     OW32788   6.699   1.454   4.059
10630SOL    HW132789   6.765   1.458   3.984
10630SOL    HW232790   6.637   1.533   4.054
10631SOL     OW32791   2.783   4.745   4.582
10631SOL    HW132792   2.794   4.690   4.499
10631SOL    HW232793   2.709   4.706   4.638
10632SOL     OW32794   5.985   2.036   3.717
10632SOL    HW132795   5.891   2.057   3.744
10632SOL    HW232796   6.048   2.071   3.786
10633SOL     OW32797   2.737   3.609   1.365
10633SOL    HW132798   2.704   3.569   1.280
10633SOL    HW232799   2.806   3.549   1.406
10634SOL     OW32800   2.903   5.937   0.901
10634SOL    HW132801   2.948   5.933   0.812
10634SOL    HW232802   2.931   6.020   0.950
10635SOL     OW32803   3.205   1.671   1.040
10635SOL    HW132804   3.304   1.658   1.045
10635SOL    HW232805   3.173   1.653   0.947
10636SOL     OW32806   1.052   1.498   1.528
10636SOL    HW132807   0.953   1.490   1.523
10636SOL    HW232808   1.091   1.410   1.555
10637SOL     OW32809   2.397   4.552   5.659
10637SOL    HW132810   2.468   4.497   5.703
10637SOL    HW232811   2.357   4.499   5.583
10638SOL     OW32812   0.040   5.492   3.298
10638SOL    HW132813   0.011   5.587   3.285
10638SOL    HW232814   0.012   5.437   3.219
10639SOL     OW32815   1.205   3.282   3.067
10639SOL    HW132816   1.126   3.298   3.008
10639SOL    HW232817   1.189   3.322   3.157
10640SOL     OW32818   3.542   0.306   5.420
10640SOL    HW132819   3.611   0.284   5.489
10640SOL    HW232820   3.583   0.304   5.329
10641SOL     OW32821   2.916   2.022   1.126
10641SOL    HW132822   2.854   1.988   1.198
10641SOL    HW232823   3.010   2.003   1.152
10642SOL     OW32824   6.940   3.305   1.951
10642SOL    HW132825   6.891   3.280   1.868
10642SOL    HW232826   6.915   3.399   1.977
10643SOL     OW32827   2.181   5.124   5.202
10643SOL    HW132828   2.280   5.134   5.189
10643SOL    HW232829   2.164   5.060   5.277
10644SOL     OW32830   5.187   2.981   3.309
10644SOL    HW132831   5.232   2.895   3.284
10644SOL    HW232832   5.176   2.985   3.408
10645SOL     OW32833   1.162   2.081   5.069
10645SOL    HW132834   1.262   2.083   5.060
10645SOL    HW232835   1.122   2.154   5.014
10646SOL     OW32836   0.054   0.621   6.683
10646SOL    HW132837   0.100   0.659   6.603
10646SOL    HW232838   0.057   0.688   6.758
10647SOL     OW32839   3.041   5.238   5.922
10647SOL    HW132840   3.114   5.185   5.967
10647SOL    HW232841   2.957   5.185   5.922
10648SOL     OW32842   5.193   4.665   5.966
10648SOL    HW132843   5.255   4.586   5.970
10648SOL    HW232844   5.187   4.697   5.872
10649SOL     OW32845   0.284   4.091   3.266
10649SOL    HW132846   0.255   4.028   3.195
10649SOL    HW232847   0.267   4.051   3.356
10650SOL     OW32848   1.113   6.235   3.476
10650SOL    HW132849   1.096   6.278   3.387
10650SOL    HW232850   1.211   6.227   3.491
10651SOL     OW32851   4.387   6.379   6.135
10651SOL    HW132852   4.467   6.330   6.169
10651SOL    HW232853   4.336   6.418   6.211
10652SOL     OW32854   3.639   6.667   6.227
10652SOL    HW132855   3.549   6.652   6.268
10652SOL    HW232856   3.706   6.686   6.298
10653SOL     OW32857   4.967   4.025   3.888
10653SOL    HW132858   5.004   3.970   3.963
10653SOL    HW232859   5.040   4.077   3.845
10654SOL     OW32860   4.584   1.097   0.616
10654SOL    HW132861   4.643   1.147   0.678
10654SOL    HW232862   4.596   1.131   0.522
10655SOL     OW32863   2.717   5.645   0.248
10655SOL    HW132864   2.709   5.606   0.157
10655SOL    HW232865   2.643   5.611   0.306
10656SOL     OW32866   6.681   2.279   1.992
10656SOL    HW132867   6.750   2.273   2.064
10656SOL    HW232868   6.704   2.353   1.929
10657SOL     OW32869   6.684   0.547   5.962
10657SOL    HW132870   6.671   0.568   5.865
10657SOL    HW232871   6.615   0.481   5.992
10658SOL     OW32872   6.198   4.311   5.037
10658SOL    HW132873   6.252   4.377   5.090
10658SOL    HW232874   6.250   4.282   4.957
10659SOL     OW32875   6.770   5.901   1.163
10659SOL    HW132876   6.777   5.991   1.206
10659SOL    HW232877   6.762   5.913   1.064
10660SOL     OW32878   5.438   3.844   0.213
10660SOL    HW132879   5.510   3.775   0.216
10660SOL    HW232880   5.430   3.888   0.302
10661SOL     OW32881   0.142   6.751   2.430
10661SOL    HW132882   0.177   6.713   2.344
10661SOL    HW232883   0.214   6.803   2.475
10662SOL     OW32884   5.607   0.855   3.209
10662SOL    HW132885   5.580   0.923   3.277
10662SOL    HW232886   5.603   0.896   3.118
10663SOL     OW32887   0.815   0.662   1.780
10663SOL    HW132888   0.881   0.737   1.794
10663SOL    HW232889   0.836   0.615   1.694
10664SOL     OW32890   1.056   4.877   4.760
10664SOL    HW132891   0.993   4.846   4.689
10664SOL    HW232892   1.144   4.830   4.751
10665SOL     OW32893   0.876   1.125   1.016
10665SOL    HW132894   0.952   1.173   0.973
10665SOL    HW232895   0.862   1.161   1.108
10666SOL     OW32896   2.831   4.057   0.498
10666SOL    HW132897   2.874   4.143   0.471
10666SOL    HW232898   2.740   4.075   0.534
10667SOL     OW32899   4.113   3.212   5.347
10667SOL    HW132900   4.065   3.260   5.421
10667SOL    HW232901   4.117   3.271   5.266
10668SOL     OW32902   1.699   1.342   5.413
10668SOL    HW132903   1.774   1.278   5.431
10668SOL    HW232904   1.614   1.305   5.449
10669SOL     OW32905   5.814   6.109   0.480
10669SOL    HW132906   5.827   6.069   0.389
10669SOL    HW232907   5.721   6.142   0.489
10670SOL     OW32908   5.438   4.076   4.949
10670SOL    HW132909   5.496   4.032   5.017
10670SOL    HW232910   5.486   4.155   4.910
10671SOL     OW32911   2.646   2.259   3.096
10671SOL    HW132912   2.656   2.329   3.026
10671SOL    HW232913   2.682   2.293   3.183
10672SOL     OW32914   6.435   2.719   0.912
10672SOL    HW132915   6.489   2.801   0.933
10672SOL    HW232916   6.470   2.676   0.829
10673SOL     OW32917   0.905   1.427   0.025
10673SOL    HW132918   0.996   1.409   7.006
10673SOL    HW232919   0.848   1.466   6.970
10674SOL     OW32920   2.734   4.516   0.675
10674SOL    HW132921   2.771   4.586   0.614
10674SOL    HW232922   2.635   4.526   0.681
10675SOL     OW32923   2.078   0.003   6.287
10675SOL    HW132924   2.137   0.084   6.284
10675SOL    HW232925   2.025   7.015   6.202
10676SOL     OW32926   6.201   6.786   5.469
10676SOL    HW132927   6.262   6.713   5.500
10676SOL    HW232928   6.160   6.760   5.381
10677SOL     OW32929   0.727   0.547   2.360
10677SOL    HW132930   0.802   0.576   2.300
10677SOL    HW232931   0.639   0.570   2.317
10678SOL     OW32932   3.728   5.651   2.637
10678SOL    HW132933   3.703   5.609   2.550
10678SOL    HW232934   3.671   5.731   2.653
10679SOL     OW32935   5.337   5.037   5.967
10679SOL    HW132936   5.247   5.076   5.949
10679SOL    HW232937   5.378   5.005   5.882
10680SOL     OW32938   2.608   1.464   3.601
10680SOL    HW132939   2.573   1.470   3.508
10680SOL    HW232940   2.683   1.397   3.604
10681SOL     OW32941   0.361   3.915   0.120
10681SOL    HW132942   0.410   3.998   0.146
10681SOL    HW232943   0.270   3.939   0.087
10682SOL     OW32944   1.384   1.847   3.600
10682SOL    HW132945   1.421   1.838   3.693
10682SOL    HW232946   1.458   1.850   3.534
10683SOL     OW32947   3.579   1.823   3.637
10683SOL    HW132948   3.525   1.907   3.634
10683SOL    HW232949   3.656   1.835   3.700
10684SOL     OW32950   4.894   3.990   1.179
10684SOL    HW132951   4.827   4.035   1.238
10684SOL    HW232952   4.888   3.891   1.191
10685SOL     OW32953   0.385   5.187   3.162
10685SOL    HW132954   0.342   5.134   3.089
10685SOL    HW232955   0.479   5.210   3.137
10686SOL     OW32956   2.009   4.454   6.235
10686SOL    HW132957   1.992   4.526   6.168
10686SOL    HW232958   1.958   4.475   6.319
10687SOL     OW32959   7.017   5.196   2.003
10687SOL    HW132960   0.003   5.279   2.060
10687SOL    HW232961   6.938   5.141   2.029
10688SOL     OW32962   0.067   4.464   3.072
10688SOL    HW132963   0.086   4.434   3.166
10688SOL    HW232964   0.153   4.481   3.024
10689SOL     OW32965   0.764   6.894   4.097
10689SOL    HW132966   0.693   6.954   4.132
10689SOL    HW232967   0.752   6.802   4.133
10690SOL     OW32968   6.834   5.776   3.553
10690SOL    HW132969   6.758   5.761   3.489
10690SOL    HW232970   6.798   5.808   3.640
10691SOL     OW32971   0.439   1.074   2.834
10691SOL    HW132972   0.491   1.153   2.802
10691SOL    HW232973   0.345   1.102   2.855
10692SOL     OW32974   3.798   4.847   2.493
10692SOL    HW132975   3.706   4.862   2.529
10692SOL    HW232976   3.810   4.900   2.409
10693SOL     OW32977   2.230   0.161   1.285
10693SOL    HW132978   2.144   0.208   1.304
10693SOL    HW232979   2.306   0.216   1.318
10694SOL     OW32980   4.531   6.318   1.311
10694SOL    HW132981   4.618   6.321   1.360
10694SOL    HW232982   4.527   6.235   1.254
10695SOL     OW32983   5.334   2.327   2.957
10695SOL    HW132984   5.302   2.377   2.877
10695SOL    HW232985   5.273   2.250   2.975
10696SOL     OW32986   6.895   4.178   3.228
10696SOL    HW132987   6.851   4.123   3.298
10696SOL    HW232988   6.835   4.254   3.202
10697SOL     OW32989   0.259   6.401   5.147
10697SOL    HW132990   0.341   6.459   5.146
10697SOL    HW232991   0.217   6.405   5.237
10698SOL     OW32992   4.285   6.089   4.122
10698SOL    HW132993   4.311   6.090   4.219
10698SOL    HW232994   4.332   6.163   4.074
10699SOL     OW32995   4.102   2.228   2.161
10699SOL    HW132996   4.010   2.191   2.171
10699SOL    HW232997   4.118   2.252   2.065
10700SOL     OW32998   0.956   0.036   0.911
10700SOL    HW132999   1.032   0.081   0.957
10700SOL    HW233000   0.944   6.962   0.948
10701SOL     OW33001   3.657   6.107   0.382
10701SOL    HW133002   3.601   6.143   0.456
10701SOL    HW233003   3.634   6.010   0.367
10702SOL     OW33004   6.448   2.491   2.908
10702SOL    HW133005   6.425   2.396   2.931
10702SOL    HW233006   6.543   2.509   2.933
10703SOL     OW33007   3.630   2.978   4.215
10703SOL    HW133008   3.617   2.928   4.130
10703SOL    HW233009   3.723   2.963   4.249
10704SOL     OW33010   5.905   5.428   1.664
10704SOL    HW133011   5.947   5.414   1.574
10704SOL    HW233012   5.854   5.514   1.663
10705SOL     OW33013   6.668   4.207   2.317
10705SOL    HW133014   6.675   4.140   2.243
10705SOL    HW233015   6.633   4.293   2.280
10706SOL     OW33016   4.853   6.804   1.811
10706SOL    HW133017   4.848   6.802   1.711
10706SOL    HW233018   4.948   6.807   1.840
10707SOL     OW33019   1.101   6.760   4.419
10707SOL    HW133020   1.121   6.671   4.460
10707SOL    HW233021   1.006   6.762   4.387
10708SOL     OW33022   4.584   0.487   2.471
10708SOL    HW133023   4.525   0.567   2.462
10708SOL    HW233024   4.664   0.498   2.412
10709SOL     OW33025   6.064   0.877   5.001
10709SOL    HW133026   5.998   0.827   4.946
10709SOL    HW233027   6.148   0.891   4.948
10710SOL     OW33028   0.724   6.301   4.141
10710SOL    HW133029   0.708   6.299   4.042
10710SOL    HW233030   0.639   6.325   4.188
10711SOL     OW33031   1.849   6.643   4.064
10711SOL    HW133032   1.816   6.554   4.096
10711SOL    HW233033   1.774   6.693   4.020
10712SOL     OW33034   3.707   0.631   2.165
10712SOL    HW133035   3.698   0.698   2.239
10712SOL    HW233036   3.791   0.649   2.114
10713SOL     OW33037   1.472   3.546   1.718
10713SOL    HW133038   1.452   3.564   1.622
10713SOL    HW233039   1.425   3.463   1.748
10714SOL     OW33040   6.202   2.955   5.571
10714SOL    HW133041   6.194   3.006   5.485
10714SOL    HW233042   6.183   2.858   5.554
10715SOL     OW33043   3.793   0.440   2.983
10715SOL    HW133044   3.730   0.387   3.039
10715SOL    HW233045   3.741   0.497   2.920
10716SOL     OW33046   6.969   2.906   3.227
10716SOL    HW133047   6.874   2.937   3.232
10716SOL    HW233048   6.986   2.865   3.137
10717SOL     OW33049   0.324   2.337   0.490
10717SOL    HW133050   0.354   2.313   0.582
10717SOL    HW233051   0.396   2.388   0.444
10718SOL     OW33052   6.630   4.207   0.415
10718SOL    HW133053   6.592   4.122   0.378
10718SOL    HW233054   6.651   4.194   0.512
10719SOL     OW33055   4.645   5.770   1.139
10719SOL    HW133056   4.713   5.843   1.127
10719SOL    HW233057   4.602   5.751   1.051
10720SOL     OW33058   0.282   3.654   6.141
10720SOL    HW133059   0.345   3.614   6.207
10720SOL    HW233060   0.328   3.668   6.053
10721SOL     OW33061   6.032   2.430   4.965
10721SOL    HW133062   5.999   2.336   4.975
10721SOL    HW233063   6.094   2.434   4.886
10722SOL     OW33064   6.934   2.517   0.507
10722SOL    HW133065   0.012   2.528   0.536
10722SOL    HW233066   6.914   2.420   0.494
10723SOL     OW33067   6.421   4.397   6.763
10723SOL    HW133068   6.457   4.304   6.753
10723SOL    HW233069   6.399   4.415   6.858
10724SOL     OW33070   3.115   0.126   6.447
10724SOL    HW133071   3.115   0.067   6.366
10724SOL    HW233072   3.198   0.109   6.501
10725SOL     OW33073   6.996   4.948   3.926
10725SOL    HW133074   6.965   4.933   3.832
10725SOL    HW233075   7.017   5.045   3.940
10726SOL     OW33076   5.612   6.216   5.006
10726SOL    HW133077   5.616   6.256   5.098
10726SOL    HW233078   5.580   6.121   5.013
10727SOL     OW33079   1.899   4.441   4.402
10727SOL    HW133080   1.914   4.538   4.380
10727SOL    HW233081   1.881   4.432   4.500
10728SOL     OW33082   5.936   6.715   2.461
10728SOL    HW133083   5.973   6.653   2.392
10728SOL    HW233084   5.836   6.716   2.455
10729SOL     OW33085   6.143   1.190   3.047
10729SOL    HW133086   6.163   1.253   3.122
10729SOL    HW233087   6.223   1.181   2.989
10730SOL     OW33088   2.452   6.582   1.135
10730SOL    HW133089   2.506   6.620   1.209
10730SOL    HW233090   2.368   6.635   1.125
10731SOL     OW33091   1.906   5.719   6.842
10731SOL    HW133092   1.872   5.813   6.844
10731SOL    HW233093   1.851   5.665   6.778
10732SOL     OW33094   5.636   6.733   2.759
10732SOL    HW133095   5.727   6.729   2.800
10732SOL    HW233096   5.644   6.727   2.659
10733SOL     OW33097   5.768   3.004   0.199
10733SOL    HW133098   5.815   2.980   0.115
10733SOL    HW233099   5.834   3.009   0.274
10734SOL     OW33100   1.188   0.329   6.438
10734SOL    HW133101   1.188   0.427   6.420
10734SOL    HW233102   1.261   0.306   6.501
10735SOL     OW33103   1.228   4.427   2.208
10735SOL    HW133104   1.220   4.349   2.269
10735SOL    HW233105   1.321   4.433   2.173
10736SOL     OW33106   0.392   1.040   3.722
10736SOL    HW133107   0.345   0.958   3.690
10736SOL    HW233108   0.438   1.020   3.809
10737SOL     OW33109   0.988   2.269   0.470
10737SOL    HW133110   0.983   2.221   0.557
10737SOL    HW233111   1.036   2.356   0.482
10738SOL     OW33112   2.815   0.307   1.799
10738SOL    HW133113   2.836   0.220   1.843
10738SOL    HW233114   2.900   0.352   1.771
10739SOL     OW33115   0.110   0.836   3.318
10739SOL    HW133116   0.174   0.804   3.248
10739SOL    HW233117   0.086   0.931   3.300
10740SOL     OW33118   0.777   5.347   5.944
10740SOL    HW133119   0.743   5.358   6.037
10740SOL    HW233120   0.859   5.402   5.931
10741SOL     OW33121   1.107   1.284   3.456
10741SOL    HW133122   1.161   1.308   3.375
10741SOL    HW233123   1.047   1.207   3.434
10742SOL     OW33124   5.961   0.271   2.030
10742SOL    HW133125   6.026   0.234   1.963
10742SOL    HW233126   5.893   0.326   1.982
10743SOL     OW33127   2.565   2.528   3.426
10743SOL    HW133128   2.660   2.494   3.431
10743SOL    HW233129   2.516   2.478   3.355
10744SOL     OW33130   3.229   1.670   2.450
10744SOL    HW133131   3.223   1.756   2.501
10744SOL    HW233132   3.281   1.685   2.366
10745SOL     OW33133   1.666   4.611   6.971
10745SOL    HW133134   1.610   4.651   6.898
10745SOL    HW233135   1.718   4.534   6.935
10746SOL     OW33136   2.077   4.939   0.940
10746SOL    HW133137   2.132   4.972   1.016
10746SOL    HW233138   2.001   4.885   0.974
10747SOL     OW33139   4.886   1.520   3.626
10747SOL    HW133140   4.813   1.453   3.614
10747SOL    HW233141   4.911   1.558   3.537
10748SOL     OW33142   6.249   6.378   0.725
10748SOL    HW133143   6.193   6.393   0.807
10748SOL    HW233144   6.196   6.323   0.659
10749SOL     OW33145   0.241   5.071   3.396
10749SOL    HW133146   0.311   5.077   3.324
10749SOL    HW233147   0.185   4.989   3.381
10750SOL     OW33148   4.815   4.718   4.794
10750SOL    HW133149   4.912   4.694   4.789
10750SOL    HW233150   4.767   4.684   4.713
10751SOL     OW33151   0.766   3.254   5.235
10751SOL    HW133152   0.673   3.287   5.220
10751SOL    HW233153   0.764   3.182   5.305
10752SOL     OW33154   6.017   3.701   6.486
10752SOL    HW133155   5.933   3.754   6.485
10752SOL    HW233156   6.041   3.678   6.580
10753SOL     OW33157   6.217   0.086   3.417
10753SOL    HW133158   6.217   0.010   3.482
10753SOL    HW233159   6.157   0.064   3.340
10754SOL     OW33160   2.143   2.326   2.747
10754SOL    HW133161   2.061   2.382   2.732
10754SOL    HW233162   2.116   2.230   2.755
10755SOL     OW33163   6.992   1.685   0.834
10755SOL    HW133164   0.031   1.694   0.752
10755SOL    HW233165   6.948   1.772   0.854
10756SOL     OW33166   6.208   3.758   0.450
10756SOL    HW133167   6.225   3.824   0.377
10756SOL    HW233168   6.259   3.783   0.531
10757SOL     OW33169   6.936   3.755   0.232
10757SOL    HW133170   7.011   3.702   0.272
10757SOL    HW233171   6.851   3.732   0.279
10758SOL     OW33172   1.178   6.107   4.976
10758SOL    HW133173   1.199   6.103   5.074
10758SOL    HW233174   1.242   6.048   4.926
10759SOL     OW33175   1.866   2.898   6.874
10759SOL    HW133176   1.769   2.877   6.865
10759SOL    HW233177   1.879   2.963   6.949
10760SOL     OW33178   6.845   6.928   1.062
10760SOL    HW133179   6.928   6.982   1.075
10760SOL    HW233180   6.866   6.848   1.006
10761SOL     OW33181   0.723   2.194   6.331
10761SOL    HW133182   0.737   2.260   6.405
10761SOL    HW233183   0.652   2.228   6.269
10762SOL     OW33184   4.736   1.151   4.909
10762SOL    HW133185   4.771   1.145   5.002
10762SOL    HW233186   4.657   1.213   4.906
10763SOL     OW33187   4.734   5.998   1.005
10763SOL    HW133188   4.667   6.049   1.059
10763SOL    HW233189   4.784   6.062   0.946
10764SOL     OW33190   5.215   1.797   6.131
10764SOL    HW133191   5.210   1.822   6.227
10764SOL    HW233192   5.157   1.858   6.077
10765SOL     OW33193   5.607   2.213   1.046
10765SOL    HW133194   5.613   2.166   1.134
10765SOL    HW233195   5.663   2.165   0.978
10766SOL     OW33196   2.558   3.826   0.184
10766SOL    HW133197   2.555   3.777   0.271
10766SOL    HW233198   2.649   3.865   0.171
10767SOL     OW33199   1.422   0.800   0.801
10767SOL    HW133200   1.514   0.794   0.841
10767SOL    HW233201   1.426   0.857   0.719
10768SOL     OW33202   5.567   5.494   0.207
10768SOL    HW133203   5.555   5.570   0.144
10768SOL    HW233204   5.509   5.507   0.287
10769SOL     OW33205   2.773   5.334   5.170
10769SOL    HW133206   2.743   5.401   5.238
10769SOL    HW233207   2.869   5.352   5.147
10770SOL     OW33208   5.367   0.456   4.558
10770SOL    HW133209   5.291   0.473   4.620
10770SOL    HW233210   5.449   0.436   4.610
10771SOL     OW33211   4.544   6.869   5.123
10771SOL    HW133212   4.469   6.842   5.183
10771SOL    HW233213   4.626   6.887   5.178
10772SOL     OW33214   6.689   7.001   3.691
10772SOL    HW133215   6.665   6.992   3.788
10772SOL    HW233216   6.621   6.954   3.635
10773SOL     OW33217   0.078   5.105   6.888
10773SOL    HW133218   0.171   5.100   6.924
10773SOL    HW233219   0.047   5.200   6.890
10774SOL     OW33220   1.556   1.941   0.309
10774SOL    HW133221   1.553   2.033   0.269
10774SOL    HW233222   1.575   1.948   0.407
10775SOL     OW33223   1.908   4.134   0.379
10775SOL    HW133224   1.998   4.155   0.419
10775SOL    HW233225   1.860   4.219   0.360
10776SOL     OW33226   0.983   6.282   1.143
10776SOL    HW133227   1.000   6.184   1.138
10776SOL    HW233228   0.926   6.309   1.065
10777SOL     OW33229   4.392   0.428   3.653
10777SOL    HW133230   4.477   0.430   3.599
10777SOL    HW233231   4.408   0.378   3.738
10778SOL     OW33232   6.368   6.734   4.213
10778SOL    HW133233   6.379   6.825   4.174
10778SOL    HW233234   6.310   6.679   4.153
10779SOL     OW33235   0.017   4.733   3.081
10779SOL    HW133236   0.021   4.634   3.093
10779SOL    HW233237   6.939   4.762   3.078
10780SOL     OW33238   1.357   6.713   3.036
10780SOL    HW133239   1.312   6.801   3.051
10780SOL    HW233240   1.436   6.725   2.976
10781SOL     OW33241   4.307   1.965   3.816
10781SOL    HW133242   4.259   1.995   3.898
10781SOL    HW233243   4.375   2.033   3.790
10782SOL     OW33244   5.992   2.537   3.608
10782SOL    HW133245   5.962   2.473   3.537
10782SOL    HW233246   6.004   2.487   3.694
10783SOL     OW33247   1.385   3.062   2.373
10783SOL    HW133248   1.411   3.104   2.460
10783SOL    HW233249   1.339   3.130   2.316
10784SOL     OW33250   2.391   6.859   1.661
10784SOL    HW133251   2.473   6.906   1.693
10784SOL    HW233252   2.333   6.924   1.612
10785SOL     OW33253   1.863   4.457   1.259
10785SOL    HW133254   1.908   4.503   1.336
10785SOL    HW233255   1.776   4.503   1.241
10786SOL     OW33256   5.258   3.049   1.227
10786SOL    HW133257   5.183   3.114   1.216
10786SOL    HW233258   5.231   2.977   1.290
10787SOL     OW33259   3.116   1.377   4.851
10787SOL    HW133260   3.029   1.412   4.885
10787SOL    HW233261   3.100   1.294   4.798
10788SOL     OW33262   2.135   4.262   0.088
10788SOL    HW133263   2.074   4.184   0.097
10788SOL    HW233264   2.226   4.237   0.121
10789SOL     OW33265   5.436   1.630   0.663
10789SOL    HW133266   5.367   1.702   0.664
10789SOL    HW233267   5.466   1.613   0.569
10790SOL     OW33268   0.478   0.942   5.260
10790SOL    HW133269   0.434   0.882   5.194
10790SOL    HW233270   0.537   1.007   5.212
10791SOL     OW33271   0.751   1.487   1.507
10791SOL    HW133272   0.660   1.445   1.503
10791SOL    HW233273   0.756   1.551   1.584
10792SOL     OW33274   2.845   2.984   1.766
10792SOL    HW133275   2.929   3.033   1.740
10792SOL    HW233276   2.858   2.886   1.750
10793SOL     OW33277   5.497   2.388   4.236
10793SOL    HW133278   5.491   2.371   4.138
10793SOL    HW233279   5.465   2.308   4.286
10794SOL     OW33280   3.514   3.602   2.522
10794SOL    HW133281   3.572   3.521   2.523
10794SOL    HW233282   3.470   3.612   2.612
10795SOL     OW33283   5.937   4.310   3.605
10795SOL    HW133284   5.988   4.395   3.592
10795SOL    HW233285   5.842   4.331   3.627
10796SOL     OW33286   3.375   6.605   6.855
10796SOL    HW133287   3.332   6.680   6.804
10796SOL    HW233288   3.324   6.588   6.939
10797SOL     OW33289   4.028   2.868   0.828
10797SOL    HW133290   3.956   2.827   0.883
10797SOL    HW233291   4.020   2.837   0.733
10798SOL     OW33292   1.776   6.897   0.598
10798SOL    HW133293   1.766   6.879   0.500
10798SOL    HW233294   1.725   6.828   0.649
10799SOL     OW33295   3.488   1.712   1.339
10799SOL    HW133296   3.491   1.686   1.242
10799SOL    HW233297   3.446   1.638   1.392
10800SOL     OW33298   1.417   6.629   0.274
10800SOL    HW133299   1.340   6.618   0.211
10800SOL    HW233300   1.500   6.646   0.222
10801SOL     OW33301   0.640   0.027   4.816
10801SOL    HW133302   0.640   0.025   4.916
10801SOL    HW233303   0.639   6.951   4.781
10802SOL     OW33304   2.148   3.390   4.857
10802SOL    HW133305   2.145   3.291   4.870
10802SOL    HW233306   2.160   3.435   4.946
10803SOL     OW33307   5.074   4.630   4.808
10803SOL    HW133308   5.161   4.676   4.828
10803SOL    HW233309   5.089   4.531   4.804
10804SOL     OW33310   6.981   4.400   1.550
10804SOL    HW133311   0.050   4.404   1.599
10804SOL    HW233312   6.986   4.459   1.469
10805SOL     OW33313   3.530   6.904   6.722
10805SOL    HW133314   3.579   6.978   6.675
10805SOL    HW233315   3.585   6.872   6.799
10806SOL     OW33316   5.237   4.401   0.229
10806SOL    HW133317   5.224   4.309   0.192
10806SOL    HW233318   5.269   4.462   0.156
10807SOL     OW33319   3.296   6.491   3.810
10807SOL    HW133320   3.356   6.496   3.889
10807SOL    HW233321   3.201   6.484   3.840
10808SOL     OW33322   0.397   3.730   0.712
10808SOL    HW133323   0.494   3.751   0.699
10808SOL    HW233324   0.342   3.807   0.680
10809SOL     OW33325   2.795   7.017   4.130
10809SOL    HW133326   2.801   0.085   4.182
10809SOL    HW233327   2.699   6.987   4.126
10810SOL     OW33328   1.183   1.086   5.707
10810SOL    HW133329   1.084   1.078   5.710
10810SOL    HW233330   1.212   1.172   5.748
10811SOL     OW33331   4.041   5.197   4.999
10811SOL    HW133332   3.954   5.171   5.042
10811SOL    HW233333   4.023   5.236   4.909
10812SOL     OW33334   0.597   3.155   2.217
10812SOL    HW133335   0.655   3.078   2.191
10812SOL    HW233336   0.521   3.122   2.274
10813SOL     OW33337   1.996   5.976   0.183
10813SOL    HW133338   2.076   5.991   0.241
10813SOL    HW233339   1.933   6.053   0.193
10814SOL     OW33340   1.470   0.034   5.455
10814SOL    HW133341   1.437   0.039   5.361
10814SOL    HW233342   1.393   0.018   5.517
10815SOL     OW33343   5.020   5.263   3.855
10815SOL    HW133344   4.977   5.351   3.873
10815SOL    HW233345   5.110   5.260   3.898
10816SOL     OW33346   1.508   1.293   2.305
10816SOL    HW133347   1.440   1.295   2.378
10816SOL    HW233348   1.595   1.261   2.341
10817SOL     OW33349   5.831   6.457   2.665
10817SOL    HW133350   5.767   6.430   2.594
10817SOL    HW233351   5.883   6.376   2.696
10818SOL     OW33352   5.317   3.379   5.702
10818SOL    HW133353   5.274   3.331   5.625
10818SOL    HW233354   5.410   3.406   5.676
10819SOL     OW33355   0.402   4.373   0.037
10819SOL    HW133356   0.467   4.373   0.113
10819SOL    HW233357   0.416   4.454   6.998
10820SOL     OW33358   6.772   6.939   4.030
10820SOL    HW133359   6.783   6.869   4.101
10820SOL    HW233360   6.675   6.955   4.013
10821SOL     OW33361   5.304   5.928   2.368
10821SOL    HW133362   5.395   5.964   2.392
10821SOL    HW233363   5.240   5.950   2.441
10822SOL     OW33364   0.986   2.101   2.883
10822SOL    HW133365   0.911   2.143   2.934
10822SOL    HW233366   0.948   2.043   2.811
10823SOL     OW33367   1.683   4.972   1.115
10823SOL    HW133368   1.752   4.933   1.054
10823SOL    HW233369   1.637   5.048   1.069
10824SOL     OW33370   4.922   6.997   4.078
10824SOL    HW133371   4.845   6.966   4.022
10824SOL    HW233372   4.925   0.079   4.079
10825SOL     OW33373   2.308   0.495   0.617
10825SOL    HW133374   2.224   0.446   0.594
10825SOL    HW233375   2.288   0.564   0.686
10826SOL     OW33376   0.082   3.637   3.708
10826SOL    HW133377   0.072   3.649   3.609
10826SOL    HW233378   7.015   3.600   3.747
10827SOL     OW33379   5.920   3.800   4.388
10827SOL    HW133380   5.991   3.740   4.425
10827SOL    HW233381   5.945   3.827   4.295
10828SOL     OW33382   1.311   5.495   2.471
10828SOL    HW133383   1.346   5.449   2.553
10828SOL    HW233384   1.211   5.497   2.474
10829SOL     OW33385   3.360   3.396   0.565
10829SOL    HW133386   3.288   3.327   0.573
10829SOL    HW233387   3.319   3.485   0.545
10830SOL     OW33388   4.918   1.997   3.392
10830SOL    HW133389   4.931   2.063   3.318
10830SOL    HW233390   4.820   1.980   3.404
10831SOL     OW33391   4.827   6.160   1.857
10831SOL    HW133392   4.737   6.189   1.825
10831SOL    HW233393   4.864   6.230   1.920
10832SOL     OW33394   6.967   2.434   0.955
10832SOL    HW133395   0.004   2.513   0.928
10832SOL    HW233396   6.870   2.454   0.940
10833SOL     OW33397   1.566   0.925   4.277
10833SOL    HW133398   1.545   0.834   4.242
10833SOL    HW233399   1.650   0.922   4.331
10834SOL     OW33400   0.968   2.250   6.198
10834SOL    HW133401   0.873   2.248   6.230
10834SOL    HW233402   0.991   2.162   6.156
10835SOL     OW33403   5.274   2.072   0.993
10835SOL    HW133404   5.298   1.986   1.038
10835SOL    HW233405   5.286   2.148   1.057
10836SOL     OW33406   6.395   1.031   5.139
10836SOL    HW133407   6.309   1.028   5.191
10836SOL    HW233408   6.442   1.117   5.157
10837SOL     OW33409   0.345   4.938   0.524
10837SOL    HW133410   0.364   5.020   0.470
10837SOL    HW233411   0.430   4.901   0.561
10838SOL     OW33412   5.758   6.786   4.323
10838SOL    HW133413   5.835   6.780   4.259
10838SOL    HW233414   5.694   6.856   4.292
10839SOL     OW33415   3.105   3.004   0.727
10839SOL    HW133416   3.164   3.030   0.803
10839SOL    HW233417   3.122   2.909   0.703
10840SOL     OW33418   4.213   6.481   1.644
10840SOL    HW133419   4.156   6.462   1.564
10840SOL    HW233420   4.193   6.414   1.715
10841SOL     OW33421   3.780   5.940   6.821
10841SOL    HW133422   3.695   5.905   6.782
10841SOL    HW233423   3.760   6.022   6.875
10842SOL     OW33424   6.318   3.689   0.800
10842SOL    HW133425   6.245   3.695   0.732
10842SOL    HW233426   6.319   3.598   0.841
10843SOL     OW33427   0.519   1.968   2.240
10843SOL    HW133428   0.566   2.003   2.322
10843SOL    HW233429   0.569   1.889   2.204
10844SOL     OW33430   0.538   6.700   4.241
10844SOL    HW133431   0.499   6.755   4.167
10844SOL    HW233432   0.562   6.759   4.318
10845SOL     OW33433   1.905   0.826   1.068
10845SOL    HW133434   1.957   0.748   1.035
10845SOL    HW233435   1.924   0.906   1.012
10846SOL     OW33436   4.698   2.883   0.352
10846SOL    HW133437   4.663   2.976   0.360
10846SOL    HW233438   4.698   2.856   0.256
10847SOL     OW33439   2.727   2.196   6.497
10847SOL    HW133440   2.732   2.223   6.401
10847SOL    HW233441   2.809   2.228   6.545
10848SOL     OW33442   3.451   2.148   6.536
10848SOL    HW133443   3.401   2.103   6.462
10848SOL    HW233444   3.392   2.217   6.579
10849SOL     OW33445   3.279   4.890   3.491
10849SOL    HW133446   3.311   4.854   3.579
10849SOL    HW233447   3.358   4.913   3.434
10850SOL     OW33448   4.592   6.270   6.313
10850SOL    HW133449   4.559   6.202   6.379
10850SOL    HW233450   4.684   6.245   6.283
10851SOL     OW33451   2.735   2.695   6.578
10851SOL    HW133452   2.742   2.772   6.514
10851SOL    HW233453   2.641   2.660   6.579
10852SOL     OW33454   0.648   0.073   6.148
10852SOL    HW133455   0.683   6.997   6.154
10852SOL    HW233456   0.555   0.076   6.184
10853SOL     OW33457   3.482   1.554   5.280
10853SOL    HW133458   3.409   1.501   5.323
10853SOL    HW233459   3.442   1.622   5.218
10854SOL     OW33460   6.345   0.512   5.453
10854SOL    HW133461   6.373   0.552   5.540
10854SOL    HW233462   6.422   0.463   5.412
10855SOL     OW33463   2.887   6.276   2.406
10855SOL    HW133464   2.892   6.286   2.307
10855SOL    HW233465   2.818   6.207   2.429
10856SOL     OW33466   6.010   0.993   1.762
10856SOL    HW133467   5.972   0.960   1.675
10856SOL    HW233468   6.072   1.070   1.744
10857SOL     OW33469   5.406   3.109   3.565
10857SOL    HW133470   5.421   3.201   3.602
10857SOL    HW233471   5.459   3.098   3.481
10858SOL     OW33472   1.256   2.742   6.909
10858SOL    HW133473   1.268   2.660   6.965
10858SOL    HW233474   1.205   2.717   6.826
10859SOL     OW33475   2.154   4.505   3.801
10859SOL    HW133476   2.237   4.451   3.789
10859SOL    HW233477   2.094   4.462   3.868
10860SOL     OW33478   6.481   1.201   5.459
10860SOL    HW133479   6.384   1.180   5.468
10860SOL    HW233480   6.499   1.291   5.498
10861SOL     OW33481   3.807   2.894   1.870
10861SOL    HW133482   3.787   2.796   1.860
10861SOL    HW233483   3.755   2.931   1.947
10862SOL     OW33484   2.750   1.499   6.803
10862SOL    HW133485   2.846   1.515   6.828
10862SOL    HW233486   2.732   1.538   6.712
10863SOL     OW33487   3.734   0.759   2.408
10863SOL    HW133488   3.814   0.807   2.372
10863SOL    HW233489   3.667   0.825   2.441
10864SOL     OW33490   2.739   4.503   1.232
10864SOL    HW133491   2.675   4.487   1.157
10864SOL    HW233492   2.724   4.595   1.268
10865SOL     OW33493   5.751   2.655   3.414
10865SOL    HW133494   5.773   2.743   3.456
10865SOL    HW233495   5.831   2.623   3.363
10866SOL     OW33496   6.047   3.728   1.082
10866SOL    HW133497   6.120   3.674   1.125
10866SOL    HW233498   5.962   3.675   1.084
10867SOL     OW33499   2.909   3.534   0.232
10867SOL    HW133500   2.980   3.585   0.184
10867SOL    HW233501   2.869   3.593   0.303
10868SOL     OW33502   1.401   1.741   3.165
10868SOL    HW133503   1.460   1.791   3.228
10868SOL    HW233504   1.341   1.680   3.216
10869NA      NA33505   0.685   2.636   6.237
10870NA      NA33506   4.506   4.466   5.183
10871NA      NA33507   2.344   4.282   2.228
10872NA      NA33508   4.926   4.619   3.365
10873NA      NA33509   4.154   2.280   5.220
10874NA      NA33510   3.464   4.506   1.380
10875NA      NA33511   0.965   4.489   0.380
10876NA      NA33512   4.123   4.292   1.549
10877NA      NA33513   4.880   4.566   0.978
10878NA      NA33514   3.277   0.263   5.486
10879NA      NA33515   5.915   5.621   0.971
10880NA      NA33516   1.714   0.724   5.850
10881NA      NA33517   4.991   5.076   2.054
10882NA      NA33518   3.827   3.248   0.699
   7.01746   7.01746   7.01746
