Generated by trjconv : CNT in water t=  16.00000
33518
    1C        C    1   2.846   2.766   4.746
    1C        C    2   2.900   2.719   4.867
    1C        C    3   2.846   2.772   4.985
    1C        C    4   2.855   2.776   4.261
    1C        C    5   2.906   2.728   4.384
    1C        C    6   2.849   2.772   4.505
    1C        C    7   3.017   2.640   4.626
    1C        C    8   2.898   2.715   4.625
    1C        C    9   3.078   2.595   4.746
    1C        C   10   3.009   2.629   4.864
    1C        C   11   3.183   2.495   4.979
    1C        C   12   3.058   2.557   4.974
    1C        C   13   2.852   2.772   3.773
    1C        C   14   2.905   2.723   3.894
    1C        C   15   2.850   2.772   4.015
    1C        C   16   3.016   2.642   4.136
    1C        C   17   2.906   2.730   4.138
    1C        C   18   3.082   2.612   4.257
    1C        C   19   3.019   2.643   4.380
    1C        C   20   3.211   2.559   4.503
    1C        C   21   3.079   2.609   4.503
    1C        C   22   3.281   2.539   4.624
    1C        C   23   3.211   2.545   4.747
    1C        C   24   3.414   2.479   4.867
    1C        C   25   3.273   2.504   4.868
    1C        C   26   3.491   2.479   4.983
    1C        C   27   2.850   2.770   3.283
    1C        C   28   2.907   2.723   3.404
    1C        C   29   2.851   2.769   3.526
    1C        C   30   3.014   2.638   3.650
    1C        C   31   2.901   2.723   3.649
    1C        C   32   3.080   2.606   3.770
    1C        C   33   3.020   2.640   3.893
    1C        C   34   3.211   2.552   4.017
    1C        C   35   3.081   2.606   4.016
    1C        C   36   3.279   2.529   4.138
    1C        C   37   3.215   2.564   4.259
    1C        C   38   3.420   2.513   4.380
    1C        C   39   3.282   2.542   4.382
    1C        C   40   3.491   2.509   4.502
    1C        C   41   3.419   2.509   4.624
    1C        C   42   3.629   2.488   4.746
    1C        C   43   3.487   2.486   4.745
    1C        C   44   3.706   2.491   4.864
    1C        C   45   3.630   2.485   4.982
    1C        C   46   2.841   2.758   2.795
    1C        C   47   2.895   2.709   2.916
    1C        C   48   2.850   2.763   3.039
    1C        C   49   3.018   2.638   3.163
    1C        C   50   2.902   2.719   3.162
    1C        C   51   3.083   2.606   3.284
    1C        C   52   3.019   2.638   3.406
    1C        C   53   3.209   2.550   3.531
    1C        C   54   3.078   2.600   3.529
    1C        C   55   3.281   2.530   3.651
    1C        C   56   3.213   2.557   3.771
    1C        C   57   3.417   2.508   3.895
    1C        C   58   3.278   2.529   3.894
    1C        C   59   3.490   2.501   4.016
    1C        C   60   3.418   2.500   4.137
    1C        C   61   3.631   2.494   4.259
    1C        C   62   3.489   2.496   4.258
    1C        C   63   3.702   2.501   4.381
    1C        C   64   3.632   2.500   4.503
    1C        C   65   3.838   2.542   4.621
    1C        C   66   3.702   2.503   4.626
    1C        C   67   3.908   2.559   4.743
    1C        C   68   3.844   2.524   4.863
    1C        C   69   4.054   2.588   4.978
    1C        C   70   3.927   2.530   4.976
    1C        C   71   2.825   2.735   2.313
    1C        C   72   2.887   2.694   2.433
    1C        C   73   2.837   2.748   2.553
    1C        C   74   3.012   2.627   2.674
    1C        C   75   2.897   2.708   2.675
    1C        C   76   3.073   2.592   2.796
    1C        C   77   3.014   2.633   2.918
    1C        C   78   3.204   2.540   3.038
    1C        C   79   3.076   2.601   3.040
    1C        C   80   3.273   2.522   3.160
    1C        C   81   3.210   2.545   3.285
    1C        C   82   3.414   2.499   3.401
    1C        C   83   3.276   2.525   3.408
    1C        C   84   3.484   2.485   3.523
    1C        C   85   3.419   2.498   3.648
    1C        C   86   3.627   2.499   3.768
    1C        C   87   3.486   2.500   3.772
    1C        C   88   3.699   2.506   3.890
    1C        C   89   3.632   2.502   4.014
    1C        C   90   3.837   2.543   4.139
    1C        C   91   3.701   2.507   4.137
    1C        C   92   3.900   2.578   4.261
    1C        C   93   3.837   2.542   4.382
    1C        C   94   4.031   2.637   4.502
    1C        C   95   3.908   2.566   4.501
    1C        C   96   4.097   2.669   4.623
    1C        C   97   4.033   2.627   4.742
    1C        C   98   4.190   2.771   4.864
    1C        C   99   4.101   2.658   4.863
    1C        C  100   4.206   2.850   4.979
    1C        C  101   2.818   2.727   2.074
    1C        C  102   2.988   2.589   2.194
    1C        C  103   2.878   2.681   2.193
    1C        C  104   3.062   2.566   2.314
    1C        C  105   3.002   2.611   2.433
    1C        C  106   3.201   2.529   2.554
    1C        C  107   3.070   2.582   2.553
    1C        C  108   3.275   2.520   2.675
    1C        C  109   3.204   2.540   2.795
    1C        C  110   3.412   2.495   2.915
    1C        C  111   3.273   2.518   2.917
    1C        C  112   3.485   2.498   3.037
    1C        C  113   3.413   2.506   3.158
    1C        C  114   3.626   2.499   3.280
    1C        C  115   3.485   2.495   3.279
    1C        C  116   3.695   2.504   3.403
    1C        C  117   3.626   2.491   3.526
    1C        C  118   3.835   2.540   3.646
    1C        C  119   3.698   2.508   3.646
    1C        C  120   3.901   2.566   3.769
    1C        C  121   3.835   2.544   3.891
    1C        C  122   4.024   2.636   4.011
    1C        C  123   3.899   2.570   4.015
    1C        C  124   4.084   2.680   4.131
    1C        C  125   4.022   2.649   4.254
    1C        C  126   4.194   2.767   4.380
    1C        C  127   4.082   2.681   4.378
    1C        C  128   4.244   2.822   4.500
    1C        C  129   4.198   2.767   4.622
    1C        C  130   4.329   2.935   4.741
    1C        C  131   4.247   2.819   4.743
    1C        C  132   4.357   3.005   4.861
    1C        C  133   4.286   2.963   4.974
    1C        C  134   3.174   2.470   2.082
    1C        C  135   3.040   2.509   2.088
    1C        C  136   3.261   2.477   2.192
    1C        C  137   3.194   2.513   2.310
    1C        C  138   3.405   2.480   2.429
    1C        C  139   3.264   2.497   2.432
    1C        C  140   3.482   2.480   2.548
    1C        C  141   3.413   2.491   2.670
    1C        C  142   3.624   2.500   2.791
    1C        C  143   3.483   2.490   2.793
    1C        C  144   3.696   2.508   2.912
    1C        C  145   3.626   2.499   3.035
    1C        C  146   3.833   2.541   3.158
    1C        C  147   3.696   2.504   3.157
    1C        C  148   3.899   2.561   3.281
    1C        C  149   3.833   2.536   3.403
    1C        C  150   4.026   2.629   3.523
    1C        C  151   3.902   2.562   3.524
    1C        C  152   4.084   2.668   3.646
    1C        C  153   4.026   2.634   3.770
    1C        C  154   4.197   2.762   3.886
    1C        C  155   4.086   2.676   3.891
    1C        C  156   4.244   2.810   4.010
    1C        C  157   4.196   2.766   4.136
    1C        C  158   4.335   2.926   4.253
    1C        C  159   4.247   2.815   4.258
    1C        C  160   4.375   2.984   4.375
    1C        C  161   4.332   2.932   4.499
    1C        C  162   4.444   3.115   4.616
    1C        C  163   4.373   2.993   4.620
    1C        C  164   4.471   3.183   4.737
    1C        C  165   4.439   3.120   4.859
    1C        C  166   4.520   3.317   4.971
    1C        C  167   4.485   3.183   4.975
    1C        C  168   3.478   2.437   2.076
    1C        C  169   3.401   2.460   2.191
    1C        C  170   3.620   2.463   2.308
    1C        C  171   3.477   2.461   2.310
    1C        C  172   3.694   2.486   2.426
    1C        C  173   3.623   2.486   2.548
    1C        C  174   3.831   2.540   2.669
    1C        C  175   3.694   2.506   2.669
    1C        C  176   3.899   2.560   2.791
    1C        C  177   3.833   2.542   2.914
    1C        C  178   4.029   2.622   3.033
    1C        C  179   3.900   2.564   3.036
    1C        C  180   4.088   2.660   3.156
    1C        C  181   4.024   2.626   3.277
    1C        C  182   4.194   2.754   3.398
    1C        C  183   4.082   2.668   3.399
    1C        C  184   4.247   2.804   3.519
    1C        C  185   4.195   2.756   3.641
    1C        C  186   4.335   2.918   3.765
    1C        C  187   4.246   2.809   3.762
    1C        C  188   4.381   2.974   3.887
    1C        C  189   4.337   2.916   4.008
    1C        C  190   4.446   3.102   4.127
    1C        C  191   4.378   2.978   4.129
    1C        C  192   4.466   3.172   4.248
    1C        C  193   4.443   3.108   4.371
    1C        C  194   4.507   3.312   4.492
    1C        C  195   4.474   3.175   4.491
    1C        C  196   4.520   3.387   4.611
    1C        C  197   4.509   3.320   4.735
    1C        C  198   4.564   3.532   4.848
    1C        C  199   4.526   3.395   4.855
    1C        C  200   4.583   3.617   4.962
    1C        C  201   3.617   2.417   2.075
    1C        C  202   3.829   2.509   2.185
    1C        C  203   3.694   2.460   2.187
    1C        C  204   3.900   2.543   2.303
    1C        C  205   3.831   2.523   2.424
    1C        C  206   4.022   2.623   2.544
    1C        C  207   3.896   2.560   2.545
    1C        C  208   4.081   2.663   2.666
    1C        C  209   4.022   2.629   2.790
    1C        C  210   4.197   2.751   2.910
    1C        C  211   4.087   2.663   2.911
    1C        C  212   4.253   2.798   3.031
    1C        C  213   4.198   2.748   3.152
    1C        C  214   4.331   2.913   3.273
    1C        C  215   4.245   2.801   3.274
    1C        C  216   4.368   2.977   3.393
    1C        C  217   4.330   2.919   3.516
    1C        C  218   4.435   3.099   3.639
    1C        C  219   4.368   2.975   3.640
    1C        C  220   4.467   3.167   3.759
    1C        C  221   4.444   3.100   3.881
    1C        C  222   4.499   3.304   4.006
    1C        C  223   4.470   3.166   4.003
    1C        C  224   4.515   3.379   4.125
    1C        C  225   4.501   3.309   4.247
    1C        C  226   4.514   3.522   4.367
    1C        C  227   4.512   3.380   4.368
    1C        C  228   4.516   3.595   4.487
    1C        C  229   4.526   3.528   4.611
    1C        C  230   4.505   3.743   4.725
    1C        C  231   4.541   3.605   4.729
    1C        C  232   4.494   3.820   4.842
    1C        C  233   4.545   3.752   4.954
    1C        C  234   4.014   2.613   2.066
    1C        C  235   3.898   2.537   2.066
    1C        C  236   4.089   2.647   2.180
    1C        C  237   4.024   2.613   2.300
    1C        C  238   4.201   2.736   2.422
    1C        C  239   4.084   2.654   2.421
    1C        C  240   4.252   2.788   2.543
    1C        C  241   4.199   2.741   2.665
    1C        C  242   4.342   2.901   2.783
    1C        C  243   4.247   2.797   2.786
    1C        C  244   4.380   2.962   2.905
    1C        C  245   4.340   2.909   3.029
    1C        C  246   4.441   3.095   3.150
    1C        C  247   4.378   2.968   3.152
    1C        C  248   4.460   3.165   3.271
    1C        C  249   4.435   3.102   3.394
    1C        C  250   4.500   3.302   3.517
    1C        C  251   4.460   3.167   3.517
    1C        C  252   4.511   3.373   3.639
    1C        C  253   4.504   3.303   3.761
    1C        C  254   4.518   3.515   3.881
    1C        C  255   4.513   3.374   3.883
    1C        C  256   4.518   3.590   4.001
    1C        C  257   4.519   3.520   4.124
    1C        C  258   4.490   3.732   4.243
    1C        C  259   4.511   3.592   4.245
    1C        C  260   4.472   3.805   4.363
    1C        C  261   4.488   3.734   4.484
    1C        C  262   4.418   3.938   4.603
    1C        C  263   4.470   3.807   4.604
    1C        C  264   4.407   4.013   4.722
    1C        C  265   4.437   3.949   4.844
    1C        C  266   4.316   4.132   4.957
    1C        C  267   4.394   4.016   4.959
    1C        C  268   4.266   2.773   2.062
    1C        C  269   4.199   2.735   2.179
    1C        C  270   4.347   2.890   2.298
    1C        C  271   4.254   2.782   2.300
    1C        C  272   4.384   2.953   2.419
    1C        C  273   4.342   2.897   2.541
    1C        C  274   4.448   3.085   2.660
    1C        C  275   4.382   2.960   2.661
    1C        C  276   4.469   3.153   2.782
    1C        C  277   4.442   3.089   2.905
    1C        C  278   4.508   3.292   3.026
    1C        C  279   4.473   3.155   3.026
    1C        C  280   4.521   3.363   3.147
    1C        C  281   4.505   3.299   3.272
    1C        C  282   4.521   3.511   3.390
    1C        C  283   4.517   3.369   3.394
    1C        C  284   4.518   3.582   3.512
    1C        C  285   4.522   3.514   3.636
    1C        C  286   4.494   3.724   3.752
    1C        C  287   4.518   3.584   3.758
    1C        C  288   4.472   3.792   3.873
    1C        C  289   4.492   3.729   3.998
    1C        C  290   4.430   3.932   4.114
    1C        C  291   4.479   3.799   4.120
    1C        C  292   4.400   3.999   4.235
    1C        C  293   4.424   3.938   4.360
    1C        C  294   4.324   4.128   4.477
    1C        C  295   4.395   4.005   4.481
    1C        C  296   4.285   4.189   4.599
    1C        C  297   4.334   4.135   4.720
    1C        C  298   4.202   4.315   4.835
    1C        C  299   4.287   4.200   4.838
    1C        C  300   4.174   4.401   4.946
    1C        C  301   4.350   2.884   2.059
    1C        C  302   4.467   3.070   2.175
    1C        C  303   4.394   2.946   2.176
    1C        C  304   4.478   3.144   2.296
    1C        C  305   4.448   3.079   2.417
    1C        C  306   4.505   3.286   2.537
    1C        C  307   4.478   3.148   2.537
    1C        C  308   4.515   3.357   2.659
    1C        C  309   4.504   3.290   2.782
    1C        C  310   4.527   3.502   2.900
    1C        C  311   4.520   3.361   2.903
    1C        C  312   4.518   3.573   3.022
    1C        C  313   4.521   3.505   3.146
    1C        C  314   4.486   3.716   3.261
    1C        C  315   4.511   3.577   3.266
    1C        C  316   4.478   3.784   3.385
    1C        C  317   4.494   3.721   3.511
    1C        C  318   4.425   3.926   3.624
    1C        C  319   4.472   3.793   3.630
    1C        C  320   4.395   3.985   3.749
    1C        C  321   4.427   3.926   3.873
    1C        C  322   4.317   4.112   3.990
    1C        C  323   4.395   3.995   3.993
    1C        C  324   4.277   4.170   4.112
    1C        C  325   4.324   4.118   4.234
    1C        C  326   4.182   4.281   4.355
    1C        C  327   4.283   4.182   4.354
    1C        C  328   4.133   4.339   4.474
    1C        C  329   4.191   4.294   4.595
    1C        C  330   4.024   4.436   4.714
    1C        C  331   4.139   4.351   4.713
    1C        C  332   3.970   4.488   4.833
    1C        C  333   4.059   4.480   4.941
    1C        C  334   4.548   3.269   2.060
    1C        C  335   4.527   3.130   2.060
    1C        C  336   4.539   3.351   2.173
    1C        C  337   4.518   3.280   2.294
    1C        C  338   4.529   3.495   2.412
    1C        C  339   4.524   3.354   2.414
    1C        C  340   4.524   3.567   2.533
    1C        C  341   4.526   3.498   2.657
    1C        C  342   4.490   3.709   2.773
    1C        C  343   4.520   3.572   2.777
    1C        C  344   4.474   3.779   2.895
    1C        C  345   4.495   3.712   3.017
    1C        C  346   4.420   3.914   3.140
    1C        C  347   4.474   3.783   3.137
    1C        C  348   4.392   3.980   3.262
    1C        C  349   4.425   3.915   3.382
    1C        C  350   4.316   4.104   3.503
    1C        C  351   4.392   3.985   3.500
    1C        C  352   4.276   4.165   3.625
    1C        C  353   4.318   4.104   3.745
    1C        C  354   4.178   4.267   3.866
    1C        C  355   4.275   4.164   3.865
    1C        C  356   4.124   4.315   3.987
    1C        C  357   4.176   4.269   4.110
    1C        C  358   4.014   4.406   4.229
    1C        C  359   4.128   4.324   4.232
    1C        C  360   3.954   4.445   4.351
    1C        C  361   4.018   4.420   4.474
    1C        C  362   3.827   4.519   4.595
    1C        C  363   3.958   4.468   4.593
    1C        C  364   3.760   4.546   4.716
    1C        C  365   3.836   4.533   4.835
    1C        C  366   3.626   4.585   4.953
    1C        C  367   3.765   4.572   4.949
    1C        C  368   4.502   3.565   2.054
    1C        C  369   4.529   3.492   2.171
    1C        C  370   4.507   3.706   2.286
    1C        C  371   4.528   3.567   2.290
    1C        C  372   4.481   3.775   2.407
    1C        C  373   4.498   3.706   2.529
    1C        C  374   4.432   3.911   2.651
    1C        C  375   4.476   3.777   2.649
    1C        C  376   4.400   3.978   2.771
    1C        C  377   4.428   3.913   2.894
    1C        C  378   4.324   4.097   3.014
    1C        C  379   4.396   3.976   3.016
    1C        C  380   4.270   4.152   3.132
    1C        C  381   4.312   4.097   3.255
    1C        C  382   4.173   4.254   3.376
    1C        C  383   4.271   4.152   3.378
    1C        C  384   4.123   4.307   3.497
    1C        C  385   4.175   4.263   3.621
    1C        C  386   4.007   4.392   3.742
    1C        C  387   4.122   4.310   3.744
    1C        C  388   3.948   4.431   3.864
    1C        C  389   4.008   4.396   3.987
    1C        C  390   3.815   4.487   4.109
    1C        C  391   3.947   4.437   4.108
    1C        C  392   3.751   4.512   4.232
    1C        C  393   3.824   4.502   4.352
    1C        C  394   3.617   4.548   4.477
    1C        C  395   3.757   4.530   4.473
    1C        C  396   3.545   4.558   4.599
    1C        C  397   3.620   4.562   4.718
    1C        C  398   3.409   4.542   4.840
    1C        C  399   3.547   4.574   4.839
    1C        C  400   3.340   4.514   4.959
    1C        C  401   4.501   3.704   2.051
    1C        C  402   4.456   3.917   2.167
    1C        C  403   4.496   3.782   2.167
    1C        C  404   4.412   3.978   2.287
    1C        C  405   4.438   3.909   2.408
    1C        C  406   4.327   4.093   2.525
    1C        C  407   4.406   3.976   2.528
    1C        C  408   4.273   4.142   2.646
    1C        C  409   4.311   4.087   2.771
    1C        C  410   4.178   4.253   2.887
    1C        C  411   4.274   4.150   2.892
    1C        C  412   4.127   4.304   3.009
    1C        C  413   4.175   4.257   3.133
    1C        C  414   4.003   4.383   3.252
    1C        C  415   4.119   4.303   3.254
    1C        C  416   3.941   4.415   3.375
    1C        C  417   4.005   4.384   3.497
    1C        C  418   3.813   4.474   3.620
    1C        C  419   3.945   4.422   3.619
    1C        C  420   3.747   4.503   3.741
    1C        C  421   3.818   4.486   3.862
    1C        C  422   3.613   4.534   3.988
    1C        C  423   3.750   4.502   3.984
    1C        C  424   3.542   4.542   4.110
    1C        C  425   3.612   4.539   4.233
    1C        C  426   3.403   4.551   4.357
    1C        C  427   3.544   4.550   4.356
    1C        C  428   3.330   4.553   4.478
    1C        C  429   3.403   4.558   4.599
    1C        C  430   3.194   4.521   4.723
    1C        C  431   3.334   4.546   4.721
    1C        C  432   3.126   4.491   4.844
    1C        C  433   3.204   4.483   4.959
    1C        C  434   4.384   4.124   2.051
    1C        C  435   4.447   3.999   2.054
    1C        C  436   4.300   4.160   2.161
    1C        C  437   4.332   4.095   2.284
    1C        C  438   4.182   4.248   2.401
    1C        C  439   4.284   4.151   2.404
    1C        C  440   4.128   4.299   2.522
    1C        C  441   4.176   4.244   2.643
    1C        C  442   4.002   4.369   2.765
    1C        C  443   4.119   4.290   2.764
    1C        C  444   3.943   4.410   2.886
    1C        C  445   4.006   4.377   3.008
    1C        C  446   3.813   4.470   3.128
    1C        C  447   3.943   4.415   3.128
    1C        C  448   3.747   4.486   3.252
    1C        C  449   3.809   4.465   3.377
    1C        C  450   3.608   4.531   3.496
    1C        C  451   3.744   4.494   3.499
    1C        C  452   3.541   4.539   3.620
    1C        C  453   3.609   4.534   3.744
    1C        C  454   3.399   4.543   3.865
    1C        C  455   3.540   4.545   3.867
    1C        C  456   3.333   4.534   3.989
    1C        C  457   3.401   4.541   4.113
    1C        C  458   3.195   4.500   4.239
    1C        C  459   3.332   4.535   4.236
    1C        C  460   3.126   4.486   4.361
    1C        C  461   3.193   4.519   4.481
    1C        C  462   2.995   4.440   4.604
    1C        C  463   3.125   4.496   4.602
    1C        C  464   2.928   4.405   4.724
    1C        C  465   2.990   4.445   4.845
    1C        C  466   2.804   4.341   4.958
    1C        C  467   2.909   4.433   4.963
    1C        C  468   4.126   4.290   2.041
    1C        C  469   4.188   4.250   2.160
    1C        C  470   4.005   4.369   2.277
    1C        C  471   4.126   4.294   2.280
    1C        C  472   3.943   4.402   2.399
    1C        C  473   4.010   4.377   2.521
    1C        C  474   3.815   4.465   2.644
    1C        C  475   3.944   4.406   2.642
    1C        C  476   3.746   4.492   2.764
    1C        C  477   3.813   4.468   2.886
    1C        C  478   3.603   4.511   3.007
    1C        C  479   3.743   4.487   3.007
    1C        C  480   3.536   4.522   3.131
    1C        C  481   3.608   4.512   3.252
    1C        C  482   3.396   4.534   3.378
    1C        C  483   3.537   4.529   3.373
    1C        C  484   3.327   4.533   3.501
    1C        C  485   3.399   4.543   3.622
    1C        C  486   3.190   4.501   3.747
    1C        C  487   3.327   4.536   3.743
    1C        C  488   3.127   4.478   3.872
    1C        C  489   3.195   4.504   3.993
    1C        C  490   3.006   4.412   4.117
    1C        C  491   3.129   4.480   4.116
    1C        C  492   2.944   4.380   4.240
    1C        C  493   2.999   4.424   4.362
    1C        C  494   2.828   4.303   4.486
    1C        C  495   2.934   4.397   4.484
    1C        C  496   2.776   4.253   4.607
    1C        C  497   2.821   4.311   4.728
    1C        C  498   2.666   4.162   4.845
    1C        C  499   2.755   4.272   4.846
    1C        C  500   2.593   4.115   4.955
    1C        C  501   3.999   4.347   2.044
    1C        C  502   3.814   4.467   2.157
    1C        C  503   3.940   4.404   2.157
    1C        C  504   3.745   4.480   2.280
    1C        C  505   3.812   4.455   2.402
    1C        C  506   3.606   4.509   2.522
    1C        C  507   3.744   4.481   2.523
    1C        C  508   3.534   4.521   2.643
    1C        C  509   3.608   4.522   2.763
    1C        C  510   3.395   4.527   2.886
    1C        C  511   3.536   4.528   2.884
    1C        C  512   3.324   4.520   3.008
    1C        C  513   3.395   4.529   3.129
    1C        C  514   3.191   4.495   3.257
    1C        C  515   3.328   4.529   3.254
    1C        C  516   3.124   4.468   3.378
    1C        C  517   3.191   4.494   3.499
    1C        C  518   3.000   4.414   3.626
    1C        C  519   3.127   4.475   3.624
    1C        C  520   2.945   4.371   3.749
    1C        C  521   3.005   4.408   3.871
    1C        C  522   2.840   4.277   3.996
    1C        C  523   2.948   4.369   3.995
    1C        C  524   2.790   4.233   4.121
    1C        C  525   2.836   4.288   4.243
    1C        C  526   2.697   4.132   4.367
    1C        C  527   2.785   4.242   4.366
    1C        C  528   2.654   4.072   4.488
    1C        C  529   2.693   4.139   4.606
    1C        C  530   2.584   3.957   4.731
    1C        C  531   2.642   4.087   4.728
    1C        C  532   2.536   3.898   4.851
    1C        C  533   2.524   3.993   4.957
    1C        C  534   3.617   4.563   2.044
    1C        C  535   3.748   4.513   2.042
    1C        C  536   3.535   4.535   2.158
    1C        C  537   3.606   4.511   2.279
    1C        C  538   3.394   4.516   2.400
    1C        C  539   3.535   4.519   2.400
    1C        C  540   3.321   4.507   2.521
    1C        C  541   3.393   4.518   2.642
    1C        C  542   3.185   4.486   2.766
    1C        C  543   3.322   4.518   2.765
    1C        C  544   3.119   4.466   2.889
    1C        C  545   3.187   4.486   3.012
    1C        C  546   2.996   4.405   3.135
    1C        C  547   3.123   4.467   3.136
    1C        C  548   2.935   4.369   3.257
    1C        C  549   2.998   4.405   3.379
    1C        C  550   2.831   4.283   3.509
    1C        C  551   2.940   4.372   3.504
    1C        C  552   2.783   4.229   3.630
    1C        C  553   2.836   4.280   3.750
    1C        C  554   2.697   4.124   3.879
    1C        C  555   2.784   4.236   3.874
    1C        C  556   2.658   4.065   4.001
    1C        C  557   2.698   4.126   4.121
    1C        C  558   2.597   3.944   4.246
    1C        C  559   2.657   4.073   4.245
    1C        C  560   2.571   3.878   4.368
    1C        C  561   2.588   3.947   4.490
    1C        C  562   2.535   3.744   4.614
    1C        C  563   2.561   3.883   4.613
    1C        C  564   2.516   3.679   4.738
    1C        C  565   2.515   3.756   4.858
    1C        C  566   2.532   3.545   4.980
    1C        C  567   2.522   3.683   4.977
    1C        C  568   3.328   4.478   2.042
    1C        C  569   3.395   4.515   2.159
    1C        C  570   3.182   4.479   2.279
    1C        C  571   3.320   4.516   2.280
    1C        C  572   3.114   4.457   2.401
    1C        C  573   3.182   4.482   2.522
    1C        C  574   2.986   4.403   2.645
    1C        C  575   3.116   4.460   2.645
    1C        C  576   2.929   4.367   2.769
    1C        C  577   2.992   4.404   2.890
    1C        C  578   2.831   4.270   3.016
    1C        C  579   2.938   4.362   3.014
    1C        C  580   2.781   4.223   3.139
    1C        C  581   2.830   4.274   3.261
    1C        C  582   2.697   4.118   3.386
    1C        C  583   2.784   4.229   3.387
    1C        C  584   2.659   4.059   3.509
    1C        C  585   2.697   4.117   3.632
    1C        C  586   2.599   3.935   3.756
    1C        C  587   2.662   4.061   3.757
    1C        C  588   2.576   3.870   3.879
    1C        C  589   2.601   3.935   4.002
    1C        C  590   2.537   3.737   4.126
    1C        C  591   2.576   3.873   4.126
    1C        C  592   2.528   3.670   4.250
    1C        C  593   2.540   3.741   4.372
    1C        C  594   2.514   3.530   4.499
    1C        C  595   2.529   3.670   4.494
    1C        C  596   2.513   3.461   4.623
    1C        C  597   2.517   3.537   4.742
    1C        C  598   2.541   3.326   4.862
    1C        C  599   2.533   3.467   4.863
    1C        C  600   2.532   3.246   4.977
    1C        C  601   3.196   4.439   2.044
    1C        C  602   2.983   4.389   2.159
    1C        C  603   3.116   4.443   2.159
    1C        C  604   2.925   4.355   2.284
    1C        C  605   2.986   4.397   2.404
    1C        C  606   2.816   4.271   2.529
    1C        C  607   2.921   4.366   2.526
    1C        C  608   2.772   4.220   2.653
    1C        C  609   2.821   4.276   2.773
    1C        C  610   2.685   4.114   2.896
    1C        C  611   2.773   4.224   2.896
    1C        C  612   2.654   4.056   3.022
    1C        C  613   2.690   4.114   3.145
    1C        C  614   2.588   3.931   3.267
    1C        C  615   2.647   4.059   3.268
    1C        C  616   2.573   3.867   3.392
    1C        C  617   2.594   3.934   3.514
    1C        C  618   2.533   3.729   3.639
    1C        C  619   2.574   3.864   3.636
    1C        C  620   2.517   3.663   3.763
    1C        C  621   2.532   3.736   3.883
    1C        C  622   2.512   3.526   4.010
    1C        C  623   2.521   3.667   4.005
    1C        C  624   2.519   3.454   4.132
    1C        C  625   2.516   3.529   4.251
    1C        C  626   2.534   3.322   4.381
    1C        C  627   2.518   3.462   4.376
    1C        C  628   2.550   3.250   4.501
    1C        C  629   2.531   3.321   4.622
    1C        C  630   2.597   3.116   4.744
    1C        C  631   2.552   3.251   4.743
    1C        C  632   2.619   3.049   4.867
    1C        C  633   2.558   3.109   4.982
    1C        C  634   2.781   4.306   2.057
    1C        C  635   2.895   4.387   2.046
    1C        C  636   2.747   4.229   2.169
    1C        C  637   2.812   4.268   2.287
    1C        C  638   2.673   4.110   2.412
    1C        C  639   2.758   4.223   2.410
    1C        C  640   2.641   4.046   2.534
    1C        C  641   2.688   4.106   2.653
    1C        C  642   2.588   3.921   2.780
    1C        C  643   2.652   4.048   2.776
    1C        C  644   2.570   3.856   2.904
    1C        C  645   2.595   3.927   3.023
    1C        C  646   2.528   3.727   3.151
    1C        C  647   2.563   3.864   3.145
    1C        C  648   2.520   3.657   3.273
    1C        C  649   2.539   3.729   3.393
    1C        C  650   2.512   3.520   3.519
    1C        C  651   2.524   3.661   3.515
    1C        C  652   2.511   3.452   3.643
    1C        C  653   2.508   3.522   3.765
    1C        C  654   2.534   3.314   3.889
    1C        C  655   2.511   3.453   3.889
    1C        C  656   2.551   3.247   4.012
    1C        C  657   2.542   3.315   4.136
    1C        C  658   2.607   3.119   4.258
    1C        C  659   2.554   3.250   4.261
    1C        C  660   2.640   3.057   4.381
    1C        C  661   2.601   3.118   4.503
    1C        C  662   2.712   2.935   4.626
    1C        C  663   2.635   3.053   4.624
    1C        C  664   2.754   2.875   4.747
    1C        C  665   2.697   2.929   4.866
    1C        C  666   2.748   2.871   4.983
    1C        C  667   2.685   4.021   2.055
    1C        C  668   2.682   4.104   2.168
    1C        C  669   2.588   3.914   2.293
    1C        C  670   2.641   4.046   2.290
    1C        C  671   2.559   3.849   2.415
    1C        C  672   2.587   3.916   2.536
    1C        C  673   2.518   3.718   2.661
    1C        C  674   2.563   3.852   2.660
    1C        C  675   2.510   3.648   2.783
    1C        C  676   2.532   3.720   2.903
    1C        C  677   2.506   3.516   3.030
    1C        C  678   2.514   3.657   3.028
    1C        C  679   2.510   3.445   3.152
    1C        C  680   2.506   3.516   3.274
    1C        C  681   2.537   3.309   3.401
    1C        C  682   2.511   3.448   3.397
    1C        C  683   2.549   3.240   3.523
    1C        C  684   2.531   3.313   3.644
    1C        C  685   2.612   3.117   3.773
    1C        C  686   2.555   3.247   3.766
    1C        C  687   2.639   3.050   3.894
    1C        C  688   2.606   3.117   4.014
    1C        C  689   2.713   2.934   4.139
    1C        C  690   2.641   3.055   4.137
    1C        C  691   2.757   2.878   4.261
    1C        C  692   2.715   2.937   4.382
    1C        C  693   2.760   2.882   4.504
    1C        C  694   2.620   3.896   2.054
    1C        C  695   2.529   3.706   2.177
    1C        C  696   2.571   3.841   2.173
    1C        C  697   2.510   3.640   2.300
    1C        C  698   2.518   3.714   2.420
    1C        C  699   2.491   3.504   2.541
    1C        C  700   2.498   3.645   2.542
    1C        C  701   2.503   3.436   2.665
    1C        C  702   2.504   3.507   2.787
    1C        C  703   2.527   3.300   2.912
    1C        C  704   2.510   3.440   2.911
    1C        C  705   2.540   3.232   3.035
    1C        C  706   2.531   3.305   3.156
    1C        C  707   2.599   3.106   3.280
    1C        C  708   2.553   3.240   3.279
    1C        C  709   2.634   3.046   3.403
    1C        C  710   2.603   3.110   3.525
    1C        C  711   2.712   2.933   3.649
    1C        C  712   2.635   3.052   3.650
    1C        C  713   2.759   2.878   3.770
    1C        C  714   2.720   2.934   3.894
    1C        C  715   2.755   2.876   4.018
    1C        C  716   2.452   3.498   2.064
    1C        C  717   2.489   3.633   2.064
    1C        C  718   2.467   3.421   2.184
    1C        C  719   2.487   3.500   2.301
    1C        C  720   2.514   3.289   2.425
    1C        C  721   2.491   3.428   2.422
    1C        C  722   2.540   3.224   2.547
    1C        C  723   2.526   3.296   2.667
    1C        C  724   2.589   3.096   2.790
    1C        C  725   2.541   3.229   2.791
    1C        C  726   2.621   3.037   2.915
    1C        C  727   2.592   3.100   3.037
    1C        C  728   2.710   2.924   3.158
    1C        C  729   2.627   3.039   3.159
    1C        C  730   2.754   2.874   3.282
    1C        C  731   2.713   2.929   3.406
    1C        C  732   2.756   2.873   3.529
    1C        C  733   2.485   3.195   2.073
    1C        C  734   2.486   3.279   2.185
    1C        C  735   2.585   3.086   2.306
    1C        C  736   2.519   3.212   2.306
    1C        C  737   2.621   3.025   2.428
    1C        C  738   2.589   3.091   2.549
    1C        C  739   2.694   2.907   2.673
    1C        C  740   2.619   3.027   2.671
    1C        C  741   2.742   2.858   2.796
    1C        C  742   2.705   2.923   2.916
    1C        C  743   2.755   2.868   3.036
    1C        C  744   2.542   3.068   2.074
    1C        C  745   2.680   2.894   2.188
    1C        C  746   2.606   3.014   2.186
    1C        C  747   2.733   2.843   2.308
    1C        C  748   2.695   2.905   2.429
    1C        C  749   2.739   2.850   2.552
    1C        C  750   2.733   2.837   2.071
    1C        C  751   3.672   2.309   1.990
    1C        O  752   3.702   2.194   2.031
    1C        O  753   3.657   2.305   1.850
    1C        C  754   4.615   3.049   1.973
    1C        O  755   4.584   3.020   1.854
    1C        O  756   4.748   3.016   1.999
    1C        C  757   4.458   4.217   1.963
    1C        O  758   4.542   4.297   2.013
    1C        O  759   4.413   4.241   1.832
    1C        C  760   3.596   4.679   1.954
    1C        O  761   3.573   4.796   1.995
    1C        O  762   3.529   4.656   1.833
    1C        C  763   2.894   4.496   1.945
    1C        O  764   2.921   4.482   1.823
    1C        O  765   2.847   4.623   1.979
    1C        C  766   2.349   3.468   1.963
    1C        O  767   2.367   3.489   1.840
    1C        O  768   2.216   3.445   2.000
    1C        C  769   4.696   3.580   5.050
    1C        O  770   4.678   3.528   5.164
    1C        O  771   4.829   3.592   5.008
    1C        C  772   4.285   4.460   5.023
    1C        O  773   4.262   4.508   5.137
    1C        O  774   4.388   4.529   4.957
    1C        C  775   4.143   2.516   5.072
    1C        O  776   4.186   2.397   5.063
    1C        O  777   4.175   2.568   5.198
    1C        C  778   2.890   4.550   5.052
    1C        O  779   2.808   4.645   5.042
    1C        O  780   2.972   4.567   5.164
    1C        C  781   2.464   3.031   5.066
    1C        O  782   2.349   2.995   5.030
    1C        O  783   2.476   3.026   5.204
    1C        C  784   2.402   3.994   5.040
    1C        O  785   2.291   4.013   4.984
    1C        O  786   2.412   3.991   5.180
    1C        C  787   2.940   2.441   2.002
    1C        O  788   2.935   2.451   1.877
    1C        O  789   2.842   2.355   2.051
    1C        C  790   3.197   2.398   5.091
    1C        O  791   3.161   2.278   5.078
    1C        O  792   3.167   2.437   5.222
    1C        H  793   4.263   3.037   5.048
    1C        H  794   4.151   2.836   5.070
    1C        H  795   4.479   3.136   5.071
    1C        H  796   4.585   3.346   5.051
    1C        H  797   4.593   3.814   5.027
    1C        H  798   4.444   3.992   5.051
    1C        H  799   4.290   4.173   5.052
    1C        H  800   4.031   4.528   5.033
    1C        H  801   3.817   4.583   5.042
    1C        H  802   3.580   4.628   5.040
    1C        H  803   3.388   4.510   5.054
    1C        H  804   3.152   4.486   5.053
    1C        H  805   3.896   2.479   5.065
    1C        H  806   3.681   2.464   5.073
    1C        H  807   3.010   2.575   5.068
    1C        H  808   3.452   2.454   5.080
    1C        H  809   2.886   2.749   5.081
    1C        H  810   2.700   2.886   5.078
    1C        H  811   2.495   3.294   5.065
    1C        H  812   2.606   3.511   5.049
    1C        H  813   2.462   3.727   5.054
    1C        H  814   2.612   4.162   5.049
    1C        H  815   2.745   4.337   5.048
    1C        H  816   2.664   2.836   1.990
    1C        H  817   2.890   2.718   1.996
    1C        H  818   3.195   2.393   2.011
    1C        H  819   3.432   2.420   1.981
    1C        H  820   3.866   2.507   1.968
    1C        H  821   4.056   2.628   1.969
    1C        H  822   4.273   2.702   1.982
    1C        H  823   4.351   2.939   1.967
    1C        H  824   4.575   3.310   1.965
    1C        H  825   4.444   3.520   1.976
    1C        H  826   4.556   3.747   1.971
    1C        H  827   3.812   4.561   1.971
    1C        H  828   3.944   4.342   1.952
    1C        H  829   4.186   4.321   1.958
    1C        H  830   4.426   3.948   1.962
    1C        H  831   2.585   3.856   1.962
    1C        H  832   2.721   4.058   1.962
    1C        H  833   2.733   4.298   1.961
    1C        H  834   3.377   4.470   1.947
    1C        H  835   3.166   4.376   1.963
    1C        H  836   2.576   3.036   1.978
    1C        H  837   2.477   3.242   1.977
    1C        H  838   2.461   3.690   1.978
    2V3OU   H29  839   2.803   3.548   0.739
    2V3OU   C27  840   2.783   3.507   0.842
    2V3OU   H27  841   2.727   3.576   0.911
    2V3OU   H28  842   2.727   3.410   0.840
    2V3OU   O11  843   2.905   3.484   0.913
    2V3OU   C15  844   2.921   3.401   1.022
    2V3OU   C13  845   3.050   3.377   1.072
    2V3OU   C14  846   3.075   3.266   1.154
    2V3OU   C16  847   2.971   3.181   1.188
    2V3OU    H6  848   2.988   3.101   1.263
    2V3OU   C12  849   3.214   3.226   1.183
    2V3OU    O2  850   3.247   3.119   1.239
    2V3OU   C10  851   3.326   3.310   1.138
    2V3OU    C8  852   3.459   3.271   1.148
    2V3OU   O10  853   3.493   3.154   1.208
    2V3OU   H26  854   3.403   3.120   1.222
    2V3OU    C6  855   3.562   3.345   1.082
    2V3OU    C5  856   3.538   3.466   1.017
    2V3OU    C4  857   3.702   3.293   1.080
    2V3OU    H4  858   3.715   3.227   1.171
    2V3OU    H5  859   3.710   3.224   0.991
    2V3OU    C2  860   3.813   3.398   1.079
    2V3OU    O6  861   3.807   3.475   1.199
    2V3OU   H21  862   3.761   3.554   1.166
    2V3OU    C3  863   3.784   3.494   0.964
    2V3OU    H2  864   3.859   3.578   0.963
    2V3OU    H3  865   3.786   3.440   0.866
    2V3OU   C25  866   3.950   3.331   1.062
    2V3OU    O7  867   3.998   3.292   0.956
    2V3OU   C26  868   4.029   3.292   1.186
    2V3OU   H22  869   4.073   3.377   1.244
    2V3OU   H23  870   4.115   3.227   1.155
    2V3OU    O8  871   3.956   3.209   1.274
    2V3OU   H24  872   3.917   3.265   1.344
    2V3OU    C1  873   3.648   3.561   0.978
    2V3OU    H1  874   3.627   3.617   0.882
    2V3OU    O3  875   3.654   3.656   1.084
    2V3OU   C19  876   3.618   3.794   1.075
    2V3OU    H9  877   3.525   3.806   1.011
    2V3OU    O4  878   3.715   3.850   0.989
    2V3OU   C20  879   3.844   3.871   1.048
    2V3OU   H10  880   3.886   3.769   1.072
    2V3OU   C24  881   3.609   3.857   1.214
    2V3OU   H16  882   3.549   3.788   1.279
    2V3OU   H17  883   3.560   3.957   1.200
    2V3OU   C23  884   3.748   3.878   1.272
    2V3OU   H15  885   3.790   3.773   1.289
    2V3OU    N1  886   3.736   3.954   1.395
    2V3OU   H19  887   3.806   3.921   1.459
    2V3OU   H20  888   3.651   3.933   1.443
    2V3OU   C21  889   3.851   3.949   1.179
    2V3OU   H11  890   3.957   3.927   1.213
    2V3OU    O5  891   3.827   4.089   1.181
    2V3OU   H18  892   3.776   4.105   1.263
    2V3OU   C22  893   3.915   3.949   0.939
    2V3OU   H12  894   3.869   4.050   0.924
    2V3OU   H13  895   3.909   3.893   0.842
    2V3OU   H14  896   4.024   3.955   0.964
    2V3OU   C11  897   3.160   3.472   1.049
    2V3OU    O1  898   3.141   3.591   1.013
    2V3OU    C9  899   3.300   3.424   1.057
    2V3OU    C7  900   3.401   3.503   1.003
    2V3OU    O9  901   3.382   3.611   0.920
    2V3OU   H25  902   3.287   3.624   0.913
    2V3OU   C17  903   2.818   3.315   1.065
    2V3OU    H7  904   2.713   3.336   1.044
    2V3OU   C18  905   2.841   3.204   1.146
    2V3OU    H8  906   2.749   3.147   1.168
    3SOL     OW  907   0.478   4.743   1.314
    3SOL    HW1  908   0.456   4.646   1.312
    3SOL    HW2  909   0.547   4.760   1.384
    4SOL     OW  910   5.861   1.010   2.137
    4SOL    HW1  911   5.766   0.978   2.144
    4SOL    HW2  912   5.879   1.038   2.043
    5SOL     OW  913   3.630   2.988   0.998
    5SOL    HW1  914   3.538   3.023   0.982
    5SOL    HW2  915   3.661   3.017   1.088
    6SOL     OW  916   3.104   2.402   0.275
    6SOL    HW1  917   3.033   2.361   0.218
    6SOL    HW2  918   3.165   2.330   0.308
    7SOL     OW  919   5.350   0.820   1.967
    7SOL    HW1  920   5.273   0.868   2.010
    7SOL    HW2  921   5.417   0.887   1.936
    8SOL     OW  922   3.129   2.116   3.394
    8SOL    HW1  923   3.094   2.145   3.304
    8SOL    HW2  924   3.229   2.114   3.392
    9SOL     OW  925   6.305   4.373   6.369
    9SOL    HW1  926   6.373   4.423   6.316
    9SOL    HW2  927   6.306   4.404   6.464
   10SOL     OW  928   7.014   4.560   1.450
   10SOL    HW1  929   0.004   4.483   1.512
   10SOL    HW2  930   0.075   4.611   1.441
   11SOL     OW  931   3.920   6.717   6.903
   11SOL    HW1  932   3.984   6.658   6.953
   11SOL    HW2  933   3.827   6.682   6.913
   12SOL     OW  934   5.719   6.931   2.010
   12SOL    HW1  935   5.703   6.976   2.097
   12SOL    HW2  936   5.792   6.978   1.961
   13SOL     OW  937   2.114   6.866   2.658
   13SOL    HW1  938   2.046   6.923   2.611
   13SOL    HW2  939   2.202   6.873   2.612
   14SOL     OW  940   2.914   0.409   3.184
   14SOL    HW1  941   2.926   0.509   3.185
   14SOL    HW2  942   3.001   0.366   3.159
   15SOL     OW  943   2.530   6.568   6.028
   15SOL    HW1  944   2.585   6.485   6.033
   15SOL    HW2  945   2.553   6.619   5.945
   16SOL     OW  946   6.502   2.484   0.333
   16SOL    HW1  947   6.565   2.419   0.290
   16SOL    HW2  948   6.408   2.459   0.310
   17SOL     OW  949   3.894   5.475   3.138
   17SOL    HW1  950   3.986   5.438   3.127
   17SOL    HW2  951   3.883   5.512   3.230
   18SOL     OW  952   1.713   0.592   6.671
   18SOL    HW1  953   1.722   0.641   6.757
   18SOL    HW2  954   1.626   0.617   6.628
   19SOL     OW  955   0.966   0.016   1.182
   19SOL    HW1  956   0.942   7.020   1.087
   19SOL    HW2  957   0.919   0.098   1.212
   20SOL     OW  958   3.457   0.380   4.407
   20SOL    HW1  959   3.451   0.456   4.342
   20SOL    HW2  960   3.529   0.317   4.377
   21SOL     OW  961   3.081   3.156   1.541
   21SOL    HW1  962   3.030   3.088   1.593
   21SOL    HW2  963   3.172   3.120   1.520
   22SOL     OW  964   1.460   1.265   5.402
   22SOL    HW1  965   1.363   1.276   5.420
   22SOL    HW2  966   1.473   1.215   5.316
   23SOL     OW  967   2.653   6.520   4.841
   23SOL    HW1  968   2.610   6.441   4.885
   23SOL    HW2  969   2.748   6.528   4.872
   24SOL     OW  970   4.660   1.540   5.123
   24SOL    HW1  971   4.661   1.568   5.027
   24SOL    HW2  972   4.568   1.511   5.148
   25SOL     OW  973   2.584   5.942   0.954
   25SOL    HW1  974   2.526   5.952   0.873
   25SOL    HW2  975   2.537   5.885   1.022
   26SOL     OW  976   5.554   0.742   2.851
   26SOL    HW1  977   5.538   0.836   2.821
   26SOL    HW2  978   5.603   0.742   2.938
   27SOL     OW  979   5.858   0.309   2.672
   27SOL    HW1  980   5.902   0.246   2.736
   27SOL    HW2  981   5.925   0.343   2.606
   28SOL     OW  982   2.625   1.122   0.279
   28SOL    HW1  983   2.579   1.042   0.241
   28SOL    HW2  984   2.558   1.195   0.293
   29SOL     OW  985   4.803   3.000   1.695
   29SOL    HW1  986   4.748   2.998   1.779
   29SOL    HW2  987   4.886   2.947   1.709
   30SOL     OW  988   4.187   1.591   6.139
   30SOL    HW1  989   4.151   1.570   6.049
   30SOL    HW2  990   4.287   1.591   6.136
   31SOL     OW  991   0.667   1.715   5.264
   31SOL    HW1  992   0.760   1.697   5.234
   31SOL    HW2  993   0.608   1.729   5.184
   32SOL     OW  994   6.366   1.839   2.081
   32SOL    HW1  995   6.435   1.889   2.028
   32SOL    HW2  996   6.332   1.899   2.154
   33SOL     OW  997   1.449   1.135   5.172
   33SOL    HW1  998   1.505   1.168   5.095
   33SOL    HW2  999   1.450   1.035   5.172
   34SOL     OW 1000   0.923   0.910   4.974
   34SOL    HW1 1001   0.875   0.931   5.060
   34SOL    HW2 1002   0.990   0.981   4.956
   35SOL     OW 1003   5.014   2.252   6.276
   35SOL    HW1 1004   4.920   2.264   6.307
   35SOL    HW2 1005   5.054   2.172   6.321
   36SOL     OW 1006   1.107   2.300   5.810
   36SOL    HW1 1007   1.146   2.312   5.901
   36SOL    HW2 1008   1.013   2.267   5.817
   37SOL     OW 1009   3.417   6.758   1.839
   37SOL    HW1 1010   3.396   6.743   1.936
   37SOL    HW2 1011   3.402   6.853   1.815
   38SOL     OW 1012   6.878   5.560   1.764
   38SOL    HW1 1013   6.852   5.648   1.804
   38SOL    HW2 1014   6.956   5.573   1.703
   39SOL     OW 1015   6.955   2.483   6.468
   39SOL    HW1 1016   0.001   2.547   6.437
   39SOL    HW2 1017   6.997   2.409   6.519
   40SOL     OW 1018   0.298   1.650   1.923
   40SOL    HW1 1019   0.259   1.606   2.005
   40SOL    HW2 1020   0.278   1.595   1.843
   41SOL     OW 1021   0.854   1.050   5.990
   41SOL    HW1 1022   0.944   1.092   5.990
   41SOL    HW2 1023   0.787   1.115   5.954
   42SOL     OW 1024   3.972   6.852   0.554
   42SOL    HW1 1025   4.055   6.818   0.598
   42SOL    HW2 1026   3.996   6.921   0.487
   43SOL     OW 1027   4.693   5.594   5.129
   43SOL    HW1 1028   4.653   5.674   5.174
   43SOL    HW2 1029   4.783   5.575   5.168
   44SOL     OW 1030   1.063   3.973   0.039
   44SOL    HW1 1031   1.138   4.039   0.050
   44SOL    HW2 1032   0.980   4.009   0.080
   45SOL     OW 1033   2.309   0.112   1.287
   45SOL    HW1 1034   2.277   0.025   1.323
   45SOL    HW2 1035   2.317   0.107   1.187
   46SOL     OW 1036   0.764   5.543   3.565
   46SOL    HW1 1037   0.812   5.612   3.512
   46SOL    HW2 1038   0.765   5.456   3.516
   47SOL     OW 1039   6.590   4.379   2.860
   47SOL    HW1 1040   6.562   4.395   2.765
   47SOL    HW2 1041   6.571   4.460   2.915
   48SOL     OW 1042   0.653   1.264   5.398
   48SOL    HW1 1043   0.721   1.248   5.326
   48SOL    HW2 1044   0.671   1.352   5.442
   49SOL     OW 1045   5.840   3.259   0.237
   49SOL    HW1 1046   5.799   3.168   0.229
   49SOL    HW2 1047   5.911   3.258   0.307
   50SOL     OW 1048   0.398   4.153   4.416
   50SOL    HW1 1049   0.495   4.171   4.432
   50SOL    HW2 1050   0.388   4.102   4.330
   51SOL     OW 1051   3.134   5.560   1.976
   51SOL    HW1 1052   3.089   5.647   1.997
   51SOL    HW2 1053   3.068   5.499   1.933
   52SOL     OW 1054   0.312   2.346   1.890
   52SOL    HW1 1055   0.308   2.376   1.985
   52SOL    HW2 1056   0.405   2.362   1.854
   53SOL     OW 1057   4.599   6.730   3.926
   53SOL    HW1 1058   4.636   6.680   3.848
   53SOL    HW2 1059   4.578   6.666   4.000
   54SOL     OW 1060   4.544   4.402   5.586
   54SOL    HW1 1061   4.587   4.454   5.660
   54SOL    HW2 1062   4.614   4.369   5.523
   55SOL     OW 1063   3.681   2.396   1.170
   55SOL    HW1 1064   3.741   2.466   1.132
   55SOL    HW2 1065   3.648   2.425   1.260
   56SOL     OW 1066   0.500   0.294   2.158
   56SOL    HW1 1067   0.499   0.272   2.255
   56SOL    HW2 1068   0.587   0.267   2.118
   57SOL     OW 1069   5.049   0.793   0.564
   57SOL    HW1 1070   5.146   0.818   0.555
   57SOL    HW2 1071   5.020   0.805   0.659
   58SOL     OW 1072   6.622   0.727   6.998
   58SOL    HW1 1073   6.712   0.705   0.012
   58SOL    HW2 1074   6.618   0.696   6.903
   59SOL     OW 1075   0.513   6.933   5.659
   59SOL    HW1 1076   0.569   6.941   5.741
   59SOL    HW2 1077   0.425   6.893   5.683
   60SOL     OW 1078   4.871   6.880   5.250
   60SOL    HW1 1079   4.835   6.972   5.232
   60SOL    HW2 1080   4.930   6.853   5.174
   61SOL     OW 1081   3.618   0.045   5.430
   61SOL    HW1 1082   3.520   0.035   5.412
   61SOL    HW2 1083   3.663   6.980   5.421
   62SOL     OW 1084   2.800   0.287   4.596
   62SOL    HW1 1085   2.817   0.215   4.663
   62SOL    HW2 1086   2.701   0.301   4.588
   63SOL     OW 1087   6.770   2.942   4.018
   63SOL    HW1 1088   6.862   2.951   3.980
   63SOL    HW2 1089   6.768   2.866   4.083
   64SOL     OW 1090   6.857   2.356   5.496
   64SOL    HW1 1091   6.795   2.415   5.444
   64SOL    HW2 1092   6.860   2.385   5.591
   65SOL     OW 1093   1.214   4.112   5.589
   65SOL    HW1 1094   1.119   4.095   5.561
   65SOL    HW2 1095   1.276   4.059   5.532
   66SOL     OW 1096   2.415   0.893   1.415
   66SOL    HW1 1097   2.378   0.985   1.411
   66SOL    HW2 1098   2.497   0.892   1.472
   67SOL     OW 1099   4.332   5.196   3.978
   67SOL    HW1 1100   4.253   5.150   3.937
   67SOL    HW2 1101   4.305   5.238   4.065
   68SOL     OW 1102   5.247   3.153   6.572
   68SOL    HW1 1103   5.172   3.103   6.616
   68SOL    HW2 1104   5.261   3.117   6.480
   69SOL     OW 1105   2.475   2.775   5.552
   69SOL    HW1 1106   2.415   2.839   5.505
   69SOL    HW2 1107   2.530   2.825   5.619
   70SOL     OW 1108   5.684   0.513   2.549
   70SOL    HW1 1109   5.585   0.515   2.566
   70SOL    HW2 1110   5.730   0.571   2.616
   71SOL     OW 1111   1.744   4.376   2.115
   71SOL    HW1 1112   1.720   4.346   2.207
   71SOL    HW2 1113   1.789   4.301   2.066
   72SOL     OW 1114   4.058   5.471   3.669
   72SOL    HW1 1115   4.000   5.498   3.745
   72SOL    HW2 1116   4.073   5.372   3.672
   73SOL     OW 1117   3.223   3.077   6.832
   73SOL    HW1 1118   3.248   3.095   6.928
   73SOL    HW2 1119   3.128   3.045   6.828
   74SOL     OW 1120   5.139   0.141   5.989
   74SOL    HW1 1121   5.150   0.171   5.894
   74SOL    HW2 1122   5.228   0.112   6.025
   75SOL     OW 1123   3.990   5.279   5.677
   75SOL    HW1 1124   3.943   5.192   5.688
   75SOL    HW2 1125   3.971   5.337   5.756
   76SOL     OW 1126   2.636   2.835   1.032
   76SOL    HW1 1127   2.701   2.765   1.003
   76SOL    HW2 1128   2.686   2.912   1.073
   77SOL     OW 1129   5.794   4.096   6.657
   77SOL    HW1 1130   5.837   4.087   6.747
   77SOL    HW2 1131   5.851   4.154   6.598
   78SOL     OW 1132   6.244   7.017   5.852
   78SOL    HW1 1133   6.316   7.010   5.783
   78SOL    HW2 1134   6.163   0.036   5.813
   79SOL     OW 1135   3.197   6.755   1.085
   79SOL    HW1 1136   3.280   6.730   1.135
   79SOL    HW2 1137   3.178   6.852   1.098
   80SOL     OW 1138   0.376   0.873   4.064
   80SOL    HW1 1139   0.339   0.803   4.126
   80SOL    HW2 1140   0.330   0.960   4.081
   81SOL     OW 1141   1.814   6.290   2.967
   81SOL    HW1 1142   1.741   6.258   2.906
   81SOL    HW2 1143   1.817   6.389   2.967
   82SOL     OW 1144   6.518   4.894   5.879
   82SOL    HW1 1145   6.601   4.842   5.858
   82SOL    HW2 1146   6.464   4.906   5.795
   83SOL     OW 1147   6.110   6.607   5.442
   83SOL    HW1 1148   6.111   6.508   5.462
   83SOL    HW2 1149   6.019   6.634   5.412
   84SOL     OW 1150   6.654   3.350   2.037
   84SOL    HW1 1151   6.739   3.369   1.987
   84SOL    HW2 1152   6.576   3.369   1.978
   85SOL     OW 1153   1.248   1.307   5.063
   85SOL    HW1 1154   1.322   1.277   5.124
   85SOL    HW2 1155   1.190   1.229   5.040
   86SOL     OW 1156   2.185   1.061   4.672
   86SOL    HW1 1157   2.226   1.126   4.609
   86SOL    HW2 1158   2.164   1.107   4.759
   87SOL     OW 1159   4.689   6.883   1.796
   87SOL    HW1 1160   4.755   6.814   1.765
   87SOL    HW2 1161   4.676   6.874   1.895
   88SOL     OW 1162   5.942   0.724   1.866
   88SOL    HW1 1163   5.909   0.632   1.845
   88SOL    HW2 1164   5.972   0.727   1.961
   89SOL     OW 1165   2.274   1.858   5.103
   89SOL    HW1 1166   2.240   1.806   5.024
   89SOL    HW2 1167   2.292   1.796   5.179
   90SOL     OW 1168   6.048   6.108   3.788
   90SOL    HW1 1169   5.952   6.092   3.765
   90SOL    HW2 1170   6.063   6.206   3.802
   91SOL     OW 1171   4.882   5.014   4.497
   91SOL    HW1 1172   4.955   5.045   4.557
   91SOL    HW2 1173   4.793   5.032   4.540
   92SOL     OW 1174   3.721   6.001   1.308
   92SOL    HW1 1175   3.661   5.924   1.288
   92SOL    HW2 1176   3.816   5.974   1.294
   93SOL     OW 1177   3.236   5.062   5.887
   93SOL    HW1 1178   3.223   5.086   5.984
   93SOL    HW2 1179   3.194   5.132   5.829
   94SOL     OW 1180   1.753   6.780   1.886
   94SOL    HW1 1181   1.815   6.833   1.944
   94SOL    HW2 1182   1.804   6.706   1.842
   95SOL     OW 1183   6.828   6.902   4.812
   95SOL    HW1 1184   6.901   6.833   4.811
   95SOL    HW2 1185   6.755   6.871   4.873
   96SOL     OW 1186   1.442   6.395   4.653
   96SOL    HW1 1187   1.467   6.491   4.650
   96SOL    HW2 1188   1.511   6.341   4.605
   97SOL     OW 1189   6.317   2.331   4.225
   97SOL    HW1 1190   6.377   2.260   4.262
   97SOL    HW2 1191   6.281   2.302   4.136
   98SOL     OW 1192   4.561   0.665   5.394
   98SOL    HW1 1193   4.512   0.578   5.389
   98SOL    HW2 1194   4.641   0.656   5.453
   99SOL     OW 1195   4.664   0.973   0.786
   99SOL    HW1 1196   4.744   0.948   0.840
   99SOL    HW2 1197   4.610   0.892   0.765
  100SOL     OW 1198   6.667   5.561   0.042
  100SOL    HW1 1199   6.673   5.545   6.968
  100SOL    HW2 1200   6.584   5.520   0.078
  101SOL     OW 1201   1.445   6.917   3.895
  101SOL    HW1 1202   1.424   7.005   3.852
  101SOL    HW2 1203   1.464   6.931   3.992
  102SOL     OW 1204   4.446   0.642   2.668
  102SOL    HW1 1205   4.524   0.583   2.689
  102SOL    HW2 1206   4.458   0.731   2.710
  103SOL     OW 1207   3.939   1.715   2.049
  103SOL    HW1 1208   4.009   1.644   2.041
  103SOL    HW2 1209   3.978   1.795   2.096
  104SOL     OW 1210   6.095   6.104   2.398
  104SOL    HW1 1211   5.998   6.080   2.403
  104SOL    HW2 1212   6.150   6.030   2.437
  105SOL     OW 1213   5.725   0.793   6.262
  105SOL    HW1 1214   5.741   0.694   6.264
  105SOL    HW2 1215   5.635   0.811   6.221
  106SOL     OW 1216   3.739   6.790   1.239
  106SOL    HW1 1217   3.828   6.800   1.194
  106SOL    HW2 1218   3.684   6.872   1.222
  107SOL     OW 1219   2.596   3.285   0.074
  107SOL    HW1 1220   2.592   3.201   0.020
  107SOL    HW2 1221   2.512   3.294   0.128
  108SOL     OW 1222   4.731   4.119   5.501
  108SOL    HW1 1223   4.726   4.027   5.461
  108SOL    HW2 1224   4.813   4.125   5.558
  109SOL     OW 1225   5.992   0.745   2.135
  109SOL    HW1 1226   5.924   0.809   2.171
  109SOL    HW2 1227   6.082   0.767   2.173
  110SOL     OW 1228   3.447   6.430   4.281
  110SOL    HW1 1229   3.474   6.494   4.353
  110SOL    HW2 1230   3.456   6.475   4.192
  111SOL     OW 1231   3.019   1.110   2.896
  111SOL    HW1 1232   3.057   1.059   2.973
  111SOL    HW2 1233   2.921   1.122   2.910
  112SOL     OW 1234   0.048   1.779   6.513
  112SOL    HW1 1235   7.017   1.748   6.435
  112SOL    HW2 1236   7.012   1.819   6.582
  113SOL     OW 1237   6.836   6.850   3.824
  113SOL    HW1 1238   6.781   6.768   3.806
  113SOL    HW2 1239   6.896   6.867   3.745
  114SOL     OW 1240   1.195   6.471   0.249
  114SOL    HW1 1241   1.119   6.436   0.193
  114SOL    HW2 1242   1.206   6.413   0.330
  115SOL     OW 1243   5.228   1.123   5.467
  115SOL    HW1 1244   5.167   1.119   5.546
  115SOL    HW2 1245   5.219   1.039   5.413
  116SOL     OW 1246   6.186   3.961   3.008
  116SOL    HW1 1247   6.087   3.969   3.019
  116SOL    HW2 1248   6.206   3.903   2.929
  117SOL     OW 1249   0.489   6.733   6.252
  117SOL    HW1 1250   0.582   6.766   6.270
  117SOL    HW2 1251   0.448   6.786   6.178
  118SOL     OW 1252   2.224   0.927   3.253
  118SOL    HW1 1253   2.309   0.875   3.241
  118SOL    HW2 1254   2.204   0.935   3.351
  119SOL     OW 1255   6.738   2.312   6.387
  119SOL    HW1 1256   6.692   2.356   6.310
  119SOL    HW2 1257   6.810   2.372   6.422
  120SOL     OW 1258   4.851   5.969   1.681
  120SOL    HW1 1259   4.907   5.889   1.702
  120SOL    HW2 1260   4.823   6.013   1.766
  121SOL     OW 1261   2.735   3.102   5.969
  121SOL    HW1 1262   2.722   3.133   5.874
  121SOL    HW2 1263   2.648   3.069   6.005
  122SOL     OW 1264   1.128   3.265   4.916
  122SOL    HW1 1265   1.033   3.242   4.940
  122SOL    HW2 1266   1.131   3.360   4.884
  123SOL     OW 1267   6.641   1.715   1.908
  123SOL    HW1 1268   6.592   1.802   1.902
  123SOL    HW2 1269   6.739   1.732   1.904
  124SOL     OW 1270   4.972   3.680   1.187
  124SOL    HW1 1271   5.052   3.732   1.158
  124SOL    HW2 1272   4.974   3.666   1.286
  125SOL     OW 1273   2.560   3.619   1.701
  125SOL    HW1 1274   2.521   3.710   1.687
  125SOL    HW2 1275   2.490   3.556   1.735
  126SOL     OW 1276   4.011   4.420   0.214
  126SOL    HW1 1277   4.069   4.356   0.164
  126SOL    HW2 1278   4.000   4.504   0.160
  127SOL     OW 1279   0.737   5.607   5.858
  127SOL    HW1 1280   0.706   5.515   5.883
  127SOL    HW2 1281   0.683   5.641   5.781
  128SOL     OW 1282   4.831   2.376   0.433
  128SOL    HW1 1283   4.755   2.440   0.433
  128SOL    HW2 1284   4.854   2.353   0.338
  129SOL     OW 1285   2.700   3.634   0.114
  129SOL    HW1 1286   2.768   3.706   0.100
  129SOL    HW2 1287   2.618   3.674   0.155
  130SOL     OW 1288   1.618   2.207   4.690
  130SOL    HW1 1289   1.659   2.206   4.780
  130SOL    HW2 1290   1.572   2.119   4.674
  131SOL     OW 1291   5.767   1.116   2.444
  131SOL    HW1 1292   5.700   1.130   2.371
  131SOL    HW2 1293   5.758   1.023   2.480
  132SOL     OW 1294   0.659   2.188   1.905
  132SOL    HW1 1295   0.644   2.246   1.985
  132SOL    HW2 1296   0.756   2.188   1.881
  133SOL     OW 1297   6.912   5.982   2.954
  133SOL    HW1 1298   6.868   5.903   2.996
  133SOL    HW2 1299   6.990   6.011   3.009
  134SOL     OW 1300   1.053   3.286   3.182
  134SOL    HW1 1301   1.076   3.189   3.186
  134SOL    HW2 1302   1.076   3.322   3.092
  135SOL     OW 1303   4.477   0.942   4.270
  135SOL    HW1 1304   4.569   0.982   4.272
  135SOL    HW2 1305   4.478   0.855   4.319
  136SOL     OW 1306   5.139   4.725   6.356
  136SOL    HW1 1307   5.208   4.712   6.285
  136SOL    HW2 1308   5.104   4.819   6.352
  137SOL     OW 1309   3.846   0.777   5.612
  137SOL    HW1 1310   3.841   0.788   5.512
  137SOL    HW2 1311   3.857   0.867   5.655
  138SOL     OW 1312   5.696   4.385   5.581
  138SOL    HW1 1313   5.736   4.392   5.673
  138SOL    HW2 1314   5.682   4.289   5.558
  139SOL     OW 1315   3.456   5.964   5.728
  139SOL    HW1 1316   3.424   6.032   5.661
  139SOL    HW2 1317   3.453   5.873   5.687
  140SOL     OW 1318   6.187   3.838   4.811
  140SOL    HW1 1319   6.186   3.933   4.779
  140SOL    HW2 1320   6.172   3.777   4.733
  141SOL     OW 1321   1.173   1.960   2.411
  141SOL    HW1 1322   1.268   1.928   2.410
  141SOL    HW2 1323   1.135   1.952   2.319
  142SOL     OW 1324   1.159   5.119   1.086
  142SOL    HW1 1325   1.244   5.143   1.135
  142SOL    HW2 1326   1.081   5.149   1.140
  143SOL     OW 1327   4.918   4.431   2.137
  143SOL    HW1 1328   4.876   4.340   2.141
  143SOL    HW2 1329   5.007   4.428   2.181
  144SOL     OW 1330   2.891   6.992   1.170
  144SOL    HW1 1331   2.873   6.936   1.089
  144SOL    HW2 1332   2.989   6.996   1.187
  145SOL     OW 1333   6.601   5.416   0.730
  145SOL    HW1 1334   6.680   5.475   0.713
  145SOL    HW2 1335   6.565   5.383   0.642
  146SOL     OW 1336   0.243   4.720   0.680
  146SOL    HW1 1337   0.246   4.625   0.649
  146SOL    HW2 1338   0.188   4.775   0.617
  147SOL     OW 1339   5.593   2.475   0.893
  147SOL    HW1 1340   5.499   2.453   0.918
  147SOL    HW2 1341   5.621   2.559   0.939
  148SOL     OW 1342   1.028   5.673   5.379
  148SOL    HW1 1343   1.103   5.640   5.436
  148SOL    HW2 1344   1.029   5.773   5.377
  149SOL     OW 1345   3.220   0.996   6.014
  149SOL    HW1 1346   3.197   1.069   6.079
  149SOL    HW2 1347   3.300   1.024   5.960
  150SOL     OW 1348   7.018   5.984   5.208
  150SOL    HW1 1349   6.985   5.900   5.163
  150SOL    HW2 1350   6.940   6.043   5.229
  151SOL     OW 1351   4.333   0.659   2.035
  151SOL    HW1 1352   4.414   0.656   1.976
  151SOL    HW2 1353   4.347   0.597   2.113
  152SOL     OW 1354   2.845   0.731   4.328
  152SOL    HW1 1355   2.903   0.802   4.288
  152SOL    HW2 1356   2.901   0.650   4.347
  153SOL     OW 1357   1.066   0.450   2.479
  153SOL    HW1 1358   1.118   0.381   2.430
  153SOL    HW2 1359   1.074   0.434   2.578
  154SOL     OW 1360   0.384   1.828   2.998
  154SOL    HW1 1361   0.436   1.815   3.083
  154SOL    HW2 1362   0.346   1.921   2.997
  155SOL     OW 1363   0.511   1.041   3.396
  155SOL    HW1 1364   0.520   0.950   3.356
  155SOL    HW2 1365   0.462   1.101   3.331
  156SOL     OW 1366   6.915   2.395   1.257
  156SOL    HW1 1367   6.987   2.447   1.302
  156SOL    HW2 1368   6.942   2.299   1.251
  157SOL     OW 1369   0.341   2.450   2.756
  157SOL    HW1 1370   0.360   2.353   2.744
  157SOL    HW2 1371   0.261   2.475   2.702
  158SOL     OW 1372   2.102   1.451   3.726
  158SOL    HW1 1373   2.026   1.442   3.661
  158SOL    HW2 1374   2.098   1.541   3.769
  159SOL     OW 1375   5.088   3.470   1.760
  159SOL    HW1 1376   5.007   3.428   1.801
  159SOL    HW2 1377   5.085   3.569   1.773
  160SOL     OW 1378   6.024   4.553   6.591
  160SOL    HW1 1379   6.123   4.552   6.575
  160SOL    HW2 1380   5.983   4.630   6.541
  161SOL     OW 1381   2.878   4.697   5.387
  161SOL    HW1 1382   2.883   4.687   5.288
  161SOL    HW2 1383   2.962   4.662   5.429
  162SOL     OW 1384   4.639   5.798   2.517
  162SOL    HW1 1385   4.697   5.738   2.572
  162SOL    HW2 1386   4.696   5.867   2.473
  163SOL     OW 1387   6.185   0.300   1.463
  163SOL    HW1 1388   6.128   0.360   1.407
  163SOL    HW2 1389   6.277   0.296   1.424
  164SOL     OW 1390   6.427   3.001   1.235
  164SOL    HW1 1391   6.523   3.027   1.229
  164SOL    HW2 1392   6.376   3.070   1.287
  165SOL     OW 1393   6.178   3.382   6.816
  165SOL    HW1 1394   6.167   3.469   6.864
  165SOL    HW2 1395   6.239   3.322   6.868
  166SOL     OW 1396   1.546   0.059   0.477
  166SOL    HW1 1397   1.476   0.035   0.544
  166SOL    HW2 1398   1.534   0.155   0.449
  167SOL     OW 1399   6.330   2.774   1.355
  167SOL    HW1 1400   6.386   2.848   1.319
  167SOL    HW2 1401   6.356   2.754   1.449
  168SOL     OW 1402   2.367   5.355   1.210
  168SOL    HW1 1403   2.428   5.431   1.189
  168SOL    HW2 1404   2.303   5.342   1.134
  169SOL     OW 1405   1.133   0.376   1.380
  169SOL    HW1 1406   1.221   0.375   1.334
  169SOL    HW2 1407   1.081   0.456   1.351
  170SOL     OW 1408   0.220   1.693   3.370
  170SOL    HW1 1409   0.196   1.717   3.276
  170SOL    HW2 1410   0.319   1.677   3.377
  171SOL     OW 1411   3.504   3.913   0.491
  171SOL    HW1 1412   3.575   3.877   0.552
  171SOL    HW2 1413   3.543   3.985   0.434
  172SOL     OW 1414   0.115   3.074   2.138
  172SOL    HW1 1415   0.204   3.121   2.142
  172SOL    HW2 1416   0.075   3.068   2.229
  173SOL     OW 1417   6.831   6.621   5.917
  173SOL    HW1 1418   6.791   6.563   5.988
  173SOL    HW2 1419   6.757   6.663   5.864
  174SOL     OW 1420   2.503   5.846   3.746
  174SOL    HW1 1421   2.481   5.933   3.702
  174SOL    HW2 1422   2.470   5.847   3.840
  175SOL     OW 1423   0.441   4.998   3.788
  175SOL    HW1 1424   0.393   4.913   3.767
  175SOL    HW2 1425   0.523   5.005   3.731
  176SOL     OW 1426   2.980   5.349   0.259
  176SOL    HW1 1427   2.913   5.404   0.210
  176SOL    HW2 1428   3.049   5.409   0.300
  177SOL     OW 1429   4.564   1.562   2.746
  177SOL    HW1 1430   4.629   1.514   2.687
  177SOL    HW2 1431   4.567   1.522   2.838
  178SOL     OW 1432   5.519   3.836   6.434
  178SOL    HW1 1433   5.457   3.758   6.420
  178SOL    HW2 1434   5.470   3.910   6.478
  179SOL     OW 1435   2.987   6.786   7.000
  179SOL    HW1 1436   3.050   6.708   6.993
  179SOL    HW2 1437   2.975   6.827   6.909
  180SOL     OW 1438   1.083   2.365   6.982
  180SOL    HW1 1439   1.028   2.379   0.041
  180SOL    HW2 1440   1.143   2.286   6.996
  181SOL     OW 1441   2.922   3.490   3.844
  181SOL    HW1 1442   3.013   3.518   3.873
  181SOL    HW2 1443   2.909   3.393   3.865
  182SOL     OW 1444   5.491   2.419   4.948
  182SOL    HW1 1445   5.465   2.324   4.929
  182SOL    HW2 1446   5.488   2.435   5.047
  183SOL     OW 1447   6.169   1.507   2.677
  183SOL    HW1 1448   6.079   1.470   2.699
  183SOL    HW2 1449   6.230   1.433   2.648
  184SOL     OW 1450   0.448   5.095   2.466
  184SOL    HW1 1451   0.517   5.157   2.431
  184SOL    HW2 1452   0.488   5.004   2.479
  185SOL     OW 1453   3.051   3.929   5.957
  185SOL    HW1 1454   2.966   3.896   5.915
  185SOL    HW2 1455   3.128   3.879   5.918
  186SOL     OW 1456   6.129   6.855   3.399
  186SOL    HW1 1457   6.047   6.836   3.454
  186SOL    HW2 1458   6.131   6.793   3.321
  187SOL     OW 1459   5.655   0.033   4.400
  187SOL    HW1 1460   5.731   0.047   4.337
  187SOL    HW2 1461   5.681   0.061   4.492
  188SOL     OW 1462   6.070   2.040   4.978
  188SOL    HW1 1463   6.148   2.101   4.993
  188SOL    HW2 1464   6.019   2.029   5.063
  189SOL     OW 1465   1.927   4.752   3.642
  189SOL    HW1 1466   1.954   4.773   3.548
  189SOL    HW2 1467   1.846   4.804   3.666
  190SOL     OW 1468   3.547   1.507   6.809
  190SOL    HW1 1469   3.573   1.432   6.870
  190SOL    HW2 1470   3.501   1.578   6.861
  191SOL     OW 1471   5.452   6.081   6.240
  191SOL    HW1 1472   5.493   6.016   6.176
  191SOL    HW2 1473   5.459   6.045   6.333
  192SOL     OW 1474   6.065   0.655   6.906
  192SOL    HW1 1475   5.983   0.658   6.963
  192SOL    HW2 1476   6.079   0.562   6.872
  193SOL     OW 1477   6.103   3.959   0.091
  193SOL    HW1 1478   6.182   3.899   0.092
  193SOL    HW2 1479   6.030   3.918   0.146
  194SOL     OW 1480   3.898   0.002   4.806
  194SOL    HW1 1481   3.870   0.083   4.857
  194SOL    HW2 1482   3.951   6.966   4.866
  195SOL     OW 1483   7.015   5.782   3.374
  195SOL    HW1 1484   7.015   5.682   3.365
  195SOL    HW2 1485   0.081   5.817   3.346
  196SOL     OW 1486   0.652   1.077   0.958
  196SOL    HW1 1487   0.579   1.020   0.996
  196SOL    HW2 1488   0.675   1.045   0.866
  197SOL     OW 1489   1.977   0.887   0.840
  197SOL    HW1 1490   2.020   0.843   0.919
  197SOL    HW2 1491   2.011   0.844   0.756
  198SOL     OW 1492   2.854   1.351   4.537
  198SOL    HW1 1493   2.770   1.313   4.497
  198SOL    HW2 1494   2.932   1.295   4.511
  199SOL     OW 1495   1.523   1.095   4.250
  199SOL    HW1 1496   1.557   1.007   4.282
  199SOL    HW2 1497   1.454   1.130   4.313
  200SOL     OW 1498   6.310   1.944   0.695
  200SOL    HW1 1499   6.344   1.881   0.625
  200SOL    HW2 1500   6.373   2.022   0.702
  201SOL     OW 1501   0.247   1.658   6.017
  201SOL    HW1 1502   0.331   1.680   6.067
  201SOL    HW2 1503   0.191   1.741   6.008
  202SOL     OW 1504   5.400   6.978   0.439
  202SOL    HW1 1505   5.365   0.004   0.518
  202SOL    HW2 1506   5.356   6.888   0.434
  203SOL     OW 1507   6.700   3.673   0.036
  203SOL    HW1 1508   6.694   3.741   0.108
  203SOL    HW2 1509   6.786   3.686   7.010
  204SOL     OW 1510   6.630   1.097   5.380
  204SOL    HW1 1511   6.578   1.063   5.301
  204SOL    HW2 1512   6.703   1.032   5.402
  205SOL     OW 1513   2.153   4.676   3.459
  205SOL    HW1 1514   2.242   4.719   3.474
  205SOL    HW2 1515   2.162   4.577   3.468
  206SOL     OW 1516   0.756   4.122   1.186
  206SOL    HW1 1517   0.683   4.153   1.125
  206SOL    HW2 1518   0.716   4.084   1.269
  207SOL     OW 1519   0.025   2.474   4.491
  207SOL    HW1 1520   0.040   2.461   4.393
  207SOL    HW2 1521   0.045   2.569   4.516
  208SOL     OW 1522   1.372   2.920   4.873
  208SOL    HW1 1523   1.312   2.972   4.812
  208SOL    HW2 1524   1.466   2.952   4.863
  209SOL     OW 1525   6.160   3.482   2.607
  209SOL    HW1 1526   6.159   3.431   2.521
  209SOL    HW2 1527   6.238   3.545   2.608
  210SOL     OW 1528   4.707   3.585   1.169
  210SOL    HW1 1529   4.796   3.627   1.153
  210SOL    HW2 1530   4.717   3.506   1.230
  211SOL     OW 1531   1.346   1.633   1.502
  211SOL    HW1 1532   1.401   1.681   1.571
  211SOL    HW2 1533   1.279   1.575   1.547
  212SOL     OW 1534   2.436   3.873   1.726
  212SOL    HW1 1535   2.395   3.939   1.789
  212SOL    HW2 1536   2.472   3.922   1.646
  213SOL     OW 1537   0.918   5.201   1.200
  213SOL    HW1 1538   0.860   5.125   1.229
  213SOL    HW2 1539   0.863   5.268   1.151
  214SOL     OW 1540   5.602   6.696   2.407
  214SOL    HW1 1541   5.677   6.651   2.359
  214SOL    HW2 1542   5.584   6.784   2.365
  215SOL     OW 1543   2.289   4.788   2.621
  215SOL    HW1 1544   2.244   4.700   2.609
  215SOL    HW2 1545   2.245   4.857   2.563
  216SOL     OW 1546   1.683   6.024   2.915
  216SOL    HW1 1547   1.717   5.986   3.001
  216SOL    HW2 1548   1.606   6.085   2.934
  217SOL     OW 1549   0.001   4.938   4.921
  217SOL    HW1 1550   0.046   5.012   4.871
  217SOL    HW2 1551   0.023   4.945   5.018
  218SOL     OW 1552   2.917   2.644   5.692
  218SOL    HW1 1553   2.849   2.581   5.655
  218SOL    HW2 1554   2.993   2.592   5.731
  219SOL     OW 1555   5.143   2.261   1.450
  219SOL    HW1 1556   5.144   2.261   1.350
  219SOL    HW2 1557   5.230   2.225   1.484
  220SOL     OW 1558   2.530   6.574   0.613
  220SOL    HW1 1559   2.445   6.576   0.560
  220SOL    HW2 1560   2.544   6.482   0.650
  221SOL     OW 1561   4.713   4.647   2.221
  221SOL    HW1 1562   4.797   4.594   2.213
  221SOL    HW2 1563   4.648   4.616   2.151
  222SOL     OW 1564   1.732   4.007   6.769
  222SOL    HW1 1565   1.800   4.079   6.779
  222SOL    HW2 1566   1.649   4.046   6.727
  223SOL     OW 1567   6.676   1.977   4.866
  223SOL    HW1 1568   6.734   2.051   4.832
  223SOL    HW2 1569   6.640   1.925   4.789
  224SOL     OW 1570   3.333   2.687   5.692
  224SOL    HW1 1571   3.413   2.691   5.752
  224SOL    HW2 1572   3.359   2.653   5.602
  225SOL     OW 1573   4.416   6.054   6.386
  225SOL    HW1 1574   4.489   6.111   6.348
  225SOL    HW2 1575   4.401   6.077   6.482
  226SOL     OW 1576   1.885   2.361   0.407
  226SOL    HW1 1577   1.944   2.432   0.446
  226SOL    HW2 1578   1.810   2.342   0.470
  227SOL     OW 1579   1.211   3.716   0.794
  227SOL    HW1 1580   1.277   3.791   0.793
  227SOL    HW2 1581   1.200   3.681   0.887
  228SOL     OW 1582   0.831   0.348   2.385
  228SOL    HW1 1583   0.840   0.320   2.289
  228SOL    HW2 1584   0.915   0.393   2.414
  229SOL     OW 1585   4.245   0.712   6.180
  229SOL    HW1 1586   4.219   0.741   6.272
  229SOL    HW2 1587   4.169   0.666   6.136
  230SOL     OW 1588   5.768   4.075   6.038
  230SOL    HW1 1589   5.856   4.079   6.084
  230SOL    HW2 1590   5.700   4.035   6.100
  231SOL     OW 1591   5.168   0.959   0.193
  231SOL    HW1 1592   5.190   1.030   0.127
  231SOL    HW2 1593   5.148   1.000   0.281
  232SOL     OW 1594   1.242   2.512   5.175
  232SOL    HW1 1595   1.285   2.550   5.094
  232SOL    HW2 1596   1.250   2.576   5.251
  233SOL     OW 1597   3.440   1.458   3.844
  233SOL    HW1 1598   3.464   1.402   3.765
  233SOL    HW2 1599   3.368   1.414   3.897
  234SOL     OW 1600   5.561   0.021   0.231
  234SOL    HW1 1601   5.499   0.002   0.307
  234SOL    HW2 1602   5.507   0.045   0.150
  235SOL     OW 1603   5.198   3.273   2.342
  235SOL    HW1 1604   5.214   3.260   2.244
  235SOL    HW2 1605   5.100   3.282   2.359
  236SOL     OW 1606   3.547   2.852   5.960
  236SOL    HW1 1607   3.634   2.825   6.001
  236SOL    HW2 1608   3.473   2.797   5.999
  237SOL     OW 1609   6.177   3.501   3.300
  237SOL    HW1 1610   6.166   3.600   3.292
  237SOL    HW2 1611   6.105   3.455   3.247
  238SOL     OW 1612   6.342   1.724   0.208
  238SOL    HW1 1613   6.307   1.724   0.302
  238SOL    HW2 1614   6.277   1.772   0.149
  239SOL     OW 1615   1.898   3.159   0.306
  239SOL    HW1 1616   1.815   3.178   0.359
  239SOL    HW2 1617   1.979   3.173   0.363
  240SOL     OW 1618   5.683   3.541   3.980
  240SOL    HW1 1619   5.690   3.465   3.916
  240SOL    HW2 1620   5.660   3.624   3.930
  241SOL     OW 1621   2.004   2.638   3.983
  241SOL    HW1 1622   2.098   2.610   4.003
  241SOL    HW2 1623   1.959   2.567   3.929
  242SOL     OW 1624   3.783   3.190   1.877
  242SOL    HW1 1625   3.729   3.230   1.950
  242SOL    HW2 1626   3.740   3.105   1.846
  243SOL     OW 1627   4.072   2.705   6.375
  243SOL    HW1 1628   4.156   2.758   6.382
  243SOL    HW2 1629   4.088   2.626   6.316
  244SOL     OW 1630   5.016   3.483   4.814
  244SOL    HW1 1631   4.961   3.402   4.797
  244SOL    HW2 1632   4.960   3.552   4.861
  245SOL     OW 1633   3.703   1.098   3.086
  245SOL    HW1 1634   3.728   1.009   3.048
  245SOL    HW2 1635   3.651   1.150   3.018
  246SOL     OW 1636   6.661   1.310   2.438
  246SOL    HW1 1637   6.746   1.329   2.389
  246SOL    HW2 1638   6.586   1.359   2.395
  247SOL     OW 1639   2.427   1.074   2.051
  247SOL    HW1 1640   2.431   1.156   2.107
  247SOL    HW2 1641   2.394   0.997   2.106
  248SOL     OW 1642   3.371   3.670   1.371
  248SOL    HW1 1643   3.313   3.748   1.348
  248SOL    HW2 1644   3.316   3.598   1.413
  249SOL     OW 1645   4.904   6.458   5.578
  249SOL    HW1 1646   4.840   6.523   5.539
  249SOL    HW2 1647   4.956   6.414   5.505
  250SOL     OW 1648   3.952   2.616   0.012
  250SOL    HW1 1649   3.910   2.683   0.073
  250SOL    HW2 1650   3.971   2.658   6.948
  251SOL     OW 1651   4.381   5.281   5.077
  251SOL    HW1 1652   4.463   5.223   5.075
  251SOL    HW2 1653   4.401   5.368   5.032
  252SOL     OW 1654   6.570   6.093   5.032
  252SOL    HW1 1655   6.546   6.086   4.935
  252SOL    HW2 1656   6.521   6.170   5.073
  253SOL     OW 1657   4.502   6.151   6.071
  253SOL    HW1 1658   4.541   6.160   6.162
  253SOL    HW2 1659   4.567   6.104   6.011
  254SOL     OW 1660   6.195   2.216   5.434
  254SOL    HW1 1661   6.250   2.142   5.396
  254SOL    HW2 1662   6.236   2.304   5.411
  255SOL     OW 1663   1.414   4.350   6.946
  255SOL    HW1 1664   1.494   4.385   6.898
  255SOL    HW2 1665   1.339   4.337   6.881
  256SOL     OW 1666   4.722   2.436   5.208
  256SOL    HW1 1667   4.682   2.431   5.116
  256SOL    HW2 1668   4.810   2.483   5.203
  257SOL     OW 1669   4.829   6.349   2.524
  257SOL    HW1 1670   4.784   6.318   2.441
  257SOL    HW2 1671   4.773   6.418   2.569
  258SOL     OW 1672   1.963   3.208   5.903
  258SOL    HW1 1673   1.928   3.193   5.995
  258SOL    HW2 1674   2.026   3.285   5.902
  259SOL     OW 1675   3.413   0.472   3.879
  259SOL    HW1 1676   3.454   0.452   3.790
  259SOL    HW2 1677   3.324   0.516   3.866
  260SOL     OW 1678   3.710   5.692   3.295
  260SOL    HW1 1679   3.617   5.688   3.257
  260SOL    HW2 1680   3.717   5.770   3.357
  261SOL     OW 1681   4.019   4.573   6.993
  261SOL    HW1 1682   3.952   4.608   6.927
  261SOL    HW2 1683   4.100   4.541   6.945
  262SOL     OW 1684   1.233   3.434   6.597
  262SOL    HW1 1685   1.246   3.391   6.507
  262SOL    HW2 1686   1.289   3.517   6.602
  263SOL     OW 1687   1.884   0.065   3.847
  263SOL    HW1 1688   1.846   0.157   3.862
  263SOL    HW2 1689   1.854   0.031   3.758
  264SOL     OW 1690   6.614   3.126   6.343
  264SOL    HW1 1691   6.710   3.099   6.350
  264SOL    HW2 1692   6.557   3.044   6.331
  265SOL     OW 1693   6.948   0.191   3.080
  265SOL    HW1 1694   6.907   0.238   3.158
  265SOL    HW2 1695   6.968   0.096   3.105
  266SOL     OW 1696   3.706   0.794   5.946
  266SOL    HW1 1697   3.788   0.850   5.939
  266SOL    HW2 1698   3.693   0.766   6.041
  267SOL     OW 1699   2.453   0.036   2.782
  267SOL    HW1 1700   2.400   0.027   2.698
  267SOL    HW2 1701   2.496   6.973   2.803
  268SOL     OW 1702   3.667   2.370   0.730
  268SOL    HW1 1703   3.747   2.413   0.773
  268SOL    HW2 1704   3.603   2.341   0.800
  269SOL     OW 1705   5.273   1.715   6.870
  269SOL    HW1 1706   5.355   1.684   6.917
  269SOL    HW2 1707   5.222   1.777   6.930
  270SOL     OW 1708   5.345   1.256   0.505
  270SOL    HW1 1709   5.249   1.280   0.494
  270SOL    HW2 1710   5.394   1.276   0.420
  271SOL     OW 1711   0.237   4.468   6.191
  271SOL    HW1 1712   0.323   4.424   6.165
  271SOL    HW2 1713   0.167   4.398   6.202
  272SOL     OW 1714   3.186   6.005   3.296
  272SOL    HW1 1715   3.221   5.918   3.331
  272SOL    HW2 1716   3.086   6.005   3.301
  273SOL     OW 1717   1.817   5.743   6.020
  273SOL    HW1 1718   1.815   5.822   6.080
  273SOL    HW2 1719   1.724   5.717   5.993
  274SOL     OW 1720   4.358   2.068   3.994
  274SOL    HW1 1721   4.263   2.094   3.975
  274SOL    HW2 1722   4.384   2.098   4.085
  275SOL     OW 1723   5.770   0.235   1.438
  275SOL    HW1 1724   5.818   0.317   1.407
  275SOL    HW2 1725   5.834   0.159   1.445
  276SOL     OW 1726   0.676   6.856   4.534
  276SOL    HW1 1727   0.580   6.833   4.519
  276SOL    HW2 1728   0.728   6.773   4.553
  277SOL     OW 1729   2.296   4.727   1.623
  277SOL    HW1 1730   2.360   4.771   1.561
  277SOL    HW2 1731   2.205   4.727   1.582
  278SOL     OW 1732   0.719   2.427   3.457
  278SOL    HW1 1733   0.634   2.424   3.404
  278SOL    HW2 1734   0.787   2.369   3.414
  279SOL     OW 1735   6.149   1.057   3.090
  279SOL    HW1 1736   6.076   1.020   3.147
  279SOL    HW2 1737   6.229   1.076   3.147
  280SOL     OW 1738   1.851   5.354   2.766
  280SOL    HW1 1739   1.884   5.354   2.860
  280SOL    HW2 1740   1.871   5.443   2.724
  281SOL     OW 1741   2.563   4.191   1.290
  281SOL    HW1 1742   2.498   4.240   1.348
  281SOL    HW2 1743   2.524   4.178   1.199
  282SOL     OW 1744   1.609   1.267   4.999
  282SOL    HW1 1745   1.600   1.354   4.951
  282SOL    HW2 1746   1.659   1.202   4.942
  283SOL     OW 1747   3.048   2.899   6.517
  283SOL    HW1 1748   3.053   2.998   6.507
  283SOL    HW2 1749   3.020   2.858   6.430
  284SOL     OW 1750   0.336   3.694   3.670
  284SOL    HW1 1751   0.423   3.650   3.651
  284SOL    HW2 1752   0.262   3.647   3.621
  285SOL     OW 1753   5.302   3.991   3.867
  285SOL    HW1 1754   5.282   4.009   3.771
  285SOL    HW2 1755   5.335   4.074   3.911
  286SOL     OW 1756   2.837   4.245   1.281
  286SOL    HW1 1757   2.884   4.242   1.369
  286SOL    HW2 1758   2.740   4.227   1.295
  287SOL     OW 1759   0.656   3.213   0.132
  287SOL    HW1 1760   0.733   3.163   0.093
  287SOL    HW2 1761   0.671   3.311   0.123
  288SOL     OW 1762   5.261   3.102   1.657
  288SOL    HW1 1763   5.163   3.094   1.639
  288SOL    HW2 1764   5.279   3.185   1.709
  289SOL     OW 1765   3.612   5.409   6.625
  289SOL    HW1 1766   3.516   5.381   6.626
  289SOL    HW2 1767   3.627   5.473   6.701
  290SOL     OW 1768   1.799   1.078   4.891
  290SOL    HW1 1769   1.884   1.044   4.932
  290SOL    HW2 1770   1.800   1.060   4.792
  291SOL     OW 1771   6.730   1.611   2.833
  291SOL    HW1 1772   6.634   1.589   2.850
  291SOL    HW2 1773   6.783   1.599   2.917
  292SOL     OW 1774   3.466   6.987   4.098
  292SOL    HW1 1775   3.491   0.060   4.092
  292SOL    HW2 1776   3.494   6.941   4.014
  293SOL     OW 1777   3.128   4.877   3.482
  293SOL    HW1 1778   3.135   4.974   3.507
  293SOL    HW2 1779   3.122   4.869   3.383
  294SOL     OW 1780   4.912   0.304   0.583
  294SOL    HW1 1781   4.841   0.287   0.514
  294SOL    HW2 1782   4.947   0.396   0.573
  295SOL     OW 1783   5.674   0.632   4.258
  295SOL    HW1 1784   5.645   0.626   4.162
  295SOL    HW2 1785   5.593   0.640   4.317
  296SOL     OW 1786   2.558   2.119   3.230
  296SOL    HW1 1787   2.531   2.135   3.134
  296SOL    HW2 1788   2.521   2.031   3.261
  297SOL     OW 1789   1.819   4.982   2.035
  297SOL    HW1 1790   1.867   4.957   2.120
  297SOL    HW2 1791   1.787   5.076   2.042
  298SOL     OW 1792   6.879   4.974   0.849
  298SOL    HW1 1793   6.877   4.893   0.908
  298SOL    HW2 1794   6.826   5.048   0.890
  299SOL     OW 1795   5.603   2.483   3.973
  299SOL    HW1 1796   5.561   2.542   3.904
  299SOL    HW2 1797   5.571   2.389   3.961
  300SOL     OW 1798   6.390   6.895   1.458
  300SOL    HW1 1799   6.405   6.961   1.533
  300SOL    HW2 1800   6.451   6.817   1.470
  301SOL     OW 1801   4.893   2.895   5.796
  301SOL    HW1 1802   4.863   2.802   5.773
  301SOL    HW2 1803   4.816   2.958   5.787
  302SOL     OW 1804   1.505   5.600   4.583
  302SOL    HW1 1805   1.440   5.608   4.508
  302SOL    HW2 1806   1.502   5.507   4.620
  303SOL     OW 1807   6.067   0.045   3.942
  303SOL    HW1 1808   6.091   0.094   4.025
  303SOL    HW2 1809   5.971   0.062   3.919
  304SOL     OW 1810   3.848   0.440   4.104
  304SOL    HW1 1811   3.810   0.513   4.048
  304SOL    HW2 1812   3.803   0.354   4.081
  305SOL     OW 1813   1.462   4.964   0.676
  305SOL    HW1 1814   1.379   4.986   0.727
  305SOL    HW2 1815   1.485   4.867   0.689
  306SOL     OW 1816   1.924   1.208   3.315
  306SOL    HW1 1817   1.865   1.147   3.262
  306SOL    HW2 1818   1.973   1.155   3.384
  307SOL     OW 1819   3.375   0.779   1.504
  307SOL    HW1 1820   3.419   0.718   1.439
  307SOL    HW2 1821   3.443   0.815   1.567
  308SOL     OW 1822   0.716   4.922   3.965
  308SOL    HW1 1823   0.627   4.897   4.003
  308SOL    HW2 1824   0.708   4.940   3.868
  309SOL     OW 1825   3.791   4.671   5.357
  309SOL    HW1 1826   3.780   4.574   5.332
  309SOL    HW2 1827   3.795   4.679   5.456
  310SOL     OW 1828   1.510   6.126   6.441
  310SOL    HW1 1829   1.492   6.047   6.501
  310SOL    HW2 1830   1.595   6.170   6.468
  311SOL     OW 1831   0.152   0.869   1.405
  311SOL    HW1 1832   0.119   0.926   1.329
  311SOL    HW2 1833   0.117   0.905   1.491
  312SOL     OW 1834   3.870   1.757   6.018
  312SOL    HW1 1835   3.952   1.808   6.046
  312SOL    HW2 1836   3.804   1.820   5.978
  313SOL     OW 1837   6.882   4.765   1.062
  313SOL    HW1 1838   6.863   4.734   1.156
  313SOL    HW2 1839   6.962   4.717   1.027
  314SOL     OW 1840   3.397   5.784   2.477
  314SOL    HW1 1841   3.336   5.772   2.398
  314SOL    HW2 1842   3.491   5.799   2.444
  315SOL     OW 1843   0.691   3.739   2.913
  315SOL    HW1 1844   0.611   3.749   2.972
  315SOL    HW2 1845   0.747   3.663   2.944
  316SOL     OW 1846   2.095   3.096   4.125
  316SOL    HW1 1847   2.003   3.057   4.122
  316SOL    HW2 1848   2.143   3.061   4.205
  317SOL     OW 1849   6.878   1.868   0.478
  317SOL    HW1 1850   6.888   1.775   0.443
  317SOL    HW2 1851   6.941   1.929   0.429
  318SOL     OW 1852   2.795   4.121   1.038
  318SOL    HW1 1853   2.699   4.102   1.055
  318SOL    HW2 1854   2.829   4.184   1.108
  319SOL     OW 1855   0.422   1.058   5.996
  319SOL    HW1 1856   0.326   1.083   5.985
  319SOL    HW2 1857   0.444   1.051   6.094
  320SOL     OW 1858   5.497   3.200   1.984
  320SOL    HW1 1859   5.460   3.238   1.899
  320SOL    HW2 1860   5.589   3.235   1.999
  321SOL     OW 1861   2.164   1.366   2.173
  321SOL    HW1 1862   2.215   1.385   2.089
  321SOL    HW2 1863   2.223   1.378   2.252
  322SOL     OW 1864   3.655   2.791   5.524
  322SOL    HW1 1865   3.712   2.807   5.443
  322SOL    HW2 1866   3.577   2.735   5.500
  323SOL     OW 1867   1.541   4.153   1.830
  323SOL    HW1 1868   1.637   4.157   1.856
  323SOL    HW2 1869   1.506   4.245   1.818
  324SOL     OW 1870   0.197   2.729   4.013
  324SOL    HW1 1871   0.236   2.714   3.922
  324SOL    HW2 1872   0.262   2.700   4.083
  325SOL     OW 1873   1.816   2.269   2.492
  325SOL    HW1 1874   1.873   2.190   2.514
  325SOL    HW2 1875   1.847   2.348   2.545
  326SOL     OW 1876   1.963   4.322   4.598
  326SOL    HW1 1877   1.942   4.228   4.574
  326SOL    HW2 1878   2.032   4.324   4.670
  327SOL     OW 1879   6.368   3.599   6.244
  327SOL    HW1 1880   6.442   3.662   6.220
  327SOL    HW2 1881   6.298   3.601   6.172
  328SOL     OW 1882   3.435   5.726   3.247
  328SOL    HW1 1883   3.348   5.679   3.231
  328SOL    HW2 1884   3.427   5.785   3.327
  329SOL     OW 1885   3.740   4.087   1.875
  329SOL    HW1 1886   3.643   4.101   1.897
  329SOL    HW2 1887   3.789   4.062   1.959
  330SOL     OW 1888   2.519   2.438   1.778
  330SOL    HW1 1889   2.491   2.360   1.721
  330SOL    HW2 1890   2.592   2.488   1.732
  331SOL     OW 1891   6.553   4.010   5.847
  331SOL    HW1 1892   6.584   4.088   5.793
  331SOL    HW2 1893   6.460   4.028   5.880
  332SOL     OW 1894   3.678   1.878   3.333
  332SOL    HW1 1895   3.719   1.798   3.290
  332SOL    HW2 1896   3.646   1.941   3.262
  333SOL     OW 1897   4.839   6.464   1.247
  333SOL    HW1 1898   4.822   6.507   1.158
  333SOL    HW2 1899   4.938   6.454   1.260
  334SOL     OW 1900   4.789   6.520   2.774
  334SOL    HW1 1901   4.732   6.601   2.786
  334SOL    HW2 1902   4.865   6.522   2.840
  335SOL     OW 1903   3.152   0.578   2.086
  335SOL    HW1 1904   3.218   0.537   2.148
  335SOL    HW2 1905   3.091   0.508   2.050
  336SOL     OW 1906   3.623   0.910   4.605
  336SOL    HW1 1907   3.616   0.941   4.700
  336SOL    HW2 1908   3.610   0.811   4.601
  337SOL     OW 1909   1.271   4.069   2.504
  337SOL    HW1 1910   1.284   4.087   2.601
  337SOL    HW2 1911   1.353   4.099   2.454
  338SOL     OW 1912   2.152   2.515   1.049
  338SOL    HW1 1913   2.215   2.560   1.113
  338SOL    HW2 1914   2.176   2.541   0.956
  339SOL     OW 1915   4.581   0.854   3.296
  339SOL    HW1 1916   4.510   0.867   3.364
  339SOL    HW2 1917   4.542   0.815   3.213
  340SOL     OW 1918   5.292   3.593   4.563
  340SOL    HW1 1919   5.329   3.588   4.656
  340SOL    HW2 1920   5.192   3.596   4.568
  341SOL     OW 1921   4.404   4.341   5.885
  341SOL    HW1 1922   4.319   4.391   5.869
  341SOL    HW2 1923   4.412   4.266   5.819
  342SOL     OW 1924   5.707   3.266   0.823
  342SOL    HW1 1925   5.777   3.246   0.754
  342SOL    HW2 1926   5.618   3.237   0.790
  343SOL     OW 1927   2.436   0.462   2.538
  343SOL    HW1 1928   2.358   0.478   2.599
  343SOL    HW2 1929   2.407   0.405   2.462
  344SOL     OW 1930   3.625   0.171   0.113
  344SOL    HW1 1931   3.649   0.082   0.152
  344SOL    HW2 1932   3.626   0.165   0.013
  345SOL     OW 1933   1.524   0.576   5.323
  345SOL    HW1 1934   1.524   0.598   5.420
  345SOL    HW2 1935   1.431   0.589   5.286
  346SOL     OW 1936   2.494   0.793   5.126
  346SOL    HW1 1937   2.406   0.802   5.172
  346SOL    HW2 1938   2.544   0.715   5.164
  347SOL     OW 1939   5.477   6.190   5.958
  347SOL    HW1 1940   5.384   6.174   5.924
  347SOL    HW2 1941   5.481   6.164   6.055
  348SOL     OW 1942   3.157   6.904   3.474
  348SOL    HW1 1943   3.172   7.003   3.470
  348SOL    HW2 1944   3.221   6.859   3.412
  349SOL     OW 1945   2.229   5.407   2.031
  349SOL    HW1 1946   2.209   5.355   1.948
  349SOL    HW2 1947   2.299   5.359   2.085
  350SOL     OW 1948   5.204   3.415   1.520
  350SOL    HW1 1949   5.163   3.431   1.610
  350SOL    HW2 1950   5.134   3.384   1.456
  351SOL     OW 1951   3.376   1.421   0.558
  351SOL    HW1 1952   3.304   1.479   0.596
  351SOL    HW2 1953   3.456   1.478   0.535
  352SOL     OW 1954   2.867   1.763   6.501
  352SOL    HW1 1955   2.878   1.851   6.547
  352SOL    HW2 1956   2.901   1.770   6.407
  353SOL     OW 1957   2.237   6.879   1.353
  353SOL    HW1 1958   2.176   6.895   1.431
  353SOL    HW2 1959   2.316   6.826   1.383
  354SOL     OW 1960   5.127   0.116   2.498
  354SOL    HW1 1961   5.153   0.187   2.434
  354SOL    HW2 1962   5.029   0.119   2.514
  355SOL     OW 1963   0.863   0.789   2.200
  355SOL    HW1 1964   0.925   0.864   2.220
  355SOL    HW2 1965   0.771   0.812   2.232
  356SOL     OW 1966   3.042   0.073   3.109
  356SOL    HW1 1967   3.073   0.147   3.168
  356SOL    HW2 1968   3.116   0.046   3.047
  357SOL     OW 1969   1.281   5.051   4.485
  357SOL    HW1 1970   1.262   5.147   4.508
  357SOL    HW2 1971   1.376   5.042   4.458
  358SOL     OW 1972   5.030   0.617   3.320
  358SOL    HW1 1973   5.070   0.619   3.411
  358SOL    HW2 1974   4.936   0.652   3.324
  359SOL     OW 1975   0.441   1.517   0.596
  359SOL    HW1 1976   0.414   1.485   0.687
  359SOL    HW2 1977   0.406   1.609   0.582
  360SOL     OW 1978   5.225   7.012   6.932
  360SOL    HW1 1979   5.287   0.044   6.987
  360SOL    HW2 1980   5.243   0.003   6.835
  361SOL     OW 1981   2.843   0.601   2.093
  361SOL    HW1 1982   2.888   0.661   2.027
  361SOL    HW2 1983   2.853   0.640   2.185
  362SOL     OW 1984   3.094   3.782   0.259
  362SOL    HW1 1985   3.022   3.775   0.329
  362SOL    HW2 1986   3.161   3.709   0.273
  363SOL     OW 1987   4.879   4.715   4.379
  363SOL    HW1 1988   4.925   4.641   4.330
  363SOL    HW2 1989   4.943   4.790   4.395
  364SOL     OW 1990   2.913   5.563   6.732
  364SOL    HW1 1991   2.970   5.545   6.813
  364SOL    HW2 1992   2.932   5.655   6.698
  365SOL     OW 1993   5.214   6.414   3.107
  365SOL    HW1 1994   5.269   6.331   3.099
  365SOL    HW2 1995   5.261   6.490   3.062
  366SOL     OW 1996   5.120   1.383   0.155
  366SOL    HW1 1997   5.028   1.370   0.191
  366SOL    HW2 1998   5.151   1.476   0.177
  367SOL     OW 1999   6.679   2.489   2.346
  367SOL    HW1 2000   6.595   2.504   2.295
  367SOL    HW2 2001   6.757   2.526   2.296
  368SOL     OW 2002   0.244   5.322   4.648
  368SOL    HW1 2003   0.195   5.237   4.666
  368SOL    HW2 2004   0.190   5.379   4.587
  369SOL     OW 2005   1.044   3.974   2.081
  369SOL    HW1 2006   0.970   3.989   2.147
  369SOL    HW2 2007   1.132   3.990   2.125
  370SOL     OW 2008   3.719   2.230   6.366
  370SOL    HW1 2009   3.667   2.219   6.282
  370SOL    HW2 2010   3.686   2.310   6.416
  371SOL     OW 2011   3.393   2.520   6.615
  371SOL    HW1 2012   3.453   2.576   6.673
  371SOL    HW2 2013   3.303   2.564   6.610
  372SOL     OW 2014   2.001   5.615   0.365
  372SOL    HW1 2015   1.923   5.568   0.406
  372SOL    HW2 2016   2.018   5.578   0.273
  373SOL     OW 2017   6.279   6.869   6.824
  373SOL    HW1 2018   6.296   6.870   6.923
  373SOL    HW2 2019   6.325   6.790   6.783
  374SOL     OW 2020   5.300   0.896   0.505
  374SOL    HW1 2021   5.395   0.897   0.534
  374SOL    HW2 2022   5.269   0.990   0.490
  375SOL     OW 2023   6.758   4.015   1.940
  375SOL    HW1 2024   6.842   4.004   1.888
  375SOL    HW2 2025   6.680   4.011   1.878
  376SOL     OW 2026   2.369   4.213   5.289
  376SOL    HW1 2027   2.461   4.242   5.315
  376SOL    HW2 2028   2.371   4.118   5.257
  377SOL     OW 2029   4.736   1.028   4.147
  377SOL    HW1 2030   4.703   1.012   4.054
  377SOL    HW2 2031   4.776   0.944   4.184
  378SOL     OW 2032   5.149   1.978   5.433
  378SOL    HW1 2033   5.197   2.064   5.448
  378SOL    HW2 2034   5.063   1.978   5.482
  379SOL     OW 2035   6.133   2.868   0.758
  379SOL    HW1 2036   6.173   2.880   0.849
  379SOL    HW2 2037   6.203   2.884   0.689
  380SOL     OW 2038   0.205   2.254   0.157
  380SOL    HW1 2039   0.303   2.248   0.141
  380SOL    HW2 2040   0.156   2.224   0.075
  381SOL     OW 2041   4.629   4.940   0.074
  381SOL    HW1 2042   4.551   4.879   0.067
  381SOL    HW2 2043   4.599   5.035   0.060
  382SOL     OW 2044   2.012   5.735   6.816
  382SOL    HW1 2045   1.969   5.644   6.820
  382SOL    HW2 2046   2.105   5.725   6.782
  383SOL     OW 2047   6.069   1.665   6.878
  383SOL    HW1 2048   6.057   1.690   6.782
  383SOL    HW2 2049   6.120   1.737   6.925
  384SOL     OW 2050   1.732   5.450   4.491
  384SOL    HW1 2051   1.684   5.528   4.453
  384SOL    HW2 2052   1.666   5.380   4.519
  385SOL     OW 2053   4.621   4.649   0.851
  385SOL    HW1 2054   4.680   4.700   0.789
  385SOL    HW2 2055   4.527   4.652   0.819
  386SOL     OW 2056   2.633   6.107   4.745
  386SOL    HW1 2057   2.648   6.143   4.837
  386SOL    HW2 2058   2.627   6.007   4.750
  387SOL     OW 2059   0.387   0.587   5.332
  387SOL    HW1 2060   0.327   0.599   5.253
  387SOL    HW2 2061   0.342   0.530   5.401
  388SOL     OW 2062   0.122   2.175   4.355
  388SOL    HW1 2063   0.100   2.078   4.347
  388SOL    HW2 2064   0.082   2.226   4.279
  389SOL     OW 2065   4.918   3.552   2.831
  389SOL    HW1 2066   4.871   3.465   2.813
  389SOL    HW2 2067   4.951   3.590   2.745
  390SOL     OW 2068   3.395   2.755   0.340
  390SOL    HW1 2069   3.443   2.758   0.253
  390SOL    HW2 2070   3.431   2.679   0.395
  391SOL     OW 2071   3.923   3.636   3.711
  391SOL    HW1 2072   3.894   3.651   3.617
  391SOL    HW2 2073   3.869   3.561   3.751
  392SOL     OW 2074   1.711   3.149   2.096
  392SOL    HW1 2075   1.630   3.098   2.126
  392SOL    HW2 2076   1.756   3.190   2.175
  393SOL     OW 2077   1.338   6.155   1.126
  393SOL    HW1 2078   1.344   6.227   1.058
  393SOL    HW2 2079   1.400   6.080   1.101
  394SOL     OW 2080   6.114   1.702   6.033
  394SOL    HW1 2081   6.108   1.670   6.127
  394SOL    HW2 2082   6.060   1.785   6.022
  395SOL     OW 2083   6.506   5.188   6.729
  395SOL    HW1 2084   6.492   5.267   6.669
  395SOL    HW2 2085   6.539   5.219   6.818
  396SOL     OW 2086   0.550   1.128   1.334
  396SOL    HW1 2087   0.635   1.177   1.313
  396SOL    HW2 2088   0.538   1.054   1.268
  397SOL     OW 2089   4.705   2.149   4.976
  397SOL    HW1 2090   4.683   2.244   4.956
  397SOL    HW2 2091   4.788   2.122   4.926
  398SOL     OW 2092   6.754   1.117   2.981
  398SOL    HW1 2093   6.788   1.176   2.908
  398SOL    HW2 2094   6.668   1.154   3.017
  399SOL     OW 2095   6.175   5.711   4.650
  399SOL    HW1 2096   6.185   5.613   4.667
  399SOL    HW2 2097   6.092   5.745   4.695
  400SOL     OW 2098   6.393   6.206   3.409
  400SOL    HW1 2099   6.493   6.217   3.410
  400SOL    HW2 2100   6.370   6.109   3.411
  401SOL     OW 2101   1.186   6.112   4.532
  401SOL    HW1 2102   1.099   6.063   4.532
  401SOL    HW2 2103   1.218   6.123   4.626
  402SOL     OW 2104   6.010   1.330   4.358
  402SOL    HW1 2105   5.912   1.349   4.346
  402SOL    HW2 2106   6.030   1.325   4.456
  403SOL     OW 2107   2.417   1.791   5.556
  403SOL    HW1 2108   2.442   1.759   5.647
  403SOL    HW2 2109   2.437   1.889   5.548
  404SOL     OW 2110   2.964   5.885   3.472
  404SOL    HW1 2111   3.051   5.872   3.520
  404SOL    HW2 2112   2.892   5.907   3.538
  405SOL     OW 2113   2.900   4.889   3.978
  405SOL    HW1 2114   2.903   4.958   4.051
  405SOL    HW2 2115   2.854   4.926   3.898
  406SOL     OW 2116   1.153   0.402   0.143
  406SOL    HW1 2117   1.224   0.389   0.074
  406SOL    HW2 2118   1.153   0.498   0.173
  407SOL     OW 2119   2.075   3.742   3.814
  407SOL    HW1 2120   1.978   3.740   3.838
  407SOL    HW2 2121   2.114   3.651   3.826
  408SOL     OW 2122   2.769   2.209   1.823
  408SOL    HW1 2123   2.760   2.278   1.895
  408SOL    HW2 2124   2.865   2.205   1.793
  409SOL     OW 2125   0.055   2.450   1.890
  409SOL    HW1 2126   0.141   2.419   1.848
  409SOL    HW2 2127   7.015   2.374   1.895
  410SOL     OW 2128   1.743   3.272   2.353
  410SOL    HW1 2129   1.697   3.350   2.311
  410SOL    HW2 2130   1.707   3.257   2.445
  411SOL     OW 2131   6.904   1.325   1.688
  411SOL    HW1 2132   6.988   1.322   1.634
  411SOL    HW2 2133   6.826   1.336   1.626
  412SOL     OW 2134   2.390   4.378   3.054
  412SOL    HW1 2135   2.347   4.292   3.080
  412SOL    HW2 2136   2.477   4.359   3.007
  413SOL     OW 2137   6.645   4.899   3.179
  413SOL    HW1 2138   6.658   4.848   3.264
  413SOL    HW2 2139   6.701   4.858   3.106
  414SOL     OW 2140   2.377   6.961   2.520
  414SOL    HW1 2141   2.432   7.022   2.463
  414SOL    HW2 2142   2.320   6.903   2.463
  415SOL     OW 2143   5.889   3.077   1.282
  415SOL    HW1 2144   5.944   3.130   1.218
  415SOL    HW2 2145   5.948   3.012   1.330
  416SOL     OW 2146   5.980   3.573   6.993
  416SOL    HW1 2147   5.921   3.645   6.956
  416SOL    HW2 2148   5.929   3.518   0.035
  417SOL     OW 2149   2.515   2.386   5.745
  417SOL    HW1 2150   2.474   2.295   5.745
  417SOL    HW2 2151   2.442   2.455   5.745
  418SOL     OW 2152   4.617   5.588   6.388
  418SOL    HW1 2153   4.578   5.672   6.351
  418SOL    HW2 2154   4.623   5.593   6.487
  419SOL     OW 2155   5.687   0.006   0.919
  419SOL    HW1 2156   5.646   6.954   0.969
  419SOL    HW2 2157   5.667   7.020   0.822
  420SOL     OW 2158   3.270   6.737   0.832
  420SOL    HW1 2159   3.215   6.704   0.909
  420SOL    HW2 2160   3.208   6.767   0.759
  421SOL     OW 2161   5.162   4.300   3.162
  421SOL    HW1 2162   5.149   4.357   3.081
  421SOL    HW2 2163   5.242   4.332   3.212
  422SOL     OW 2164   4.168   1.550   2.079
  422SOL    HW1 2165   4.248   1.610   2.073
  422SOL    HW2 2166   4.193   1.465   2.125
  423SOL     OW 2167   2.654   1.061   5.953
  423SOL    HW1 2168   2.753   1.068   5.943
  423SOL    HW2 2169   2.632   1.021   6.042
  424SOL     OW 2170   1.621   4.550   4.205
  424SOL    HW1 2171   1.630   4.451   4.194
  424SOL    HW2 2172   1.527   4.573   4.229
  425SOL     OW 2173   3.585   1.732   6.363
  425SOL    HW1 2174   3.554   1.674   6.288
  425SOL    HW2 2175   3.645   1.679   6.424
  426SOL     OW 2176   2.500   2.433   2.815
  426SOL    HW1 2177   2.438   2.374   2.763
  426SOL    HW2 2178   2.448   2.505   2.861
  427SOL     OW 2179   4.342   1.316   4.599
  427SOL    HW1 2180   4.342   1.220   4.626
  427SOL    HW2 2181   4.376   1.324   4.505
  428SOL     OW 2182   2.177   1.806   6.300
  428SOL    HW1 2183   2.107   1.823   6.232
  428SOL    HW2 2184   2.169   1.712   6.334
  429SOL     OW 2185   0.078   0.099   3.425
  429SOL    HW1 2186   0.153   0.076   3.363
  429SOL    HW2 2187   0.018   0.167   3.383
  430SOL     OW 2188   1.733   0.998   3.504
  430SOL    HW1 2189   1.784   0.918   3.474
  430SOL    HW2 2190   1.790   1.079   3.496
  431SOL     OW 2191   2.617   1.090   1.729
  431SOL    HW1 2192   2.605   1.188   1.711
  431SOL    HW2 2193   2.650   1.077   1.823
  432SOL     OW 2194   5.971   1.702   2.113
  432SOL    HW1 2195   6.004   1.653   2.033
  432SOL    HW2 2196   5.872   1.694   2.119
  433SOL     OW 2197   1.922   3.302   6.593
  433SOL    HW1 2198   1.866   3.254   6.525
  433SOL    HW2 2199   1.935   3.397   6.564
  434SOL     OW 2200   3.665   5.637   2.784
  434SOL    HW1 2201   3.640   5.567   2.717
  434SOL    HW2 2202   3.747   5.685   2.753
  435SOL     OW 2203   2.633   2.502   6.536
  435SOL    HW1 2204   2.602   2.593   6.564
  435SOL    HW2 2205   2.667   2.505   6.442
  436SOL     OW 2206   5.479   6.359   2.292
  436SOL    HW1 2207   5.403   6.298   2.269
  436SOL    HW2 2208   5.444   6.451   2.309
  437SOL     OW 2209   6.950   1.451   5.851
  437SOL    HW1 2210   6.994   1.527   5.803
  437SOL    HW2 2211   6.904   1.485   5.933
  438SOL     OW 2212   0.690   3.649   1.641
  438SOL    HW1 2213   0.790   3.648   1.651
  438SOL    HW2 2214   0.665   3.709   1.565
  439SOL     OW 2215   0.930   1.366   6.752
  439SOL    HW1 2216   0.941   1.326   6.662
  439SOL    HW2 2217   0.909   1.464   6.743
  440SOL     OW 2218   3.887   1.567   1.470
  440SOL    HW1 2219   3.828   1.646   1.456
  440SOL    HW2 2220   3.977   1.584   1.429
  441SOL     OW 2221   1.340   4.549   2.871
  441SOL    HW1 2222   1.370   4.501   2.788
  441SOL    HW2 2223   1.385   4.508   2.951
  442SOL     OW 2224   2.946   3.442   4.779
  442SOL    HW1 2225   2.921   3.413   4.687
  442SOL    HW2 2226   3.040   3.478   4.778
  443SOL     OW 2227   5.228   2.611   1.840
  443SOL    HW1 2228   5.242   2.591   1.743
  443SOL    HW2 2229   5.265   2.702   1.861
  444SOL     OW 2230   4.154   2.420   0.946
  444SOL    HW1 2231   4.207   2.492   0.901
  444SOL    HW2 2232   4.096   2.374   0.878
  445SOL     OW 2233   2.288   6.194   3.912
  445SOL    HW1 2234   2.202   6.164   3.871
  445SOL    HW2 2235   2.280   6.192   4.011
  446SOL     OW 2236   0.146   6.996   0.548
  446SOL    HW1 2237   0.083   0.029   0.495
  446SOL    HW2 2238   0.105   6.977   0.638
  447SOL     OW 2239   6.057   3.471   0.427
  447SOL    HW1 2240   6.104   3.433   0.506
  447SOL    HW2 2241   6.118   3.467   0.347
  448SOL     OW 2242   3.519   0.056   4.879
  448SOL    HW1 2243   3.512   0.114   4.798
  448SOL    HW2 2244   3.430   0.049   4.923
  449SOL     OW 2245   0.953   4.403   4.884
  449SOL    HW1 2246   1.010   4.355   4.818
  449SOL    HW2 2247   1.008   4.466   4.937
  450SOL     OW 2248   6.507   3.593   4.081
  450SOL    HW1 2249   6.441   3.533   4.124
  450SOL    HW2 2250   6.559   3.641   4.151
  451SOL     OW 2251   2.838   1.351   6.296
  451SOL    HW1 2252   2.813   1.397   6.382
  451SOL    HW2 2253   2.798   1.400   6.219
  452SOL     OW 2254   4.685   4.820   1.056
  452SOL    HW1 2255   4.618   4.895   1.056
  452SOL    HW2 2256   4.671   4.764   0.975
  453SOL     OW 2257   4.299   0.814   0.513
  453SOL    HW1 2258   4.391   0.779   0.532
  453SOL    HW2 2259   4.299   0.864   0.427
  454SOL     OW 2260   0.019   2.933   3.908
  454SOL    HW1 2261   0.076   2.874   3.965
  454SOL    HW2 2262   0.077   2.979   3.840
  455SOL     OW 2263   5.865   5.551   0.404
  455SOL    HW1 2264   5.798   5.613   0.444
  455SOL    HW2 2265   5.874   5.570   0.306
  456SOL     OW 2266   1.223   0.735   3.167
  456SOL    HW1 2267   1.221   0.817   3.225
  456SOL    HW2 2268   1.217   0.762   3.071
  457SOL     OW 2269   3.090   5.929   0.664
  457SOL    HW1 2270   3.024   5.953   0.735
  457SOL    HW2 2271   3.056   5.960   0.575
  458SOL     OW 2272   3.078   1.405   4.286
  458SOL    HW1 2273   2.982   1.399   4.259
  458SOL    HW2 2274   3.086   1.388   4.384
  459SOL     OW 2275   3.054   1.670   4.209
  459SOL    HW1 2276   3.127   1.739   4.215
  459SOL    HW2 2277   3.085   1.586   4.253
  460SOL     OW 2278   1.186   1.662   6.845
  460SOL    HW1 2279   1.207   1.565   6.830
  460SOL    HW2 2280   1.098   1.670   6.893
  461SOL     OW 2281   1.171   6.609   4.291
  461SOL    HW1 2282   1.207   6.643   4.378
  461SOL    HW2 2283   1.080   6.646   4.276
  462SOL     OW 2284   3.698   4.029   5.271
  462SOL    HW1 2285   3.642   3.963   5.221
  462SOL    HW2 2286   3.794   4.004   5.262
  463SOL     OW 2287   5.872   6.439   2.883
  463SOL    HW1 2288   5.816   6.382   2.943
  463SOL    HW2 2289   5.814   6.503   2.833
  464SOL     OW 2290   4.420   6.021   5.048
  464SOL    HW1 2291   4.487   5.986   4.982
  464SOL    HW2 2292   4.356   5.948   5.072
  465SOL     OW 2293   0.236   5.384   0.683
  465SOL    HW1 2294   0.305   5.346   0.745
  465SOL    HW2 2295   0.148   5.340   0.701
  466SOL     OW 2296   3.839   4.999   3.575
  466SOL    HW1 2297   3.897   4.924   3.607
  466SOL    HW2 2298   3.744   4.968   3.569
  467SOL     OW 2299   7.007   6.796   1.394
  467SOL    HW1 2300   0.022   6.889   1.390
  467SOL    HW2 2301   0.036   6.742   1.459
  468SOL     OW 2302   2.664   6.807   6.869
  468SOL    HW1 2303   2.575   6.832   6.908
  468SOL    HW2 2304   2.734   6.869   6.905
  469SOL     OW 2305   4.390   4.887   5.335
  469SOL    HW1 2306   4.308   4.849   5.294
  469SOL    HW2 2307   4.460   4.900   5.264
  470SOL     OW 2308   2.809   4.910   2.014
  470SOL    HW1 2309   2.865   4.827   2.004
  470SOL    HW2 2310   2.866   4.985   2.046
  471SOL     OW 2311   1.617   2.579   4.374
  471SOL    HW1 2312   1.623   2.507   4.443
  471SOL    HW2 2313   1.561   2.547   4.297
  472SOL     OW 2314   4.716   3.710   6.872
  472SOL    HW1 2315   4.658   3.641   6.829
  472SOL    HW2 2316   4.685   3.802   6.845
  473SOL     OW 2317   5.672   3.487   2.177
  473SOL    HW1 2318   5.588   3.515   2.225
  473SOL    HW2 2319   5.667   3.517   2.082
  474SOL     OW 2320   4.782   5.214   3.755
  474SOL    HW1 2321   4.804   5.176   3.845
  474SOL    HW2 2322   4.829   5.161   3.684
  475SOL     OW 2323   4.513   1.198   0.698
  475SOL    HW1 2324   4.598   1.163   0.737
  475SOL    HW2 2325   4.457   1.238   0.771
  476SOL     OW 2326   0.977   3.038   0.321
  476SOL    HW1 2327   1.019   3.100   0.255
  476SOL    HW2 2328   0.948   3.089   0.401
  477SOL     OW 2329   5.980   5.982   4.349
  477SOL    HW1 2330   5.911   6.051   4.329
  477SOL    HW2 2331   5.960   5.898   4.299
  478SOL     OW 2332   6.600   4.965   1.538
  478SOL    HW1 2333   6.662   4.970   1.615
  478SOL    HW2 2334   6.554   5.052   1.525
  479SOL     OW 2335   3.621   3.772   2.453
  479SOL    HW1 2336   3.625   3.727   2.542
  479SOL    HW2 2337   3.687   3.847   2.451
  480SOL     OW 2338   6.970   0.615   1.477
  480SOL    HW1 2339   0.039   0.631   1.511
  480SOL    HW2 2340   6.933   0.532   1.520
  481SOL     OW 2341   6.242   6.666   0.983
  481SOL    HW1 2342   6.273   6.645   1.076
  481SOL    HW2 2343   6.145   6.691   0.985
  482SOL     OW 2344   3.739   5.151   2.820
  482SOL    HW1 2345   3.712   5.113   2.732
  482SOL    HW2 2346   3.659   5.192   2.865
  483SOL     OW 2347   6.120   2.406   4.798
  483SOL    HW1 2348   6.204   2.461   4.794
  483SOL    HW2 2349   6.094   2.378   4.706
  484SOL     OW 2350   2.561   5.645   4.119
  484SOL    HW1 2351   2.587   5.562   4.169
  484SOL    HW2 2352   2.633   5.670   4.055
  485SOL     OW 2353   4.664   2.388   1.115
  485SOL    HW1 2354   4.594   2.449   1.151
  485SOL    HW2 2355   4.648   2.374   1.017
  486SOL     OW 2356   6.091   6.310   5.368
  486SOL    HW1 2357   6.149   6.265   5.436
  486SOL    HW2 2358   6.062   6.243   5.300
  487SOL     OW 2359   6.560   1.198   6.879
  487SOL    HW1 2360   6.564   1.153   6.790
  487SOL    HW2 2361   6.465   1.199   6.911
  488SOL     OW 2362   1.595   6.065   3.809
  488SOL    HW1 2363   1.616   6.046   3.905
  488SOL    HW2 2364   1.622   6.158   3.786
  489SOL     OW 2365   2.585   4.340   5.392
  489SOL    HW1 2366   2.682   4.342   5.366
  489SOL    HW2 2367   2.558   4.430   5.426
  490SOL     OW 2368   0.985   3.733   4.925
  490SOL    HW1 2369   0.976   3.808   4.860
  490SOL    HW2 2370   1.023   3.768   5.011
  491SOL     OW 2371   6.268   3.358   1.426
  491SOL    HW1 2372   6.229   3.267   1.441
  491SOL    HW2 2373   6.231   3.421   1.496
  492SOL     OW 2374   1.658   2.179   5.726
  492SOL    HW1 2375   1.710   2.248   5.778
  492SOL    HW2 2376   1.712   2.096   5.718
  493SOL     OW 2377   1.511   5.643   4.232
  493SOL    HW1 2378   1.471   5.649   4.140
  493SOL    HW2 2379   1.437   5.647   4.300
  494SOL     OW 2380   2.908   0.269   2.725
  494SOL    HW1 2381   2.905   0.188   2.667
  494SOL    HW2 2382   2.815   0.294   2.753
  495SOL     OW 2383   4.320   4.462   6.624
  495SOL    HW1 2384   4.271   4.488   6.541
  495SOL    HW2 2385   4.385   4.389   6.603
  496SOL     OW 2386   4.757   6.902   3.031
  496SOL    HW1 2387   4.815   6.955   3.094
  496SOL    HW2 2388   4.733   6.815   3.073
  497SOL     OW 2389   4.469   3.038   1.253
  497SOL    HW1 2390   4.536   3.038   1.327
  497SOL    HW2 2391   4.485   2.958   1.194
  498SOL     OW 2392   1.145   6.959   0.792
  498SOL    HW1 2393   1.067   6.955   0.854
  498SOL    HW2 2394   1.112   6.966   0.698
  499SOL     OW 2395   3.053   6.843   6.251
  499SOL    HW1 2396   3.008   6.922   6.209
  499SOL    HW2 2397   2.996   6.762   6.238
  500SOL     OW 2398   6.327   1.558   5.963
  500SOL    HW1 2399   6.234   1.596   5.968
  500SOL    HW2 2400   6.369   1.583   5.876
  501SOL     OW 2401   1.688   2.326   4.464
  501SOL    HW1 2402   1.664   2.277   4.548
  501SOL    HW2 2403   1.786   2.346   4.464
  502SOL     OW 2404   3.125   2.999   0.087
  502SOL    HW1 2405   3.041   2.944   0.088
  502SOL    HW2 2406   3.135   3.046   0.175
  503SOL     OW 2407   3.997   5.839   1.602
  503SOL    HW1 2408   3.961   5.932   1.596
  503SOL    HW2 2409   3.946   5.779   1.540
  504SOL     OW 2410   5.916   0.750   0.146
  504SOL    HW1 2411   5.942   0.820   0.080
  504SOL    HW2 2412   5.998   0.710   0.187
  505SOL     OW 2413   0.378   4.215   5.556
  505SOL    HW1 2414   0.365   4.178   5.649
  505SOL    HW2 2415   0.468   4.187   5.522
  506SOL     OW 2416   3.011   5.837   2.043
  506SOL    HW1 2417   3.006   5.806   2.138
  506SOL    HW2 2418   2.928   5.887   2.020
  507SOL     OW 2419   2.415   0.028   3.716
  507SOL    HW1 2420   2.455   0.036   3.624
  507SOL    HW2 2421   2.315   0.025   3.708
  508SOL     OW 2422   0.898   5.173   2.824
  508SOL    HW1 2423   0.916   5.179   2.922
  508SOL    HW2 2424   0.919   5.260   2.780
  509SOL     OW 2425   4.585   0.554   6.271
  509SOL    HW1 2426   4.586   0.503   6.185
  509SOL    HW2 2427   4.507   0.617   6.272
  510SOL     OW 2428   6.741   4.538   0.172
  510SOL    HW1 2429   6.838   4.558   0.161
  510SOL    HW2 2430   6.697   4.536   0.083
  511SOL     OW 2431   6.903   2.412   0.551
  511SOL    HW1 2432   6.937   2.325   0.588
  511SOL    HW2 2433   6.954   2.435   0.468
  512SOL     OW 2434   1.578   1.503   4.870
  512SOL    HW1 2435   1.573   1.497   4.770
  512SOL    HW2 2436   1.487   1.519   4.907
  513SOL     OW 2437   5.858   5.462   2.513
  513SOL    HW1 2438   5.893   5.555   2.528
  513SOL    HW2 2439   5.758   5.465   2.512
  514SOL     OW 2440   5.208   1.456   4.521
  514SOL    HW1 2441   5.154   1.533   4.555
  514SOL    HW2 2442   5.269   1.423   4.594
  515SOL     OW 2443   3.120   0.805   6.767
  515SOL    HW1 2444   3.143   0.777   6.674
  515SOL    HW2 2445   3.120   0.905   6.773
  516SOL     OW 2446   0.544   5.843   2.907
  516SOL    HW1 2447   0.470   5.779   2.889
  516SOL    HW2 2448   0.592   5.863   2.821
  517SOL     OW 2449   3.394   5.241   0.656
  517SOL    HW1 2450   3.484   5.230   0.697
  517SOL    HW2 2451   3.334   5.166   0.685
  518SOL     OW 2452   1.827   0.427   3.717
  518SOL    HW1 2453   1.805   0.386   3.628
  518SOL    HW2 2454   1.807   0.362   3.790
  519SOL     OW 2455   6.864   6.377   3.223
  519SOL    HW1 2456   6.836   6.328   3.141
  519SOL    HW2 2457   6.805   6.456   3.237
  520SOL     OW 2458   3.719   5.637   0.578
  520SOL    HW1 2459   3.624   5.632   0.610
  520SOL    HW2 2460   3.748   5.733   0.576
  521SOL     OW 2461   0.063   6.870   5.099
  521SOL    HW1 2462   0.074   6.788   5.157
  521SOL    HW2 2463   0.064   6.843   5.003
  522SOL     OW 2464   3.268   5.295   6.345
  522SOL    HW1 2465   3.297   5.378   6.297
  522SOL    HW2 2466   3.347   5.237   6.362
  523SOL     OW 2467   1.717   6.417   6.205
  523SOL    HW1 2468   1.624   6.412   6.241
  523SOL    HW2 2469   1.744   6.327   6.170
  524SOL     OW 2470   6.815   1.707   1.608
  524SOL    HW1 2471   6.854   1.690   1.699
  524SOL    HW2 2472   6.721   1.740   1.618
  525SOL     OW 2473   0.421   3.141   3.369
  525SOL    HW1 2474   0.335   3.193   3.366
  525SOL    HW2 2475   0.442   3.105   3.278
  526SOL     OW 2476   4.164   5.895   4.575
  526SOL    HW1 2477   4.161   5.802   4.538
  526SOL    HW2 2478   4.077   5.941   4.556
  527SOL     OW 2479   6.631   1.675   0.269
  527SOL    HW1 2480   6.561   1.697   0.201
  527SOL    HW2 2481   6.595   1.607   0.333
  528SOL     OW 2482   6.919   1.309   3.836
  528SOL    HW1 2483   6.874   1.387   3.793
  528SOL    HW2 2484   7.013   1.334   3.860
  529SOL     OW 2485   0.765   1.518   5.533
  529SOL    HW1 2486   0.722   1.487   5.618
  529SOL    HW2 2487   0.784   1.616   5.540
  530SOL     OW 2488   3.506   4.416   1.697
  530SOL    HW1 2489   3.593   4.435   1.651
  530SOL    HW2 2490   3.486   4.491   1.761
  531SOL     OW 2491   0.390   1.586   5.750
  531SOL    HW1 2492   0.296   1.614   5.771
  531SOL    HW2 2493   0.402   1.581   5.651
  532SOL     OW 2494   3.760   1.005   6.882
  532SOL    HW1 2495   3.718   0.922   6.918
  532SOL    HW2 2496   3.690   1.061   6.838
  533SOL     OW 2497   3.372   6.808   4.627
  533SOL    HW1 2498   3.408   6.894   4.592
  533SOL    HW2 2499   3.301   6.826   4.695
  534SOL     OW 2500   2.187   4.305   1.031
  534SOL    HW1 2501   2.151   4.212   1.024
  534SOL    HW2 2502   2.134   4.356   1.099
  535SOL     OW 2503   4.815   3.934   3.454
  535SOL    HW1 2504   4.825   4.029   3.425
  535SOL    HW2 2505   4.726   3.921   3.499
  536SOL     OW 2506   6.613   0.561   1.309
  536SOL    HW1 2507   6.519   0.587   1.289
  536SOL    HW2 2508   6.635   0.585   1.404
  537SOL     OW 2509   3.015   2.016   2.246
  537SOL    HW1 2510   3.061   1.948   2.189
  537SOL    HW2 2511   2.937   1.973   2.293
  538SOL     OW 2512   4.143   5.678   6.444
  538SOL    HW1 2513   4.109   5.676   6.350
  538SOL    HW2 2514   4.173   5.586   6.470
  539SOL     OW 2515   3.002   0.172   6.864
  539SOL    HW1 2516   3.068   0.215   6.926
  539SOL    HW2 2517   2.911   0.208   6.882
  540SOL     OW 2518   1.881   1.716   5.203
  540SOL    HW1 2519   1.867   1.815   5.211
  540SOL    HW2 2520   1.843   1.685   5.116
  541SOL     OW 2521   6.114   5.745   1.807
  541SOL    HW1 2522   6.094   5.681   1.882
  541SOL    HW2 2523   6.166   5.822   1.843
  542SOL     OW 2524   4.087   5.830   5.950
  542SOL    HW1 2525   4.076   5.924   5.984
  542SOL    HW2 2526   4.179   5.819   5.911
  543SOL     OW 2527   6.804   1.688   4.962
  543SOL    HW1 2528   6.850   1.678   4.874
  543SOL    HW2 2529   6.746   1.608   4.978
  544SOL     OW 2530   1.238   2.300   1.081
  544SOL    HW1 2531   1.165   2.231   1.076
  544SOL    HW2 2532   1.207   2.375   1.139
  545SOL     OW 2533   0.168   5.112   0.342
  545SOL    HW1 2534   0.237   5.167   0.389
  545SOL    HW2 2535   0.161   5.142   0.247
  546SOL     OW 2536   6.527   6.093   2.771
  546SOL    HW1 2537   6.551   6.131   2.860
  546SOL    HW2 2538   6.430   6.108   2.753
  547SOL     OW 2539   3.496   6.003   6.896
  547SOL    HW1 2540   3.496   6.046   6.986
  547SOL    HW2 2541   3.478   6.072   6.826
  548SOL     OW 2542   4.196   2.955   6.233
  548SOL    HW1 2543   4.154   3.008   6.308
  548SOL    HW2 2544   4.285   2.922   6.262
  549SOL     OW 2545   5.307   2.601   4.137
  549SOL    HW1 2546   5.358   2.612   4.221
  549SOL    HW2 2547   5.337   2.668   4.069
  550SOL     OW 2548   0.082   5.441   4.048
  550SOL    HW1 2549   0.001   5.491   4.017
  550SOL    HW2 2550   0.149   5.436   3.974
  551SOL     OW 2551   5.446   0.793   0.204
  551SOL    HW1 2552   5.376   0.833   0.264
  551SOL    HW2 2553   5.414   0.705   0.171
  552SOL     OW 2554   1.027   0.343   4.198
  552SOL    HW1 2555   0.958   0.324   4.268
  552SOL    HW2 2556   1.118   0.323   4.235
  553SOL     OW 2557   4.298   2.223   5.629
  553SOL    HW1 2558   4.396   2.241   5.630
  553SOL    HW2 2559   4.264   2.218   5.722
  554SOL     OW 2560   0.191   4.695   0.374
  554SOL    HW1 2561   0.182   4.705   0.274
  554SOL    HW2 2562   0.199   4.786   0.415
  555SOL     OW 2563   4.112   5.088   5.950
  555SOL    HW1 2564   4.079   5.182   5.958
  555SOL    HW2 2565   4.038   5.028   5.921
  556SOL     OW 2566   5.381   6.195   3.027
  556SOL    HW1 2567   5.293   6.155   3.002
  556SOL    HW2 2568   5.454   6.130   3.009
  557SOL     OW 2569   6.611   3.672   0.479
  557SOL    HW1 2570   6.637   3.576   0.490
  557SOL    HW2 2571   6.654   3.726   0.551
  558SOL     OW 2572   3.565   3.536   1.831
  558SOL    HW1 2573   3.499   3.461   1.830
  558SOL    HW2 2574   3.525   3.614   1.880
  559SOL     OW 2575   6.109   1.067   6.184
  559SOL    HW1 2576   6.165   1.037   6.107
  559SOL    HW2 2577   6.110   0.998   6.256
  560SOL     OW 2578   1.981   2.365   2.728
  560SOL    HW1 2579   1.955   2.327   2.817
  560SOL    HW2 2580   2.046   2.440   2.742
  561SOL     OW 2581   6.702   4.394   0.649
  561SOL    HW1 2582   6.700   4.418   0.746
  561SOL    HW2 2583   6.703   4.477   0.594
  562SOL     OW 2584   3.020   6.262   3.436
  562SOL    HW1 2585   3.019   6.348   3.386
  562SOL    HW2 2586   3.047   6.188   3.374
  563SOL     OW 2587   0.927   0.798   4.295
  563SOL    HW1 2588   0.964   0.729   4.232
  563SOL    HW2 2589   0.831   0.815   4.273
  564SOL     OW 2590   5.971   1.943   6.054
  564SOL    HW1 2591   6.033   1.997   5.997
  564SOL    HW2 2592   5.881   1.939   6.011
  565SOL     OW 2593   3.494   3.453   3.755
  565SOL    HW1 2594   3.442   3.474   3.837
  565SOL    HW2 2595   3.443   3.388   3.698
  566SOL     OW 2596   1.073   2.494   3.471
  566SOL    HW1 2597   1.082   2.495   3.570
  566SOL    HW2 2598   1.069   2.588   3.437
  567SOL     OW 2599   1.595   3.064   5.215
  567SOL    HW1 2600   1.575   2.967   5.204
  567SOL    HW2 2601   1.621   3.083   5.310
  568SOL     OW 2602   0.972   0.086   6.538
  568SOL    HW1 2603   0.883   0.131   6.530
  568SOL    HW2 2604   1.025   0.100   6.455
  569SOL     OW 2605   5.245   3.384   5.099
  569SOL    HW1 2606   5.212   3.301   5.056
  569SOL    HW2 2607   5.171   3.451   5.104
  570SOL     OW 2608   3.008   0.406   5.362
  570SOL    HW1 2609   2.911   0.395   5.379
  570SOL    HW2 2610   3.057   0.415   5.448
  571SOL     OW 2611   2.277   4.290   2.512
  571SOL    HW1 2612   2.284   4.253   2.605
  571SOL    HW2 2613   2.363   4.335   2.488
  572SOL     OW 2614   2.192   1.510   4.664
  572SOL    HW1 2615   2.241   1.566   4.597
  572SOL    HW2 2616   2.130   1.448   4.617
  573SOL     OW 2617   0.629   6.921   5.889
  573SOL    HW1 2618   0.556   6.892   5.951
  573SOL    HW2 2619   0.693   6.980   5.938
  574SOL     OW 2620   2.531   0.715   5.799
  574SOL    HW1 2621   2.439   0.727   5.761
  574SOL    HW2 2622   2.596   0.770   5.746
  575SOL     OW 2623   4.018   3.910   0.123
  575SOL    HW1 2624   3.932   3.911   0.175
  575SOL    HW2 2625   3.998   3.908   0.025
  576SOL     OW 2626   0.077   0.256   3.777
  576SOL    HW1 2627   0.120   0.310   3.705
  576SOL    HW2 2628   7.004   0.279   3.782
  577SOL     OW 2629   6.997   0.158   2.074
  577SOL    HW1 2630   6.952   0.125   2.157
  577SOL    HW2 2631   0.069   0.129   2.075
  578SOL     OW 2632   4.230   6.673   0.955
  578SOL    HW1 2633   4.305   6.732   0.984
  578SOL    HW2 2634   4.265   6.584   0.929
  579SOL     OW 2635   0.547   3.804   1.899
  579SOL    HW1 2636   0.640   3.793   1.935
  579SOL    HW2 2637   0.552   3.836   1.804
  580SOL     OW 2638   4.631   4.838   4.872
  580SOL    HW1 2639   4.642   4.936   4.888
  580SOL    HW2 2640   4.579   4.797   4.947
  581SOL     OW 2641   2.672   2.452   3.551
  581SOL    HW1 2642   2.611   2.378   3.522
  581SOL    HW2 2643   2.766   2.430   3.524
  582SOL     OW 2644   5.597   4.382   5.017
  582SOL    HW1 2645   5.555   4.319   4.952
  582SOL    HW2 2646   5.568   4.476   4.997
  583SOL     OW 2647   3.046   5.762   5.480
  583SOL    HW1 2648   2.947   5.761   5.491
  583SOL    HW2 2649   3.089   5.789   5.566
  584SOL     OW 2650   3.849   0.756   5.304
  584SOL    HW1 2651   3.867   0.817   5.226
  584SOL    HW2 2652   3.754   0.725   5.300
  585SOL     OW 2653   4.056   6.670   1.654
  585SOL    HW1 2654   3.964   6.650   1.689
  585SOL    HW2 2655   4.072   6.768   1.656
  586SOL     OW 2656   3.609   6.862   0.897
  586SOL    HW1 2657   3.549   6.899   0.826
  586SOL    HW2 2658   3.591   6.764   0.908
  587SOL     OW 2659   4.878   0.600   2.941
  587SOL    HW1 2660   4.884   0.687   2.891
  587SOL    HW2 2661   4.950   0.539   2.910
  588SOL     OW 2662   2.170   3.972   2.731
  588SOL    HW1 2663   2.101   4.021   2.678
  588SOL    HW2 2664   2.225   4.038   2.783
  589SOL     OW 2665   3.649   4.757   5.763
  589SOL    HW1 2666   3.570   4.796   5.809
  589SOL    HW2 2667   3.619   4.702   5.684
  590SOL     OW 2668   2.149   1.550   6.392
  590SOL    HW1 2669   2.194   1.476   6.343
  590SOL    HW2 2670   2.051   1.531   6.400
  591SOL     OW 2671   2.546   0.253   3.931
  591SOL    HW1 2672   2.642   0.261   3.905
  591SOL    HW2 2673   2.502   0.181   3.878
  592SOL     OW 2674   4.483   2.143   4.216
  592SOL    HW1 2675   4.431   2.162   4.300
  592SOL    HW2 2676   4.559   2.081   4.237
  593SOL     OW 2677   1.440   0.018   0.107
  593SOL    HW1 2678   1.384   6.994   0.039
  593SOL    HW2 2679   1.381   0.076   0.163
  594SOL     OW 2680   2.957   1.405   5.152
  594SOL    HW1 2681   2.991   1.404   5.058
  594SOL    HW2 2682   3.034   1.400   5.216
  595SOL     OW 2683   5.981   3.919   2.623
  595SOL    HW1 2684   6.014   3.922   2.529
  595SOL    HW2 2685   5.882   3.931   2.624
  596SOL     OW 2686   6.423   4.786   4.666
  596SOL    HW1 2687   6.476   4.861   4.706
  596SOL    HW2 2688   6.338   4.822   4.628
  597SOL     OW 2689   4.218   1.567   6.540
  597SOL    HW1 2690   4.175   1.631   6.476
  597SOL    HW2 2691   4.248   1.615   6.621
  598SOL     OW 2692   3.051   3.121   2.209
  598SOL    HW1 2693   3.002   3.150   2.291
  598SOL    HW2 2694   3.076   3.024   2.217
  599SOL     OW 2695   1.786   5.145   1.351
  599SOL    HW1 2696   1.766   5.084   1.428
  599SOL    HW2 2697   1.823   5.092   1.275
  600SOL     OW 2698   0.214   3.476   5.488
  600SOL    HW1 2699   0.284   3.445   5.424
  600SOL    HW2 2700   0.171   3.397   5.532
  601SOL     OW 2701   7.005   0.362   5.902
  601SOL    HW1 2702   6.929   0.297   5.906
  601SOL    HW2 2703   0.066   0.316   5.928
  602SOL     OW 2704   0.359   0.427   3.306
  602SOL    HW1 2705   0.267   0.389   3.307
  602SOL    HW2 2706   0.395   0.432   3.399
  603SOL     OW 2707   1.469   1.476   3.778
  603SOL    HW1 2708   1.493   1.392   3.827
  603SOL    HW2 2709   1.379   1.507   3.810
  604SOL     OW 2710   5.558   1.789   0.765
  604SOL    HW1 2711   5.613   1.859   0.719
  604SOL    HW2 2712   5.580   1.789   0.863
  605SOL     OW 2713   5.657   6.544   1.848
  605SOL    HW1 2714   5.681   6.472   1.913
  605SOL    HW2 2715   5.739   6.596   1.825
  606SOL     OW 2716   2.861   6.503   5.456
  606SOL    HW1 2717   2.945   6.546   5.489
  606SOL    HW2 2718   2.783   6.544   5.502
  607SOL     OW 2719   1.772   3.465   6.305
  607SOL    HW1 2720   1.850   3.514   6.343
  607SOL    HW2 2721   1.724   3.416   6.378
  608SOL     OW 2722   2.982   1.317   6.603
  608SOL    HW1 2723   2.899   1.369   6.580
  608SOL    HW2 2724   3.058   1.381   6.618
  609SOL     OW 2725   3.961   3.093   2.587
  609SOL    HW1 2726   4.047   3.050   2.614
  609SOL    HW2 2727   3.934   3.160   2.657
  610SOL     OW 2728   5.724   2.676   1.896
  610SOL    HW1 2729   5.783   2.757   1.888
  610SOL    HW2 2730   5.642   2.699   1.948
  611SOL     OW 2731   3.514   1.472   2.092
  611SOL    HW1 2732   3.570   1.497   2.014
  611SOL    HW2 2733   3.431   1.427   2.061
  612SOL     OW 2734   3.930   5.546   3.928
  612SOL    HW1 2735   3.940   5.630   3.981
  612SOL    HW2 2736   3.973   5.470   3.976
  613SOL     OW 2737   3.837   5.789   6.671
  613SOL    HW1 2738   3.801   5.836   6.590
  613SOL    HW2 2739   3.771   5.799   6.747
  614SOL     OW 2740   3.656   6.160   5.833
  614SOL    HW1 2741   3.731   6.197   5.779
  614SOL    HW2 2742   3.617   6.080   5.787
  615SOL     OW 2743   7.014   5.084   3.742
  615SOL    HW1 2744   6.953   5.149   3.696
  615SOL    HW2 2745   7.006   5.096   3.841
  616SOL     OW 2746   6.265   2.806   3.722
  616SOL    HW1 2747   6.320   2.738   3.770
  616SOL    HW2 2748   6.170   2.774   3.716
  617SOL     OW 2749   2.559   0.477   5.987
  617SOL    HW1 2750   2.541   0.569   5.951
  617SOL    HW2 2751   2.558   0.481   6.087
  618SOL     OW 2752   2.091   0.558   2.590
  618SOL    HW1 2753   2.074   0.583   2.495
  618SOL    HW2 2754   2.179   0.595   2.619
  619SOL     OW 2755   1.274   2.737   6.887
  619SOL    HW1 2756   1.319   2.670   6.829
  619SOL    HW2 2757   1.302   2.829   6.860
  620SOL     OW 2758   5.061   3.972   0.975
  620SOL    HW1 2759   5.093   3.974   0.880
  620SOL    HW2 2760   4.962   3.963   0.976
  621SOL     OW 2761   0.303   6.001   0.736
  621SOL    HW1 2762   0.257   5.915   0.717
  621SOL    HW2 2763   0.251   6.077   0.696
  622SOL     OW 2764   1.160   1.365   6.893
  622SOL    HW1 2765   1.064   1.346   6.877
  622SOL    HW2 2766   1.215   1.284   6.873
  623SOL     OW 2767   5.955   5.669   5.059
  623SOL    HW1 2768   5.951   5.569   5.061
  623SOL    HW2 2769   5.977   5.700   4.967
  624SOL     OW 2770   6.970   1.593   1.416
  624SOL    HW1 2771   6.902   1.610   1.487
  624SOL    HW2 2772   6.945   1.643   1.333
  625SOL     OW 2773   1.505   0.819   1.820
  625SOL    HW1 2774   1.412   0.855   1.821
  625SOL    HW2 2775   1.558   0.862   1.893
  626SOL     OW 2776   4.045   5.301   5.393
  626SOL    HW1 2777   4.008   5.283   5.484
  626SOL    HW2 2778   4.129   5.249   5.380
  627SOL     OW 2779   4.302   5.522   0.565
  627SOL    HW1 2780   4.389   5.486   0.532
  627SOL    HW2 2781   4.242   5.542   0.488
  628SOL     OW 2782   4.966   3.485   3.719
  628SOL    HW1 2783   4.977   3.414   3.788
  628SOL    HW2 2784   4.980   3.447   3.628
  629SOL     OW 2785   1.433   0.099   1.356
  629SOL    HW1 2786   1.353   0.067   1.304
  629SOL    HW2 2787   1.512   0.043   1.333
  630SOL     OW 2788   2.510   1.474   2.011
  630SOL    HW1 2789   2.552   1.529   1.939
  630SOL    HW2 2790   2.581   1.441   2.073
  631SOL     OW 2791   2.474   1.417   4.201
  631SOL    HW1 2792   2.449   1.487   4.268
  631SOL    HW2 2793   2.541   1.456   4.137
  632SOL     OW 2794   3.336   1.038   0.225
  632SOL    HW1 2795   3.288   1.125   0.237
  632SOL    HW2 2796   3.328   0.984   0.310
  633SOL     OW 2797   2.290   0.409   4.372
  633SOL    HW1 2798   2.223   0.354   4.323
  633SOL    HW2 2799   2.299   0.498   4.328
  634SOL     OW 2800   2.941   5.396   1.915
  634SOL    HW1 2801   2.969   5.301   1.925
  634SOL    HW2 2802   2.907   5.412   1.823
  635SOL     OW 2803   3.211   0.832   2.128
  635SOL    HW1 2804   3.304   0.832   2.092
  635SOL    HW2 2805   3.167   0.744   2.108
  636SOL     OW 2806   4.990   4.626   6.622
  636SOL    HW1 2807   5.039   4.706   6.657
  636SOL    HW2 2808   4.993   4.627   6.522
  637SOL     OW 2809   5.940   4.956   6.469
  637SOL    HW1 2810   5.905   4.871   6.429
  637SOL    HW2 2811   5.898   4.969   6.559
  638SOL     OW 2812   5.443   1.510   3.429
  638SOL    HW1 2813   5.482   1.452   3.502
  638SOL    HW2 2814   5.428   1.455   3.347
  639SOL     OW 2815   3.892   3.667   1.568
  639SOL    HW1 2816   3.891   3.588   1.628
  639SOL    HW2 2817   3.862   3.748   1.618
  640SOL     OW 2818   2.957   2.530   5.371
  640SOL    HW1 2819   3.012   2.513   5.289
  640SOL    HW2 2820   2.996   2.479   5.448
  641SOL     OW 2821   0.127   0.113   5.171
  641SOL    HW1 2822   0.109   0.015   5.161
  641SOL    HW2 2823   0.225   0.127   5.185
  642SOL     OW 2824   0.726   4.935   6.035
  642SOL    HW1 2825   0.772   4.882   6.107
  642SOL    HW2 2826   0.642   4.888   6.008
  643SOL     OW 2827   5.338   6.410   4.239
  643SOL    HW1 2828   5.324   6.384   4.144
  643SOL    HW2 2829   5.423   6.462   4.247
  644SOL     OW 2830   3.444   5.889   1.863
  644SOL    HW1 2831   3.366   5.938   1.902
  644SOL    HW2 2832   3.412   5.829   1.790
  645SOL     OW 2833   0.717   2.894   2.793
  645SOL    HW1 2834   0.676   2.805   2.773
  645SOL    HW2 2835   0.734   2.943   2.708
  646SOL     OW 2836   1.809   3.366   4.415
  646SOL    HW1 2837   1.738   3.394   4.480
  646SOL    HW2 2838   1.790   3.272   4.385
  647SOL     OW 2839   5.516   4.980   1.215
  647SOL    HW1 2840   5.419   5.005   1.213
  647SOL    HW2 2841   5.567   5.036   1.150
  648SOL     OW 2842   4.217   2.331   4.106
  648SOL    HW1 2843   4.174   2.241   4.113
  648SOL    HW2 2844   4.187   2.376   4.023
  649SOL     OW 2845   4.202   4.549   1.466
  649SOL    HW1 2846   4.131   4.600   1.514
  649SOL    HW2 2847   4.232   4.472   1.522
  650SOL     OW 2848   5.573   5.549   0.038
  650SOL    HW1 2849   5.610   5.503   0.118
  650SOL    HW2 2850   5.488   5.595   0.063
  651SOL     OW 2851   1.452   5.378   6.307
  651SOL    HW1 2852   1.525   5.437   6.339
  651SOL    HW2 2853   1.382   5.434   6.261
  652SOL     OW 2854   4.813   2.700   1.203
  652SOL    HW1 2855   4.726   2.739   1.174
  652SOL    HW2 2856   4.798   2.613   1.249
  653SOL     OW 2857   3.588   5.410   3.115
  653SOL    HW1 2858   3.587   5.326   3.169
  653SOL    HW2 2859   3.673   5.460   3.133
  654SOL     OW 2860   6.976   4.984   0.214
  654SOL    HW1 2861   6.995   5.070   0.168
  654SOL    HW2 2862   6.880   4.959   0.200
  655SOL     OW 2863   1.850   1.314   0.238
  655SOL    HW1 2864   1.834   1.409   0.266
  655SOL    HW2 2865   1.785   1.255   0.286
  656SOL     OW 2866   1.823   6.224   0.987
  656SOL    HW1 2867   1.737   6.174   1.000
  656SOL    HW2 2868   1.871   6.188   0.908
  657SOL     OW 2869   3.582   0.245   6.635
  657SOL    HW1 2870   3.624   0.328   6.670
  657SOL    HW2 2871   3.519   0.208   6.704
  658SOL     OW 2872   3.997   5.332   0.452
  658SOL    HW1 2873   3.899   5.332   0.435
  658SOL    HW2 2874   4.029   5.426   0.464
  659SOL     OW 2875   3.513   0.487   6.086
  659SOL    HW1 2876   3.418   0.468   6.110
  659SOL    HW2 2877   3.562   0.519   6.167
  660SOL     OW 2878   3.101   6.679   3.892
  660SOL    HW1 2879   3.090   6.771   3.930
  660SOL    HW2 2880   3.129   6.686   3.796
  661SOL     OW 2881   7.011   5.293   2.977
  661SOL    HW1 2882   6.935   5.355   2.956
  661SOL    HW2 2883   0.059   5.344   3.024
  662SOL     OW 2884   4.474   2.196   6.944
  662SOL    HW1 2885   4.504   2.205   6.849
  662SOL    HW2 2886   4.443   2.284   6.978
  663SOL     OW 2887   1.624   3.915   4.582
  663SOL    HW1 2888   1.661   3.945   4.670
  663SOL    HW2 2889   1.666   3.828   4.556
  664SOL     OW 2890   5.784   0.205   6.099
  664SOL    HW1 2891   5.766   0.108   6.085
  664SOL    HW2 2892   5.715   0.244   6.161
  665SOL     OW 2893   1.691   4.306   2.380
  665SOL    HW1 2894   1.729   4.394   2.407
  665SOL    HW2 2895   1.746   4.232   2.419
  666SOL     OW 2896   3.926   1.062   2.661
  666SOL    HW1 2897   3.957   1.055   2.756
  666SOL    HW2 2898   4.005   1.060   2.600
  667SOL     OW 2899   0.174   0.494   1.253
  667SOL    HW1 2900   0.128   0.505   1.165
  667SOL    HW2 2901   0.105   0.478   1.324
  668SOL     OW 2902   4.974   3.432   6.607
  668SOL    HW1 2903   4.957   3.350   6.552
  668SOL    HW2 2904   5.062   3.423   6.653
  669SOL     OW 2905   5.566   0.961   3.396
  669SOL    HW1 2906   5.628   0.981   3.471
  669SOL    HW2 2907   5.618   0.953   3.311
  670SOL     OW 2908   4.101   1.942   1.843
  670SOL    HW1 2909   4.009   1.978   1.861
  670SOL    HW2 2910   4.093   1.854   1.796
  671SOL     OW 2911   1.386   5.830   2.069
  671SOL    HW1 2912   1.439   5.775   2.004
  671SOL    HW2 2913   1.289   5.828   2.043
  672SOL     OW 2914   0.109   0.013   1.353
  672SOL    HW1 2915   0.104   0.073   1.433
  672SOL    HW2 2916   0.154   0.061   1.278
  673SOL     OW 2917   6.431   6.969   6.408
  673SOL    HW1 2918   6.341   7.011   6.420
  673SOL    HW2 2919   6.485   6.980   6.492
  674SOL     OW 2920   4.623   6.854   4.672
  674SOL    HW1 2921   4.602   6.807   4.758
  674SOL    HW2 2922   4.693   6.803   4.622
  675SOL     OW 2923   1.016   5.392   2.677
  675SOL    HW1 2924   0.960   5.461   2.721
  675SOL    HW2 2925   1.085   5.358   2.742
  676SOL     OW 2926   2.222   5.572   6.985
  676SOL    HW1 2927   2.289   5.502   7.008
  676SOL    HW2 2928   2.263   5.639   6.923
  677SOL     OW 2929   5.165   0.664   0.915
  677SOL    HW1 2930   5.152   0.712   1.001
  677SOL    HW2 2931   5.263   0.660   0.894
  678SOL     OW 2932   0.564   5.513   4.130
  678SOL    HW1 2933   0.620   5.575   4.185
  678SOL    HW2 2934   0.609   5.423   4.126
  679SOL     OW 2935   5.237   1.100   6.037
  679SOL    HW1 2936   5.218   1.192   6.001
  679SOL    HW2 2937   5.317   1.105   6.097
  680SOL     OW 2938   6.207   0.165   4.189
  680SOL    HW1 2939   6.255   0.250   4.166
  680SOL    HW2 2940   6.265   0.109   4.248
  681SOL     OW 2941   4.699   4.312   2.898
  681SOL    HW1 2942   4.760   4.249   2.850
  681SOL    HW2 2943   4.701   4.401   2.852
  682SOL     OW 2944   6.160   1.380   3.267
  682SOL    HW1 2945   6.123   1.460   3.219
  682SOL    HW2 2946   6.089   1.310   3.274
  683SOL     OW 2947   3.514   5.373   0.270
  683SOL    HW1 2948   3.481   5.287   0.308
  683SOL    HW2 2949   3.473   5.388   0.180
  684SOL     OW 2950   5.676   2.039   6.141
  684SOL    HW1 2951   5.685   1.953   6.191
  684SOL    HW2 2952   5.690   2.022   6.043
  685SOL     OW 2953   3.139   6.424   3.631
  685SOL    HW1 2954   3.100   6.516   3.622
  685SOL    HW2 2955   3.092   6.361   3.570
  686SOL     OW 2956   3.122   0.414   5.634
  686SOL    HW1 2957   3.053   0.474   5.675
  686SOL    HW2 2958   3.148   0.343   5.700
  687SOL     OW 2959   0.269   0.729   4.332
  687SOL    HW1 2960   0.249   0.638   4.369
  687SOL    HW2 2961   0.321   0.782   4.399
  688SOL     OW 2962   4.989   3.662   6.820
  688SOL    HW1 2963   4.891   3.656   6.800
  688SOL    HW2 2964   5.019   3.577   6.865
  689SOL     OW 2965   2.477   5.887   0.068
  689SOL    HW1 2966   2.412   5.832   0.120
  689SOL    HW2 2967   2.494   5.973   0.117
  690SOL     OW 2968   5.964   3.507   4.028
  690SOL    HW1 2969   5.961   3.493   4.127
  690SOL    HW2 2970   5.871   3.516   3.994
  691SOL     OW 2971   5.440   0.575   2.657
  691SOL    HW1 2972   5.416   0.635   2.581
  691SOL    HW2 2973   5.461   0.630   2.738
  692SOL     OW 2974   1.288   0.053   3.522
  692SOL    HW1 2975   1.334   6.992   3.500
  692SOL    HW2 2976   1.286   0.065   3.622
  693SOL     OW 2977   5.944   4.054   2.064
  693SOL    HW1 2978   5.959   3.958   2.088
  693SOL    HW2 2979   5.911   4.060   1.970
  694SOL     OW 2980   4.202   4.846   4.198
  694SOL    HW1 2981   4.159   4.911   4.261
  694SOL    HW2 2982   4.245   4.773   4.250
  695SOL     OW 2983   4.380   0.188   4.358
  695SOL    HW1 2984   4.400   0.215   4.452
  695SOL    HW2 2985   4.345   0.094   4.357
  696SOL     OW 2986   6.998   4.704   2.071
  696SOL    HW1 2987   0.008   4.782   2.018
  696SOL    HW2 2988   0.027   4.622   2.049
  697SOL     OW 2989   0.402   6.289   3.184
  697SOL    HW1 2990   0.365   6.267   3.274
  697SOL    HW2 2991   0.381   6.214   3.121
  698SOL     OW 2992   5.833   6.248   5.663
  698SOL    HW1 2993   5.931   6.267   5.661
  698SOL    HW2 2994   5.792   6.289   5.745
  699SOL     OW 2995   4.029   2.756   0.485
  699SOL    HW1 2996   4.053   2.819   0.558
  699SOL    HW2 2997   4.105   2.750   0.420
  700SOL     OW 2998   3.486   6.700   5.360
  700SOL    HW1 2999   3.412   6.649   5.318
  700SOL    HW2 3000   3.503   6.665   5.452
  701SOL     OW 3001   4.434   4.502   1.797
  701SOL    HW1 3002   4.463   4.524   1.704
  701SOL    HW2 3003   4.445   4.404   1.813
  702SOL     OW 3004   3.559   1.005   4.870
  702SOL    HW1 3005   3.460   0.995   4.882
  702SOL    HW2 3006   3.582   1.102   4.864
  703SOL     OW 3007   3.407   3.007   0.446
  703SOL    HW1 3008   3.399   2.909   0.432
  703SOL    HW2 3009   3.467   3.046   0.377
  704SOL     OW 3010   4.012   1.821   0.215
  704SOL    HW1 3011   4.002   1.723   0.199
  704SOL    HW2 3012   3.952   1.872   0.153
  705SOL     OW 3013   7.014   6.799   5.849
  705SOL    HW1 3014   6.987   6.820   5.755
  705SOL    HW2 3015   6.952   6.729   5.885
  706SOL     OW 3016   3.672   0.676   4.944
  706SOL    HW1 3017   3.655   0.744   5.015
  706SOL    HW2 3018   3.771   0.665   4.931
  707SOL     OW 3019   3.405   4.945   4.312
  707SOL    HW1 3020   3.368   4.961   4.404
  707SOL    HW2 3021   3.330   4.923   4.249
  708SOL     OW 3022   2.643   6.204   4.237
  708SOL    HW1 3023   2.575   6.149   4.287
  708SOL    HW2 3024   2.735   6.178   4.267
  709SOL     OW 3025   2.220   6.905   1.721
  709SOL    HW1 3026   2.156   6.889   1.646
  709SOL    HW2 3027   2.238   7.004   1.728
  710SOL     OW 3028   4.741   2.862   2.622
  710SOL    HW1 3029   4.789   2.944   2.594
  710SOL    HW2 3030   4.759   2.788   2.557
  711SOL     OW 3031   6.891   1.263   0.637
  711SOL    HW1 3032   6.838   1.186   0.672
  711SOL    HW2 3033   6.943   1.233   0.557
  712SOL     OW 3034   4.675   4.529   6.968
  712SOL    HW1 3035   4.757   4.558   7.018
  712SOL    HW2 3036   4.698   4.451   6.911
  713SOL     OW 3037   3.644   3.042   5.657
  713SOL    HW1 3038   3.631   2.962   5.598
  713SOL    HW2 3039   3.657   3.012   5.751
  714SOL     OW 3040   4.116   6.684   2.952
  714SOL    HW1 3041   4.122   6.629   2.868
  714SOL    HW2 3042   4.064   6.767   2.933
  715SOL     OW 3043   6.172   4.405   6.019
  715SOL    HW1 3044   6.166   4.335   5.948
  715SOL    HW2 3045   6.248   4.467   5.998
  716SOL     OW 3046   3.286   1.126   3.328
  716SOL    HW1 3047   3.316   1.203   3.272
  716SOL    HW2 3048   3.239   1.160   3.409
  717SOL     OW 3049   5.698   4.507   3.699
  717SOL    HW1 3050   5.794   4.501   3.672
  717SOL    HW2 3051   5.669   4.420   3.739
  718SOL     OW 3052   6.579   2.210   5.459
  718SOL    HW1 3053   6.635   2.257   5.390
  718SOL    HW2 3054   6.596   2.252   5.549
  719SOL     OW 3055   4.816   5.540   2.160
  719SOL    HW1 3056   4.875   5.488   2.098
  719SOL    HW2 3057   4.849   5.532   2.254
  720SOL     OW 3058   3.085   1.782   0.885
  720SOL    HW1 3059   2.992   1.808   0.910
  720SOL    HW2 3060   3.142   1.782   0.967
  721SOL     OW 3061   6.958   2.667   2.688
  721SOL    HW1 3062   6.888   2.681   2.618
  721SOL    HW2 3063   6.927   2.707   2.774
  722SOL     OW 3064   5.628   5.795   2.083
  722SOL    HW1 3065   5.538   5.801   2.125
  722SOL    HW2 3066   5.637   5.863   2.011
  723SOL     OW 3067   2.446   0.284   4.886
  723SOL    HW1 3068   2.457   0.330   4.798
  723SOL    HW2 3069   2.514   0.319   4.950
  724SOL     OW 3070   1.091   2.658   4.834
  724SOL    HW1 3071   1.123   2.575   4.788
  724SOL    HW2 3072   1.167   2.703   4.879
  725SOL     OW 3073   1.505   3.992   3.531
  725SOL    HW1 3074   1.426   4.053   3.526
  725SOL    HW2 3075   1.475   3.900   3.555
  726SOL     OW 3076   2.524   3.405   0.439
  726SOL    HW1 3077   2.472   3.491   0.445
  726SOL    HW2 3078   2.621   3.425   0.434
  727SOL     OW 3079   3.967   5.283   5.132
  727SOL    HW1 3080   3.996   5.269   5.227
  727SOL    HW2 3081   3.908   5.363   5.126
  728SOL     OW 3082   6.188   3.807   3.458
  728SOL    HW1 3083   6.268   3.866   3.464
  728SOL    HW2 3084   6.124   3.829   3.532
  729SOL     OW 3085   0.472   4.777   0.168
  729SOL    HW1 3086   0.375   4.790   0.147
  729SOL    HW2 3087   0.482   4.702   0.234
  730SOL     OW 3088   4.093   1.348   3.415
  730SOL    HW1 3089   4.035   1.403   3.475
  730SOL    HW2 3090   4.042   1.326   3.331
  731SOL     OW 3091   4.882   4.496   4.683
  731SOL    HW1 3092   4.940   4.493   4.602
  731SOL    HW2 3093   4.819   4.418   4.681
  732SOL     OW 3094   4.773   0.865   4.425
  732SOL    HW1 3095   4.800   0.960   4.435
  732SOL    HW2 3096   4.833   0.820   4.358
  733SOL     OW 3097   0.640   4.955   4.370
  733SOL    HW1 3098   0.576   4.976   4.444
  733SOL    HW2 3099   0.626   4.861   4.339
  734SOL     OW 3100   6.284   5.949   3.382
  734SOL    HW1 3101   6.350   5.875   3.372
  734SOL    HW2 3102   6.228   5.956   3.300
  735SOL     OW 3103   4.640   0.469   2.734
  735SOL    HW1 3104   4.644   0.480   2.833
  735SOL    HW2 3105   4.730   0.441   2.700
  736SOL     OW 3106   1.924   1.434   3.131
  736SOL    HW1 3107   1.904   1.353   3.187
  736SOL    HW2 3108   1.927   1.408   3.035
  737SOL     OW 3109   3.310   1.437   6.335
  737SOL    HW1 3110   3.286   1.345   6.305
  737SOL    HW2 3111   3.371   1.479   6.268
  738SOL     OW 3112   1.271   5.538   0.284
  738SOL    HW1 3113   1.276   5.613   0.219
  738SOL    HW2 3114   1.177   5.502   0.286
  739SOL     OW 3115   1.611   0.807   2.619
  739SOL    HW1 3116   1.685   0.773   2.561
  739SOL    HW2 3117   1.606   0.750   2.701
  740SOL     OW 3118   4.765   2.697   2.820
  740SOL    HW1 3119   4.750   2.754   2.739
  740SOL    HW2 3120   4.799   2.608   2.792
  741SOL     OW 3121   3.408   1.036   2.961
  741SOL    HW1 3122   3.438   1.128   2.988
  741SOL    HW2 3123   3.416   1.026   2.862
  742SOL     OW 3124   1.986   0.676   2.331
  742SOL    HW1 3125   1.946   0.764   2.302
  742SOL    HW2 3126   1.966   0.607   2.262
  743SOL     OW 3127   6.781   6.422   2.513
  743SOL    HW1 3128   6.798   6.453   2.606
  743SOL    HW2 3129   6.868   6.395   2.471
  744SOL     OW 3130   5.725   1.424   1.016
  744SOL    HW1 3131   5.652   1.461   0.959
  744SOL    HW2 3132   5.792   1.495   1.035
  745SOL     OW 3133   1.121   6.821   5.762
  745SOL    HW1 3134   1.110   6.913   5.724
  745SOL    HW2 3135   1.043   6.765   5.734
  746SOL     OW 3136   6.497   5.625   5.177
  746SOL    HW1 3137   6.541   5.571   5.248
  746SOL    HW2 3138   6.565   5.685   5.134
  747SOL     OW 3139   3.665   5.153   2.323
  747SOL    HW1 3140   3.678   5.121   2.417
  747SOL    HW2 3141   3.570   5.180   2.311
  748SOL     OW 3142   6.215   4.695   3.148
  748SOL    HW1 3143   6.312   4.675   3.165
  748SOL    HW2 3144   6.191   4.665   3.056
  749SOL     OW 3145   4.679   4.298   4.702
  749SOL    HW1 3146   4.625   4.313   4.619
  749SOL    HW2 3147   4.664   4.373   4.766
  750SOL     OW 3148   2.821   1.822   2.661
  750SOL    HW1 3149   2.893   1.812   2.730
  750SOL    HW2 3150   2.827   1.914   2.621
  751SOL     OW 3151   4.276   0.034   0.448
  751SOL    HW1 3152   4.351   0.096   0.425
  751SOL    HW2 3153   4.259   0.038   0.546
  752SOL     OW 3154   2.965   3.215   3.924
  752SOL    HW1 3155   2.933   3.178   3.837
  752SOL    HW2 3156   3.038   3.157   3.960
  753SOL     OW 3157   3.469   3.743   3.590
  753SOL    HW1 3158   3.479   3.841   3.608
  753SOL    HW2 3159   3.448   3.695   3.675
  754SOL     OW 3160   4.663   0.978   5.991
  754SOL    HW1 3161   4.739   0.926   6.029
  754SOL    HW2 3162   4.589   0.915   5.966
  755SOL     OW 3163   5.041   4.472   4.919
  755SOL    HW1 3164   5.110   4.406   4.951
  755SOL    HW2 3165   5.011   4.446   4.827
  756SOL     OW 3166   3.374   5.508   6.176
  756SOL    HW1 3167   3.387   5.454   6.094
  756SOL    HW2 3168   3.459   5.558   6.197
  757SOL     OW 3169   1.000   6.613   1.520
  757SOL    HW1 3170   0.978   6.675   1.446
  757SOL    HW2 3171   1.037   6.665   1.597
  758SOL     OW 3172   3.672   1.251   5.581
  758SOL    HW1 3173   3.575   1.272   5.565
  758SOL    HW2 3174   3.704   1.302   5.661
  759SOL     OW 3175   6.999   2.733   3.721
  759SOL    HW1 3176   6.959   2.817   3.685
  759SOL    HW2 3177   7.024   2.746   3.817
  760SOL     OW 3178   6.857   5.622   4.496
  760SOL    HW1 3179   6.846   5.655   4.590
  760SOL    HW2 3180   6.900   5.692   4.440
  761SOL     OW 3181   5.022   4.401   6.257
  761SOL    HW1 3182   5.094   4.432   6.194
  761SOL    HW2 3183   4.979   4.319   6.220
  762SOL     OW 3184   4.063   5.995   3.483
  762SOL    HW1 3185   4.085   5.946   3.568
  762SOL    HW2 3186   4.021   5.932   3.418
  763SOL     OW 3187   5.669   1.405   0.356
  763SOL    HW1 3188   5.630   1.320   0.321
  763SOL    HW2 3189   5.659   1.408   0.455
  764SOL     OW 3190   5.113   6.326   4.423
  764SOL    HW1 3191   5.183   6.346   4.355
  764SOL    HW2 3192   5.130   6.237   4.463
  765SOL     OW 3193   5.592   6.122   6.754
  765SOL    HW1 3194   5.678   6.172   6.754
  765SOL    HW2 3195   5.583   6.072   6.840
  766SOL     OW 3196   2.675   1.944   3.795
  766SOL    HW1 3197   2.755   2.004   3.802
  766SOL    HW2 3198   2.601   1.993   3.749
  767SOL     OW 3199   6.519   6.757   3.477
  767SOL    HW1 3200   6.490   6.761   3.381
  767SOL    HW2 3201   6.439   6.740   3.535
  768SOL     OW 3202   3.040   5.631   1.618
  768SOL    HW1 3203   2.974   5.556   1.614
  768SOL    HW2 3204   2.998   5.709   1.664
  769SOL     OW 3205   3.820   2.050   5.346
  769SOL    HW1 3206   3.888   2.102   5.399
  769SOL    HW2 3207   3.735   2.102   5.340
  770SOL     OW 3208   0.729   4.552   6.023
  770SOL    HW1 3209   0.636   4.529   5.996
  770SOL    HW2 3210   0.730   4.579   6.120
  771SOL     OW 3211   1.585   4.987   2.624
  771SOL    HW1 3212   1.677   4.951   2.642
  771SOL    HW2 3213   1.568   5.066   2.683
  772SOL     OW 3214   6.341   5.160   0.230
  772SOL    HW1 3215   6.340   5.089   0.160
  772SOL    HW2 3216   6.387   5.126   0.312
  773SOL     OW 3217   1.335   4.627   4.290
  773SOL    HW1 3218   1.384   4.711   4.314
  773SOL    HW2 3219   1.253   4.651   4.237
  774SOL     OW 3220   1.913   2.340   3.518
  774SOL    HW1 3221   1.845   2.409   3.494
  774SOL    HW2 3222   1.870   2.250   3.524
  775SOL     OW 3223   1.220   5.145   2.393
  775SOL    HW1 3224   1.140   5.203   2.399
  775SOL    HW2 3225   1.300   5.200   2.367
  776SOL     OW 3226   2.060   4.769   0.469
  776SOL    HW1 3227   2.051   4.798   0.373
  776SOL    HW2 3228   2.065   4.850   0.527
  777SOL     OW 3229   1.781   3.113   6.384
  777SOL    HW1 3230   1.740   3.095   6.473
  777SOL    HW2 3231   1.877   3.085   6.385
  778SOL     OW 3232   3.585   5.758   6.813
  778SOL    HW1 3233   3.552   5.847   6.845
  778SOL    HW2 3234   3.523   5.722   6.744
  779SOL     OW 3235   5.873   2.171   3.372
  779SOL    HW1 3236   5.834   2.111   3.442
  779SOL    HW2 3237   5.812   2.249   3.357
  780SOL     OW 3238   6.046   1.462   5.138
  780SOL    HW1 3239   6.119   1.530   5.137
  780SOL    HW2 3240   6.034   1.424   5.047
  781SOL     OW 3241   6.946   5.032   6.782
  781SOL    HW1 3242   6.884   5.056   6.707
  781SOL    HW2 3243   7.006   5.109   6.802
  782SOL     OW 3244   2.119   3.803   5.631
  782SOL    HW1 3245   2.097   3.816   5.534
  782SOL    HW2 3246   2.113   3.891   5.679
  783SOL     OW 3247   7.014   4.992   5.831
  783SOL    HW1 3248   6.922   5.023   5.852
  783SOL    HW2 3249   0.022   5.036   5.747
  784SOL     OW 3250   1.514   5.928   5.820
  784SOL    HW1 3251   1.493   5.991   5.746
  784SOL    HW2 3252   1.603   5.953   5.861
  785SOL     OW 3253   0.677   6.752   4.095
  785SOL    HW1 3254   0.596   6.753   4.153
  785SOL    HW2 3255   0.649   6.757   3.999
  786SOL     OW 3256   6.004   1.681   4.921
  786SOL    HW1 3257   5.933   1.651   4.857
  786SOL    HW2 3258   5.961   1.714   5.005
  787SOL     OW 3259   2.195   6.860   0.966
  787SOL    HW1 3260   2.145   6.809   1.036
  787SOL    HW2 3261   2.131   6.896   0.899
  788SOL     OW 3262   2.009   3.232   2.429
  788SOL    HW1 3263   1.925   3.241   2.376
  788SOL    HW2 3264   2.058   3.149   2.401
  789SOL     OW 3265   3.417   5.232   2.289
  789SOL    HW1 3266   3.364   5.168   2.233
  789SOL    HW2 3267   3.371   5.321   2.290
  790SOL     OW 3268   0.025   3.287   2.872
  790SOL    HW1 3269   6.975   3.317   2.932
  790SOL    HW2 3270   7.011   3.231   2.798
  791SOL     OW 3271   3.659   0.607   3.928
  791SOL    HW1 3272   3.584   0.589   3.864
  791SOL    HW2 3273   3.650   0.700   3.963
  792SOL     OW 3274   3.020   0.886   0.330
  792SOL    HW1 3275   2.952   0.941   0.379
  792SOL    HW2 3276   3.091   0.857   0.395
  793SOL     OW 3277   2.195   5.803   4.884
  793SOL    HW1 3278   2.284   5.799   4.837
  793SOL    HW2 3279   2.122   5.811   4.817
  794SOL     OW 3280   3.427   3.113   2.357
  794SOL    HW1 3281   3.500   3.157   2.409
  794SOL    HW2 3282   3.456   3.099   2.263
  795SOL     OW 3283   3.911   6.731   6.127
  795SOL    HW1 3284   3.917   6.762   6.032
  795SOL    HW2 3285   3.907   6.810   6.188
  796SOL     OW 3286   1.037   2.320   6.190
  796SOL    HW1 3287   1.125   2.341   6.233
  796SOL    HW2 3288   0.993   2.405   6.161
  797SOL     OW 3289   3.070   6.773   0.639
  797SOL    HW1 3290   3.103   6.772   0.545
  797SOL    HW2 3291   3.039   6.681   0.664
  798SOL     OW 3292   5.181   4.491   1.943
  798SOL    HW1 3293   5.151   4.397   1.956
  798SOL    HW2 3294   5.281   4.494   1.938
  799SOL     OW 3295   3.534   3.487   4.753
  799SOL    HW1 3296   3.573   3.414   4.810
  799SOL    HW2 3297   3.607   3.546   4.721
  800SOL     OW 3298   5.081   2.839   3.223
  800SOL    HW1 3299   5.040   2.927   3.250
  800SOL    HW2 3300   5.077   2.829   3.124
  801SOL     OW 3301   2.118   4.818   0.184
  801SOL    HW1 3302   2.138   4.725   0.151
  801SOL    HW2 3303   2.203   4.870   0.189
  802SOL     OW 3304   4.023   2.634   5.709
  802SOL    HW1 3305   4.065   2.712   5.662
  802SOL    HW2 3306   4.046   2.638   5.806
  803SOL     OW 3307   3.257   1.918   3.056
  803SOL    HW1 3308   3.221   1.956   3.141
  803SOL    HW2 3309   3.239   1.819   3.054
  804SOL     OW 3310   4.222   0.046   2.923
  804SOL    HW1 3311   4.147   0.032   2.858
  804SOL    HW2 3312   4.301   7.017   2.894
  805SOL     OW 3313   3.407   1.688   3.713
  805SOL    HW1 3314   3.378   1.643   3.628
  805SOL    HW2 3315   3.430   1.619   3.781
  806SOL     OW 3316   4.385   6.414   5.962
  806SOL    HW1 3317   4.293   6.435   5.994
  806SOL    HW2 3318   4.426   6.345   6.021
  807SOL     OW 3319   1.010   6.419   6.281
  807SOL    HW1 3320   0.969   6.340   6.327
  807SOL    HW2 3321   1.104   6.431   6.313
  808SOL     OW 3322   5.349   1.803   5.942
  808SOL    HW1 3323   5.354   1.755   6.029
  808SOL    HW2 3324   5.292   1.752   5.878
  809SOL     OW 3325   2.593   6.328   5.539
  809SOL    HW1 3326   2.659   6.347   5.612
  809SOL    HW2 3327   2.642   6.302   5.456
  810SOL     OW 3328   3.893   3.784   6.445
  810SOL    HW1 3329   3.855   3.874   6.428
  810SOL    HW2 3330   3.988   3.782   6.413
  811SOL     OW 3331   5.470   5.072   5.616
  811SOL    HW1 3332   5.449   5.164   5.583
  811SOL    HW2 3333   5.412   5.005   5.570
  812SOL     OW 3334   1.272   2.232   0.533
  812SOL    HW1 3335   1.184   2.227   0.485
  812SOL    HW2 3336   1.261   2.202   0.628
  813SOL     OW 3337   2.683   1.495   5.127
  813SOL    HW1 3338   2.780   1.494   5.153
  813SOL    HW2 3339   2.664   1.576   5.072
  814SOL     OW 3340   0.380   4.955   1.473
  814SOL    HW1 3341   0.418   4.927   1.385
  814SOL    HW2 3342   0.325   5.038   1.460
  815SOL     OW 3343   4.419   0.840   3.788
  815SOL    HW1 3344   4.356   0.767   3.813
  815SOL    HW2 3345   4.412   0.860   3.691
  816SOL     OW 3346   4.846   3.643   6.507
  816SOL    HW1 3347   4.790   3.622   6.427
  816SOL    HW2 3348   4.886   3.559   6.543
  817SOL     OW 3349   6.929   5.468   0.152
  817SOL    HW1 3350   6.902   5.513   0.237
  817SOL    HW2 3351   6.848   5.453   0.095
  818SOL     OW 3352   6.661   1.353   5.334
  818SOL    HW1 3353   6.647   1.259   5.365
  818SOL    HW2 3354   6.727   1.398   5.395
  819SOL     OW 3355   5.639   3.639   1.948
  819SOL    HW1 3356   5.540   3.631   1.935
  819SOL    HW2 3357   5.676   3.701   1.879
  820SOL     OW 3358   2.386   2.052   5.239
  820SOL    HW1 3359   2.367   1.978   5.174
  820SOL    HW2 3360   2.331   2.132   5.216
  821SOL     OW 3361   5.153   3.688   5.808
  821SOL    HW1 3362   5.251   3.675   5.821
  821SOL    HW2 3363   5.124   3.641   5.725
  822SOL     OW 3364   0.014   4.543   3.452
  822SOL    HW1 3365   6.990   4.607   3.391
  822SOL    HW2 3366   0.104   4.523   3.414
  823SOL     OW 3367   1.717   2.832   4.253
  823SOL    HW1 3368   1.707   2.744   4.300
  823SOL    HW2 3369   1.649   2.840   4.181
  824SOL     OW 3370   5.118   0.558   6.185
  824SOL    HW1 3371   5.078   0.649   6.191
  824SOL    HW2 3372   5.064   0.503   6.121
  825SOL     OW 3373   6.418   6.157   1.378
  825SOL    HW1 3374   6.385   6.065   1.355
  825SOL    HW2 3375   6.508   6.150   1.421
  826SOL     OW 3376   3.562   2.266   0.233
  826SOL    HW1 3377   3.554   2.363   0.256
  826SOL    HW2 3378   3.652   2.232   0.261
  827SOL     OW 3379   3.685   3.265   4.882
  827SOL    HW1 3380   3.771   3.218   4.906
  827SOL    HW2 3381   3.614   3.197   4.865
  828SOL     OW 3382   0.611   6.410   6.303
  828SOL    HW1 3383   0.592   6.384   6.209
  828SOL    HW2 3384   0.649   6.502   6.305
  829SOL     OW 3385   3.790   3.326   1.459
  829SOL    HW1 3386   3.744   3.405   1.419
  829SOL    HW2 3387   3.824   3.349   1.550
  830SOL     OW 3388   0.243   3.030   5.822
  830SOL    HW1 3389   0.190   3.059   5.902
  830SOL    HW2 3390   0.300   3.106   5.792
  831SOL     OW 3391   5.907   1.896   3.169
  831SOL    HW1 3392   5.835   1.952   3.130
  831SOL    HW2 3393   5.979   1.881   3.100
  832SOL     OW 3394   3.047   2.202   4.812
  832SOL    HW1 3395   3.058   2.265   4.888
  832SOL    HW2 3396   3.137   2.171   4.780
  833SOL     OW 3397   3.223   3.309   6.662
  833SOL    HW1 3398   3.222   3.237   6.732
  833SOL    HW2 3399   3.293   3.377   6.686
  834SOL     OW 3400   6.251   3.701   1.187
  834SOL    HW1 3401   6.251   3.786   1.134
  834SOL    HW2 3402   6.166   3.693   1.238
  835SOL     OW 3403   6.376   6.606   4.925
  835SOL    HW1 3404   6.306   6.613   4.995
  835SOL    HW2 3405   6.450   6.670   4.945
  836SOL     OW 3406   6.485   0.065   4.023
  836SOL    HW1 3407   6.470   0.152   3.976
  836SOL    HW2 3408   6.402   0.010   4.019
  837SOL     OW 3409   0.468   0.137   6.449
  837SOL    HW1 3410   0.417   0.159   6.365
  837SOL    HW2 3411   0.458   0.040   6.469
  838SOL     OW 3412   0.804   6.116   3.255
  838SOL    HW1 3413   0.883   6.178   3.253
  838SOL    HW2 3414   0.721   6.170   3.264
  839SOL     OW 3415   1.505   2.276   6.877
  839SOL    HW1 3416   1.481   2.342   6.805
  839SOL    HW2 3417   1.585   2.223   6.848
  840SOL     OW 3418   5.066   5.307   0.557
  840SOL    HW1 3419   5.150   5.259   0.532
  840SOL    HW2 3420   5.031   5.355   0.476
  841SOL     OW 3421   2.890   4.661   6.813
  841SOL    HW1 3422   2.942   4.746   6.806
  841SOL    HW2 3423   2.946   4.586   6.777
  842SOL     OW 3424   4.074   6.525   1.174
  842SOL    HW1 3425   4.091   6.451   1.108
  842SOL    HW2 3426   4.065   6.612   1.125
  843SOL     OW 3427   1.781   0.043   2.185
  843SOL    HW1 3428   1.690   0.085   2.188
  843SOL    HW2 3429   1.849   0.110   2.157
  844SOL     OW 3430   6.766   6.741   1.524
  844SOL    HW1 3431   6.841   6.731   1.459
  844SOL    HW2 3432   6.803   6.760   1.615
  845SOL     OW 3433   4.475   1.543   1.501
  845SOL    HW1 3434   4.558   1.501   1.464
  845SOL    HW2 3435   4.397   1.485   1.482
  846SOL     OW 3436   1.758   0.619   0.780
  846SOL    HW1 3437   1.732   0.688   0.848
  846SOL    HW2 3438   1.710   0.636   0.695
  847SOL     OW 3439   2.828   3.370   1.436
  847SOL    HW1 3440   2.844   3.441   1.504
  847SOL    HW2 3441   2.894   3.296   1.449
  848SOL     OW 3442   6.614   5.826   1.021
  848SOL    HW1 3443   6.562   5.910   1.033
  848SOL    HW2 3444   6.649   5.821   0.928
  849SOL     OW 3445   5.442   3.572   6.171
  849SOL    HW1 3446   5.469   3.484   6.133
  849SOL    HW2 3447   5.428   3.638   6.097
  850SOL     OW 3448   2.567   1.025   4.682
  850SOL    HW1 3449   2.614   1.098   4.731
  850SOL    HW2 3450   2.504   0.979   4.745
  851SOL     OW 3451   4.722   2.641   6.250
  851SOL    HW1 3452   4.733   2.734   6.285
  851SOL    HW2 3453   4.639   2.600   6.287
  852SOL     OW 3454   0.213   5.134   1.006
  852SOL    HW1 3455   0.234   5.228   0.978
  852SOL    HW2 3456   0.163   5.136   1.092
  853SOL     OW 3457   3.771   2.702   0.589
  853SOL    HW1 3458   3.738   2.782   0.639
  853SOL    HW2 3459   3.857   2.725   0.543
  854SOL     OW 3460   6.711   0.861   6.518
  854SOL    HW1 3461   6.612   0.863   6.505
  854SOL    HW2 3462   6.752   0.796   6.455
  855SOL     OW 3463   4.809   2.007   6.968
  855SOL    HW1 3464   4.842   2.090   6.925
  855SOL    HW2 3465   4.755   1.954   6.903
  856SOL     OW 3466   1.628   5.694   1.458
  856SOL    HW1 3467   1.689   5.624   1.495
  856SOL    HW2 3468   1.584   5.660   1.375
  857SOL     OW 3469   0.225   6.271   5.267
  857SOL    HW1 3470   0.288   6.223   5.329
  857SOL    HW2 3471   0.153   6.315   5.320
  858SOL     OW 3472   2.869   4.458   0.501
  858SOL    HW1 3473   2.819   4.545   0.494
  858SOL    HW2 3474   2.890   4.440   0.597
  859SOL     OW 3475   4.951   6.033   5.735
  859SOL    HW1 3476   4.998   6.119   5.753
  859SOL    HW2 3477   4.899   6.040   5.649
  860SOL     OW 3478   4.716   2.865   0.369
  860SOL    HW1 3479   4.718   2.937   0.438
  860SOL    HW2 3480   4.800   2.868   0.315
  861SOL     OW 3481   0.992   5.980   2.602
  861SOL    HW1 3482   1.058   6.027   2.543
  861SOL    HW2 3483   0.995   6.017   2.694
  862SOL     OW 3484   0.482   4.857   4.072
  862SOL    HW1 3485   0.407   4.875   4.135
  862SOL    HW2 3486   0.546   4.793   4.114
  863SOL     OW 3487   5.137   0.513   1.222
  863SOL    HW1 3488   5.168   0.605   1.197
  863SOL    HW2 3489   5.037   0.514   1.234
  864SOL     OW 3490   6.257   4.216   3.666
  864SOL    HW1 3491   6.174   4.262   3.636
  864SOL    HW2 3492   6.244   4.180   3.758
  865SOL     OW 3493   1.941   5.037   4.942
  865SOL    HW1 3494   1.960   5.051   4.845
  865SOL    HW2 3495   2.023   5.000   4.987
  866SOL     OW 3496   3.419   6.658   1.227
  866SOL    HW1 3497   3.427   6.569   1.273
  866SOL    HW2 3498   3.501   6.675   1.173
  867SOL     OW 3499   5.790   3.912   4.929
  867SOL    HW1 3500   5.837   3.999   4.947
  867SOL    HW2 3501   5.695   3.919   4.960
  868SOL     OW 3502   0.526   1.350   2.099
  868SOL    HW1 3503   0.551   1.440   2.062
  868SOL    HW2 3504   0.472   1.300   2.031
  869SOL     OW 3505   0.650   2.982   1.803
  869SOL    HW1 3506   0.676   3.076   1.778
  869SOL    HW2 3507   0.555   2.966   1.774
  870SOL     OW 3508   3.707   4.763   1.655
  870SOL    HW1 3509   3.639   4.747   1.727
  870SOL    HW2 3510   3.662   4.796   1.572
  871SOL     OW 3511   4.794   1.854   3.845
  871SOL    HW1 3512   4.833   1.893   3.928
  871SOL    HW2 3513   4.696   1.872   3.842
  872SOL     OW 3514   1.780   2.512   5.681
  872SOL    HW1 3515   1.752   2.477   5.770
  872SOL    HW2 3516   1.876   2.542   5.685
  873SOL     OW 3517   3.859   0.571   6.465
  873SOL    HW1 3518   3.958   0.582   6.456
  873SOL    HW2 3519   3.818   0.660   6.487
  874SOL     OW 3520   5.735   3.705   2.869
  874SOL    HW1 3521   5.750   3.677   2.963
  874SOL    HW2 3522   5.783   3.642   2.807
  875SOL     OW 3523   5.469   5.307   1.968
  875SOL    HW1 3524   5.450   5.333   1.874
  875SOL    HW2 3525   5.406   5.235   1.996
  876SOL     OW 3526   6.284   1.549   6.460
  876SOL    HW1 3527   6.310   1.531   6.555
  876SOL    HW2 3528   6.358   1.520   6.399
  877SOL     OW 3529   0.893   3.193   6.736
  877SOL    HW1 3530   0.885   3.283   6.692
  877SOL    HW2 3531   0.908   3.123   6.666
  878SOL     OW 3532   4.275   6.247   4.726
  878SOL    HW1 3533   4.328   6.315   4.777
  878SOL    HW2 3534   4.336   6.198   4.663
  879SOL     OW 3535   6.081   6.946   6.296
  879SOL    HW1 3536   5.982   6.957   6.292
  879SOL    HW2 3537   6.104   6.849   6.288
  880SOL     OW 3538   3.679   3.065   3.034
  880SOL    HW1 3539   3.636   3.154   3.015
  880SOL    HW2 3540   3.636   2.995   2.977
  881SOL     OW 3541   4.841   2.037   0.561
  881SOL    HW1 3542   4.836   2.064   0.658
  881SOL    HW2 3543   4.759   2.069   0.513
  882SOL     OW 3544   1.652   2.555   3.424
  882SOL    HW1 3545   1.571   2.513   3.466
  882SOL    HW2 3546   1.675   2.505   3.341
  883SOL     OW 3547   2.402   6.536   2.863
  883SOL    HW1 3548   2.317   6.484   2.875
  883SOL    HW2 3549   2.479   6.472   2.856
  884SOL     OW 3550   2.532   3.473   6.047
  884SOL    HW1 3551   2.530   3.529   5.964
  884SOL    HW2 3552   2.444   3.427   6.058
  885SOL     OW 3553   4.057   3.065   6.456
  885SOL    HW1 3554   4.143   3.087   6.502
  885SOL    HW2 3555   3.981   3.106   6.505
  886SOL     OW 3556   3.652   1.686   5.834
  886SOL    HW1 3557   3.583   1.621   5.865
  886SOL    HW2 3558   3.616   1.738   5.756
  887SOL     OW 3559   3.886   1.188   5.317
  887SOL    HW1 3560   3.933   1.128   5.252
  887SOL    HW2 3561   3.826   1.251   5.268
  888SOL     OW 3562   0.625   6.702   2.118
  888SOL    HW1 3563   0.716   6.736   2.142
  888SOL    HW2 3564   0.558   6.775   2.130
  889SOL     OW 3565   0.559   3.971   1.347
  889SOL    HW1 3566   0.545   3.979   1.446
  889SOL    HW2 3567   0.474   3.994   1.299
  890SOL     OW 3568   2.764   6.087   5.012
  890SOL    HW1 3569   2.758   5.987   5.020
  890SOL    HW2 3570   2.857   6.113   4.986
  891SOL     OW 3571   4.594   4.480   2.462
  891SOL    HW1 3572   4.609   4.483   2.363
  891SOL    HW2 3573   4.671   4.434   2.505
  892SOL     OW 3574   2.359   4.301   1.426
  892SOL    HW1 3575   2.302   4.359   1.484
  892SOL    HW2 3576   2.308   4.219   1.399
  893SOL     OW 3577   1.568   5.495   2.387
  893SOL    HW1 3578   1.643   5.465   2.446
  893SOL    HW2 3579   1.481   5.486   2.435
  894SOL     OW 3580   1.189   4.470   1.062
  894SOL    HW1 3581   1.220   4.489   1.155
  894SOL    HW2 3582   1.191   4.371   1.046
  895SOL     OW 3583   6.822   5.718   4.778
  895SOL    HW1 3584   6.723   5.720   4.768
  895SOL    HW2 3585   6.858   5.811   4.775
  896SOL     OW 3586   6.800   0.697   6.317
  896SOL    HW1 3587   6.842   0.707   6.227
  896SOL    HW2 3588   6.834   0.614   6.361
  897SOL     OW 3589   5.883   1.224   0.508
  897SOL    HW1 3590   5.892   1.309   0.457
  897SOL    HW2 3591   5.828   1.239   0.590
  898SOL     OW 3592   3.982   1.902   3.590
  898SOL    HW1 3593   4.063   1.845   3.581
  898SOL    HW2 3594   3.966   1.950   3.503
  899SOL     OW 3595   6.490   6.786   0.150
  899SOL    HW1 3596   6.572   6.735   0.177
  899SOL    HW2 3597   6.468   6.854   0.220
  900SOL     OW 3598   5.572   5.285   6.025
  900SOL    HW1 3599   5.576   5.201   5.970
  900SOL    HW2 3600   5.578   5.261   6.122
  901SOL     OW 3601   1.173   0.842   2.864
  901SOL    HW1 3602   1.268   0.857   2.838
  901SOL    HW2 3603   1.125   0.930   2.868
  902SOL     OW 3604   6.908   3.143   2.663
  902SOL    HW1 3605   6.923   3.138   2.564
  902SOL    HW2 3606   6.880   3.053   2.697
  903SOL     OW 3607   6.647   1.270   0.446
  903SOL    HW1 3608   6.569   1.333   0.449
  903SOL    HW2 3609   6.662   1.231   0.537
  904SOL     OW 3610   2.908   1.454   3.457
  904SOL    HW1 3611   2.904   1.388   3.532
  904SOL    HW2 3612   2.855   1.420   3.380
  905SOL     OW 3613   5.537   2.238   6.025
  905SOL    HW1 3614   5.590   2.178   6.085
  905SOL    HW2 3615   5.533   2.330   6.064
  906SOL     OW 3616   5.992   3.185   1.052
  906SOL    HW1 3617   5.950   3.276   1.053
  906SOL    HW2 3618   6.026   3.165   0.960
  907SOL     OW 3619   5.889   4.623   0.339
  907SOL    HW1 3620   5.960   4.624   0.269
  907SOL    HW2 3621   5.932   4.626   0.430
  908SOL     OW 3622   0.563   3.855   3.472
  908SOL    HW1 3623   0.476   3.895   3.441
  908SOL    HW2 3624   0.548   3.759   3.494
  909SOL     OW 3625   5.272   4.476   6.121
  909SOL    HW1 3626   5.285   4.452   6.217
  909SOL    HW2 3627   5.353   4.449   6.069
  910SOL     OW 3628   3.158   4.849   0.575
  910SOL    HW1 3629   3.110   4.882   0.494
  910SOL    HW2 3630   3.177   4.925   0.637
  911SOL     OW 3631   1.320   4.511   6.512
  911SOL    HW1 3632   1.328   4.610   6.505
  911SOL    HW2 3633   1.345   4.468   6.425
  912SOL     OW 3634   5.138   1.476   5.461
  912SOL    HW1 3635   5.160   1.433   5.549
  912SOL    HW2 3636   5.179   1.567   5.458
  913SOL     OW 3637   5.575   5.210   3.365
  913SOL    HW1 3638   5.485   5.173   3.342
  913SOL    HW2 3639   5.610   5.264   3.288
  914SOL     OW 3640   2.576   6.599   5.515
  914SOL    HW1 3641   2.589   6.626   5.420
  914SOL    HW2 3642   2.564   6.500   5.520
  915SOL     OW 3643   5.673   5.111   2.010
  915SOL    HW1 3644   5.685   5.121   2.109
  915SOL    HW2 3645   5.605   5.177   1.978
  916SOL     OW 3646   0.812   3.545   3.044
  916SOL    HW1 3647   0.866   3.587   3.116
  916SOL    HW2 3648   0.789   3.452   3.070
  917SOL     OW 3649   0.522   6.746   6.681
  917SOL    HW1 3650   0.580   6.725   6.759
  917SOL    HW2 3651   0.435   6.785   6.712
  918SOL     OW 3652   3.463   5.940   6.354
  918SOL    HW1 3653   3.376   5.894   6.370
  918SOL    HW2 3654   3.490   5.928   6.258
  919SOL     OW 3655   4.344   0.050   5.770
  919SOL    HW1 3656   4.351   0.150   5.764
  919SOL    HW2 3657   4.356   0.022   5.865
  920SOL     OW 3658   3.158   4.512   1.685
  920SOL    HW1 3659   3.089   4.500   1.757
  920SOL    HW2 3660   3.188   4.423   1.652
  921SOL     OW 3661   5.102   5.605   5.693
  921SOL    HW1 3662   5.184   5.609   5.750
  921SOL    HW2 3663   5.033   5.668   5.729
  922SOL     OW 3664   3.402   4.013   2.854
  922SOL    HW1 3665   3.333   4.069   2.899
  922SOL    HW2 3666   3.490   4.023   2.902
  923SOL     OW 3667   2.646   4.105   5.554
  923SOL    HW1 3668   2.650   4.190   5.500
  923SOL    HW2 3669   2.625   4.028   5.494
  924SOL     OW 3670   1.206   3.142   0.993
  924SOL    HW1 3671   1.228   3.112   1.085
  924SOL    HW2 3672   1.188   3.062   0.935
  925SOL     OW 3673   0.595   1.407   6.935
  925SOL    HW1 3674   0.504   1.449   6.935
  925SOL    HW2 3675   0.649   1.447   7.009
  926SOL     OW 3676   2.241   2.411   1.370
  926SOL    HW1 3677   2.262   2.347   1.444
  926SOL    HW2 3678   2.267   2.370   1.282
  927SOL     OW 3679   0.146   3.622   5.127
  927SOL    HW1 3680   0.133   3.690   5.054
  927SOL    HW2 3681   0.088   3.645   5.204
  928SOL     OW 3682   3.117   5.148   6.128
  928SOL    HW1 3683   3.184   5.203   6.177
  928SOL    HW2 3684   3.027   5.191   6.135
  929SOL     OW 3685   1.182   2.390   4.767
  929SOL    HW1 3686   1.233   2.359   4.847
  929SOL    HW2 3687   1.232   2.366   4.684
  930SOL     OW 3688   5.910   5.228   5.458
  930SOL    HW1 3689   5.977   5.301   5.474
  930SOL    HW2 3690   5.851   5.253   5.382
  931SOL     OW 3691   6.138   0.732   3.854
  931SOL    HW1 3692   6.211   0.800   3.843
  931SOL    HW2 3693   6.172   0.655   3.908
  932SOL     OW 3694   4.202   6.910   3.622
  932SOL    HW1 3695   4.251   6.839   3.672
  932SOL    HW2 3696   4.264   6.985   3.600
  933SOL     OW 3697   1.275   6.031   1.646
  933SOL    HW1 3698   1.192   5.981   1.670
  933SOL    HW2 3699   1.317   5.990   1.565
  934SOL     OW 3700   1.841   2.717   0.983
  934SOL    HW1 3701   1.887   2.685   0.900
  934SOL    HW2 3702   1.842   2.644   1.051
  935SOL     OW 3703   5.521   2.802   5.487
  935SOL    HW1 3704   5.450   2.779   5.555
  935SOL    HW2 3705   5.561   2.718   5.452
  936SOL     OW 3706   1.474   1.311   6.365
  936SOL    HW1 3707   1.545   1.244   6.387
  936SOL    HW2 3708   1.511   1.378   6.301
  937SOL     OW 3709   3.232   2.006   6.166
  937SOL    HW1 3710   3.322   2.006   6.211
  937SOL    HW2 3711   3.173   2.073   6.212
  938SOL     OW 3712   4.731   6.486   4.971
  938SOL    HW1 3713   4.751   6.393   4.941
  938SOL    HW2 3714   4.709   6.486   5.068
  939SOL     OW 3715   1.617   0.041   4.687
  939SOL    HW1 3716   1.593   0.010   4.595
  939SOL    HW2 3717   1.711   0.013   4.709
  940SOL     OW 3718   1.837   5.507   0.747
  940SOL    HW1 3719   1.750   5.530   0.703
  940SOL    HW2 3720   1.901   5.583   0.736
  941SOL     OW 3721   3.988   6.773   1.025
  941SOL    HW1 3722   3.934   6.803   0.947
  941SOL    HW2 3723   4.082   6.755   0.996
  942SOL     OW 3724   0.059   5.279   6.834
  942SOL    HW1 3725   0.009   5.333   6.767
  942SOL    HW2 3726   0.145   5.325   6.857
  943SOL     OW 3727   3.563   6.435   1.456
  943SOL    HW1 3728   3.485   6.374   1.450
  943SOL    HW2 3729   3.536   6.520   1.502
  944SOL     OW 3730   5.970   6.090   3.465
  944SOL    HW1 3731   6.013   6.164   3.518
  944SOL    HW2 3732   6.012   6.003   3.489
  945SOL     OW 3733   0.415   5.023   6.479
  945SOL    HW1 3734   0.320   5.053   6.474
  945SOL    HW2 3735   0.420   4.924   6.474
  946SOL     OW 3736   5.783   1.936   3.805
  946SOL    HW1 3737   5.715   1.956   3.735
  946SOL    HW2 3738   5.750   1.970   3.893
  947SOL     OW 3739   3.576   4.120   2.364
  947SOL    HW1 3740   3.527   4.130   2.451
  947SOL    HW2 3741   3.520   4.066   2.301
  948SOL     OW 3742   3.428   1.837   4.003
  948SOL    HW1 3743   3.407   1.788   3.918
  948SOL    HW2 3744   3.527   1.849   4.011
  949SOL     OW 3745   2.185   0.022   5.327
  949SOL    HW1 3746   2.277   0.019   5.287
  949SOL    HW2 3747   2.189   7.017   5.423
  950SOL     OW 3748   0.086   0.426   1.685
  950SOL    HW1 3749   0.072   0.403   1.782
  950SOL    HW2 3750   0.093   0.525   1.675
  951SOL     OW 3751   1.560   0.023   2.838
  951SOL    HW1 3752   1.638   7.003   2.795
  951SOL    HW2 3753   1.584   0.118   2.860
  952SOL     OW 3754   3.264   1.747   2.663
  952SOL    HW1 3755   3.294   1.655   2.639
  952SOL    HW2 3756   3.217   1.789   2.585
  953SOL     OW 3757   1.208   6.153   5.528
  953SOL    HW1 3758   1.152   6.231   5.558
  953SOL    HW2 3759   1.149   6.085   5.484
  954SOL     OW 3760   4.403   6.479   2.604
  954SOL    HW1 3761   4.433   6.384   2.618
  954SOL    HW2 3762   4.371   6.491   2.510
  955SOL     OW 3763   3.212   4.584   1.355
  955SOL    HW1 3764   3.262   4.502   1.384
  955SOL    HW2 3765   3.166   4.624   1.434
  956SOL     OW 3766   3.468   0.183   0.862
  956SOL    HW1 3767   3.543   0.190   0.927
  956SOL    HW2 3768   3.463   0.089   0.827
  957SOL     OW 3769   5.907   6.916   3.219
  957SOL    HW1 3770   5.860   6.976   3.284
  957SOL    HW2 3771   5.997   6.892   3.255
  958SOL     OW 3772   5.362   5.595   1.875
  958SOL    HW1 3773   5.425   5.522   1.846
  958SOL    HW2 3774   5.382   5.678   1.823
  959SOL     OW 3775   4.929   6.599   2.324
  959SOL    HW1 3776   4.959   6.568   2.414
  959SOL    HW2 3777   4.829   6.589   2.317
  960SOL     OW 3778   0.690   6.565   5.853
  960SOL    HW1 3779   0.628   6.519   5.916
  960SOL    HW2 3780   0.639   6.595   5.772
  961SOL     OW 3781   4.030   1.056   3.670
  961SOL    HW1 3782   4.021   0.961   3.639
  961SOL    HW2 3783   4.115   1.095   3.634
  962SOL     OW 3784   0.062   0.525   4.933
  962SOL    HW1 3785   6.994   0.541   4.899
  962SOL    HW2 3786   0.084   0.427   4.925
  963SOL     OW 3787   5.507   2.348   1.190
  963SOL    HW1 3788   5.544   2.441   1.190
  963SOL    HW2 3789   5.566   2.289   1.134
  964SOL     OW 3790   3.693   6.220   4.877
  964SOL    HW1 3791   3.768   6.215   4.944
  964SOL    HW2 3792   3.680   6.130   4.836
  965SOL     OW 3793   4.726   1.816   4.652
  965SOL    HW1 3794   4.814   1.863   4.660
  965SOL    HW2 3795   4.715   1.783   4.558
  966SOL     OW 3796   5.047   0.942   3.078
  966SOL    HW1 3797   5.006   1.010   3.139
  966SOL    HW2 3798   5.117   0.891   3.126
  967SOL     OW 3799   3.999   5.590   5.828
  967SOL    HW1 3800   4.029   5.655   5.899
  967SOL    HW2 3801   4.027   5.623   5.738
  968SOL     OW 3802   4.630   0.306   1.718
  968SOL    HW1 3803   4.585   0.259   1.642
  968SOL    HW2 3804   4.692   0.242   1.763
  969SOL     OW 3805   3.279   3.591   6.769
  969SOL    HW1 3806   3.199   3.650   6.780
  969SOL    HW2 3807   3.346   3.637   6.711
  970SOL     OW 3808   4.433   6.053   5.478
  970SOL    HW1 3809   4.461   6.148   5.465
  970SOL    HW2 3810   4.370   6.027   5.405
  971SOL     OW 3811   4.883   3.075   3.560
  971SOL    HW1 3812   4.891   3.168   3.525
  971SOL    HW2 3813   4.873   3.077   3.659
  972SOL     OW 3814   0.596   1.914   0.907
  972SOL    HW1 3815   0.651   1.855   0.848
  972SOL    HW2 3816   0.626   2.009   0.896
  973SOL     OW 3817   6.754   2.415   4.869
  973SOL    HW1 3818   6.847   2.434   4.838
  973SOL    HW2 3819   6.718   2.494   4.918
  974SOL     OW 3820   1.475   3.385   1.919
  974SOL    HW1 3821   1.468   3.453   1.846
  974SOL    HW2 3822   1.498   3.296   1.879
  975SOL     OW 3823   3.292   0.638   2.478
  975SOL    HW1 3824   3.230   0.623   2.555
  975SOL    HW2 3825   3.267   0.578   2.402
  976SOL     OW 3826   0.327   3.081   3.984
  976SOL    HW1 3827   0.270   3.053   4.061
  976SOL    HW2 3828   0.348   3.002   3.927
  977SOL     OW 3829   6.791   1.485   2.214
  977SOL    HW1 3830   6.694   1.508   2.226
  977SOL    HW2 3831   6.848   1.561   2.244
  978SOL     OW 3832   5.643   2.038   0.651
  978SOL    HW1 3833   5.586   2.044   0.569
  978SOL    HW2 3834   5.730   1.994   0.629
  979SOL     OW 3835   0.126   4.946   6.390
  979SOL    HW1 3836   0.152   5.027   6.338
  979SOL    HW2 3837   0.193   4.873   6.373
  980SOL     OW 3838   5.137   1.614   4.013
  980SOL    HW1 3839   5.119   1.604   3.915
  980SOL    HW2 3840   5.235   1.631   4.028
  981SOL     OW 3841   0.545   6.107   5.949
  981SOL    HW1 3842   0.449   6.088   5.927
  981SOL    HW2 3843   0.564   6.076   6.042
  982SOL     OW 3844   6.977   0.598   6.731
  982SOL    HW1 3845   6.957   0.684   6.777
  982SOL    HW2 3846   7.014   0.532   6.798
  983SOL     OW 3847   6.968   3.984   2.142
  983SOL    HW1 3848   6.874   3.966   2.111
  983SOL    HW2 3849   6.993   4.078   2.121
  984SOL     OW 3850   0.043   3.595   4.175
  984SOL    HW1 3851   0.041   3.629   4.269
  984SOL    HW2 3852   0.137   3.594   4.142
  985SOL     OW 3853   5.518   4.806   5.888
  985SOL    HW1 3854   5.511   4.820   5.987
  985SOL    HW2 3855   5.427   4.798   5.848
  986SOL     OW 3856   3.952   5.633   1.810
  986SOL    HW1 3857   3.857   5.622   1.840
  986SOL    HW2 3858   3.955   5.691   1.729
  987SOL     OW 3859   4.346   4.651   4.418
  987SOL    HW1 3860   4.357   4.645   4.517
  987SOL    HW2 3861   4.323   4.560   4.382
  988SOL     OW 3862   3.126   4.870   2.212
  988SOL    HW1 3863   3.220   4.837   2.209
  988SOL    HW2 3864   3.091   4.881   2.119
  989SOL     OW 3865   0.592   2.168   1.360
  989SOL    HW1 3866   0.566   2.238   1.293
  989SOL    HW2 3867   0.518   2.102   1.371
  990SOL     OW 3868   3.384   7.017   5.168
  990SOL    HW1 3869   3.416   6.929   5.132
  990SOL    HW2 3870   3.365   7.008   5.266
  991SOL     OW 3871   1.451   6.048   4.091
  991SOL    HW1 3872   1.360   6.010   4.073
  991SOL    HW2 3873   1.462   6.062   4.189
  992SOL     OW 3874   6.677   3.463   1.253
  992SOL    HW1 3875   6.658   3.483   1.349
  992SOL    HW2 3876   6.592   3.441   1.205
  993SOL     OW 3877   2.045   5.282   6.985
  993SOL    HW1 3878   2.058   5.252   0.055
  993SOL    HW2 3879   2.118   5.245   6.928
  994SOL     OW 3880   2.967   0.049   1.430
  994SOL    HW1 3881   2.951   7.016   1.349
  994SOL    HW2 3882   2.951   7.020   1.513
  995SOL     OW 3883   5.229   4.233   4.977
  995SOL    HW1 3884   5.277   4.251   4.891
  995SOL    HW2 3885   5.279   4.164   5.030
  996SOL     OW 3886   3.775   6.505   5.410
  996SOL    HW1 3887   3.773   6.563   5.329
  996SOL    HW2 3888   3.683   6.470   5.428
  997SOL     OW 3889   1.252   6.234   3.326
  997SOL    HW1 3890   1.193   6.193   3.395
  997SOL    HW2 3891   1.226   6.329   3.312
  998SOL     OW 3892   4.520   6.999   6.987
  998SOL    HW1 3893   4.564   6.910   7.001
  998SOL    HW2 3894   4.432   7.001   0.011
  999SOL     OW 3895   5.943   3.295   2.102
  999SOL    HW1 3896   5.953   3.207   2.148
  999SOL    HW2 3897   5.892   3.282   2.017
 1000SOL     OW 3898   5.959   1.513   1.872
 1000SOL    HW1 3899   6.034   1.570   1.840
 1000SOL    HW2 3900   5.993   1.446   1.939
 1001SOL     OW 3901   2.530   6.819   3.296
 1001SOL    HW1 3902   2.471   6.768   3.358
 1001SOL    HW2 3903   2.482   6.834   3.210
 1002SOL     OW 3904   4.400   2.343   0.232
 1002SOL    HW1 3905   4.314   2.371   0.189
 1002SOL    HW2 3906   4.400   2.244   0.246
 1003SOL     OW 3907   1.246   1.595   3.913
 1003SOL    HW1 3908   1.206   1.585   4.004
 1003SOL    HW2 3909   1.220   1.684   3.875
 1004SOL     OW 3910   4.480   1.530   4.686
 1004SOL    HW1 3911   4.417   1.455   4.669
 1004SOL    HW2 3912   4.531   1.513   4.770
 1005SOL     OW 3913   0.756   5.875   1.831
 1005SOL    HW1 3914   0.810   5.791   1.823
 1005SOL    HW2 3915   0.660   5.855   1.812
 1006SOL     OW 3916   1.756   4.159   1.521
 1006SOL    HW1 3917   1.776   4.229   1.590
 1006SOL    HW2 3918   1.732   4.073   1.566
 1007SOL     OW 3919   4.790   0.972   6.348
 1007SOL    HW1 3920   4.830   1.064   6.342
 1007SOL    HW2 3921   4.755   0.958   6.440
 1008SOL     OW 3922   0.204   4.485   4.504
 1008SOL    HW1 3923   0.128   4.486   4.569
 1008SOL    HW2 3924   0.192   4.557   4.436
 1009SOL     OW 3925   6.488   5.966   6.374
 1009SOL    HW1 3926   6.520   6.045   6.427
 1009SOL    HW2 3927   6.390   5.974   6.359
 1010SOL     OW 3928   3.317   4.139   0.016
 1010SOL    HW1 3929   3.266   4.101   0.093
 1010SOL    HW2 3930   3.406   4.172   0.048
 1011SOL     OW 3931   6.793   5.509   2.581
 1011SOL    HW1 3932   6.726   5.565   2.532
 1011SOL    HW2 3933   6.858   5.471   2.515
 1012SOL     OW 3934   5.013   6.186   3.372
 1012SOL    HW1 3935   5.074   6.264   3.356
 1012SOL    HW2 3936   4.919   6.212   3.347
 1013SOL     OW 3937   0.659   1.204   6.394
 1013SOL    HW1 3938   0.611   1.259   6.462
 1013SOL    HW2 3939   0.681   1.114   6.433
 1014SOL     OW 3940   0.659   4.691   4.221
 1014SOL    HW1 3941   0.619   4.601   4.236
 1014SOL    HW2 3942   0.757   4.687   4.240
 1015SOL     OW 3943   3.063   6.043   6.879
 1015SOL    HW1 3944   2.989   6.110   6.878
 1015SOL    HW2 3945   3.025   5.951   6.892
 1016SOL     OW 3946   6.911   4.814   0.500
 1016SOL    HW1 3947   6.975   4.839   0.572
 1016SOL    HW2 3948   6.937   4.859   0.415
 1017SOL     OW 3949   1.566   0.360   2.069
 1017SOL    HW1 3950   1.537   0.407   1.986
 1017SOL    HW2 3951   1.645   0.406   2.109
 1018SOL     OW 3952   5.787   5.921   5.876
 1018SOL    HW1 3953   5.821   5.827   5.871
 1018SOL    HW2 3954   5.754   5.949   5.786
 1019SOL     OW 3955   6.501   3.444   1.752
 1019SOL    HW1 3956   6.460   3.523   1.798
 1019SOL    HW2 3957   6.444   3.363   1.766
 1020SOL     OW 3958   5.449   1.311   1.274
 1020SOL    HW1 3959   5.476   1.260   1.193
 1020SOL    HW2 3960   5.416   1.247   1.344
 1021SOL     OW 3961   1.352   6.793   0.464
 1021SOL    HW1 3962   1.336   6.760   0.558
 1021SOL    HW2 3963   1.441   6.762   0.433
 1022SOL     OW 3964   1.899   5.021   6.236
 1022SOL    HW1 3965   1.945   5.009   6.324
 1022SOL    HW2 3966   1.806   5.055   6.251
 1023SOL     OW 3967   0.880   2.106   2.276
 1023SOL    HW1 3968   0.956   2.087   2.213
 1023SOL    HW2 3969   0.863   2.026   2.333
 1024SOL     OW 3970   1.624   2.845   4.627
 1024SOL    HW1 3971   1.631   2.866   4.724
 1024SOL    HW2 3972   1.541   2.887   4.589
 1025SOL     OW 3973   4.572   4.389   0.748
 1025SOL    HW1 3974   4.504   4.425   0.684
 1025SOL    HW2 3975   4.621   4.465   0.791
 1026SOL     OW 3976   3.199   2.681   1.338
 1026SOL    HW1 3977   3.201   2.581   1.348
 1026SOL    HW2 3978   3.245   2.723   1.416
 1027SOL     OW 3979   6.275   0.424   0.344
 1027SOL    HW1 3980   6.307   0.342   0.297
 1027SOL    HW2 3981   6.177   0.415   0.363
 1028SOL     OW 3982   0.792   5.330   3.358
 1028SOL    HW1 3983   0.736   5.361   3.282
 1028SOL    HW2 3984   0.884   5.368   3.349
 1029SOL     OW 3985   1.101   0.418   5.197
 1029SOL    HW1 3986   1.158   0.338   5.178
 1029SOL    HW2 3987   1.020   0.415   5.139
 1030SOL     OW 3988   4.149   3.753   1.129
 1030SOL    HW1 3989   4.092   3.708   1.198
 1030SOL    HW2 3990   4.208   3.820   1.173
 1031SOL     OW 3991   4.195   2.737   0.240
 1031SOL    HW1 3992   4.155   2.803   0.177
 1031SOL    HW2 3993   4.295   2.742   0.235
 1032SOL     OW 3994   1.222   1.142   1.329
 1032SOL    HW1 3995   1.122   1.145   1.328
 1032SOL    HW2 3996   1.254   1.075   1.262
 1033SOL     OW 3997   6.168   0.097   1.659
 1033SOL    HW1 3998   6.199   0.172   1.601
 1033SOL    HW2 3999   6.247   0.049   1.698
 1034SOL     OW 4000   2.312   0.519   5.287
 1034SOL    HW1 4001   2.214   0.534   5.299
 1034SOL    HW2 4002   2.350   0.589   5.226
 1035SOL     OW 4003   1.663   0.167   7.007
 1035SOL    HW1 4004   1.592   0.119   0.034
 1035SOL    HW2 4005   1.633   0.179   6.912
 1036SOL     OW 4006   5.461   1.363   2.653
 1036SOL    HW1 4007   5.419   1.300   2.588
 1036SOL    HW2 4008   5.554   1.333   2.674
 1037SOL     OW 4009   0.998   4.169   2.663
 1037SOL    HW1 4010   1.013   4.167   2.564
 1037SOL    HW2 4011   0.954   4.084   2.691
 1038SOL     OW 4012   1.579   6.576   6.523
 1038SOL    HW1 4013   1.500   6.518   6.541
 1038SOL    HW2 4014   1.600   6.629   6.605
 1039SOL     OW 4015   3.098   3.921   2.898
 1039SOL    HW1 4016   3.148   4.002   2.928
 1039SOL    HW2 4017   3.079   3.862   2.976
 1040SOL     OW 4018   3.752   1.493   2.822
 1040SOL    HW1 4019   3.778   1.490   2.726
 1040SOL    HW2 4020   3.834   1.484   2.879
 1041SOL     OW 4021   6.848   6.961   6.741
 1041SOL    HW1 4022   6.778   6.946   6.811
 1041SOL    HW2 4023   6.934   6.919   6.770
 1042SOL     OW 4024   5.697   3.327   3.801
 1042SOL    HW1 4025   5.632   3.353   3.729
 1042SOL    HW2 4026   5.786   3.307   3.760
 1043SOL     OW 4027   2.203   2.337   3.531
 1043SOL    HW1 4028   2.210   2.291   3.619
 1043SOL    HW2 4029   2.115   2.384   3.524
 1044SOL     OW 4030   5.141   4.447   2.296
 1044SOL    HW1 4031   5.153   4.404   2.385
 1044SOL    HW2 4032   5.228   4.481   2.263
 1045SOL     OW 4033   1.895   0.512   2.144
 1045SOL    HW1 4034   1.813   0.548   2.190
 1045SOL    HW2 4035   1.890   0.412   2.141
 1046SOL     OW 4036   3.844   2.537   0.813
 1046SOL    HW1 4037   3.804   2.585   0.891
 1046SOL    HW2 4038   3.833   2.593   0.731
 1047SOL     OW 4039   3.983   0.800   3.547
 1047SOL    HW1 4040   3.900   0.746   3.532
 1047SOL    HW2 4041   4.064   0.742   3.533
 1048SOL     OW 4042   6.884   0.073   2.316
 1048SOL    HW1 4043   6.876   7.002   2.289
 1048SOL    HW2 4044   6.900   0.078   2.415
 1049SOL     OW 4045   3.218   6.749   0.398
 1049SOL    HW1 4046   3.312   6.777   0.416
 1049SOL    HW2 4047   3.183   6.799   0.319
 1050SOL     OW 4048   2.283   1.669   4.459
 1050SOL    HW1 4049   2.208   1.699   4.401
 1050SOL    HW2 4050   2.370   1.686   4.412
 1051SOL     OW 4051   1.935   2.092   5.481
 1051SOL    HW1 4052   1.843   2.107   5.444
 1051SOL    HW2 4053   1.930   2.083   5.580
 1052SOL     OW 4054   5.012   2.592   6.355
 1052SOL    HW1 4055   5.043   2.497   6.359
 1052SOL    HW2 4056   4.915   2.595   6.330
 1053SOL     OW 4057   4.587   2.680   4.536
 1053SOL    HW1 4058   4.545   2.590   4.543
 1053SOL    HW2 4059   4.593   2.706   4.439
 1054SOL     OW 4060   5.087   5.469   6.518
 1054SOL    HW1 4061   5.080   5.411   6.437
 1054SOL    HW2 4062   5.070   5.415   6.600
 1055SOL     OW 4063   5.443   5.569   5.943
 1055SOL    HW1 4064   5.352   5.579   5.982
 1055SOL    HW2 4065   5.507   5.539   6.014
 1056SOL     OW 4066   3.721   3.557   6.923
 1056SOL    HW1 4067   3.806   3.590   6.881
 1056SOL    HW2 4068   3.709   3.599   7.013
 1057SOL     OW 4069   2.947   3.677   6.714
 1057SOL    HW1 4070   2.848   3.683   6.727
 1057SOL    HW2 4071   2.971   3.584   6.685
 1058SOL     OW 4072   2.677   1.993   1.663
 1058SOL    HW1 4073   2.712   2.024   1.575
 1058SOL    HW2 4074   2.709   2.055   1.735
 1059SOL     OW 4075   2.568   6.051   2.796
 1059SOL    HW1 4076   2.574   6.092   2.706
 1059SOL    HW2 4077   2.628   6.100   2.860
 1060SOL     OW 4078   6.404   6.972   5.011
 1060SOL    HW1 4079   6.436   0.043   5.011
 1060SOL    HW2 4080   6.392   6.941   5.105
 1061SOL     OW 4081   0.218   3.833   6.394
 1061SOL    HW1 4082   0.298   3.774   6.382
 1061SOL    HW2 4083   0.167   3.804   6.475
 1062SOL     OW 4084   4.098   4.781   5.735
 1062SOL    HW1 4085   4.159   4.844   5.687
 1062SOL    HW2 4086   4.141   4.691   5.740
 1063SOL     OW 4087   2.755   6.719   3.916
 1063SOL    HW1 4088   2.793   6.642   3.865
 1063SOL    HW2 4089   2.659   6.732   3.891
 1064SOL     OW 4090   1.089   4.354   0.521
 1064SOL    HW1 4091   1.116   4.416   0.595
 1064SOL    HW2 4092   1.149   4.275   0.521
 1065SOL     OW 4093   6.081   0.916   5.662
 1065SOL    HW1 4094   6.045   0.930   5.570
 1065SOL    HW2 4095   6.159   0.976   5.677
 1066SOL     OW 4096   4.699   5.892   1.122
 1066SOL    HW1 4097   4.633   5.951   1.167
 1066SOL    HW2 4098   4.677   5.884   1.025
 1067SOL     OW 4099   3.774   1.466   0.444
 1067SOL    HW1 4100   3.821   1.415   0.516
 1067SOL    HW2 4101   3.743   1.403   0.373
 1068SOL     OW 4102   5.986   2.715   2.420
 1068SOL    HW1 4103   5.971   2.813   2.409
 1068SOL    HW2 4104   6.084   2.696   2.425
 1069SOL     OW 4105   0.315   1.738   2.751
 1069SOL    HW1 4106   0.350   1.765   2.841
 1069SOL    HW2 4107   0.378   1.769   2.680
 1070SOL     OW 4108   1.222   0.272   2.319
 1070SOL    HW1 4109   1.186   0.280   2.226
 1070SOL    HW2 4110   1.233   0.175   2.342
 1071SOL     OW 4111   0.719   2.985   5.596
 1071SOL    HW1 4112   0.806   2.981   5.548
 1071SOL    HW2 4113   0.644   2.985   5.530
 1072SOL     OW 4114   2.039   1.548   1.825
 1072SOL    HW1 4115   2.016   1.638   1.787
 1072SOL    HW2 4116   2.114   1.558   1.890
 1073SOL     OW 4117   4.950   1.801   2.563
 1073SOL    HW1 4118   4.903   1.870   2.618
 1073SOL    HW2 4119   4.896   1.783   2.480
 1074SOL     OW 4120   3.477   6.103   1.720
 1074SOL    HW1 4121   3.482   6.040   1.798
 1074SOL    HW2 4122   3.565   6.103   1.672
 1075SOL     OW 4123   6.920   3.602   4.838
 1075SOL    HW1 4124   6.897   3.538   4.912
 1075SOL    HW2 4125   6.851   3.674   4.834
 1076SOL     OW 4126   2.421   4.255   5.684
 1076SOL    HW1 4127   2.455   4.349   5.692
 1076SOL    HW2 4128   2.496   4.195   5.657
 1077SOL     OW 4129   6.663   6.776   0.650
 1077SOL    HW1 4130   6.635   6.681   0.633
 1077SOL    HW2 4131   6.740   6.799   0.591
 1078SOL     OW 4132   5.866   6.991   4.201
 1078SOL    HW1 4133   5.956   6.949   4.214
 1078SOL    HW2 4134   5.816   6.941   4.131
 1079SOL     OW 4135   1.032   5.594   1.349
 1079SOL    HW1 4136   0.981   5.679   1.353
 1079SOL    HW2 4137   1.123   5.611   1.311
 1080SOL     OW 4138   4.900   6.074   0.385
 1080SOL    HW1 4139   4.986   6.028   0.364
 1080SOL    HW2 4140   4.833   6.007   0.419
 1081SOL     OW 4141   6.796   6.843   3.309
 1081SOL    HW1 4142   6.754   6.863   3.220
 1081SOL    HW2 4143   6.781   6.920   3.371
 1082SOL     OW 4144   4.613   6.755   0.072
 1082SOL    HW1 4145   4.535   6.695   0.087
 1082SOL    HW2 4146   4.687   6.731   0.135
 1083SOL     OW 4147   6.400   3.772   2.610
 1083SOL    HW1 4148   6.442   3.700   2.554
 1083SOL    HW2 4149   6.470   3.838   2.636
 1084SOL     OW 4150   3.895   0.371   5.360
 1084SOL    HW1 4151   3.828   0.405   5.426
 1084SOL    HW2 4152   3.848   0.319   5.289
 1085SOL     OW 4153   1.685   3.428   4.674
 1085SOL    HW1 4154   1.738   3.496   4.724
 1085SOL    HW2 4155   1.592   3.425   4.711
 1086SOL     OW 4156   5.115   4.094   2.419
 1086SOL    HW1 4157   5.062   4.030   2.475
 1086SOL    HW2 4158   5.157   4.163   2.479
 1087SOL     OW 4159   3.561   0.361   5.842
 1087SOL    HW1 4160   3.605   0.427   5.781
 1087SOL    HW2 4161   3.541   0.405   5.929
 1088SOL     OW 4162   6.345   5.783   4.300
 1088SOL    HW1 4163   6.314   5.864   4.350
 1088SOL    HW2 4164   6.410   5.810   4.229
 1089SOL     OW 4165   5.835   5.157   4.272
 1089SOL    HW1 4166   5.916   5.117   4.230
 1089SOL    HW2 4167   5.784   5.209   4.204
 1090SOL     OW 4168   6.067   2.738   5.140
 1090SOL    HW1 4169   6.002   2.763   5.212
 1090SOL    HW2 4170   6.075   2.638   5.136
 1091SOL     OW 4171   1.680   3.380   3.626
 1091SOL    HW1 4172   1.585   3.409   3.628
 1091SOL    HW2 4173   1.713   3.377   3.532
 1092SOL     OW 4174   1.152   5.954   6.969
 1092SOL    HW1 4175   1.160   6.051   6.948
 1092SOL    HW2 4176   1.061   5.936   7.009
 1093SOL     OW 4177   1.750   0.518   2.849
 1093SOL    HW1 4178   1.839   0.562   2.853
 1093SOL    HW2 4179   1.719   0.497   2.942
 1094SOL     OW 4180   0.295   6.847   3.464
 1094SOL    HW1 4181   0.342   6.885   3.543
 1094SOL    HW2 4182   0.224   6.784   3.494
 1095SOL     OW 4183   6.277   4.591   0.965
 1095SOL    HW1 4184   6.219   4.600   1.045
 1095SOL    HW2 4185   6.258   4.665   0.901
 1096SOL     OW 4186   2.347   6.350   2.551
 1096SOL    HW1 4187   2.331   6.413   2.628
 1096SOL    HW2 4188   2.335   6.256   2.583
 1097SOL     OW 4189   3.221   5.532   4.530
 1097SOL    HW1 4190   3.320   5.541   4.517
 1097SOL    HW2 4191   3.176   5.527   4.441
 1098SOL     OW 4192   6.820   4.214   0.129
 1098SOL    HW1 4193   6.773   4.261   0.204
 1098SOL    HW2 4194   6.756   4.156   0.080
 1099SOL     OW 4195   5.431   0.133   0.013
 1099SOL    HW1 4196   5.379   0.196   0.070
 1099SOL    HW2 4197   5.504   0.183   6.990
 1100SOL     OW 4198   4.822   1.174   4.366
 1100SOL    HW1 4199   4.790   1.261   4.405
 1100SOL    HW2 4200   4.745   1.128   4.321
 1101SOL     OW 4201   4.559   2.673   6.935
 1101SOL    HW1 4202   4.564   2.708   6.841
 1101SOL    HW2 4203   4.563   2.749   6.999
 1102SOL     OW 4204   3.357   1.081   4.627
 1102SOL    HW1 4205   3.318   1.048   4.713
 1102SOL    HW2 4206   3.447   1.041   4.613
 1103SOL     OW 4207   3.398   6.481   0.694
 1103SOL    HW1 4208   3.315   6.489   0.749
 1103SOL    HW2 4209   3.401   6.555   0.626
 1104SOL     OW 4210   6.363   1.176   3.299
 1104SOL    HW1 4211   6.345   1.271   3.276
 1104SOL    HW2 4212   6.309   1.150   3.379
 1105SOL     OW 4213   4.840   0.319   5.540
 1105SOL    HW1 4214   4.838   0.312   5.640
 1105SOL    HW2 4215   4.749   0.300   5.503
 1106SOL     OW 4216   6.031   1.307   2.035
 1106SOL    HW1 4217   6.026   1.267   2.127
 1106SOL    HW2 4218   6.076   1.244   1.973
 1107SOL     OW 4219   1.227   2.355   6.725
 1107SOL    HW1 4220   1.189   2.367   6.817
 1107SOL    HW2 4221   1.156   2.316   6.666
 1108SOL     OW 4222   2.302   1.371   2.676
 1108SOL    HW1 4223   2.272   1.355   2.770
 1108SOL    HW2 4224   2.356   1.455   2.672
 1109SOL     OW 4225   4.970   1.961   5.194
 1109SOL    HW1 4226   5.046   1.951   5.258
 1109SOL    HW2 4227   4.913   1.879   5.198
 1110SOL     OW 4228   1.400   0.476   2.402
 1110SOL    HW1 4229   1.347   0.393   2.384
 1110SOL    HW2 4230   1.424   0.478   2.499
 1111SOL     OW 4231   5.148   3.352   5.843
 1111SOL    HW1 4232   5.220   3.422   5.838
 1111SOL    HW2 4233   5.074   3.377   5.781
 1112SOL     OW 4234   5.788   0.641   2.767
 1112SOL    HW1 4235   5.696   0.672   2.791
 1112SOL    HW2 4236   5.847   0.647   2.847
 1113SOL     OW 4237   0.385   1.366   2.540
 1113SOL    HW1 4238   0.308   1.429   2.552
 1113SOL    HW2 4239   0.424   1.344   2.630
 1114SOL     OW 4240   3.345   2.963   4.548
 1114SOL    HW1 4241   3.353   3.051   4.500
 1114SOL    HW2 4242   3.375   2.889   4.488
 1115SOL     OW 4243   2.071   5.269   6.140
 1115SOL    HW1 4244   2.167   5.246   6.127
 1115SOL    HW2 4245   2.027   5.199   6.196
 1116SOL     OW 4246   4.624   6.928   0.462
 1116SOL    HW1 4247   4.609   6.953   0.557
 1116SOL    HW2 4248   4.701   6.980   0.425
 1117SOL     OW 4249   2.152   2.661   1.495
 1117SOL    HW1 4250   2.180   2.585   1.436
 1117SOL    HW2 4251   2.209   2.662   1.577
 1118SOL     OW 4252   4.464   6.431   0.080
 1118SOL    HW1 4253   4.485   6.414   0.176
 1118SOL    HW2 4254   4.534   6.389   0.022
 1119SOL     OW 4255   2.895   6.037   4.260
 1119SOL    HW1 4256   2.937   6.066   4.346
 1119SOL    HW2 4257   2.845   5.951   4.274
 1120SOL     OW 4258   0.715   3.229   1.712
 1120SOL    HW1 4259   0.719   3.233   1.612
 1120SOL    HW2 4260   0.698   3.320   1.749
 1121SOL     OW 4261   5.544   4.125   5.903
 1121SOL    HW1 4262   5.573   4.108   5.809
 1121SOL    HW2 4263   5.624   4.129   5.962
 1122SOL     OW 4264   5.795   0.542   2.304
 1122SOL    HW1 4265   5.760   0.522   2.395
 1122SOL    HW2 4266   5.747   0.622   2.267
 1123SOL     OW 4267   3.367   1.682   4.628
 1123SOL    HW1 4268   3.370   1.602   4.687
 1123SOL    HW2 4269   3.285   1.736   4.650
 1124SOL     OW 4270   2.588   2.554   3.166
 1124SOL    HW1 4271   2.547   2.631   3.215
 1124SOL    HW2 4272   2.524   2.521   3.097
 1125SOL     OW 4273   0.992   3.251   4.395
 1125SOL    HW1 4274   0.920   3.219   4.457
 1125SOL    HW2 4275   0.973   3.220   4.302
 1126SOL     OW 4276   4.386   4.573   3.710
 1126SOL    HW1 4277   4.326   4.608   3.783
 1126SOL    HW2 4278   4.443   4.647   3.676
 1127SOL     OW 4279   5.965   6.673   1.171
 1127SOL    HW1 4280   5.946   6.576   1.156
 1127SOL    HW2 4281   5.902   6.729   1.117
 1128SOL     OW 4282   3.327   1.986   4.867
 1128SOL    HW1 4283   3.296   2.048   4.795
 1128SOL    HW2 4284   3.424   2.000   4.884
 1129SOL     OW 4285   1.333   1.082   0.140
 1129SOL    HW1 4286   1.349   1.177   0.167
 1129SOL    HW2 4287   1.409   1.051   0.082
 1130SOL     OW 4288   2.202   5.655   1.169
 1130SOL    HW1 4289   2.233   5.574   1.119
 1130SOL    HW2 4290   2.102   5.656   1.172
 1131SOL     OW 4291   1.514   5.527   3.697
 1131SOL    HW1 4292   1.495   5.575   3.611
 1131SOL    HW2 4293   1.433   5.476   3.725
 1132SOL     OW 4294   1.271   2.049   3.205
 1132SOL    HW1 4295   1.357   2.002   3.184
 1132SOL    HW2 4296   1.237   2.093   3.122
 1133SOL     OW 4297   1.499   6.259   6.812
 1133SOL    HW1 4298   1.587   6.292   6.846
 1133SOL    HW2 4299   1.503   6.160   6.798
 1134SOL     OW 4300   3.895   5.934   0.746
 1134SOL    HW1 4301   3.963   5.881   0.695
 1134SOL    HW2 4302   3.879   5.891   0.835
 1135SOL     OW 4303   1.774   6.782   3.148
 1135SOL    HW1 4304   1.778   6.700   3.206
 1135SOL    HW2 4305   1.681   6.792   3.113
 1136SOL     OW 4306   1.489   4.769   2.929
 1136SOL    HW1 4307   1.440   4.686   2.904
 1136SOL    HW2 4308   1.587   4.749   2.940
 1137SOL     OW 4309   1.115   5.540   4.185
 1137SOL    HW1 4310   1.203   5.492   4.185
 1137SOL    HW2 4311   1.063   5.512   4.265
 1138SOL     OW 4312   2.314   4.433   4.109
 1138SOL    HW1 4313   2.367   4.507   4.069
 1138SOL    HW2 4314   2.342   4.419   4.203
 1139SOL     OW 4315   3.492   5.470   4.881
 1139SOL    HW1 4316   3.581   5.438   4.914
 1139SOL    HW2 4317   3.431   5.391   4.870
 1140SOL     OW 4318   2.233   2.996   1.029
 1140SOL    HW1 4319   2.174   3.076   1.040
 1140SOL    HW2 4320   2.226   2.937   1.109
 1141SOL     OW 4321   6.058   4.740   5.652
 1141SOL    HW1 4322   5.988   4.780   5.592
 1141SOL    HW2 4323   6.013   4.700   5.732
 1142SOL     OW 4324   0.463   5.710   2.699
 1142SOL    HW1 4325   0.524   5.752   2.631
 1142SOL    HW2 4326   0.377   5.685   2.655
 1143SOL     OW 4327   6.935   4.621   1.786
 1143SOL    HW1 4328   7.007   4.558   1.758
 1143SOL    HW2 4329   6.873   4.575   1.849
 1144SOL     OW 4330   5.173   4.879   6.813
 1144SOL    HW1 4331   5.210   4.921   6.731
 1144SOL    HW2 4332   5.248   4.847   6.871
 1145SOL     OW 4333   5.799   7.001   1.227
 1145SOL    HW1 4334   5.854   0.014   1.303
 1145SOL    HW2 4335   5.813   0.034   1.146
 1146SOL     OW 4336   1.734   0.355   1.318
 1146SOL    HW1 4337   1.748   0.433   1.257
 1146SOL    HW2 4338   1.822   0.314   1.340
 1147SOL     OW 4339   1.230   6.275   0.433
 1147SOL    HW1 4340   1.217   6.206   0.504
 1147SOL    HW2 4341   1.276   6.233   0.354
 1148SOL     OW 4342   3.650   5.827   2.044
 1148SOL    HW1 4343   3.580   5.845   1.975
 1148SOL    HW2 4344   3.729   5.887   2.029
 1149SOL     OW 4345   5.732   1.784   1.487
 1149SOL    HW1 4346   5.724   1.882   1.470
 1149SOL    HW2 4347   5.828   1.756   1.481
 1150SOL     OW 4348   1.489   1.849   0.921
 1150SOL    HW1 4349   1.489   1.791   1.003
 1150SOL    HW2 4350   1.395   1.879   0.902
 1151SOL     OW 4351   5.783   5.617   4.541
 1151SOL    HW1 4352   5.878   5.627   4.571
 1151SOL    HW2 4353   5.747   5.706   4.514
 1152SOL     OW 4354   3.006   6.236   5.753
 1152SOL    HW1 4355   3.045   6.223   5.844
 1152SOL    HW2 4356   3.079   6.266   5.691
 1153SOL     OW 4357   5.599   6.847   1.135
 1153SOL    HW1 4358   5.511   6.894   1.143
 1153SOL    HW2 4359   5.671   6.905   1.170
 1154SOL     OW 4360   1.767   2.976   1.100
 1154SOL    HW1 4361   1.776   2.884   1.063
 1154SOL    HW2 4362   1.804   2.979   1.193
 1155SOL     OW 4363   3.694   5.642   4.151
 1155SOL    HW1 4364   3.776   5.665   4.204
 1155SOL    HW2 4365   3.671   5.719   4.091
 1156SOL     OW 4366   2.773   0.787   1.143
 1156SOL    HW1 4367   2.719   0.849   1.086
 1156SOL    HW2 4368   2.714   0.713   1.177
 1157SOL     OW 4369   1.961   2.008   0.682
 1157SOL    HW1 4370   1.943   2.100   0.717
 1157SOL    HW2 4371   1.886   1.948   0.708
 1158SOL     OW 4372   5.726   4.274   4.339
 1158SOL    HW1 4373   5.746   4.369   4.312
 1158SOL    HW2 4374   5.808   4.218   4.327
 1159SOL     OW 4375   5.372   4.649   0.751
 1159SOL    HW1 4376   5.347   4.613   0.841
 1159SOL    HW2 4377   5.306   4.616   0.683
 1160SOL     OW 4378   4.251   1.984   1.194
 1160SOL    HW1 4379   4.231   2.033   1.279
 1160SOL    HW2 4380   4.187   1.908   1.183
 1161SOL     OW 4381   0.518   4.815   0.758
 1161SOL    HW1 4382   0.425   4.800   0.726
 1161SOL    HW2 4383   0.523   4.903   0.805
 1162SOL     OW 4384   2.047   2.872   4.690
 1162SOL    HW1 4385   2.131   2.893   4.741
 1162SOL    HW2 4386   2.008   2.957   4.654
 1163SOL     OW 4387   4.893   1.539   1.977
 1163SOL    HW1 4388   4.950   1.568   1.900
 1163SOL    HW2 4389   4.800   1.576   1.966
 1164SOL     OW 4390   4.110   2.052   5.783
 1164SOL    HW1 4391   4.051   2.011   5.852
 1164SOL    HW2 4392   4.169   1.980   5.743
 1165SOL     OW 4393   4.033   0.326   2.747
 1165SOL    HW1 4394   3.969   0.384   2.797
 1165SOL    HW2 4395   4.127   0.357   2.764
 1166SOL     OW 4396   3.668   3.834   6.636
 1166SOL    HW1 4397   3.684   3.915   6.693
 1166SOL    HW2 4398   3.754   3.806   6.594
 1167SOL     OW 4399   5.497   3.844   3.468
 1167SOL    HW1 4400   5.462   3.928   3.508
 1167SOL    HW2 4401   5.424   3.796   3.420
 1168SOL     OW 4402   0.524   0.033   0.793
 1168SOL    HW1 4403   0.538   0.128   0.763
 1168SOL    HW2 4404   0.571   6.995   0.731
 1169SOL     OW 4405   5.125   2.368   5.347
 1169SOL    HW1 4406   5.180   2.308   5.404
 1169SOL    HW2 4407   5.063   2.312   5.291
 1170SOL     OW 4408   5.085   4.513   3.008
 1170SOL    HW1 4409   5.053   4.497   2.915
 1170SOL    HW2 4410   5.012   4.487   3.073
 1171SOL     OW 4411   0.186   6.171   0.581
 1171SOL    HW1 4412   0.268   6.216   0.544
 1171SOL    HW2 4413   0.131   6.136   0.506
 1172SOL     OW 4414   5.888   3.306   6.802
 1172SOL    HW1 4415   5.928   3.372   6.866
 1172SOL    HW2 4416   5.938   3.220   6.807
 1173SOL     OW 4417   4.573   2.630   1.468
 1173SOL    HW1 4418   4.564   2.718   1.514
 1173SOL    HW2 4419   4.641   2.574   1.515
 1174SOL     OW 4420   2.597   5.250   0.474
 1174SOL    HW1 4421   2.519   5.293   0.428
 1174SOL    HW2 4422   2.622   5.166   0.426
 1175SOL     OW 4423   3.355   4.063   3.921
 1175SOL    HW1 4424   3.424   4.105   3.979
 1175SOL    HW2 4425   3.264   4.085   3.956
 1176SOL     OW 4426   5.295   3.444   0.409
 1176SOL    HW1 4427   5.287   3.543   0.394
 1176SOL    HW2 4428   5.276   3.396   0.324
 1177SOL     OW 4429   1.031   1.068   4.562
 1177SOL    HW1 4430   1.099   1.010   4.518
 1177SOL    HW2 4431   0.960   1.010   4.603
 1178SOL     OW 4432   4.251   6.513   6.960
 1178SOL    HW1 4433   4.180   6.505   0.005
 1178SOL    HW2 4434   4.337   6.477   6.997
 1179SOL     OW 4435   0.364   5.743   0.623
 1179SOL    HW1 4436   0.405   5.801   0.552
 1179SOL    HW2 4437   0.331   5.658   0.582
 1180SOL     OW 4438   3.648   6.507   0.340
 1180SOL    HW1 4439   3.642   6.436   0.270
 1180SOL    HW2 4440   3.678   6.466   0.426
 1181SOL     OW 4441   6.147   6.393   6.344
 1181SOL    HW1 4442   6.099   6.321   6.394
 1181SOL    HW2 4443   6.119   6.391   6.248
 1182SOL     OW 4444   4.988   3.764   4.347
 1182SOL    HW1 4445   4.981   3.687   4.411
 1182SOL    HW2 4446   5.080   3.766   4.307
 1183SOL     OW 4447   2.023   4.334   0.364
 1183SOL    HW1 4448   1.981   4.404   0.422
 1183SOL    HW2 4449   2.095   4.287   0.416
 1184SOL     OW 4450   0.390   1.379   5.312
 1184SOL    HW1 4451   0.477   1.331   5.323
 1184SOL    HW2 4452   0.329   1.355   5.387
 1185SOL     OW 4453   6.603   1.935   6.449
 1185SOL    HW1 4454   6.504   1.943   6.456
 1185SOL    HW2 4455   6.629   1.916   6.354
 1186SOL     OW 4456   4.917   6.504   4.335
 1186SOL    HW1 4457   4.921   6.555   4.421
 1186SOL    HW2 4458   4.975   6.423   4.341
 1187SOL     OW 4459   6.064   2.099   6.824
 1187SOL    HW1 4460   6.150   2.052   6.806
 1187SOL    HW2 4461   6.071   2.151   6.909
 1188SOL     OW 4462   4.375   1.917   6.620
 1188SOL    HW1 4463   4.356   1.881   6.529
 1188SOL    HW2 4464   4.294   1.965   6.655
 1189SOL     OW 4465   6.223   3.849   3.779
 1189SOL    HW1 4466   6.186   3.828   3.869
 1189SOL    HW2 4467   6.323   3.843   3.782
 1190SOL     OW 4468   2.691   0.659   3.618
 1190SOL    HW1 4469   2.663   0.612   3.701
 1190SOL    HW2 4470   2.781   0.701   3.632
 1191SOL     OW 4471   3.306   0.050   2.966
 1191SOL    HW1 4472   3.260   6.990   2.939
 1191SOL    HW2 4473   3.404   0.033   2.976
 1192SOL     OW 4474   5.677   5.716   3.891
 1192SOL    HW1 4475   5.671   5.815   3.878
 1192SOL    HW2 4476   5.653   5.669   3.806
 1193SOL     OW 4477   6.438   6.360   4.758
 1193SOL    HW1 4478   6.468   6.454   4.742
 1193SOL    HW2 4479   6.402   6.352   4.851
 1194SOL     OW 4480   3.674   0.477   1.179
 1194SOL    HW1 4481   3.749   0.459   1.244
 1194SOL    HW2 4482   3.691   0.427   1.095
 1195SOL     OW 4483   5.205   2.660   2.809
 1195SOL    HW1 4484   5.179   2.570   2.775
 1195SOL    HW2 4485   5.297   2.683   2.776
 1196SOL     OW 4486   0.317   6.628   5.285
 1196SOL    HW1 4487   0.390   6.561   5.300
 1196SOL    HW2 4488   0.358   6.717   5.266
 1197SOL     OW 4489   2.695   6.606   6.400
 1197SOL    HW1 4490   2.596   6.594   6.404
 1197SOL    HW2 4491   2.732   6.612   6.493
 1198SOL     OW 4492   1.600   2.620   0.246
 1198SOL    HW1 4493   1.543   2.702   0.252
 1198SOL    HW2 4494   1.584   2.575   0.159
 1199SOL     OW 4495   5.917   4.321   2.837
 1199SOL    HW1 4496   5.999   4.266   2.820
 1199SOL    HW2 4497   5.917   4.400   2.776
 1200SOL     OW 4498   3.204   4.121   2.516
 1200SOL    HW1 4499   3.125   4.182   2.505
 1200SOL    HW2 4500   3.178   4.029   2.488
 1201SOL     OW 4501   1.790   2.394   5.203
 1201SOL    HW1 4502   1.730   2.366   5.127
 1201SOL    HW2 4503   1.735   2.435   5.275
 1202SOL     OW 4504   0.923   6.322   5.004
 1202SOL    HW1 4505   0.978   6.381   4.945
 1202SOL    HW2 4506   0.980   6.249   5.041
 1203SOL     OW 4507   4.441   5.536   4.973
 1203SOL    HW1 4508   4.360   5.549   5.030
 1203SOL    HW2 4509   4.522   5.568   5.022
 1204SOL     OW 4510   2.068   0.222   2.459
 1204SOL    HW1 4511   2.018   0.137   2.444
 1204SOL    HW2 4512   2.128   0.213   2.538
 1205SOL     OW 4513   5.844   3.516   2.391
 1205SOL    HW1 4514   5.791   3.502   2.307
 1205SOL    HW2 4515   5.853   3.614   2.409
 1206SOL     OW 4516   2.974   3.412   4.482
 1206SOL    HW1 4517   3.021   3.498   4.501
 1206SOL    HW2 4518   3.034   3.335   4.506
 1207SOL     OW 4519   0.674   5.689   3.295
 1207SOL    HW1 4520   0.593   5.630   3.296
 1207SOL    HW2 4521   0.645   5.785   3.298
 1208SOL     OW 4522   3.417   2.822   6.848
 1208SOL    HW1 4523   3.493   2.761   6.828
 1208SOL    HW2 4524   3.431   2.909   6.801
 1209SOL     OW 4525   4.013   6.457   5.496
 1209SOL    HW1 4526   4.051   6.538   5.540
 1209SOL    HW2 4527   3.919   6.475   5.468
 1210SOL     OW 4528   3.046   1.224   2.617
 1210SOL    HW1 4529   3.013   1.317   2.601
 1210SOL    HW2 4530   3.040   1.202   2.715
 1211SOL     OW 4531   0.934   3.003   0.806
 1211SOL    HW1 4532   0.996   3.053   0.745
 1211SOL    HW2 4533   0.987   2.963   0.881
 1212SOL     OW 4534   0.758   6.878   0.593
 1212SOL    HW1 4535   0.752   6.780   0.611
 1212SOL    HW2 4536   0.702   6.901   0.514
 1213SOL     OW 4537   5.904   2.897   1.846
 1213SOL    HW1 4538   5.952   2.843   1.776
 1213SOL    HW2 4539   5.957   2.896   1.931
 1214SOL     OW 4540   0.276   2.444   2.166
 1214SOL    HW1 4541   0.338   2.485   2.234
 1214SOL    HW2 4542   0.192   2.499   2.160
 1215SOL     OW 4543   2.287   5.842   2.751
 1215SOL    HW1 4544   2.376   5.823   2.709
 1215SOL    HW2 4545   2.268   5.772   2.820
 1216SOL     OW 4546   4.461   6.972   1.689
 1216SOL    HW1 4547   4.481   0.033   1.641
 1216SOL    HW2 4548   4.543   6.942   1.738
 1217SOL     OW 4549   2.643   4.181   0.157
 1217SOL    HW1 4550   2.606   4.265   0.197
 1217SOL    HW2 4551   2.658   4.114   0.230
 1218SOL     OW 4552   2.663   5.072   4.072
 1218SOL    HW1 4553   2.602   5.036   4.001
 1218SOL    HW2 4554   2.637   5.033   4.161
 1219SOL     OW 4555   3.567   5.219   1.910
 1219SOL    HW1 4556   3.538   5.129   1.876
 1219SOL    HW2 4557   3.506   5.289   1.874
 1220SOL     OW 4558   0.705   4.775   2.087
 1220SOL    HW1 4559   0.611   4.744   2.101
 1220SOL    HW2 4560   0.768   4.708   2.128
 1221SOL     OW 4561   4.699   4.191   6.764
 1221SOL    HW1 4562   4.737   4.268   6.714
 1221SOL    HW2 4563   4.686   4.216   6.860
 1222SOL     OW 4564   6.855   1.291   6.617
 1222SOL    HW1 4565   6.940   1.342   6.627
 1222SOL    HW2 4566   6.875   1.193   6.623
 1223SOL     OW 4567   3.978   5.899   1.246
 1223SOL    HW1 4568   4.037   5.820   1.227
 1223SOL    HW2 4569   4.006   5.975   1.188
 1224SOL     OW 4570   3.109   1.310   1.272
 1224SOL    HW1 4571   3.138   1.398   1.310
 1224SOL    HW2 4572   3.030   1.276   1.322
 1225SOL     OW 4573   3.638   4.416   5.847
 1225SOL    HW1 4574   3.582   4.458   5.919
 1225SOL    HW2 4575   3.594   4.430   5.758
 1226SOL     OW 4576   2.090   5.321   0.539
 1226SOL    HW1 4577   2.150   5.384   0.589
 1226SOL    HW2 4578   2.013   5.295   0.598
 1227SOL     OW 4579   1.400   4.246   5.739
 1227SOL    HW1 4580   1.334   4.193   5.688
 1227SOL    HW2 4581   1.421   4.331   5.689
 1228SOL     OW 4582   3.847   2.366   0.024
 1228SOL    HW1 4583   3.881   2.460   0.014
 1228SOL    HW2 4584   3.917   2.310   0.068
 1229SOL     OW 4585   2.999   3.957   0.042
 1229SOL    HW1 4586   2.997   3.897   0.121
 1229SOL    HW2 4587   2.995   4.052   0.072
 1230SOL     OW 4588   4.425   0.085   3.584
 1230SOL    HW1 4589   4.358   0.158   3.596
 1230SOL    HW2 4590   4.474   0.070   3.670
 1231SOL     OW 4591   0.895   3.191   3.624
 1231SOL    HW1 4592   0.986   3.149   3.625
 1231SOL    HW2 4593   0.837   3.144   3.558
 1232SOL     OW 4594   1.614   2.199   2.361
 1232SOL    HW1 4595   1.695   2.242   2.401
 1232SOL    HW2 4596   1.567   2.264   2.301
 1233SOL     OW 4597   0.940   1.954   4.317
 1233SOL    HW1 4598   0.868   1.944   4.386
 1233SOL    HW2 4599   1.015   2.008   4.355
 1234SOL     OW 4600   6.637   4.608   4.637
 1234SOL    HW1 4601   6.556   4.665   4.651
 1234SOL    HW2 4602   6.651   4.595   4.539
 1235SOL     OW 4603   6.712   5.089   3.375
 1235SOL    HW1 4604   6.665   5.048   3.297
 1235SOL    HW2 4605   6.793   5.035   3.397
 1236SOL     OW 4606   5.698   0.530   6.865
 1236SOL    HW1 4607   5.665   0.621   6.892
 1236SOL    HW2 4608   5.722   0.531   6.768
 1237SOL     OW 4609   2.104   4.543   6.668
 1237SOL    HW1 4610   2.114   4.622   6.728
 1237SOL    HW2 4611   2.021   4.493   6.693
 1238SOL     OW 4612   1.959   1.286   1.276
 1238SOL    HW1 4613   2.044   1.306   1.227
 1238SOL    HW2 4614   1.914   1.372   1.301
 1239SOL     OW 4615   0.845   0.008   6.034
 1239SOL    HW1 4616   0.807   0.064   6.108
 1239SOL    HW2 4617   0.895   0.067   5.971
 1240SOL     OW 4618   6.031   5.073   0.976
 1240SOL    HW1 4619   5.965   5.110   1.041
 1240SOL    HW2 4620   6.026   5.124   0.890
 1241SOL     OW 4621   0.638   1.880   4.166
 1241SOL    HW1 4622   0.608   1.973   4.145
 1241SOL    HW2 4623   0.689   1.879   4.252
 1242SOL     OW 4624   1.710   2.467   6.697
 1242SOL    HW1 4625   1.728   2.550   6.645
 1242SOL    HW2 4626   1.797   2.425   6.725
 1243SOL     OW 4627   3.604   4.848   5.217
 1243SOL    HW1 4628   3.536   4.805   5.277
 1243SOL    HW2 4629   3.691   4.801   5.227
 1244SOL     OW 4630   0.912   1.369   3.231
 1244SOL    HW1 4631   0.965   1.438   3.280
 1244SOL    HW2 4632   0.814   1.392   3.237
 1245SOL     OW 4633   3.299   3.039   5.095
 1245SOL    HW1 4634   3.254   3.019   5.008
 1245SOL    HW2 4635   3.231   3.033   5.169
 1246SOL     OW 4636   1.640   6.258   1.753
 1246SOL    HW1 4637   1.667   6.162   1.765
 1246SOL    HW2 4638   1.618   6.298   1.842
 1247SOL     OW 4639   0.834   6.232   6.390
 1247SOL    HW1 4640   0.775   6.310   6.370
 1247SOL    HW2 4641   0.828   6.165   6.315
 1248SOL     OW 4642   2.207   6.993   4.059
 1248SOL    HW1 4643   2.305   6.996   4.079
 1248SOL    HW2 4644   2.186   0.033   3.986
 1249SOL     OW 4645   6.367   2.791   3.457
 1249SOL    HW1 4646   6.305   2.857   3.415
 1249SOL    HW2 4647   6.355   2.792   3.557
 1250SOL     OW 4648   6.879   3.369   4.638
 1250SOL    HW1 4649   6.911   3.441   4.700
 1250SOL    HW2 4650   6.907   3.390   4.545
 1251SOL     OW 4651   3.306   0.998   6.335
 1251SOL    HW1 4652   3.344   0.906   6.323
 1251SOL    HW2 4653   3.245   0.999   6.414
 1252SOL     OW 4654   3.774   3.907   0.238
 1252SOL    HW1 4655   3.704   3.972   0.207
 1252SOL    HW2 4656   3.742   3.814   0.224
 1253SOL     OW 4657   4.571   1.720   3.093
 1253SOL    HW1 4658   4.503   1.768   3.038
 1253SOL    HW2 4659   4.547   1.622   3.096
 1254SOL     OW 4660   5.672   1.093   3.713
 1254SOL    HW1 4661   5.617   1.052   3.786
 1254SOL    HW2 4662   5.695   1.187   3.737
 1255SOL     OW 4663   5.702   0.695   1.702
 1255SOL    HW1 4664   5.772   0.626   1.716
 1255SOL    HW2 4665   5.733   0.762   1.635
 1256SOL     OW 4666   5.347   3.248   3.381
 1256SOL    HW1 4667   5.317   3.236   3.287
 1256SOL    HW2 4668   5.299   3.183   3.440
 1257SOL     OW 4669   6.222   1.409   4.203
 1257SOL    HW1 4670   6.160   1.381   4.277
 1257SOL    HW2 4671   6.195   1.500   4.171
 1258SOL     OW 4672   7.022   4.891   4.091
 1258SOL    HW1 4673   6.925   4.869   4.087
 1258SOL    HW2 4674   0.046   4.848   4.015
 1259SOL     OW 4675   5.458   2.137   4.974
 1259SOL    HW1 4676   5.553   2.126   5.003
 1259SOL    HW2 4677   5.409   2.050   4.983
 1260SOL     OW 4678   0.589   1.668   4.504
 1260SOL    HW1 4679   0.510   1.629   4.551
 1260SOL    HW2 4680   0.628   1.600   4.442
 1261SOL     OW 4681   6.986   3.177   1.295
 1261SOL    HW1 4682   6.942   3.195   1.383
 1261SOL    HW2 4683   7.005   3.079   1.286
 1262SOL     OW 4684   5.276   6.427   1.989
 1262SOL    HW1 4685   5.178   6.411   1.981
 1262SOL    HW2 4686   5.324   6.378   1.916
 1263SOL     OW 4687   1.079   1.891   2.901
 1263SOL    HW1 4688   0.990   1.899   2.857
 1263SOL    HW2 4689   1.146   1.948   2.854
 1264SOL     OW 4690   1.265   3.142   5.244
 1264SOL    HW1 4691   1.353   3.119   5.204
 1264SOL    HW2 4692   1.239   3.071   5.310
 1265SOL     OW 4693   6.529   0.556   6.152
 1265SOL    HW1 4694   6.565   0.620   6.220
 1265SOL    HW2 4695   6.576   0.468   6.162
 1266SOL     OW 4696   3.753   1.966   5.693
 1266SOL    HW1 4697   3.716   1.903   5.625
 1266SOL    HW2 4698   3.828   2.019   5.653
 1267SOL     OW 4699   3.071   1.335   2.232
 1267SOL    HW1 4700   3.089   1.318   2.135
 1267SOL    HW2 4701   3.158   1.351   2.279
 1268SOL     OW 4702   4.269   2.230   5.336
 1268SOL    HW1 4703   4.243   2.144   5.293
 1268SOL    HW2 4704   4.265   2.220   5.436
 1269SOL     OW 4705   5.304   1.795   3.117
 1269SOL    HW1 4706   5.400   1.774   3.135
 1269SOL    HW2 4707   5.250   1.775   3.198
 1270SOL     OW 4708   6.058   5.520   3.679
 1270SOL    HW1 4709   6.140   5.525   3.737
 1270SOL    HW2 4710   6.047   5.426   3.646
 1271SOL     OW 4711   1.530   0.140   2.210
 1271SOL    HW1 4712   1.463   0.071   2.184
 1271SOL    HW2 4713   1.535   0.210   2.139
 1272SOL     OW 4714   6.541   2.143   0.545
 1272SOL    HW1 4715   6.575   2.230   0.512
 1272SOL    HW2 4716   6.575   2.069   0.486
 1273SOL     OW 4717   2.098   4.302   5.386
 1273SOL    HW1 4718   2.119   4.368   5.458
 1273SOL    HW2 4719   2.182   4.259   5.355
 1274SOL     OW 4720   6.966   4.457   4.688
 1274SOL    HW1 4721   6.904   4.381   4.667
 1274SOL    HW2 4722   6.917   4.527   4.740
 1275SOL     OW 4723   1.521   1.463   2.894
 1275SOL    HW1 4724   1.484   1.412   2.972
 1275SOL    HW2 4725   1.528   1.560   2.916
 1276SOL     OW 4726   5.627   4.256   3.750
 1276SOL    HW1 4727   5.623   4.204   3.665
 1276SOL    HW2 4728   5.551   4.228   3.809
 1277SOL     OW 4729   1.453   6.306   6.194
 1277SOL    HW1 4730   1.375   6.357   6.230
 1277SOL    HW2 4731   1.475   6.231   6.257
 1278SOL     OW 4732   0.136   6.670   2.750
 1278SOL    HW1 4733   0.092   6.735   2.688
 1278SOL    HW2 4734   0.228   6.650   2.718
 1279SOL     OW 4735   3.024   2.487   0.698
 1279SOL    HW1 4736   2.975   2.568   0.665
 1279SOL    HW2 4737   3.037   2.494   0.797
 1280SOL     OW 4738   3.011   2.167   3.150
 1280SOL    HW1 4739   3.006   2.157   3.050
 1280SOL    HW2 4740   2.940   2.230   3.180
 1281SOL     OW 4741   5.421   5.622   5.559
 1281SOL    HW1 4742   5.415   5.712   5.603
 1281SOL    HW2 4743   5.468   5.558   5.619
 1282SOL     OW 4744   0.962   2.542   0.978
 1282SOL    HW1 4745   0.953   2.523   1.076
 1282SOL    HW2 4746   1.058   2.557   0.956
 1283SOL     OW 4747   1.744   0.461   4.366
 1283SOL    HW1 4748   1.656   0.463   4.413
 1283SOL    HW2 4749   1.813   0.419   4.425
 1284SOL     OW 4750   3.836   2.255   1.614
 1284SOL    HW1 4751   3.776   2.294   1.684
 1284SOL    HW2 4752   3.931   2.281   1.634
 1285SOL     OW 4753   3.846   1.548   4.693
 1285SOL    HW1 4754   3.784   1.560   4.615
 1285SOL    HW2 4755   3.825   1.617   4.762
 1286SOL     OW 4756   5.114   1.016   2.376
 1286SOL    HW1 4757   5.067   1.009   2.464
 1286SOL    HW2 4758   5.071   0.954   2.311
 1287SOL     OW 4759   5.541   4.939   6.845
 1287SOL    HW1 4760   5.537   5.025   6.897
 1287SOL    HW2 4761   5.490   4.951   6.759
 1288SOL     OW 4762   4.730   4.630   6.067
 1288SOL    HW1 4763   4.682   4.542   6.056
 1288SOL    HW2 4764   4.766   4.637   6.160
 1289SOL     OW 4765   1.415   6.687   0.710
 1289SOL    HW1 4766   1.439   6.774   0.754
 1289SOL    HW2 4767   1.498   6.635   0.692
 1290SOL     OW 4768   1.304   6.460   4.128
 1290SOL    HW1 4769   1.255   6.509   4.200
 1290SOL    HW2 4770   1.400   6.486   4.129
 1291SOL     OW 4771   5.367   5.569   3.450
 1291SOL    HW1 4772   5.456   5.558   3.496
 1291SOL    HW2 4773   5.382   5.600   3.356
 1292SOL     OW 4774   6.963   6.644   2.957
 1292SOL    HW1 4775   0.019   6.649   2.899
 1292SOL    HW2 4776   6.989   6.662   3.052
 1293SOL     OW 4777   4.756   0.064   0.884
 1293SOL    HW1 4778   4.789   0.144   0.934
 1293SOL    HW2 4779   4.819   7.012   0.899
 1294SOL     OW 4780   2.242   4.482   5.551
 1294SOL    HW1 4781   2.290   4.568   5.531
 1294SOL    HW2 4782   2.309   4.408   5.558
 1295SOL     OW 4783   6.998   4.572   0.218
 1295SOL    HW1 4784   7.012   4.607   0.310
 1295SOL    HW2 4785   0.015   4.481   0.210
 1296SOL     OW 4786   3.820   1.087   6.165
 1296SOL    HW1 4787   3.875   1.129   6.238
 1296SOL    HW2 4788   3.781   1.001   6.198
 1297SOL     OW 4789   6.181   6.759   0.040
 1297SOL    HW1 4790   6.136   6.809   0.113
 1297SOL    HW2 4791   6.259   6.708   0.077
 1298SOL     OW 4792   5.142   0.180   3.463
 1298SOL    HW1 4793   5.158   0.099   3.406
 1298SOL    HW2 4794   5.125   0.259   3.404
 1299SOL     OW 4795   0.983   4.855   4.811
 1299SOL    HW1 4796   1.057   4.914   4.843
 1299SOL    HW2 4797   0.895   4.896   4.836
 1300SOL     OW 4798   1.465   5.429   0.062
 1300SOL    HW1 4799   1.554   5.446   0.019
 1300SOL    HW2 4800   1.394   5.424   7.016
 1301SOL     OW 4801   6.560   1.776   6.982
 1301SOL    HW1 4802   6.626   1.834   0.006
 1301SOL    HW2 4803   6.477   1.829   6.964
 1302SOL     OW 4804   6.560   6.948   4.596
 1302SOL    HW1 4805   6.655   6.943   4.566
 1302SOL    HW2 4806   6.536   0.019   4.616
 1303SOL     OW 4807   2.883   6.627   1.569
 1303SOL    HW1 4808   2.869   6.652   1.473
 1303SOL    HW2 4809   2.947   6.550   1.574
 1304SOL     OW 4810   6.973   0.753   0.554
 1304SOL    HW1 4811   6.970   0.838   0.501
 1304SOL    HW2 4812   0.039   0.710   0.544
 1305SOL     OW 4813   3.783   4.077   6.184
 1305SOL    HW1 4814   3.752   3.982   6.179
 1305SOL    HW2 4815   3.771   4.121   6.095
 1306SOL     OW 4816   2.254   6.193   4.214
 1306SOL    HW1 4817   2.330   6.150   4.264
 1306SOL    HW2 4818   2.168   6.173   4.261
 1307SOL     OW 4819   1.848   3.702   3.586
 1307SOL    HW1 4820   1.870   3.800   3.590
 1307SOL    HW2 4821   1.758   3.687   3.627
 1308SOL     OW 4822   0.878   3.779   5.466
 1308SOL    HW1 4823   0.952   3.760   5.402
 1308SOL    HW2 4824   0.891   3.868   5.508
 1309SOL     OW 4825   5.868   3.867   0.193
 1309SOL    HW1 4826   5.799   3.797   0.212
 1309SOL    HW2 4827   5.878   3.927   0.272
 1310SOL     OW 4828   2.254   2.861   3.442
 1310SOL    HW1 4829   2.234   2.924   3.367
 1310SOL    HW2 4830   2.223   2.900   3.528
 1311SOL     OW 4831   6.284   5.166   0.673
 1311SOL    HW1 4832   6.311   5.100   0.743
 1311SOL    HW2 4833   6.221   5.232   0.713
 1312SOL     OW 4834   2.395   1.407   6.740
 1312SOL    HW1 4835   2.335   1.484   6.761
 1312SOL    HW2 4836   2.477   1.412   6.797
 1313SOL     OW 4837   4.929   4.889   3.078
 1313SOL    HW1 4838   4.898   4.976   3.115
 1313SOL    HW2 4839   4.997   4.849   3.139
 1314SOL     OW 4840   2.524   1.630   3.727
 1314SOL    HW1 4841   2.623   1.622   3.734
 1314SOL    HW2 4842   2.487   1.661   3.815
 1315SOL     OW 4843   5.729   0.783   3.715
 1315SOL    HW1 4844   5.764   0.825   3.631
 1315SOL    HW2 4845   5.791   0.805   3.791
 1316SOL     OW 4846   5.336   0.385   6.102
 1316SOL    HW1 4847   5.253   0.434   6.129
 1316SOL    HW2 4848   5.329   0.289   6.131
 1317SOL     OW 4849   4.076   3.167   4.169
 1317SOL    HW1 4850   4.014   3.228   4.218
 1317SOL    HW2 4851   4.095   3.087   4.225
 1318SOL     OW 4852   1.682   1.250   6.810
 1318SOL    HW1 4853   1.733   1.315   6.865
 1318SOL    HW2 4854   1.719   1.158   6.823
 1319SOL     OW 4855   6.655   1.847   0.641
 1319SOL    HW1 4856   6.748   1.850   0.605
 1319SOL    HW2 4857   6.654   1.886   0.733
 1320SOL     OW 4858   2.622   2.775   5.940
 1320SOL    HW1 4859   2.596   2.867   5.910
 1320SOL    HW2 4860   2.545   2.713   5.928
 1321SOL     OW 4861   0.123   2.763   1.571
 1321SOL    HW1 4862   0.061   2.757   1.650
 1321SOL    HW2 4863   0.205   2.710   1.590
 1322SOL     OW 4864   2.336   2.817   0.398
 1322SOL    HW1 4865   2.237   2.812   0.407
 1322SOL    HW2 4866   2.377   2.841   0.486
 1323SOL     OW 4867   4.586   0.373   1.216
 1323SOL    HW1 4868   4.572   0.275   1.208
 1323SOL    HW2 4869   4.575   0.416   1.127
 1324SOL     OW 4870   2.338   3.806   6.243
 1324SOL    HW1 4871   2.355   3.772   6.151
 1324SOL    HW2 4872   2.415   3.863   6.272
 1325SOL     OW 4873   4.233   5.188   4.250
 1325SOL    HW1 4874   4.162   5.127   4.287
 1325SOL    HW2 4875   4.266   5.248   4.323
 1326SOL     OW 4876   4.004   1.518   4.994
 1326SOL    HW1 4877   4.094   1.537   4.955
 1326SOL    HW2 4878   3.975   1.596   5.050
 1327SOL     OW 4879   4.981   5.742   1.824
 1327SOL    HW1 4880   5.017   5.686   1.899
 1327SOL    HW2 4881   4.881   5.743   1.829
 1328SOL     OW 4882   1.417   2.121   5.371
 1328SOL    HW1 4883   1.392   2.190   5.304
 1328SOL    HW2 4884   1.382   2.147   5.461
 1329SOL     OW 4885   1.326   3.073   4.223
 1329SOL    HW1 4886   1.403   3.136   4.238
 1329SOL    HW2 4887   1.272   3.067   4.307
 1330SOL     OW 4888   6.446   3.219   2.471
 1330SOL    HW1 4889   6.524   3.265   2.429
 1330SOL    HW2 4890   6.466   3.199   2.567
 1331SOL     OW 4891   3.635   1.820   2.663
 1331SOL    HW1 4892   3.719   1.802   2.715
 1331SOL    HW2 4893   3.639   1.912   2.624
 1332SOL     OW 4894   2.242   6.279   6.772
 1332SOL    HW1 4895   2.246   6.318   6.864
 1332SOL    HW2 4896   2.333   6.245   6.747
 1333SOL     OW 4897   3.630   3.507   2.281
 1333SOL    HW1 4898   3.688   3.587   2.293
 1333SOL    HW2 4899   3.550   3.533   2.226
 1334SOL     OW 4900   0.175   4.016   1.428
 1334SOL    HW1 4901   0.216   4.084   1.489
 1334SOL    HW2 4902   0.167   3.929   1.477
 1335SOL     OW 4903   0.113   3.437   3.194
 1335SOL    HW1 4904   0.199   3.468   3.154
 1335SOL    HW2 4905   0.086   3.351   3.150
 1336SOL     OW 4906   2.328   6.313   5.966
 1336SOL    HW1 4907   2.403   6.372   5.997
 1336SOL    HW2 4908   2.324   6.312   5.866
 1337SOL     OW 4909   0.343   6.900   1.900
 1337SOL    HW1 4910   0.337   6.951   1.815
 1337SOL    HW2 4911   0.316   6.805   1.884
 1338SOL     OW 4912   0.406   4.140   4.955
 1338SOL    HW1 4913   0.344   4.129   5.032
 1338SOL    HW2 4914   0.388   4.227   4.909
 1339SOL     OW 4915   5.210   1.184   7.019
 1339SOL    HW1 4916   5.199   1.262   0.056
 1339SOL    HW2 4917   5.238   1.217   6.929
 1340SOL     OW 4918   2.454   2.599   1.053
 1340SOL    HW1 4919   2.499   2.593   1.142
 1340SOL    HW2 4920   2.475   2.687   1.010
 1341SOL     OW 4921   6.047   6.164   6.517
 1341SOL    HW1 4922   6.065   6.162   6.615
 1341SOL    HW2 4923   5.955   6.128   6.499
 1342SOL     OW 4924   1.778   5.893   1.551
 1342SOL    HW1 4925   1.854   5.840   1.589
 1342SOL    HW2 4926   1.703   5.830   1.527
 1343SOL     OW 4927   5.044   5.682   2.984
 1343SOL    HW1 4928   5.007   5.673   2.891
 1343SOL    HW2 4929   4.982   5.738   3.039
 1344SOL     OW 4930   1.314   0.818   3.683
 1344SOL    HW1 4931   1.353   0.752   3.748
 1344SOL    HW2 4932   1.382   0.839   3.613
 1345SOL     OW 4933   1.236   6.693   5.495
 1345SOL    HW1 4934   1.174   6.706   5.573
 1345SOL    HW2 4935   1.324   6.659   5.528
 1346SOL     OW 4936   2.946   5.954   4.004
 1346SOL    HW1 4937   3.045   5.944   4.014
 1346SOL    HW2 4938   2.907   5.979   4.093
 1347SOL     OW 4939   0.452   0.984   6.250
 1347SOL    HW1 4940   0.432   1.021   6.340
 1347SOL    HW2 4941   0.426   0.887   6.247
 1348SOL     OW 4942   1.543   6.657   4.688
 1348SOL    HW1 4943   1.483   6.718   4.740
 1348SOL    HW2 4944   1.634   6.658   4.729
 1349SOL     OW 4945   5.196   3.499   4.039
 1349SOL    HW1 4946   5.236   3.452   3.960
 1349SOL    HW2 4947   5.201   3.597   4.025
 1350SOL     OW 4948   5.296   4.636   6.563
 1350SOL    HW1 4949   5.254   4.623   6.653
 1350SOL    HW2 4950   5.224   4.657   6.496
 1351SOL     OW 4951   6.859   3.341   0.018
 1351SOL    HW1 4952   6.872   3.252   6.999
 1351SOL    HW2 4953   6.817   3.329   0.108
 1352SOL     OW 4954   6.985   1.132   3.363
 1352SOL    HW1 4955   6.977   1.185   3.448
 1352SOL    HW2 4956   6.894   1.105   3.331
 1353SOL     OW 4957   6.896   3.132   6.343
 1353SOL    HW1 4958   6.995   3.132   6.358
 1353SOL    HW2 4959   6.865   3.225   6.325
 1354SOL     OW 4960   5.002   4.520   2.729
 1354SOL    HW1 4961   4.907   4.499   2.705
 1354SOL    HW2 4962   5.015   4.620   2.728
 1355SOL     OW 4963   3.804   3.528   4.433
 1355SOL    HW1 4964   3.801   3.554   4.530
 1355SOL    HW2 4965   3.804   3.610   4.377
 1356SOL     OW 4966   2.933   3.379   6.649
 1356SOL    HW1 4967   2.901   3.339   6.563
 1356SOL    HW2 4968   3.031   3.362   6.660
 1357SOL     OW 4969   0.460   3.182   5.314
 1357SOL    HW1 4970   0.454   3.280   5.332
 1357SOL    HW2 4971   0.517   3.166   5.233
 1358SOL     OW 4972   2.188   6.621   6.546
 1358SOL    HW1 4973   2.101   6.669   6.528
 1358SOL    HW2 4974   2.202   6.614   6.644
 1359SOL     OW 4975   5.977   5.155   0.156
 1359SOL    HW1 4976   5.890   5.203   0.158
 1359SOL    HW2 4977   6.031   5.179   0.237
 1360SOL     OW 4978   1.978   1.455   5.880
 1360SOL    HW1 4979   2.021   1.365   5.881
 1360SOL    HW2 4980   2.047   1.526   5.865
 1361SOL     OW 4981   6.268   4.961   4.885
 1361SOL    HW1 4982   6.347   4.911   4.922
 1361SOL    HW2 4983   6.298   5.014   4.805
 1362SOL     OW 4984   3.078   3.980   3.922
 1362SOL    HW1 4985   3.028   3.898   3.950
 1362SOL    HW2 4986   3.137   3.958   3.844
 1363SOL     OW 4987   0.135   6.678   3.798
 1363SOL    HW1 4988   0.104   6.742   3.727
 1363SOL    HW2 4989   0.105   6.585   3.774
 1364SOL     OW 4990   3.713   4.487   0.168
 1364SOL    HW1 4991   3.617   4.472   0.190
 1364SOL    HW2 4992   3.746   4.411   0.112
 1365SOL     OW 4993   5.249   2.087   5.981
 1365SOL    HW1 4994   5.273   1.996   5.947
 1365SOL    HW2 4995   5.321   2.119   6.043
 1366SOL     OW 4996   1.814   0.685   4.902
 1366SOL    HW1 4997   1.853   0.597   4.877
 1366SOL    HW2 4998   1.721   0.672   4.936
 1367SOL     OW 4999   2.260   1.574   1.961
 1367SOL    HW1 5000   2.276   1.582   1.862
 1367SOL    HW2 5001   2.347   1.557   2.007
 1368SOL     OW 5002   6.507   0.890   3.443
 1368SOL    HW1 5003   6.601   0.854   3.439
 1368SOL    HW2 5004   6.506   0.973   3.499
 1369SOL     OW 5005   0.022   0.024   2.832
 1369SOL    HW1 5006   0.106   7.021   2.783
 1369SOL    HW2 5007   0.042   0.101   2.892
 1370SOL     OW 5008   1.022   1.101   2.895
 1370SOL    HW1 5009   0.947   1.038   2.874
 1370SOL    HW2 5010   1.010   1.186   2.844
 1371SOL     OW 5011   2.789   0.400   5.524
 1371SOL    HW1 5012   2.760   0.398   5.620
 1371SOL    HW2 5013   2.708   0.410   5.465
 1372SOL     OW 5014   2.783   1.960   1.343
 1372SOL    HW1 5015   2.710   1.960   1.275
 1372SOL    HW2 5016   2.871   1.946   1.298
 1373SOL     OW 5017   1.599   5.557   6.078
 1373SOL    HW1 5018   1.521   5.519   6.030
 1373SOL    HW2 5019   1.671   5.487   6.084
 1374SOL     OW 5020   5.727   3.597   4.567
 1374SOL    HW1 5021   5.657   3.532   4.599
 1374SOL    HW2 5022   5.716   3.684   4.615
 1375SOL     OW 5023   1.077   4.299   4.016
 1375SOL    HW1 5024   1.012   4.315   3.942
 1375SOL    HW2 5025   1.049   4.353   4.096
 1376SOL     OW 5026   4.907   0.459   2.345
 1376SOL    HW1 5027   4.946   0.444   2.436
 1376SOL    HW2 5028   4.980   0.477   2.279
 1377SOL     OW 5029   0.027   4.164   4.983
 1377SOL    HW1 5030   0.048   4.153   4.886
 1377SOL    HW2 5031   6.991   4.242   4.996
 1378SOL     OW 5032   1.785   1.601   0.226
 1378SOL    HW1 5033   1.708   1.632   0.282
 1378SOL    HW2 5034   1.863   1.662   0.239
 1379SOL     OW 5035   4.415   5.227   2.005
 1379SOL    HW1 5036   4.473   5.281   2.066
 1379SOL    HW2 5037   4.343   5.286   1.966
 1380SOL     OW 5038   6.028   5.409   2.995
 1380SOL    HW1 5039   6.070   5.341   2.935
 1380SOL    HW2 5040   6.090   5.430   3.071
 1381SOL     OW 5041   4.183   6.589   2.720
 1381SOL    HW1 5042   4.242   6.531   2.664
 1381SOL    HW2 5043   4.185   6.683   2.684
 1382SOL     OW 5044   0.233   4.115   0.745
 1382SOL    HW1 5045   0.309   4.098   0.682
 1382SOL    HW2 5046   0.147   4.119   0.694
 1383SOL     OW 5047   3.428   6.947   0.722
 1383SOL    HW1 5048   3.348   6.888   0.731
 1383SOL    HW2 5049   3.432   6.983   0.629
 1384SOL     OW 5050   1.084   1.420   2.202
 1384SOL    HW1 5051   1.124   1.475   2.276
 1384SOL    HW2 5052   1.066   1.327   2.235
 1385SOL     OW 5053   4.932   3.450   4.120
 1385SOL    HW1 5054   4.926   3.389   4.199
 1385SOL    HW2 5055   5.028   3.467   4.098
 1386SOL     OW 5056   2.753   2.332   2.892
 1386SOL    HW1 5057   2.734   2.336   2.990
 1386SOL    HW2 5058   2.671   2.361   2.841
 1387SOL     OW 5059   3.353   0.818   4.239
 1387SOL    HW1 5060   3.413   0.887   4.198
 1387SOL    HW2 5061   3.388   0.727   4.218
 1388SOL     OW 5062   4.846   2.177   3.736
 1388SOL    HW1 5063   4.766   2.181   3.795
 1388SOL    HW2 5064   4.927   2.159   3.791
 1389SOL     OW 5065   6.792   0.841   4.644
 1389SOL    HW1 5066   6.746   0.756   4.671
 1389SOL    HW2 5067   6.724   0.910   4.620
 1390SOL     OW 5068   5.528   2.118   2.342
 1390SOL    HW1 5069   5.509   2.198   2.286
 1390SOL    HW2 5070   5.625   2.097   2.341
 1391SOL     OW 5071   5.977   0.979   5.409
 1391SOL    HW1 5072   5.924   0.894   5.408
 1391SOL    HW2 5073   6.050   0.973   5.341
 1392SOL     OW 5074   3.138   6.757   4.837
 1392SOL    HW1 5075   3.214   6.740   4.901
 1392SOL    HW2 5076   3.138   6.687   4.766
 1393SOL     OW 5077   5.055   6.697   6.822
 1393SOL    HW1 5078   4.963   6.703   6.784
 1393SOL    HW2 5079   5.115   6.651   6.757
 1394SOL     OW 5080   4.198   1.158   4.831
 1394SOL    HW1 5081   4.149   1.227   4.776
 1394SOL    HW2 5082   4.236   1.089   4.770
 1395SOL     OW 5083   0.805   5.087   2.510
 1395SOL    HW1 5084   0.842   5.076   2.602
 1395SOL    HW2 5085   0.872   5.053   2.443
 1396SOL     OW 5086   1.302   1.547   3.167
 1396SOL    HW1 5087   1.317   1.617   3.236
 1396SOL    HW2 5088   1.321   1.457   3.207
 1397SOL     OW 5089   2.540   4.516   5.718
 1397SOL    HW1 5090   2.552   4.579   5.794
 1397SOL    HW2 5091   2.582   4.554   5.635
 1398SOL     OW 5092   3.307   6.953   6.199
 1398SOL    HW1 5093   3.219   6.909   6.218
 1398SOL    HW2 5094   3.352   6.906   6.124
 1399SOL     OW 5095   3.690   6.923   0.154
 1399SOL    HW1 5096   3.716   6.898   0.247
 1399SOL    HW2 5097   3.760   6.893   0.090
 1400SOL     OW 5098   0.487   1.836   5.701
 1400SOL    HW1 5099   0.529   1.854   5.613
 1400SOL    HW2 5100   0.460   1.740   5.707
 1401SOL     OW 5101   4.438   6.813   2.281
 1401SOL    HW1 5102   4.459   6.847   2.372
 1401SOL    HW2 5103   4.340   6.794   2.274
 1402SOL     OW 5104   5.099   4.071   2.136
 1402SOL    HW1 5105   5.032   4.002   2.109
 1402SOL    HW2 5106   5.113   4.068   2.235
 1403SOL     OW 5107   3.059   2.485   6.711
 1403SOL    HW1 5108   3.011   2.499   6.797
 1403SOL    HW2 5109   3.109   2.568   6.686
 1404SOL     OW 5110   4.087   5.910   6.593
 1404SOL    HW1 5111   4.086   5.833   6.529
 1404SOL    HW2 5112   3.997   5.920   6.635
 1405SOL     OW 5113   0.869   4.190   6.630
 1405SOL    HW1 5114   0.791   4.202   6.569
 1405SOL    HW2 5115   0.943   4.251   6.600
 1406SOL     OW 5116   1.976   2.133   0.316
 1406SOL    HW1 5117   1.942   2.219   0.354
 1406SOL    HW2 5118   1.899   2.070   0.304
 1407SOL     OW 5119   6.698   2.769   1.326
 1407SOL    HW1 5120   6.771   2.820   1.372
 1407SOL    HW2 5121   6.666   2.696   1.385
 1408SOL     OW 5122   5.779   5.972   1.243
 1408SOL    HW1 5123   5.683   5.967   1.217
 1408SOL    HW2 5124   5.786   5.985   1.342
 1409SOL     OW 5125   5.783   1.998   5.847
 1409SOL    HW1 5126   5.695   1.992   5.800
 1409SOL    HW2 5127   5.837   2.072   5.808
 1410SOL     OW 5128   3.418   0.633   0.647
 1410SOL    HW1 5129   3.453   0.540   0.646
 1410SOL    HW2 5130   3.468   0.687   0.715
 1411SOL     OW 5131   3.218   0.322   7.000
 1411SOL    HW1 5132   3.301   0.284   6.959
 1411SOL    HW2 5133   3.232   0.334   0.074
 1412SOL     OW 5134   1.875   1.454   6.380
 1412SOL    HW1 5135   1.809   1.513   6.426
 1412SOL    HW2 5136   1.848   1.440   6.284
 1413SOL     OW 5137   1.957   1.402   4.869
 1413SOL    HW1 5138   1.976   1.417   4.771
 1413SOL    HW2 5139   1.925   1.308   4.882
 1414SOL     OW 5140   0.168   5.533   2.736
 1414SOL    HW1 5141   0.218   5.479   2.803
 1414SOL    HW2 5142   0.071   5.537   2.762
 1415SOL     OW 5143   3.292   1.775   5.236
 1415SOL    HW1 5144   3.310   1.718   5.156
 1415SOL    HW2 5145   3.197   1.808   5.233
 1416SOL     OW 5146   4.139   0.432   5.198
 1416SOL    HW1 5147   4.088   0.472   5.273
 1416SOL    HW2 5148   4.197   0.503   5.155
 1417SOL     OW 5149   3.392   4.121   4.274
 1417SOL    HW1 5150   3.299   4.099   4.246
 1417SOL    HW2 5151   3.445   4.150   4.194
 1418SOL     OW 5152   3.315   3.926   5.382
 1418SOL    HW1 5153   3.240   3.868   5.353
 1418SOL    HW2 5154   3.340   3.988   5.307
 1419SOL     OW 5155   0.594   5.195   1.803
 1419SOL    HW1 5156   0.653   5.118   1.827
 1419SOL    HW2 5157   0.611   5.271   1.865
 1420SOL     OW 5158   2.268   6.730   3.592
 1420SOL    HW1 5159   2.250   6.634   3.610
 1420SOL    HW2 5160   2.366   6.744   3.581
 1421SOL     OW 5161   1.508   5.343   0.544
 1421SOL    HW1 5162   1.563   5.263   0.565
 1421SOL    HW2 5163   1.535   5.419   0.603
 1422SOL     OW 5164   1.582   3.700   6.941
 1422SOL    HW1 5165   1.547   3.794   6.936
 1422SOL    HW2 5166   1.637   3.689   7.024
 1423SOL     OW 5167   5.084   1.104   5.148
 1423SOL    HW1 5168   5.033   1.021   5.170
 1423SOL    HW2 5169   5.134   1.091   5.062
 1424SOL     OW 5170   6.155   4.252   1.848
 1424SOL    HW1 5171   6.170   4.341   1.893
 1424SOL    HW2 5172   6.065   4.217   1.875
 1425SOL     OW 5173   6.114   6.647   3.226
 1425SOL    HW1 5174   6.153   6.569   3.276
 1425SOL    HW2 5175   6.096   6.620   3.132
 1426SOL     OW 5176   3.994   0.596   1.008
 1426SOL    HW1 5177   3.987   0.504   1.046
 1426SOL    HW2 5178   3.926   0.607   0.935
 1427SOL     OW 5179   1.591   1.120   3.720
 1427SOL    HW1 5180   1.617   1.028   3.749
 1427SOL    HW2 5181   1.634   1.141   3.632
 1428SOL     OW 5182   2.152   4.023   3.876
 1428SOL    HW1 5183   2.190   3.932   3.896
 1428SOL    HW2 5184   2.119   4.064   3.961
 1429SOL     OW 5185   5.951   0.443   1.366
 1429SOL    HW1 5186   5.998   0.516   1.416
 1429SOL    HW2 5187   5.887   0.484   1.300
 1430SOL     OW 5188   2.198   4.086   4.370
 1430SOL    HW1 5189   2.211   4.121   4.277
 1430SOL    HW2 5190   2.137   4.006   4.367
 1431SOL     OW 5191   3.594   1.636   0.716
 1431SOL    HW1 5192   3.692   1.623   0.734
 1431SOL    HW2 5193   3.541   1.569   0.768
 1432SOL     OW 5194   2.944   0.161   2.426
 1432SOL    HW1 5195   2.995   0.135   2.344
 1432SOL    HW2 5196   2.905   0.252   2.414
 1433SOL     OW 5197   3.692   1.632   3.647
 1433SOL    HW1 5198   3.767   1.567   3.636
 1433SOL    HW2 5199   3.630   1.627   3.568
 1434SOL     OW 5200   6.090   3.797   0.921
 1434SOL    HW1 5201   6.175   3.849   0.926
 1434SOL    HW2 5202   6.046   3.812   0.833
 1435SOL     OW 5203   6.887   6.683   4.043
 1435SOL    HW1 5204   6.842   6.700   4.131
 1435SOL    HW2 5205   6.851   6.747   3.975
 1436SOL     OW 5206   5.835   0.481   0.145
 1436SOL    HW1 5207   5.835   0.571   0.101
 1436SOL    HW2 5208   5.850   0.410   0.076
 1437SOL     OW 5209   4.140   0.673   0.346
 1437SOL    HW1 5210   4.183   0.721   0.422
 1437SOL    HW2 5211   4.200   0.599   0.315
 1438SOL     OW 5212   2.808   0.014   3.834
 1438SOL    HW1 5213   2.810   6.958   3.894
 1438SOL    HW2 5214   2.854   0.091   3.880
 1439SOL     OW 5215   6.780   5.240   4.745
 1439SOL    HW1 5216   6.802   5.286   4.659
 1439SOL    HW2 5217   6.681   5.247   4.763
 1440SOL     OW 5218   3.157   2.897   2.246
 1440SOL    HW1 5219   3.135   2.808   2.206
 1440SOL    HW2 5220   3.198   2.884   2.337
 1441SOL     OW 5221   0.341   2.112   6.309
 1441SOL    HW1 5222   0.429   2.118   6.356
 1441SOL    HW2 5223   0.318   2.202   6.270
 1442SOL     OW 5224   5.682   6.175   0.074
 1442SOL    HW1 5225   5.743   6.246   0.038
 1442SOL    HW2 5226   5.663   6.193   0.170
 1443SOL     OW 5227   1.767   3.088   4.393
 1443SOL    HW1 5228   1.848   3.101   4.450
 1443SOL    HW2 5229   1.772   2.998   4.348
 1444SOL     OW 5230   4.426   6.455   4.833
 1444SOL    HW1 5231   4.469   6.470   4.743
 1444SOL    HW2 5232   4.385   6.540   4.865
 1445SOL     OW 5233   6.631   2.278   0.176
 1445SOL    HW1 5234   6.650   2.196   0.230
 1445SOL    HW2 5235   6.561   2.258   0.109
 1446SOL     OW 5236   3.017   5.986   2.488
 1446SOL    HW1 5237   2.967   5.909   2.448
 1446SOL    HW2 5238   3.029   5.972   2.586
 1447SOL     OW 5239   6.563   0.964   4.978
 1447SOL    HW1 5240   6.531   1.042   4.925
 1447SOL    HW2 5241   6.520   0.880   4.945
 1448SOL     OW 5242   5.082   1.341   0.437
 1448SOL    HW1 5243   5.131   1.417   0.394
 1448SOL    HW2 5244   5.012   1.377   0.498
 1449SOL     OW 5245   5.143   5.934   0.317
 1449SOL    HW1 5246   5.199   5.902   0.394
 1449SOL    HW2 5247   5.113   5.856   0.263
 1450SOL     OW 5248   5.618   1.211   4.087
 1450SOL    HW1 5249   5.586   1.282   4.025
 1450SOL    HW2 5250   5.557   1.204   4.165
 1451SOL     OW 5251   0.192   6.889   2.356
 1451SOL    HW1 5252   0.145   6.813   2.313
 1451SOL    HW2 5253   0.272   6.914   2.301
 1452SOL     OW 5254   1.782   0.262   6.112
 1452SOL    HW1 5255   1.822   0.184   6.160
 1452SOL    HW2 5256   1.775   0.340   6.175
 1453SOL     OW 5257   5.832   4.572   4.037
 1453SOL    HW1 5258   5.821   4.480   3.999
 1453SOL    HW2 5259   5.778   4.580   4.121
 1454SOL     OW 5260   5.760   4.376   1.579
 1454SOL    HW1 5261   5.713   4.453   1.534
 1454SOL    HW2 5262   5.778   4.400   1.674
 1455SOL     OW 5263   2.091   1.851   2.099
 1455SOL    HW1 5264   2.181   1.885   2.069
 1455SOL    HW2 5265   2.100   1.755   2.127
 1456SOL     OW 5266   5.446   5.202   4.811
 1456SOL    HW1 5267   5.499   5.286   4.801
 1456SOL    HW2 5268   5.385   5.210   4.889
 1457SOL     OW 5269   2.117   1.425   4.200
 1457SOL    HW1 5270   2.177   1.412   4.121
 1457SOL    HW2 5271   2.023   1.437   4.169
 1458SOL     OW 5272   6.518   5.492   0.428
 1458SOL    HW1 5273   6.478   5.518   0.341
 1458SOL    HW2 5274   6.500   5.395   0.446
 1459SOL     OW 5275   3.253   6.816   1.482
 1459SOL    HW1 5276   3.180   6.764   1.438
 1459SOL    HW2 5277   3.325   6.753   1.511
 1460SOL     OW 5278   0.594   1.551   6.601
 1460SOL    HW1 5279   0.574   1.459   6.633
 1460SOL    HW2 5280   0.691   1.570   6.612
 1461SOL     OW 5281   5.011   3.881   2.800
 1461SOL    HW1 5282   4.957   3.822   2.859
 1461SOL    HW2 5283   4.967   3.888   2.711
 1462SOL     OW 5284   5.752   0.430   5.449
 1462SOL    HW1 5285   5.724   0.356   5.388
 1462SOL    HW2 5286   5.850   0.445   5.440
 1463SOL     OW 5287   1.153   2.468   5.488
 1463SOL    HW1 5288   1.103   2.442   5.571
 1463SOL    HW2 5289   1.094   2.455   5.408
 1464SOL     OW 5290   0.692   0.740   1.022
 1464SOL    HW1 5291   0.721   0.703   0.934
 1464SOL    HW2 5292   0.771   0.772   1.073
 1465SOL     OW 5293   2.255   0.943   3.834
 1465SOL    HW1 5294   2.242   0.890   3.918
 1465SOL    HW2 5295   2.185   1.013   3.828
 1466SOL     OW 5296   5.695   5.894   4.511
 1466SOL    HW1 5297   5.756   5.919   4.586
 1466SOL    HW2 5298   5.713   5.953   4.432
 1467SOL     OW 5299   0.499   4.425   4.262
 1467SOL    HW1 5300   0.455   4.427   4.352
 1467SOL    HW2 5301   0.460   4.350   4.209
 1468SOL     OW 5302   4.576   0.002   2.458
 1468SOL    HW1 5303   4.591   0.037   2.365
 1468SOL    HW2 5304   4.535   0.073   2.514
 1469SOL     OW 5305   6.621   0.454   2.508
 1469SOL    HW1 5306   6.683   0.414   2.440
 1469SOL    HW2 5307   6.583   0.539   2.474
 1470SOL     OW 5308   0.091   0.405   1.967
 1470SOL    HW1 5309   0.183   0.369   1.960
 1470SOL    HW2 5310   0.037   0.349   2.030
 1471SOL     OW 5311   6.491   0.963   1.167
 1471SOL    HW1 5312   6.502   1.041   1.228
 1471SOL    HW2 5313   6.549   0.887   1.198
 1472SOL     OW 5314   4.627   5.142   4.565
 1472SOL    HW1 5315   4.569   5.062   4.563
 1472SOL    HW2 5316   4.596   5.204   4.637
 1473SOL     OW 5317   0.406   3.344   4.006
 1473SOL    HW1 5318   0.490   3.335   4.060
 1473SOL    HW2 5319   0.375   3.253   3.978
 1474SOL     OW 5320   4.859   5.941   2.412
 1474SOL    HW1 5321   4.938   5.931   2.473
 1474SOL    HW2 5322   4.858   6.033   2.373
 1475SOL     OW 5323   6.371   6.912   3.050
 1475SOL    HW1 5324   6.335   7.001   3.079
 1475SOL    HW2 5325   6.325   6.882   2.966
 1476SOL     OW 5326   0.980   2.381   0.672
 1476SOL    HW1 5327   0.889   2.396   0.710
 1476SOL    HW2 5328   1.005   2.285   0.681
 1477SOL     OW 5329   2.421   6.387   4.564
 1477SOL    HW1 5330   2.397   6.483   4.575
 1477SOL    HW2 5331   2.436   6.346   4.654
 1478SOL     OW 5332   0.243   4.596   1.141
 1478SOL    HW1 5333   0.197   4.600   1.230
 1478SOL    HW2 5334   0.176   4.616   1.069
 1479SOL     OW 5335   0.990   4.732   0.002
 1479SOL    HW1 5336   0.913   4.762   6.970
 1479SOL    HW2 5337   1.073   4.730   6.970
 1480SOL     OW 5338   3.637   0.801   7.023
 1480SOL    HW1 5339   3.591   0.762   6.944
 1480SOL    HW2 5340   3.616   0.746   0.080
 1481SOL     OW 5341   0.209   3.070   0.985
 1481SOL    HW1 5342   0.139   3.140   0.972
 1481SOL    HW2 5343   0.240   3.037   0.896
 1482SOL     OW 5344   5.872   0.668   5.613
 1482SOL    HW1 5345   5.869   0.714   5.701
 1482SOL    HW2 5346   5.798   0.601   5.608
 1483SOL     OW 5347   0.132   2.574   1.026
 1483SOL    HW1 5348   0.075   2.649   0.993
 1483SOL    HW2 5349   0.110   2.556   1.121
 1484SOL     OW 5350   5.712   0.059   3.467
 1484SOL    HW1 5351   5.750   0.036   3.556
 1484SOL    HW2 5352   5.714   0.158   3.455
 1485SOL     OW 5353   5.463   3.627   4.360
 1485SOL    HW1 5354   5.408   3.611   4.442
 1485SOL    HW2 5355   5.542   3.682   4.383
 1486SOL     OW 5356   5.024   2.851   1.720
 1486SOL    HW1 5357   5.009   2.781   1.650
 1486SOL    HW2 5358   5.121   2.854   1.744
 1487SOL     OW 5359   0.805   0.020   5.619
 1487SOL    HW1 5360   0.896   7.004   5.607
 1487SOL    HW2 5361   0.750   6.986   5.678
 1488SOL     OW 5362   4.622   2.180   3.890
 1488SOL    HW1 5363   4.685   2.203   3.964
 1488SOL    HW2 5364   4.535   2.149   3.929
 1489SOL     OW 5365   3.505   5.119   5.121
 1489SOL    HW1 5366   3.563   5.039   5.134
 1489SOL    HW2 5367   3.467   5.118   5.028
 1490SOL     OW 5368   3.127   2.985   0.593
 1490SOL    HW1 5369   3.147   3.065   0.649
 1490SOL    HW2 5370   3.103   2.907   0.653
 1491SOL     OW 5371   1.627   1.687   4.000
 1491SOL    HW1 5372   1.572   1.717   4.078
 1491SOL    HW2 5373   1.570   1.634   3.938
 1492SOL     OW 5374   6.715   2.118   1.445
 1492SOL    HW1 5375   6.788   2.158   1.500
 1492SOL    HW2 5376   6.648   2.188   1.422
 1493SOL     OW 5377   6.678   2.982   5.172
 1493SOL    HW1 5378   6.747   2.998   5.243
 1493SOL    HW2 5379   6.592   3.025   5.199
 1494SOL     OW 5380   5.404   1.658   4.040
 1494SOL    HW1 5381   5.475   1.668   4.110
 1494SOL    HW2 5382   5.411   1.733   3.974
 1495SOL     OW 5383   1.647   3.777   1.442
 1495SOL    HW1 5384   1.693   3.805   1.358
 1495SOL    HW2 5385   1.580   3.706   1.421
 1496SOL     OW 5386   0.105   0.309   2.697
 1496SOL    HW1 5387   0.140   0.234   2.641
 1496SOL    HW2 5388   0.093   0.390   2.639
 1497SOL     OW 5389   5.396   4.490   5.783
 1497SOL    HW1 5390   5.385   4.588   5.770
 1497SOL    HW2 5391   5.375   4.442   5.697
 1498SOL     OW 5392   3.312   5.535   6.793
 1498SOL    HW1 5393   3.304   5.461   6.726
 1498SOL    HW2 5394   3.337   5.620   6.745
 1499SOL     OW 5395   1.788   4.243   4.010
 1499SOL    HW1 5396   1.802   4.152   3.971
 1499SOL    HW2 5397   1.722   4.237   4.085
 1500SOL     OW 5398   4.100   5.944   5.549
 1500SOL    HW1 5399   4.166   5.968   5.620
 1500SOL    HW2 5400   4.129   5.983   5.462
 1501SOL     OW 5401   3.686   0.807   1.407
 1501SOL    HW1 5402   3.736   0.812   1.320
 1501SOL    HW2 5403   3.608   0.869   1.404
 1502SOL     OW 5404   0.057   0.429   6.940
 1502SOL    HW1 5405   0.062   0.333   6.965
 1502SOL    HW2 5406   0.014   0.481   7.014
 1503SOL     OW 5407   3.629   3.817   5.108
 1503SOL    HW1 5408   3.530   3.804   5.101
 1503SOL    HW2 5409   3.669   3.740   5.158
 1504SOL     OW 5410   3.092   0.495   3.416
 1504SOL    HW1 5411   3.122   0.401   3.435
 1504SOL    HW2 5412   3.057   0.500   3.322
 1505SOL     OW 5413   5.618   6.570   2.921
 1505SOL    HW1 5414   5.682   6.623   2.976
 1505SOL    HW2 5415   5.534   6.554   2.973
 1506SOL     OW 5416   0.080   0.024   4.529
 1506SOL    HW1 5417   0.159   0.055   4.581
 1506SOL    HW2 5418   0.011   0.096   4.526
 1507SOL     OW 5419   2.025   1.871   6.663
 1507SOL    HW1 5420   1.967   1.857   6.743
 1507SOL    HW2 5421   1.970   1.908   6.588
 1508SOL     OW 5422   4.377   6.443   0.828
 1508SOL    HW1 5423   4.401   6.491   0.743
 1508SOL    HW2 5424   4.458   6.399   0.866
 1509SOL     OW 5425   5.463   2.172   6.347
 1509SOL    HW1 5426   5.543   2.153   6.289
 1509SOL    HW2 5427   5.393   2.104   6.330
 1510SOL     OW 5428   6.914   1.728   2.312
 1510SOL    HW1 5429   7.008   1.756   2.330
 1510SOL    HW2 5430   6.854   1.808   2.317
 1511SOL     OW 5431   0.164   2.544   0.309
 1511SOL    HW1 5432   0.255   2.573   0.282
 1511SOL    HW2 5433   0.170   2.459   0.361
 1512SOL     OW 5434   0.370   0.449   2.768
 1512SOL    HW1 5435   0.349   0.497   2.853
 1512SOL    HW2 5436   0.293   0.389   2.743
 1513SOL     OW 5437   2.317   0.618   2.730
 1513SOL    HW1 5438   2.365   0.608   2.817
 1513SOL    HW2 5439   2.335   0.709   2.693
 1514SOL     OW 5440   4.480   0.527   5.996
 1514SOL    HW1 5441   4.444   0.620   5.993
 1514SOL    HW2 5442   4.406   0.463   6.012
 1515SOL     OW 5443   5.602   5.089   5.845
 1515SOL    HW1 5444   5.546   5.093   5.762
 1515SOL    HW2 5445   5.604   4.995   5.879
 1516SOL     OW 5446   6.046   1.903   2.318
 1516SOL    HW1 5447   6.014   1.835   2.251
 1516SOL    HW2 5448   6.087   1.857   2.396
 1517SOL     OW 5449   3.228   5.355   1.543
 1517SOL    HW1 5450   3.137   5.363   1.585
 1517SOL    HW2 5451   3.226   5.286   1.472
 1518SOL     OW 5452   0.981   4.850   0.733
 1518SOL    HW1 5453   0.943   4.942   0.747
 1518SOL    HW2 5454   0.980   4.800   0.820
 1519SOL     OW 5455   0.728   4.431   1.186
 1519SOL    HW1 5456   0.634   4.442   1.216
 1519SOL    HW2 5457   0.750   4.333   1.180
 1520SOL     OW 5458   1.805   4.041   2.868
 1520SOL    HW1 5459   1.723   4.092   2.897
 1520SOL    HW2 5460   1.873   4.043   2.941
 1521SOL     OW 5461   2.168   5.998   5.411
 1521SOL    HW1 5462   2.239   6.009   5.341
 1521SOL    HW2 5463   2.116   6.083   5.420
 1522SOL     OW 5464   1.694   1.847   5.741
 1522SOL    HW1 5465   1.707   1.781   5.666
 1522SOL    HW2 5466   1.712   1.801   5.828
 1523SOL     OW 5467   5.569   1.044   1.248
 1523SOL    HW1 5468   5.509   1.020   1.171
 1523SOL    HW2 5469   5.660   1.007   1.231
 1524SOL     OW 5470   0.924   1.975   0.895
 1524SOL    HW1 5471   0.918   1.920   0.812
 1524SOL    HW2 5472   0.939   1.916   0.974
 1525SOL     OW 5473   4.971   1.678   4.946
 1525SOL    HW1 5474   5.011   1.610   5.008
 1525SOL    HW2 5475   5.027   1.760   4.947
 1526SOL     OW 5476   5.400   2.666   0.692
 1526SOL    HW1 5477   5.331   2.594   0.684
 1526SOL    HW2 5478   5.380   2.722   0.772
 1527SOL     OW 5479   2.122   0.295   4.894
 1527SOL    HW1 5480   2.109   0.262   4.987
 1527SOL    HW2 5481   2.211   0.267   4.860
 1528SOL     OW 5482   4.819   5.916   3.200
 1528SOL    HW1 5483   4.792   6.006   3.166
 1528SOL    HW2 5484   4.888   5.927   3.273
 1529SOL     OW 5485   1.528   6.659   5.567
 1529SOL    HW1 5486   1.613   6.693   5.528
 1529SOL    HW2 5487   1.520   6.688   5.662
 1530SOL     OW 5488   3.651   6.854   1.529
 1530SOL    HW1 5489   3.667   6.858   1.431
 1530SOL    HW2 5490   3.576   6.916   1.553
 1531SOL     OW 5491   5.633   1.286   6.726
 1531SOL    HW1 5492   5.624   1.201   6.675
 1531SOL    HW2 5493   5.726   1.320   6.719
 1532SOL     OW 5494   3.165   1.011   5.145
 1532SOL    HW1 5495   3.244   0.991   5.204
 1532SOL    HW2 5496   3.173   1.104   5.109
 1533SOL     OW 5497   4.242   2.945   1.026
 1533SOL    HW1 5498   4.253   3.041   1.001
 1533SOL    HW2 5499   4.321   2.893   0.993
 1534SOL     OW 5500   6.373   0.344   0.773
 1534SOL    HW1 5501   6.340   0.253   0.751
 1534SOL    HW2 5502   6.374   0.357   0.872
 1535SOL     OW 5503   4.655   4.485   4.438
 1535SOL    HW1 5504   4.731   4.420   4.445
 1535SOL    HW2 5505   4.682   4.561   4.378
 1536SOL     OW 5506   3.086   6.456   3.145
 1536SOL    HW1 5507   3.171   6.492   3.107
 1536SOL    HW2 5508   3.010   6.484   3.087
 1537SOL     OW 5509   1.726   5.840   4.630
 1537SOL    HW1 5510   1.660   5.776   4.670
 1537SOL    HW2 5511   1.729   5.828   4.531
 1538SOL     OW 5512   3.497   6.206   0.090
 1538SOL    HW1 5513   3.411   6.253   0.069
 1538SOL    HW2 5514   3.486   6.152   0.174
 1539SOL     OW 5515   2.357   6.837   2.062
 1539SOL    HW1 5516   2.276   6.807   2.113
 1539SOL    HW2 5517   2.371   6.777   1.983
 1540SOL     OW 5518   6.343   0.626   5.967
 1540SOL    HW1 5519   6.414   0.620   6.036
 1540SOL    HW2 5520   6.362   0.704   5.906
 1541SOL     OW 5521   5.207   1.818   2.062
 1541SOL    HW1 5522   5.159   1.746   2.013
 1541SOL    HW2 5523   5.223   1.896   2.001
 1542SOL     OW 5524   6.847   4.987   1.360
 1542SOL    HW1 5525   6.788   4.976   1.439
 1542SOL    HW2 5526   6.835   4.909   1.298
 1543SOL     OW 5527   3.339   2.877   2.475
 1543SOL    HW1 5528   3.356   2.962   2.427
 1543SOL    HW2 5529   3.281   2.895   2.555
 1544SOL     OW 5530   3.185   3.614   1.629
 1544SOL    HW1 5531   3.230   3.532   1.591
 1544SOL    HW2 5532   3.165   3.599   1.726
 1545SOL     OW 5533   0.548   6.384   6.022
 1545SOL    HW1 5534   0.538   6.290   5.988
 1545SOL    HW2 5535   0.466   6.436   6.002
 1546SOL     OW 5536   0.549   6.606   0.890
 1546SOL    HW1 5537   0.474   6.672   0.902
 1546SOL    HW2 5538   0.576   6.569   0.978
 1547SOL     OW 5539   2.863   6.575   0.617
 1547SOL    HW1 5540   2.876   6.537   0.525
 1547SOL    HW2 5541   2.791   6.525   0.664
 1548SOL     OW 5542   6.256   4.255   3.046
 1548SOL    HW1 5543   6.218   4.163   3.041
 1548SOL    HW2 5544   6.181   4.322   3.047
 1549SOL     OW 5545   6.031   1.844   1.116
 1549SOL    HW1 5546   6.101   1.882   1.055
 1549SOL    HW2 5547   5.946   1.895   1.104
 1550SOL     OW 5548   2.436   4.919   2.332
 1550SOL    HW1 5549   2.485   4.875   2.407
 1550SOL    HW2 5550   2.494   4.922   2.251
 1551SOL     OW 5551   1.017   1.970   1.778
 1551SOL    HW1 5552   1.104   2.020   1.781
 1551SOL    HW2 5553   1.015   1.911   1.698
 1552SOL     OW 5554   1.740   6.373   2.394
 1552SOL    HW1 5555   1.758   6.469   2.372
 1552SOL    HW2 5556   1.810   6.340   2.457
 1553SOL     OW 5557   5.974   1.865   5.525
 1553SOL    HW1 5558   5.953   1.784   5.580
 1553SOL    HW2 5559   5.966   1.947   5.582
 1554SOL     OW 5560   2.877   3.235   0.216
 1554SOL    HW1 5561   2.898   3.248   0.119
 1554SOL    HW2 5562   2.779   3.219   0.226
 1555SOL     OW 5563   4.428   1.349   0.906
 1555SOL    HW1 5564   4.434   1.421   0.975
 1555SOL    HW2 5565   4.337   1.349   0.864
 1556SOL     OW 5566   2.616   2.102   0.387
 1556SOL    HW1 5567   2.598   2.025   0.326
 1556SOL    HW2 5568   2.702   2.087   0.434
 1557SOL     OW 5569   2.658   2.380   1.493
 1557SOL    HW1 5570   2.654   2.372   1.394
 1557SOL    HW2 5571   2.734   2.439   1.519
 1558SOL     OW 5572   5.192   2.425   0.255
 1558SOL    HW1 5573   5.238   2.458   0.173
 1558SOL    HW2 5574   5.093   2.430   0.242
 1559SOL     OW 5575   2.088   6.108   4.411
 1559SOL    HW1 5576   1.990   6.088   4.419
 1559SOL    HW2 5577   2.137   6.023   4.394
 1560SOL     OW 5578   4.992   3.186   1.678
 1560SOL    HW1 5579   4.965   3.252   1.748
 1560SOL    HW2 5580   4.924   3.113   1.673
 1561SOL     OW 5581   5.964   6.407   1.271
 1561SOL    HW1 5582   6.045   6.462   1.287
 1561SOL    HW2 5583   5.960   6.333   1.339
 1562SOL     OW 5584   2.794   0.051   2.998
 1562SOL    HW1 5585   2.747   0.111   3.062
 1562SOL    HW2 5586   2.891   0.044   3.023
 1563SOL     OW 5587   2.174   4.413   3.433
 1563SOL    HW1 5588   2.089   4.363   3.422
 1563SOL    HW2 5589   2.247   4.367   3.383
 1564SOL     OW 5590   2.033   1.958   3.130
 1564SOL    HW1 5591   1.998   1.870   3.162
 1564SOL    HW2 5592   2.126   1.971   3.165
 1565SOL     OW 5593   5.497   1.487   5.446
 1565SOL    HW1 5594   5.463   1.546   5.520
 1565SOL    HW2 5595   5.480   1.531   5.358
 1566SOL     OW 5596   1.069   3.430   3.822
 1566SOL    HW1 5597   0.995   3.364   3.832
 1566SOL    HW2 5598   1.143   3.389   3.769
 1567SOL     OW 5599   5.719   0.911   4.333
 1567SOL    HW1 5600   5.744   0.873   4.423
 1567SOL    HW2 5601   5.745   0.846   4.262
 1568SOL     OW 5602   1.892   5.017   1.091
 1568SOL    HW1 5603   1.833   4.969   1.026
 1568SOL    HW2 5604   1.946   4.950   1.143
 1569SOL     OW 5605   2.119   1.090   2.305
 1569SOL    HW1 5606   2.152   1.109   2.398
 1569SOL    HW2 5607   2.116   1.176   2.254
 1570SOL     OW 5608   2.611   5.738   6.003
 1570SOL    HW1 5609   2.709   5.732   5.981
 1570SOL    HW2 5610   2.597   5.812   6.069
 1571SOL     OW 5611   1.374   1.371   4.114
 1571SOL    HW1 5612   1.304   1.359   4.044
 1571SOL    HW2 5613   1.461   1.335   4.080
 1572SOL     OW 5614   2.422   5.242   3.773
 1572SOL    HW1 5615   2.390   5.309   3.840
 1572SOL    HW2 5616   2.516   5.263   3.746
 1573SOL     OW 5617   5.398   5.841   6.794
 1573SOL    HW1 5618   5.494   5.865   6.807
 1573SOL    HW2 5619   5.367   5.874   6.704
 1574SOL     OW 5620   0.490   2.509   3.321
 1574SOL    HW1 5621   0.441   2.540   3.403
 1574SOL    HW2 5622   0.519   2.589   3.268
 1575SOL     OW 5623   6.772   2.105   7.003
 1575SOL    HW1 5624   6.850   2.050   0.009
 1575SOL    HW2 5625   6.766   2.188   0.034
 1576SOL     OW 5626   0.689   6.215   2.699
 1576SOL    HW1 5627   0.612   6.278   2.698
 1576SOL    HW2 5628   0.747   6.233   2.779
 1577SOL     OW 5629   4.493   5.996   4.096
 1577SOL    HW1 5630   4.514   5.942   4.015
 1577SOL    HW2 5631   4.551   5.967   4.172
 1578SOL     OW 5632   5.518   1.793   2.031
 1578SOL    HW1 5633   5.595   1.790   2.094
 1578SOL    HW2 5634   5.433   1.801   2.084
 1579SOL     OW 5635   1.658   3.922   2.535
 1579SOL    HW1 5636   1.589   3.880   2.476
 1579SOL    HW2 5637   1.696   3.852   2.596
 1580SOL     OW 5638   3.263   3.418   4.786
 1580SOL    HW1 5639   3.356   3.453   4.791
 1580SOL    HW2 5640   3.258   3.346   4.717
 1581SOL     OW 5641   5.366   3.842   5.212
 1581SOL    HW1 5642   5.389   3.793   5.296
 1581SOL    HW2 5643   5.267   3.838   5.197
 1582SOL     OW 5644   3.962   6.115   3.937
 1582SOL    HW1 5645   3.983   6.197   3.991
 1582SOL    HW2 5646   3.940   6.039   3.998
 1583SOL     OW 5647   0.713   5.392   4.687
 1583SOL    HW1 5648   0.631   5.418   4.738
 1583SOL    HW2 5649   0.788   5.455   4.709
 1584SOL     OW 5650   0.404   4.418   0.139
 1584SOL    HW1 5651   0.479   4.412   0.073
 1584SOL    HW2 5652   0.317   4.413   0.090
 1585SOL     OW 5653   4.158   6.580   4.143
 1585SOL    HW1 5654   4.147   6.552   4.238
 1585SOL    HW2 5655   4.113   6.669   4.129
 1586SOL     OW 5656   2.867   5.955   3.731
 1586SOL    HW1 5657   2.829   6.035   3.685
 1586SOL    HW2 5658   2.874   5.974   3.829
 1587SOL     OW 5659   4.215   0.157   6.719
 1587SOL    HW1 5660   4.189   0.108   6.802
 1587SOL    HW2 5661   4.143   0.222   6.695
 1588SOL     OW 5662   6.364   1.439   3.917
 1588SOL    HW1 5663   6.335   1.449   4.012
 1588SOL    HW2 5664   6.328   1.515   3.863
 1589SOL     OW 5665   0.058   0.945   3.950
 1589SOL    HW1 5666   0.092   0.903   3.866
 1589SOL    HW2 5667   0.104   1.033   3.964
 1590SOL     OW 5668   5.671   0.109   3.939
 1590SOL    HW1 5669   5.636   0.181   3.879
 1590SOL    HW2 5670   5.600   0.042   3.956
 1591SOL     OW 5671   0.171   4.931   0.526
 1591SOL    HW1 5672   0.163   4.976   0.615
 1591SOL    HW2 5673   0.167   5.000   0.454
 1592SOL     OW 5674   6.775   4.325   4.543
 1592SOL    HW1 5675   6.742   4.247   4.490
 1592SOL    HW2 5676   6.707   4.398   4.541
 1593SOL     OW 5677   4.027   5.268   1.271
 1593SOL    HW1 5678   4.001   5.221   1.186
 1593SOL    HW2 5679   4.031   5.202   1.345
 1594SOL     OW 5680   5.214   0.775   3.208
 1594SOL    HW1 5681   5.292   0.784   3.271
 1594SOL    HW2 5682   5.143   0.718   3.249
 1595SOL     OW 5683   6.715   3.879   0.656
 1595SOL    HW1 5684   6.659   3.960   0.674
 1595SOL    HW2 5685   6.784   3.869   0.727
 1596SOL     OW 5686   5.398   4.386   4.458
 1596SOL    HW1 5687   5.460   4.333   4.515
 1596SOL    HW2 5688   5.304   4.366   4.484
 1597SOL     OW 5689   4.397   6.700   1.181
 1597SOL    HW1 5690   4.310   6.664   1.215
 1597SOL    HW2 5691   4.426   6.777   1.238
 1598SOL     OW 5692   0.848   5.800   6.017
 1598SOL    HW1 5693   0.797   5.740   5.954
 1598SOL    HW2 5694   0.793   5.816   6.099
 1599SOL     OW 5695   5.155   5.161   4.178
 1599SOL    HW1 5696   5.083   5.226   4.151
 1599SOL    HW2 5697   5.124   5.107   4.256
 1600SOL     OW 5698   5.367   1.194   1.717
 1600SOL    HW1 5699   5.414   1.278   1.743
 1600SOL    HW2 5700   5.285   1.182   1.772
 1601SOL     OW 5701   6.025   0.686   5.088
 1601SOL    HW1 5702   5.963   0.727   5.021
 1601SOL    HW2 5703   6.031   0.587   5.072
 1602SOL     OW 5704   3.694   5.915   3.460
 1602SOL    HW1 5705   3.657   6.007   3.472
 1602SOL    HW2 5706   3.765   5.899   3.529
 1603SOL     OW 5707   3.569   5.795   1.230
 1603SOL    HW1 5708   3.611   5.708   1.256
 1603SOL    HW2 5709   3.472   5.781   1.210
 1604SOL     OW 5710   4.390   5.573   1.573
 1604SOL    HW1 5711   4.332   5.647   1.608
 1604SOL    HW2 5712   4.486   5.601   1.580
 1605SOL     OW 5713   4.002   5.008   0.204
 1605SOL    HW1 5714   4.029   5.102   0.181
 1605SOL    HW2 5715   4.025   4.990   0.300
 1606SOL     OW 5716   4.971   5.877   4.823
 1606SOL    HW1 5717   5.016   5.965   4.840
 1606SOL    HW2 5718   4.896   5.864   4.888
 1607SOL     OW 5719   4.708   4.338   4.134
 1607SOL    HW1 5720   4.747   4.320   4.224
 1607SOL    HW2 5721   4.753   4.280   4.066
 1608SOL     OW 5722   6.279   3.098   3.130
 1608SOL    HW1 5723   6.298   3.009   3.089
 1608SOL    HW2 5724   6.328   3.169   3.079
 1609SOL     OW 5725   1.430   0.219   0.750
 1609SOL    HW1 5726   1.409   0.124   0.773
 1609SOL    HW2 5727   1.529   0.232   0.746
 1610SOL     OW 5728   5.636   5.401   1.098
 1610SOL    HW1 5729   5.645   5.407   1.198
 1610SOL    HW2 5730   5.714   5.447   1.055
 1611SOL     OW 5731   0.258   4.635   6.625
 1611SOL    HW1 5732   0.216   4.708   6.679
 1611SOL    HW2 5733   0.330   4.591   6.678
 1612SOL     OW 5734   5.085   0.716   2.390
 1612SOL    HW1 5735   5.009   0.773   2.359
 1612SOL    HW2 5736   5.146   0.698   2.313
 1613SOL     OW 5737   0.103   6.268   2.532
 1613SOL    HW1 5738   0.148   6.346   2.489
 1613SOL    HW2 5739   0.135   6.259   2.626
 1614SOL     OW 5740   6.275   0.981   5.982
 1614SOL    HW1 5741   6.359   0.935   5.954
 1614SOL    HW2 5742   6.253   1.053   5.915
 1615SOL     OW 5743   6.493   2.924   5.766
 1615SOL    HW1 5744   6.466   2.915   5.670
 1615SOL    HW2 5745   6.458   2.845   5.818
 1616SOL     OW 5746   1.575   1.269   3.294
 1616SOL    HW1 5747   1.664   1.288   3.335
 1616SOL    HW2 5748   1.507   1.256   3.367
 1617SOL     OW 5749   0.205   6.116   4.396
 1617SOL    HW1 5750   0.218   6.068   4.483
 1617SOL    HW2 5751   0.168   6.052   4.329
 1618SOL     OW 5752   3.092   5.258   2.979
 1618SOL    HW1 5753   3.132   5.242   3.069
 1618SOL    HW2 5754   3.002   5.301   2.989
 1619SOL     OW 5755   0.951   3.706   6.139
 1619SOL    HW1 5756   1.050   3.695   6.151
 1619SOL    HW2 5757   0.933   3.783   6.078
 1620SOL     OW 5758   2.668   6.890   4.539
 1620SOL    HW1 5759   2.611   6.809   4.525
 1620SOL    HW2 5760   2.648   6.929   4.628
 1621SOL     OW 5761   5.681   4.972   0.794
 1621SOL    HW1 5762   5.737   5.017   0.724
 1621SOL    HW2 5763   5.635   4.893   0.754
 1622SOL     OW 5764   6.553   3.004   3.487
 1622SOL    HW1 5765   6.488   3.067   3.446
 1622SOL    HW2 5766   6.514   2.911   3.486
 1623SOL     OW 5767   0.629   2.336   3.967
 1623SOL    HW1 5768   0.718   2.328   4.012
 1623SOL    HW2 5769   0.617   2.260   3.903
 1624SOL     OW 5770   4.779   3.196   0.493
 1624SOL    HW1 5771   4.701   3.158   0.543
 1624SOL    HW2 5772   4.848   3.228   0.559
 1625SOL     OW 5773   1.015   6.364   0.080
 1625SOL    HW1 5774   1.051   6.307   0.006
 1625SOL    HW2 5775   0.974   6.446   0.042
 1626SOL     OW 5776   2.598   1.709   1.818
 1626SOL    HW1 5777   2.646   1.688   1.732
 1626SOL    HW2 5778   2.617   1.804   1.844
 1627SOL     OW 5779   4.372   0.825   5.509
 1627SOL    HW1 5780   4.310   0.861   5.439
 1627SOL    HW2 5781   4.456   0.793   5.465
 1628SOL     OW 5782   5.626   5.604   0.909
 1628SOL    HW1 5783   5.598   5.696   0.936
 1628SOL    HW2 5784   5.598   5.539   0.980
 1629SOL     OW 5785   1.907   6.304   2.605
 1629SOL    HW1 5786   1.830   6.337   2.660
 1629SOL    HW2 5787   1.951   6.228   2.653
 1630SOL     OW 5788   0.309   4.994   5.930
 1630SOL    HW1 5789   0.298   4.911   5.984
 1630SOL    HW2 5790   0.387   5.045   5.963
 1631SOL     OW 5791   5.114   4.453   6.910
 1631SOL    HW1 5792   5.063   4.368   6.903
 1631SOL    HW2 5793   5.086   4.503   6.992
 1632SOL     OW 5794   6.203   5.661   2.588
 1632SOL    HW1 5795   6.194   5.563   2.603
 1632SOL    HW2 5796   6.113   5.703   2.582
 1633SOL     OW 5797   6.757   3.844   4.873
 1633SOL    HW1 5798   6.670   3.884   4.844
 1633SOL    HW2 5799   6.764   3.848   4.973
 1634SOL     OW 5800   1.286   4.128   6.074
 1634SOL    HW1 5801   1.294   4.193   5.998
 1634SOL    HW2 5802   1.338   4.046   6.053
 1635SOL     OW 5803   2.416   1.211   3.811
 1635SOL    HW1 5804   2.374   1.159   3.738
 1635SOL    HW2 5805   2.437   1.151   3.889
 1636SOL     OW 5806   0.122   6.018   1.864
 1636SOL    HW1 5807   0.168   6.066   1.939
 1636SOL    HW2 5808   0.099   6.083   1.792
 1637SOL     OW 5809   1.156   1.385   1.512
 1637SOL    HW1 5810   1.216   1.376   1.591
 1637SOL    HW2 5811   1.167   1.306   1.452
 1638SOL     OW 5812   5.438   1.978   3.661
 1638SOL    HW1 5813   5.397   1.940   3.744
 1638SOL    HW2 5814   5.372   1.972   3.586
 1639SOL     OW 5815   5.059   1.972   0.884
 1639SOL    HW1 5816   5.005   1.896   0.920
 1639SOL    HW2 5817   5.154   1.963   0.916
 1640SOL     OW 5818   6.087   1.318   6.686
 1640SOL    HW1 5819   6.013   1.328   6.619
 1640SOL    HW2 5820   6.151   1.248   6.656
 1641SOL     OW 5821   5.758   1.396   2.272
 1641SOL    HW1 5822   5.846   1.365   2.235
 1641SOL    HW2 5823   5.765   1.407   2.371
 1642SOL     OW 5824   0.089   3.457   6.655
 1642SOL    HW1 5825   0.035   3.408   6.587
 1642SOL    HW2 5826   0.184   3.424   6.652
 1643SOL     OW 5827   2.170   5.355   4.672
 1643SOL    HW1 5828   2.126   5.289   4.611
 1643SOL    HW2 5829   2.221   5.422   4.619
 1644SOL     OW 5830   5.887   1.620   1.130
 1644SOL    HW1 5831   5.820   1.622   1.204
 1644SOL    HW2 5832   5.950   1.696   1.139
 1645SOL     OW 5833   2.522   1.048   4.014
 1645SOL    HW1 5834   2.594   1.012   4.073
 1645SOL    HW2 5835   2.455   1.098   4.069
 1646SOL     OW 5836   6.867   5.416   2.001
 1646SOL    HW1 5837   6.880   5.462   1.913
 1646SOL    HW2 5838   6.819   5.478   2.064
 1647SOL     OW 5839   6.729   3.704   5.342
 1647SOL    HW1 5840   6.688   3.676   5.429
 1647SOL    HW2 5841   6.689   3.651   5.267
 1648SOL     OW 5842   5.857   5.796   2.265
 1648SOL    HW1 5843   5.930   5.762   2.206
 1648SOL    HW2 5844   5.768   5.773   2.225
 1649SOL     OW 5845   3.999   1.005   3.350
 1649SOL    HW1 5846   4.015   0.926   3.409
 1649SOL    HW2 5847   3.902   1.010   3.326
 1650SOL     OW 5848   2.716   2.407   5.088
 1650SOL    HW1 5849   2.642   2.353   5.049
 1650SOL    HW2 5850   2.694   2.429   5.183
 1651SOL     OW 5851   1.632   2.249   3.830
 1651SOL    HW1 5852   1.597   2.156   3.841
 1651SOL    HW2 5853   1.557   2.314   3.839
 1652SOL     OW 5854   0.106   4.319   1.566
 1652SOL    HW1 5855   0.198   4.289   1.539
 1652SOL    HW2 5856   0.109   4.355   1.659
 1653SOL     OW 5857   5.895   3.961   1.799
 1653SOL    HW1 5858   5.925   3.947   1.705
 1653SOL    HW2 5859   5.796   3.948   1.805
 1654SOL     OW 5860   6.948   3.188   1.937
 1654SOL    HW1 5861   7.008   3.167   2.015
 1654SOL    HW2 5862   6.943   3.287   1.925
 1655SOL     OW 5863   6.749   0.774   5.661
 1655SOL    HW1 5864   6.795   0.862   5.652
 1655SOL    HW2 5865   6.792   0.720   5.733
 1656SOL     OW 5866   1.751   4.380   2.936
 1656SOL    HW1 5867   1.843   4.359   2.970
 1656SOL    HW2 5868   1.690   4.303   2.956
 1657SOL     OW 5869   0.493   1.307   6.164
 1657SOL    HW1 5870   0.566   1.270   6.221
 1657SOL    HW2 5871   0.404   1.284   6.204
 1658SOL     OW 5872   4.937   0.010   5.602
 1658SOL    HW1 5873   4.920   6.937   5.619
 1658SOL    HW2 5874   4.868   0.064   5.650
 1659SOL     OW 5875   3.055   1.114   6.454
 1659SOL    HW1 5876   2.998   1.035   6.476
 1659SOL    HW2 5877   3.012   1.197   6.489
 1660SOL     OW 5878   2.352   1.153   1.512
 1660SOL    HW1 5879   2.384   1.194   1.597
 1660SOL    HW2 5880   2.327   1.225   1.448
 1661SOL     OW 5881   4.626   5.129   3.314
 1661SOL    HW1 5882   4.537   5.174   3.323
 1661SOL    HW2 5883   4.614   5.031   3.327
 1662SOL     OW 5884   0.508   1.759   3.929
 1662SOL    HW1 5885   0.591   1.759   3.873
 1662SOL    HW2 5886   0.530   1.790   4.021
 1663SOL     OW 5887   6.688   3.880   1.275
 1663SOL    HW1 5888   6.661   3.971   1.244
 1663SOL    HW2 5889   6.787   3.870   1.271
 1664SOL     OW 5890   1.313   1.217   6.576
 1664SOL    HW1 5891   1.342   1.283   6.645
 1664SOL    HW2 5892   1.374   1.223   6.497
 1665SOL     OW 5893   1.677   3.594   0.167
 1665SOL    HW1 5894   1.756   3.533   0.159
 1665SOL    HW2 5895   1.707   3.689   0.174
 1666SOL     OW 5896   5.623   6.371   5.528
 1666SOL    HW1 5897   5.695   6.311   5.562
 1666SOL    HW2 5898   5.559   6.391   5.602
 1667SOL     OW 5899   6.653   5.176   0.915
 1667SOL    HW1 5900   6.669   5.222   1.002
 1667SOL    HW2 5901   6.629   5.243   0.845
 1668SOL     OW 5902   6.750   2.935   2.083
 1668SOL    HW1 5903   6.725   3.030   2.062
 1668SOL    HW2 5904   6.848   2.923   2.069
 1669SOL     OW 5905   6.181   2.766   5.581
 1669SOL    HW1 5906   6.129   2.747   5.664
 1669SOL    HW2 5907   6.178   2.864   5.561
 1670SOL     OW 5908   2.866   4.362   5.324
 1670SOL    HW1 5909   2.875   4.449   5.275
 1670SOL    HW2 5910   2.950   4.310   5.315
 1671SOL     OW 5911   5.766   2.304   0.489
 1671SOL    HW1 5912   5.708   2.224   0.473
 1671SOL    HW2 5913   5.711   2.378   0.529
 1672SOL     OW 5914   0.819   1.823   1.251
 1672SOL    HW1 5915   0.725   1.822   1.217
 1672SOL    HW2 5916   0.830   1.896   1.318
 1673SOL     OW 5917   0.930   0.514   6.399
 1673SOL    HW1 5918   0.862   0.577   6.436
 1673SOL    HW2 5919   0.963   0.548   6.311
 1674SOL     OW 5920   4.786   2.725   3.235
 1674SOL    HW1 5921   4.868   2.679   3.200
 1674SOL    HW2 5922   4.808   2.820   3.255
 1675SOL     OW 5923   4.946   0.868   2.224
 1675SOL    HW1 5924   4.999   0.906   2.148
 1675SOL    HW2 5925   4.849   0.875   2.203
 1676SOL     OW 5926   1.571   1.981   3.835
 1676SOL    HW1 5927   1.480   1.967   3.798
 1676SOL    HW2 5928   1.606   1.894   3.871
 1677SOL     OW 5929   2.894   3.822   1.291
 1677SOL    HW1 5930   2.859   3.896   1.233
 1677SOL    HW2 5931   2.943   3.862   1.369
 1678SOL     OW 5932   6.793   0.376   0.604
 1678SOL    HW1 5933   6.763   0.442   0.535
 1678SOL    HW2 5934   6.829   0.425   0.683
 1679SOL     OW 5935   6.201   1.851   0.007
 1679SOL    HW1 5936   6.149   1.907   0.072
 1679SOL    HW2 5937   6.266   1.910   6.981
 1680SOL     OW 5938   5.298   1.932   3.444
 1680SOL    HW1 5939   5.365   1.966   3.377
 1680SOL    HW2 5940   5.261   1.845   3.412
 1681SOL     OW 5941   4.250   6.450   3.844
 1681SOL    HW1 5942   4.208   6.471   3.932
 1681SOL    HW2 5943   4.349   6.460   3.852
 1682SOL     OW 5944   4.188   1.889   5.428
 1682SOL    HW1 5945   4.154   1.860   5.339
 1682SOL    HW2 5946   4.278   1.931   5.418
 1683SOL     OW 5947   1.105   4.001   3.570
 1683SOL    HW1 5948   1.025   3.946   3.596
 1683SOL    HW2 5949   1.159   4.022   3.652
 1684SOL     OW 5950   3.637   5.826   0.939
 1684SOL    HW1 5951   3.601   5.868   1.023
 1684SOL    HW2 5952   3.561   5.797   0.881
 1685SOL     OW 5953   0.287   2.131   5.642
 1685SOL    HW1 5954   0.314   2.043   5.682
 1685SOL    HW2 5955   0.296   2.126   5.543
 1686SOL     OW 5956   3.310   5.996   1.523
 1686SOL    HW1 5957   3.374   6.045   1.582
 1686SOL    HW2 5958   3.325   5.897   1.533
 1687SOL     OW 5959   4.599   3.987   0.209
 1687SOL    HW1 5960   4.665   3.926   0.254
 1687SOL    HW2 5961   4.513   3.986   0.260
 1688SOL     OW 5962   3.003   0.565   2.675
 1688SOL    HW1 5963   2.916   0.613   2.685
 1688SOL    HW2 5964   2.992   0.470   2.704
 1689SOL     OW 5965   4.040   1.020   2.116
 1689SOL    HW1 5966   4.047   1.118   2.135
 1689SOL    HW2 5967   4.018   1.007   2.019
 1690SOL     OW 5968   0.270   4.556   4.078
 1690SOL    HW1 5969   0.266   4.460   4.105
 1690SOL    HW2 5970   0.361   4.578   4.044
 1691SOL     OW 5971   4.408   3.219   5.291
 1691SOL    HW1 5972   4.498   3.262   5.289
 1691SOL    HW2 5973   4.418   3.122   5.312
 1692SOL     OW 5974   5.507   5.225   3.003
 1692SOL    HW1 5975   5.442   5.287   2.958
 1692SOL    HW2 5976   5.565   5.277   3.065
 1693SOL     OW 5977   5.837   0.723   5.932
 1693SOL    HW1 5978   5.915   0.740   5.992
 1693SOL    HW2 5979   5.795   0.635   5.954
 1694SOL     OW 5980   4.224   1.104   6.772
 1694SOL    HW1 5981   4.271   1.067   6.692
 1694SOL    HW2 5982   4.207   1.031   6.838
 1695SOL     OW 5983   5.166   0.601   5.304
 1695SOL    HW1 5984   5.192   0.559   5.217
 1695SOL    HW2 5985   5.091   0.549   5.345
 1696SOL     OW 5986   5.376   6.925   0.858
 1696SOL    HW1 5987   5.338   6.895   0.946
 1696SOL    HW2 5988   5.434   6.853   0.821
 1697SOL     OW 5989   4.157   4.008   1.778
 1697SOL    HW1 5990   4.113   4.090   1.815
 1697SOL    HW2 5991   4.138   4.001   1.680
 1698SOL     OW 5992   4.882   1.919   1.259
 1698SOL    HW1 5993   4.854   2.009   1.227
 1698SOL    HW2 5994   4.827   1.894   1.340
 1699SOL     OW 5995   2.003   0.505   0.901
 1699SOL    HW1 5996   1.918   0.554   0.879
 1699SOL    HW2 5997   1.982   0.426   0.959
 1700SOL     OW 5998   6.010   3.140   2.992
 1700SOL    HW1 5999   5.945   3.103   2.926
 1700SOL    HW2 6000   6.082   3.073   3.010
 1701SOL     OW 6001   1.289   5.484   5.474
 1701SOL    HW1 6002   1.296   5.384   5.466
 1701SOL    HW2 6003   1.341   5.514   5.554
 1702SOL     OW 6004   2.148   2.583   6.949
 1702SOL    HW1 6005   2.073   2.518   6.947
 1702SOL    HW2 6006   2.221   2.553   6.887
 1703SOL     OW 6007   1.324   1.875   2.084
 1703SOL    HW1 6008   1.340   1.794   2.140
 1703SOL    HW2 6009   1.396   1.943   2.102
 1704SOL     OW 6010   2.788   3.085   6.952
 1704SOL    HW1 6011   2.793   3.183   6.970
 1704SOL    HW2 6012   2.861   3.059   6.888
 1705SOL     OW 6013   5.639   3.172   1.293
 1705SOL    HW1 6014   5.731   3.138   1.311
 1705SOL    HW2 6015   5.577   3.140   1.365
 1706SOL     OW 6016   6.118   0.423   5.675
 1706SOL    HW1 6017   6.102   0.514   5.712
 1706SOL    HW2 6018   6.200   0.384   5.717
 1707SOL     OW 6019   2.725   1.398   2.183
 1707SOL    HW1 6020   2.774   1.431   2.102
 1707SOL    HW2 6021   2.791   1.355   2.245
 1708SOL     OW 6022   2.680   4.896   1.637
 1708SOL    HW1 6023   2.681   4.796   1.638
 1708SOL    HW2 6024   2.758   4.930   1.689
 1709SOL     OW 6025   5.767   4.830   2.613
 1709SOL    HW1 6026   5.864   4.815   2.597
 1709SOL    HW2 6027   5.719   4.834   2.525
 1710SOL     OW 6028   4.926   2.829   1.977
 1710SOL    HW1 6029   4.858   2.900   1.993
 1710SOL    HW2 6030   4.962   2.838   1.884
 1711SOL     OW 6031   4.068   5.293   0.177
 1711SOL    HW1 6032   4.054   5.297   0.276
 1711SOL    HW2 6033   3.997   5.347   0.132
 1712SOL     OW 6034   0.159   2.559   2.514
 1712SOL    HW1 6035   0.120   2.470   2.492
 1712SOL    HW2 6036   0.090   2.616   2.558
 1713SOL     OW 6037   2.909   1.458   2.590
 1713SOL    HW1 6038   2.858   1.517   2.528
 1713SOL    HW2 6039   2.853   1.438   2.671
 1714SOL     OW 6040   3.358   4.889   0.953
 1714SOL    HW1 6041   3.380   4.861   1.047
 1714SOL    HW2 6042   3.440   4.887   0.897
 1715SOL     OW 6043   1.268   6.002   0.499
 1715SOL    HW1 6044   1.296   5.996   0.403
 1715SOL    HW2 6045   1.195   5.937   0.518
 1716SOL     OW 6046   5.152   1.377   2.652
 1716SOL    HW1 6047   5.065   1.334   2.627
 1716SOL    HW2 6048   5.143   1.476   2.647
 1717SOL     OW 6049   3.710   6.629   3.985
 1717SOL    HW1 6050   3.637   6.691   3.955
 1717SOL    HW2 6051   3.798   6.673   3.974
 1718SOL     OW 6052   1.537   3.995   2.097
 1718SOL    HW1 6053   1.631   3.978   2.068
 1718SOL    HW2 6054   1.513   4.090   2.078
 1719SOL     OW 6055   1.629   4.803   3.556
 1719SOL    HW1 6056   1.567   4.834   3.483
 1719SOL    HW2 6057   1.662   4.711   3.535
 1720SOL     OW 6058   1.377   2.795   5.567
 1720SOL    HW1 6059   1.458   2.850   5.588
 1720SOL    HW2 6060   1.328   2.836   5.490
 1721SOL     OW 6061   1.903   2.422   6.951
 1721SOL    HW1 6062   1.884   2.327   6.926
 1721SOL    HW2 6063   1.860   2.444   0.014
 1722SOL     OW 6064   3.669   2.127   2.855
 1722SOL    HW1 6065   3.724   2.210   2.860
 1722SOL    HW2 6066   3.637   2.114   2.761
 1723SOL     OW 6067   6.924   5.366   1.189
 1723SOL    HW1 6068   6.937   5.365   1.289
 1723SOL    HW2 6069   6.827   5.374   1.168
 1724SOL     OW 6070   6.367   3.925   1.610
 1724SOL    HW1 6071   6.341   3.994   1.542
 1724SOL    HW2 6072   6.358   3.834   1.570
 1725SOL     OW 6073   1.804   6.627   4.747
 1725SOL    HW1 6074   1.861   6.637   4.828
 1725SOL    HW2 6075   1.845   6.679   4.671
 1726SOL     OW 6076   5.424   4.851   3.463
 1726SOL    HW1 6077   5.468   4.803   3.538
 1726SOL    HW2 6078   5.411   4.947   3.488
 1727SOL     OW 6079   2.889   3.669   3.650
 1727SOL    HW1 6080   2.909   3.756   3.697
 1727SOL    HW2 6081   2.907   3.593   3.713
 1728SOL     OW 6082   5.457   2.159   4.612
 1728SOL    HW1 6083   5.446   2.192   4.706
 1728SOL    HW2 6084   5.534   2.095   4.608
 1729SOL     OW 6085   1.465   3.207   3.175
 1729SOL    HW1 6086   1.424   3.140   3.113
 1729SOL    HW2 6087   1.415   3.208   3.262
 1730SOL     OW 6088   2.567   0.545   4.408
 1730SOL    HW1 6089   2.559   0.448   4.387
 1730SOL    HW2 6090   2.662   0.574   4.397
 1731SOL     OW 6091   6.306   5.035   3.479
 1731SOL    HW1 6092   6.367   4.959   3.503
 1731SOL    HW2 6093   6.215   5.020   3.517
 1732SOL     OW 6094   4.074   3.273   4.923
 1732SOL    HW1 6095   4.139   3.300   4.995
 1732SOL    HW2 6096   4.120   3.273   4.835
 1733SOL     OW 6097   1.284   2.116   6.971
 1733SOL    HW1 6098   1.300   2.064   6.888
 1733SOL    HW2 6099   1.354   2.187   6.980
 1734SOL     OW 6100   0.873   4.382   2.405
 1734SOL    HW1 6101   0.936   4.305   2.399
 1734SOL    HW2 6102   0.909   4.458   2.352
 1735SOL     OW 6103   3.528   5.626   5.920
 1735SOL    HW1 6104   3.443   5.630   5.867
 1735SOL    HW2 6105   3.606   5.621   5.858
 1736SOL     OW 6106   4.388   1.890   5.019
 1736SOL    HW1 6107   4.435   1.884   4.931
 1736SOL    HW2 6108   4.450   1.931   5.086
 1737SOL     OW 6109   2.052   0.546   0.240
 1737SOL    HW1 6110   2.003   0.497   0.312
 1737SOL    HW2 6111   2.044   0.645   0.256
 1738SOL     OW 6112   1.294   4.035   2.162
 1738SOL    HW1 6113   1.384   3.997   2.141
 1738SOL    HW2 6114   1.304   4.110   2.228
 1739SOL     OW 6115   4.701   5.785   2.850
 1739SOL    HW1 6116   4.769   5.858   2.856
 1739SOL    HW2 6117   4.724   5.724   2.775
 1740SOL     OW 6118   6.847   2.142   4.755
 1740SOL    HW1 6119   6.859   2.151   4.656
 1740SOL    HW2 6120   6.927   2.180   4.802
 1741SOL     OW 6121   1.395   2.771   4.349
 1741SOL    HW1 6122   1.403   2.865   4.382
 1741SOL    HW2 6123   1.484   2.725   4.359
 1742SOL     OW 6124   5.822   0.255   6.453
 1742SOL    HW1 6125   5.800   0.328   6.517
 1742SOL    HW2 6126   5.885   0.291   6.383
 1743SOL     OW 6127   0.654   1.580   2.028
 1743SOL    HW1 6128   0.650   1.592   1.929
 1743SOL    HW2 6129   0.642   1.668   2.073
 1744SOL     OW 6130   2.800   2.045   5.082
 1744SOL    HW1 6131   2.850   2.116   5.132
 1744SOL    HW2 6132   2.705   2.074   5.068
 1745SOL     OW 6133   6.117   0.024   1.055
 1745SOL    HW1 6134   6.081   6.969   1.105
 1745SOL    HW2 6135   6.099   0.108   1.107
 1746SOL     OW 6136   2.425   5.188   2.395
 1746SOL    HW1 6137   2.422   5.229   2.303
 1746SOL    HW2 6138   2.424   5.088   2.387
 1747SOL     OW 6139   2.790   6.683   2.015
 1747SOL    HW1 6140   2.870   6.677   2.074
 1747SOL    HW2 6141   2.720   6.740   2.059
 1748SOL     OW 6142   6.864   1.571   3.674
 1748SOL    HW1 6143   6.858   1.581   3.575
 1748SOL    HW2 6144   6.799   1.633   3.718
 1749SOL     OW 6145   6.441   5.776   2.596
 1749SOL    HW1 6146   6.351   5.732   2.590
 1749SOL    HW2 6147   6.431   5.875   2.583
 1750SOL     OW 6148   2.470   1.571   0.937
 1750SOL    HW1 6149   2.465   1.587   0.838
 1750SOL    HW2 6150   2.410   1.636   0.984
 1751SOL     OW 6151   6.497   4.317   4.773
 1751SOL    HW1 6152   6.442   4.400   4.762
 1751SOL    HW2 6153   6.437   4.237   4.769
 1752SOL     OW 6154   5.946   0.450   2.967
 1752SOL    HW1 6155   5.920   0.448   3.064
 1752SOL    HW2 6156   6.004   0.529   2.949
 1753SOL     OW 6157   6.931   1.576   1.110
 1753SOL    HW1 6158   6.987   1.651   1.075
 1753SOL    HW2 6159   6.935   1.499   1.046
 1754SOL     OW 6160   1.888   4.433   3.836
 1754SOL    HW1 6161   1.843   4.371   3.900
 1754SOL    HW2 6162   1.822   4.500   3.803
 1755SOL     OW 6163   5.489   6.748   5.373
 1755SOL    HW1 6164   5.518   6.803   5.451
 1755SOL    HW2 6165   5.393   6.721   5.385
 1756SOL     OW 6166   4.671   5.223   1.047
 1756SOL    HW1 6167   4.639   5.309   1.006
 1756SOL    HW2 6168   4.618   5.203   1.129
 1757SOL     OW 6169   3.102   4.981   5.328
 1757SOL    HW1 6170   3.035   4.998   5.399
 1757SOL    HW2 6171   3.055   4.961   5.242
 1758SOL     OW 6172   0.252   6.460   4.168
 1758SOL    HW1 6173   0.209   6.411   4.244
 1758SOL    HW2 6174   0.331   6.512   4.203
 1759SOL     OW 6175   1.981   5.239   5.858
 1759SOL    HW1 6176   2.038   5.225   5.776
 1759SOL    HW2 6177   2.040   5.246   5.938
 1760SOL     OW 6178   5.761   1.402   4.317
 1760SOL    HW1 6179   5.682   1.343   4.334
 1760SOL    HW2 6180   5.743   1.461   4.238
 1761SOL     OW 6181   4.876   2.487   3.946
 1761SOL    HW1 6182   4.911   2.472   3.853
 1761SOL    HW2 6183   4.927   2.560   3.990
 1762SOL     OW 6184   0.995   1.503   5.160
 1762SOL    HW1 6185   0.955   1.591   5.136
 1762SOL    HW2 6186   1.082   1.491   5.111
 1763SOL     OW 6187   1.354   5.437   4.109
 1763SOL    HW1 6188   1.399   5.370   4.050
 1763SOL    HW2 6189   1.375   5.529   4.077
 1764SOL     OW 6190   0.477   5.134   3.522
 1764SOL    HW1 6191   0.517   5.129   3.430
 1764SOL    HW2 6192   0.403   5.067   3.529
 1765SOL     OW 6193   5.390   4.144   2.361
 1765SOL    HW1 6194   5.418   4.209   2.291
 1765SOL    HW2 6195   5.297   4.113   2.343
 1766SOL     OW 6196   3.829   4.934   3.232
 1766SOL    HW1 6197   3.766   4.895   3.165
 1766SOL    HW2 6198   3.874   5.015   3.193
 1767SOL     OW 6199   2.064   4.150   1.710
 1767SOL    HW1 6200   2.038   4.064   1.665
 1767SOL    HW2 6201   2.052   4.226   1.647
 1768SOL     OW 6202   3.513   5.246   2.913
 1768SOL    HW1 6203   3.515   5.327   2.972
 1768SOL    HW2 6204   3.433   5.250   2.855
 1769SOL     OW 6205   5.457   0.226   0.611
 1769SOL    HW1 6206   5.514   0.294   0.565
 1769SOL    HW2 6207   5.473   0.229   0.710
 1770SOL     OW 6208   2.089   3.995   0.312
 1770SOL    HW1 6209   2.028   4.035   0.380
 1770SOL    HW2 6210   2.040   3.925   0.260
 1771SOL     OW 6211   1.595   3.047   6.147
 1771SOL    HW1 6212   1.675   3.001   6.109
 1771SOL    HW2 6213   1.617   3.084   6.237
 1772SOL     OW 6214   2.543   4.973   2.013
 1772SOL    HW1 6215   2.640   4.955   1.996
 1772SOL    HW2 6216   2.490   4.891   1.994
 1773SOL     OW 6217   2.122   6.079   4.884
 1773SOL    HW1 6218   2.025   6.063   4.864
 1773SOL    HW2 6219   2.163   5.995   4.920
 1774SOL     OW 6220   5.895   4.890   1.651
 1774SOL    HW1 6221   5.857   4.943   1.575
 1774SOL    HW2 6222   5.974   4.838   1.619
 1775SOL     OW 6223   1.833   6.635   1.031
 1775SOL    HW1 6224   1.910   6.595   1.081
 1775SOL    HW2 6225   1.753   6.576   1.041
 1776SOL     OW 6226   4.682   3.069   5.768
 1776SOL    HW1 6227   4.724   3.151   5.807
 1776SOL    HW2 6228   4.585   3.087   5.751
 1777SOL     OW 6229   4.849   4.599   6.316
 1777SOL    HW1 6230   4.905   4.518   6.298
 1777SOL    HW2 6231   4.781   4.577   6.386
 1778SOL     OW 6232   6.675   0.534   3.011
 1778SOL    HW1 6233   6.690   0.548   2.914
 1778SOL    HW2 6234   6.655   0.438   3.028
 1779SOL     OW 6235   0.039   6.756   4.847
 1779SOL    HW1 6236   0.064   6.754   4.750
 1779SOL    HW2 6237   0.054   6.666   4.887
 1780SOL     OW 6238   2.652   6.923   4.882
 1780SOL    HW1 6239   2.566   6.875   4.867
 1780SOL    HW2 6240   2.727   6.858   4.885
 1781SOL     OW 6241   3.879   1.543   5.398
 1781SOL    HW1 6242   3.822   1.615   5.438
 1781SOL    HW2 6243   3.937   1.582   5.327
 1782SOL     OW 6244   5.600   0.359   2.789
 1782SOL    HW1 6245   5.531   0.418   2.747
 1782SOL    HW2 6246   5.685   0.362   2.736
 1783SOL     OW 6247   1.511   3.184   6.910
 1783SOL    HW1 6248   1.468   3.273   6.895
 1783SOL    HW2 6249   1.454   3.112   6.870
 1784SOL     OW 6250   2.030   6.013   1.340
 1784SOL    HW1 6251   2.108   5.966   1.381
 1784SOL    HW2 6252   1.984   6.069   1.409
 1785SOL     OW 6253   2.383   4.962   5.389
 1785SOL    HW1 6254   2.329   5.010   5.320
 1785SOL    HW2 6255   2.473   5.005   5.397
 1786SOL     OW 6256   0.636   5.706   2.445
 1786SOL    HW1 6257   0.644   5.805   2.441
 1786SOL    HW2 6258   0.726   5.665   2.455
 1787SOL     OW 6259   2.795   1.972   6.267
 1787SOL    HW1 6260   2.767   2.047   6.208
 1787SOL    HW2 6261   2.850   1.908   6.215
 1788SOL     OW 6262   3.726   4.255   0.447
 1788SOL    HW1 6263   3.705   4.287   0.539
 1788SOL    HW2 6264   3.821   4.225   0.443
 1789SOL     OW 6265   6.107   2.891   3.329
 1789SOL    HW1 6266   6.011   2.910   3.309
 1789SOL    HW2 6267   6.124   2.793   3.322
 1790SOL     OW 6268   2.455   2.660   4.523
 1790SOL    HW1 6269   2.409   2.581   4.483
 1790SOL    HW2 6270   2.527   2.692   4.461
 1791SOL     OW 6271   6.070   0.584   3.612
 1791SOL    HW1 6272   6.076   0.634   3.698
 1791SOL    HW2 6273   6.079   0.647   3.535
 1792SOL     OW 6274   0.112   3.316   5.862
 1792SOL    HW1 6275   0.158   3.404   5.849
 1792SOL    HW2 6276   0.068   3.315   5.952
 1793SOL     OW 6277   0.390   1.883   4.845
 1793SOL    HW1 6278   0.390   1.849   4.751
 1793SOL    HW2 6279   0.401   1.983   4.844
 1794SOL     OW 6280   6.932   2.115   6.415
 1794SOL    HW1 6281   6.897   2.025   6.390
 1794SOL    HW2 6282   6.858   2.181   6.412
 1795SOL     OW 6283   6.145   4.088   0.712
 1795SOL    HW1 6284   6.077   4.065   0.642
 1795SOL    HW2 6285   6.097   4.121   0.794
 1796SOL     OW 6286   6.109   0.066   6.722
 1796SOL    HW1 6287   6.083   0.120   6.803
 1796SOL    HW2 6288   6.157   7.008   6.752
 1797SOL     OW 6289   3.041   5.979   5.964
 1797SOL    HW1 6290   3.131   5.942   5.941
 1797SOL    HW2 6291   2.980   5.904   5.990
 1798SOL     OW 6292   2.482   4.134   6.961
 1798SOL    HW1 6293   2.490   4.220   6.911
 1798SOL    HW2 6294   2.497   4.150   0.035
 1799SOL     OW 6295   4.189   1.770   1.603
 1799SOL    HW1 6296   4.193   1.700   1.674
 1799SOL    HW2 6297   4.282   1.803   1.583
 1800SOL     OW 6298   5.638   2.363   5.822
 1800SOL    HW1 6299   5.591   2.287   5.867
 1800SOL    HW2 6300   5.734   2.364   5.850
 1801SOL     OW 6301   0.643   1.803   2.179
 1801SOL    HW1 6302   0.729   1.841   2.146
 1801SOL    HW2 6303   0.572   1.874   2.176
 1802SOL     OW 6304   6.280   4.543   4.683
 1802SOL    HW1 6305   6.200   4.575   4.734
 1802SOL    HW2 6306   6.342   4.621   4.667
 1803SOL     OW 6307   6.192   6.654   3.818
 1803SOL    HW1 6308   6.099   6.691   3.812
 1803SOL    HW2 6309   6.215   6.636   3.914
 1804SOL     OW 6310   1.219   3.080   6.331
 1804SOL    HW1 6311   1.148   3.121   6.388
 1804SOL    HW2 6312   1.182   3.060   6.241
 1805SOL     OW 6313   6.295   5.015   5.963
 1805SOL    HW1 6314   6.211   4.986   5.917
 1805SOL    HW2 6315   6.367   4.949   5.946
 1806SOL     OW 6316   0.321   1.231   1.977
 1806SOL    HW1 6317   0.321   1.229   1.877
 1806SOL    HW2 6318   0.227   1.225   2.011
 1807SOL     OW 6319   6.322   2.734   2.388
 1807SOL    HW1 6320   6.407   2.725   2.439
 1807SOL    HW2 6321   6.269   2.649   2.395
 1808SOL     OW 6322   6.633   0.833   0.266
 1808SOL    HW1 6323   6.628   0.818   0.167
 1808SOL    HW2 6324   6.577   0.912   0.291
 1809SOL     OW 6325   4.273   0.447   4.777
 1809SOL    HW1 6326   4.191   0.436   4.834
 1809SOL    HW2 6327   4.311   0.357   4.756
 1810SOL     OW 6328   1.500   0.957   4.536
 1810SOL    HW1 6329   1.492   0.908   4.449
 1810SOL    HW2 6330   1.478   0.895   4.612
 1811SOL     OW 6331   3.450   5.524   1.581
 1811SOL    HW1 6332   3.381   5.456   1.602
 1811SOL    HW2 6333   3.536   5.500   1.625
 1812SOL     OW 6334   3.938   1.215   6.994
 1812SOL    HW1 6335   3.935   1.255   6.902
 1812SOL    HW2 6336   3.899   1.123   6.991
 1813SOL     OW 6337   5.843   3.651   1.647
 1813SOL    HW1 6338   5.940   3.646   1.672
 1813SOL    HW2 6339   5.825   3.735   1.597
 1814SOL     OW 6340   6.730   5.647   1.522
 1814SOL    HW1 6341   6.706   5.701   1.442
 1814SOL    HW2 6342   6.825   5.618   1.516
 1815SOL     OW 6343   6.663   5.391   1.138
 1815SOL    HW1 6344   6.626   5.339   1.216
 1815SOL    HW2 6345   6.597   5.462   1.111
 1816SOL     OW 6346   3.801   4.840   4.542
 1816SOL    HW1 6347   3.876   4.894   4.580
 1816SOL    HW2 6348   3.751   4.795   4.616
 1817SOL     OW 6349   6.468   2.828   4.327
 1817SOL    HW1 6350   6.531   2.771   4.379
 1817SOL    HW2 6351   6.374   2.811   4.358
 1818SOL     OW 6352   2.157   2.203   0.118
 1818SOL    HW1 6353   2.095   2.147   0.172
 1818SOL    HW2 6354   2.209   2.264   0.179
 1819SOL     OW 6355   0.570   3.308   0.674
 1819SOL    HW1 6356   0.617   3.240   0.731
 1819SOL    HW2 6357   0.588   3.289   0.578
 1820SOL     OW 6358   3.464   6.359   4.938
 1820SOL    HW1 6359   3.473   6.457   4.917
 1820SOL    HW2 6360   3.544   6.310   4.904
 1821SOL     OW 6361   4.352   1.154   2.828
 1821SOL    HW1 6362   4.329   1.065   2.788
 1821SOL    HW2 6363   4.444   1.150   2.866
 1822SOL     OW 6364   2.323   4.563   4.905
 1822SOL    HW1 6365   2.349   4.653   4.871
 1822SOL    HW2 6366   2.371   4.493   4.852
 1823SOL     OW 6367   4.395   7.004   4.579
 1823SOL    HW1 6368   4.473   6.949   4.607
 1823SOL    HW2 6369   4.322   6.944   4.545
 1824SOL     OW 6370   4.539   2.811   1.661
 1824SOL    HW1 6371   4.576   2.890   1.709
 1824SOL    HW2 6372   4.439   2.820   1.654
 1825SOL     OW 6373   1.466   3.485   0.357
 1825SOL    HW1 6374   1.367   3.493   0.343
 1825SOL    HW2 6375   1.514   3.521   0.276
 1826SOL     OW 6376   3.961   3.247   6.706
 1826SOL    HW1 6377   3.914   3.292   6.630
 1826SOL    HW2 6378   3.986   3.315   6.775
 1827SOL     OW 6379   5.037   4.720   0.919
 1827SOL    HW1 6380   5.122   4.693   0.965
 1827SOL    HW2 6381   5.030   4.820   0.918
 1828SOL     OW 6382   2.851   5.377   5.041
 1828SOL    HW1 6383   2.755   5.352   5.026
 1828SOL    HW2 6384   2.873   5.369   5.138
 1829SOL     OW 6385   2.090   6.389   2.440
 1829SOL    HW1 6386   2.016   6.372   2.504
 1829SOL    HW2 6387   2.177   6.389   2.489
 1830SOL     OW 6388   4.426   1.225   6.978
 1830SOL    HW1 6389   4.368   1.197   6.902
 1830SOL    HW2 6390   4.522   1.211   6.953
 1831SOL     OW 6391   3.780   4.107   6.729
 1831SOL    HW1 6392   3.809   4.112   6.634
 1831SOL    HW2 6393   3.700   4.166   6.743
 1832SOL     OW 6394   2.226   2.362   5.533
 1832SOL    HW1 6395   2.217   2.435   5.602
 1832SOL    HW2 6396   2.138   2.347   5.489
 1833SOL     OW 6397   5.866   1.606   0.383
 1833SOL    HW1 6398   5.949   1.551   0.375
 1833SOL    HW2 6399   5.786   1.549   0.365
 1834SOL     OW 6400   1.843   3.587   6.615
 1834SOL    HW1 6401   1.764   3.644   6.593
 1834SOL    HW2 6402   1.826   3.539   6.702
 1835SOL     OW 6403   6.322   0.392   6.720
 1835SOL    HW1 6404   6.414   0.387   6.758
 1835SOL    HW2 6405   6.326   0.384   6.621
 1836SOL     OW 6406   6.084   1.208   4.696
 1836SOL    HW1 6407   6.137   1.267   4.635
 1836SOL    HW2 6408   6.073   1.118   4.654
 1837SOL     OW 6409   1.300   1.889   1.241
 1837SOL    HW1 6410   1.212   1.843   1.232
 1837SOL    HW2 6411   1.370   1.822   1.266
 1838SOL     OW 6412   5.128   0.444   0.429
 1838SOL    HW1 6413   5.144   0.519   0.493
 1838SOL    HW2 6414   5.049   0.464   0.372
 1839SOL     OW 6415   0.122   2.183   6.566
 1839SOL    HW1 6416   0.186   2.106   6.556
 1839SOL    HW2 6417   0.034   2.158   6.525
 1840SOL     OW 6418   2.365   6.904   5.563
 1840SOL    HW1 6419   2.398   6.944   5.478
 1840SOL    HW2 6420   2.387   6.965   5.640
 1841SOL     OW 6421   2.707   7.000   1.911
 1841SOL    HW1 6422   2.688   6.915   1.960
 1841SOL    HW2 6423   2.625   0.003   1.860
 1842SOL     OW 6424   0.363   4.773   1.835
 1842SOL    HW1 6425   0.270   4.738   1.828
 1842SOL    HW2 6426   0.369   4.861   1.787
 1843SOL     OW 6427   4.009   1.117   6.609
 1843SOL    HW1 6428   4.029   1.188   6.542
 1843SOL    HW2 6429   4.083   1.113   6.676
 1844SOL     OW 6430   5.433   3.568   1.458
 1844SOL    HW1 6431   5.360   3.501   1.466
 1844SOL    HW2 6432   5.489   3.547   1.378
 1845SOL     OW 6433   0.351   2.541   4.921
 1845SOL    HW1 6434   0.264   2.589   4.937
 1845SOL    HW2 6435   0.427   2.601   4.945
 1846SOL     OW 6436   3.736   1.365   2.314
 1846SOL    HW1 6437   3.726   1.440   2.380
 1846SOL    HW2 6438   3.673   1.380   2.238
 1847SOL     OW 6439   3.072   5.558   6.941
 1847SOL    HW1 6440   3.165   5.542   6.907
 1847SOL    HW2 6441   3.075   5.579   0.014
 1848SOL     OW 6442   3.310   6.007   4.359
 1848SOL    HW1 6443   3.297   6.012   4.458
 1848SOL    HW2 6444   3.397   5.962   4.339
 1849SOL     OW 6445   5.054   2.869   2.254
 1849SOL    HW1 6446   5.051   2.882   2.155
 1849SOL    HW2 6447   4.962   2.850   2.288
 1850SOL     OW 6448   4.793   1.008   0.505
 1850SOL    HW1 6449   4.744   0.970   0.583
 1850SOL    HW2 6450   4.766   0.959   0.422
 1851SOL     OW 6451   1.510   5.256   3.931
 1851SOL    HW1 6452   1.528   5.183   3.997
 1851SOL    HW2 6453   1.459   5.220   3.854
 1852SOL     OW 6454   0.077   0.323   4.318
 1852SOL    HW1 6455   0.016   0.275   4.381
 1852SOL    HW2 6456   0.085   0.418   4.346
 1853SOL     OW 6457   1.270   2.168   4.953
 1853SOL    HW1 6458   1.256   2.141   4.858
 1853SOL    HW2 6459   1.210   2.113   5.012
 1854SOL     OW 6460   1.098   6.911   4.106
 1854SOL    HW1 6461   1.140   6.850   4.039
 1854SOL    HW2 6462   1.024   6.863   4.152
 1855SOL     OW 6463   6.414   1.486   5.291
 1855SOL    HW1 6464   6.501   1.448   5.322
 1855SOL    HW2 6465   6.365   1.418   5.236
 1856SOL     OW 6466   4.397   3.791   0.044
 1856SOL    HW1 6467   4.469   3.831   7.012
 1856SOL    HW2 6468   4.339   3.863   0.080
 1857SOL     OW 6469   4.627   0.460   6.814
 1857SOL    HW1 6470   4.569   0.380   6.828
 1857SOL    HW2 6471   4.584   0.520   6.746
 1858SOL     OW 6472   4.604   2.047   4.497
 1858SOL    HW1 6473   4.540   1.989   4.548
 1858SOL    HW2 6474   4.565   2.138   4.487
 1859SOL     OW 6475   6.198   6.218   3.066
 1859SOL    HW1 6476   6.148   6.292   3.111
 1859SOL    HW2 6477   6.157   6.130   3.089
 1860SOL     OW 6478   2.289   0.395   0.548
 1860SOL    HW1 6479   2.366   0.448   0.513
 1860SOL    HW2 6480   2.205   0.449   0.542
 1861SOL     OW 6481   6.642   6.903   5.532
 1861SOL    HW1 6482   6.615   6.826   5.475
 1861SOL    HW2 6483   6.737   6.892   5.560
 1862SOL     OW 6484   4.246   4.922   4.840
 1862SOL    HW1 6485   4.298   4.851   4.886
 1862SOL    HW2 6486   4.301   4.963   4.767
 1863SOL     OW 6487   0.044   1.020   1.213
 1863SOL    HW1 6488   0.001   0.942   1.167
 1863SOL    HW2 6489   0.060   1.093   1.147
 1864SOL     OW 6490   2.547   5.782   2.225
 1864SOL    HW1 6491   2.540   5.683   2.234
 1864SOL    HW2 6492   2.515   5.810   2.135
 1865SOL     OW 6493   6.043   2.546   6.140
 1865SOL    HW1 6494   6.140   2.523   6.133
 1865SOL    HW2 6495   6.026   2.632   6.092
 1866SOL     OW 6496   6.962   4.433   5.012
 1866SOL    HW1 6497   6.888   4.497   4.994
 1866SOL    HW2 6498   6.953   4.397   5.105
 1867SOL     OW 6499   1.578   0.327   0.495
 1867SOL    HW1 6500   1.619   0.313   0.585
 1867SOL    HW2 6501   1.648   0.353   0.430
 1868SOL     OW 6502   6.052   3.775   6.043
 1868SOL    HW1 6503   6.075   3.794   5.947
 1868SOL    HW2 6504   6.106   3.698   6.076
 1869SOL     OW 6505   4.911   0.880   5.193
 1869SOL    HW1 6506   4.904   0.857   5.290
 1869SOL    HW2 6507   4.825   0.921   5.163
 1870SOL     OW 6508   5.990   1.240   5.799
 1870SOL    HW1 6509   5.900   1.282   5.807
 1870SOL    HW2 6510   5.979   1.143   5.774
 1871SOL     OW 6511   2.753   4.682   0.023
 1871SOL    HW1 6512   2.796   4.683   6.957
 1871SOL    HW2 6513   2.680   4.613   0.024
 1872SOL     OW 6514   2.345   3.653   6.748
 1872SOL    HW1 6515   2.310   3.746   6.759
 1872SOL    HW2 6516   2.304   3.612   6.666
 1873SOL     OW 6517   6.134   1.068   1.868
 1873SOL    HW1 6518   6.059   1.025   1.819
 1873SOL    HW2 6519   6.196   0.998   1.902
 1874SOL     OW 6520   2.274   5.222   6.834
 1874SOL    HW1 6521   2.323   5.192   6.752
 1874SOL    HW2 6522   2.332   5.285   6.886
 1875SOL     OW 6523   1.025   6.127   2.096
 1875SOL    HW1 6524   1.068   6.200   2.043
 1875SOL    HW2 6525   1.048   6.039   2.055
 1876SOL     OW 6526   0.823   4.788   5.463
 1876SOL    HW1 6527   0.877   4.830   5.390
 1876SOL    HW2 6528   0.880   4.777   5.545
 1877SOL     OW 6529   0.248   1.100   3.539
 1877SOL    HW1 6530   0.263   1.067   3.446
 1877SOL    HW2 6531   0.157   1.073   3.569
 1878SOL     OW 6532   5.628   3.866   4.151
 1878SOL    HW1 6533   5.675   3.867   4.239
 1878SOL    HW2 6534   5.649   3.780   4.103
 1879SOL     OW 6535   3.929   6.169   4.996
 1879SOL    HW1 6536   3.930   6.080   5.040
 1879SOL    HW2 6537   4.022   6.195   4.970
 1880SOL     OW 6538   2.016   3.842   4.286
 1880SOL    HW1 6539   2.029   3.764   4.224
 1880SOL    HW2 6540   1.937   3.896   4.256
 1881SOL     OW 6541   2.985   2.176   2.883
 1881SOL    HW1 6542   2.922   2.252   2.891
 1881SOL    HW2 6543   3.040   2.187   2.800
 1882SOL     OW 6544   4.200   6.989   6.938
 1882SOL    HW1 6545   4.214   6.983   0.012
 1882SOL    HW2 6546   4.247   6.914   6.892
 1883SOL     OW 6547   2.153   3.658   3.037
 1883SOL    HW1 6548   2.169   3.566   3.072
 1883SOL    HW2 6549   2.084   3.656   2.965
 1884SOL     OW 6550   4.793   0.647   0.607
 1884SOL    HW1 6551   4.873   0.707   0.609
 1884SOL    HW2 6552   4.799   0.582   0.683
 1885SOL     OW 6553   0.261   1.712   1.045
 1885SOL    HW1 6554   0.299   1.775   0.976
 1885SOL    HW2 6555   0.171   1.743   1.073
 1886SOL     OW 6556   3.505   3.038   4.785
 1886SOL    HW1 6557   3.419   3.024   4.735
 1886SOL    HW2 6558   3.501   2.992   4.873
 1887SOL     OW 6559   0.749   5.937   5.650
 1887SOL    HW1 6560   0.793   5.932   5.740
 1887SOL    HW2 6561   0.741   6.032   5.622
 1888SOL     OW 6562   2.109   1.570   5.667
 1888SOL    HW1 6563   2.177   1.499   5.653
 1888SOL    HW2 6564   2.088   1.615   5.580
 1889SOL     OW 6565   3.589   3.937   6.958
 1889SOL    HW1 6566   3.493   3.908   6.957
 1889SOL    HW2 6567   3.648   3.859   6.938
 1890SOL     OW 6568   6.077   6.743   6.538
 1890SOL    HW1 6569   6.010   6.811   6.510
 1890SOL    HW2 6570   6.142   6.728   6.463
 1891SOL     OW 6571   5.001   3.371   6.910
 1891SOL    HW1 6572   5.090   3.370   6.864
 1891SOL    HW2 6573   4.958   3.281   6.901
 1892SOL     OW 6574   3.730   1.038   3.365
 1892SOL    HW1 6575   3.725   1.051   3.266
 1892SOL    HW2 6576   3.651   0.985   3.396
 1893SOL     OW 6577   2.687   2.484   6.952
 1893SOL    HW1 6578   2.695   2.570   7.002
 1893SOL    HW2 6579   2.667   2.409   7.016
 1894SOL     OW 6580   5.240   3.100   1.202
 1894SOL    HW1 6581   5.166   3.036   1.186
 1894SOL    HW2 6582   5.202   3.191   1.219
 1895SOL     OW 6583   4.271   5.887   3.153
 1895SOL    HW1 6584   4.253   5.978   3.191
 1895SOL    HW2 6585   4.368   5.866   3.164
 1896SOL     OW 6586   0.273   1.632   4.269
 1896SOL    HW1 6587   0.199   1.612   4.332
 1896SOL    HW2 6588   0.361   1.626   4.317
 1897SOL     OW 6589   5.244   5.326   3.510
 1897SOL    HW1 6590   5.150   5.348   3.534
 1897SOL    HW2 6591   5.293   5.409   3.484
 1898SOL     OW 6592   4.957   5.914   0.747
 1898SOL    HW1 6593   4.886   5.975   0.780
 1898SOL    HW2 6594   5.038   5.922   0.805
 1899SOL     OW 6595   1.561   3.194   4.253
 1899SOL    HW1 6596   1.624   3.143   4.312
 1899SOL    HW2 6597   1.595   3.194   4.159
 1900SOL     OW 6598   2.718   5.968   1.488
 1900SOL    HW1 6599   2.786   6.029   1.447
 1900SOL    HW2 6600   2.650   5.944   1.418
 1901SOL     OW 6601   0.238   1.487   6.471
 1901SOL    HW1 6602   0.184   1.561   6.430
 1901SOL    HW2 6603   0.252   1.415   6.402
 1902SOL     OW 6604   1.601   2.520   4.782
 1902SOL    HW1 6605   1.689   2.568   4.786
 1902SOL    HW2 6606   1.571   2.514   4.687
 1903SOL     OW 6607   6.881   6.445   3.922
 1903SOL    HW1 6608   6.868   6.534   3.964
 1903SOL    HW2 6609   6.962   6.401   3.961
 1904SOL     OW 6610   0.687   0.972   3.951
 1904SOL    HW1 6611   0.721   1.007   4.038
 1904SOL    HW2 6612   0.588   0.955   3.958
 1905SOL     OW 6613   5.717   2.728   6.276
 1905SOL    HW1 6614   5.777   2.693   6.349
 1905SOL    HW2 6615   5.699   2.825   6.292
 1906SOL     OW 6616   2.270   5.818   5.595
 1906SOL    HW1 6617   2.364   5.826   5.563
 1906SOL    HW2 6618   2.211   5.878   5.540
 1907SOL     OW 6619   4.523   0.063   3.139
 1907SOL    HW1 6620   4.478   7.014   3.088
 1907SOL    HW2 6621   4.504   0.151   3.094
 1908SOL     OW 6622   5.429   4.299   0.810
 1908SOL    HW1 6623   5.416   4.336   0.718
 1908SOL    HW2 6624   5.526   4.305   0.835
 1909SOL     OW 6625   5.068   5.403   4.056
 1909SOL    HW1 6626   5.014   5.482   4.027
 1909SOL    HW2 6627   5.110   5.361   3.975
 1910SOL     OW 6628   5.666   3.487   4.244
 1910SOL    HW1 6629   5.573   3.511   4.272
 1910SOL    HW2 6630   5.680   3.512   4.149
 1911SOL     OW 6631   0.873   2.374   5.586
 1911SOL    HW1 6632   0.874   2.318   5.669
 1911SOL    HW2 6633   0.869   2.315   5.505
 1912SOL     OW 6634   3.662   0.631   2.395
 1912SOL    HW1 6635   3.745   0.580   2.373
 1912SOL    HW2 6636   3.673   0.727   2.368
 1913SOL     OW 6637   2.987   4.062   6.678
 1913SOL    HW1 6638   2.918   4.016   6.734
 1913SOL    HW2 6639   2.950   4.078   6.587
 1914SOL     OW 6640   4.236   1.630   5.264
 1914SOL    HW1 6641   4.212   1.665   5.173
 1914SOL    HW2 6642   4.195   1.540   5.276
 1915SOL     OW 6643   2.766   6.367   5.255
 1915SOL    HW1 6644   2.800   6.424   5.329
 1915SOL    HW2 6645   2.676   6.330   5.280
 1916SOL     OW 6646   3.622   6.416   2.919
 1916SOL    HW1 6647   3.700   6.460   2.964
 1916SOL    HW2 6648   3.655   6.348   2.854
 1917SOL     OW 6649   3.788   3.897   3.085
 1917SOL    HW1 6650   3.823   3.916   3.177
 1917SOL    HW2 6651   3.816   3.806   3.056
 1918SOL     OW 6652   0.881   6.651   6.268
 1918SOL    HW1 6653   0.882   6.685   6.174
 1918SOL    HW2 6654   0.934   6.566   6.274
 1919SOL     OW 6655   5.584   0.708   1.959
 1919SOL    HW1 6656   5.494   0.749   1.940
 1919SOL    HW2 6657   5.634   0.696   1.874
 1920SOL     OW 6658   6.089   6.627   4.398
 1920SOL    HW1 6659   6.112   6.620   4.495
 1920SOL    HW2 6660   6.137   6.556   4.347
 1921SOL     OW 6661   2.268   6.425   7.014
 1921SOL    HW1 6662   2.354   6.374   7.017
 1921SOL    HW2 6663   2.228   6.430   0.081
 1922SOL     OW 6664   3.603   4.754   6.884
 1922SOL    HW1 6665   3.611   4.807   6.801
 1922SOL    HW2 6666   3.520   4.699   6.882
 1923SOL     OW 6667   1.365   3.137   1.514
 1923SOL    HW1 6668   1.281   3.142   1.569
 1923SOL    HW2 6669   1.422   3.062   1.547
 1924SOL     OW 6670   0.756   4.011   1.820
 1924SOL    HW1 6671   0.832   4.075   1.830
 1924SOL    HW2 6672   0.787   3.918   1.842
 1925SOL     OW 6673   3.372   4.700   0.398
 1925SOL    HW1 6674   3.448   4.727   0.458
 1925SOL    HW2 6675   3.298   4.663   0.453
 1926SOL     OW 6676   0.113   0.352   3.223
 1926SOL    HW1 6677   0.100   0.262   3.181
 1926SOL    HW2 6678   0.025   0.400   3.227
 1927SOL     OW 6679   5.355   3.597   1.900
 1927SOL    HW1 6680   5.277   3.542   1.868
 1927SOL    HW2 6681   5.336   3.632   1.991
 1928SOL     OW 6682   0.457   5.419   4.791
 1928SOL    HW1 6683   0.384   5.382   4.733
 1928SOL    HW2 6684   0.419   5.444   4.880
 1929SOL     OW 6685   1.725   4.586   3.413
 1929SOL    HW1 6686   1.810   4.597   3.361
 1929SOL    HW2 6687   1.707   4.488   3.425
 1930SOL     OW 6688   6.542   6.193   6.164
 1930SOL    HW1 6689   6.550   6.116   6.228
 1930SOL    HW2 6690   6.562   6.161   6.071
 1931SOL     OW 6691   2.305   2.282   3.098
 1931SOL    HW1 6692   2.317   2.381   3.101
 1931SOL    HW2 6693   2.375   2.242   3.040
 1932SOL     OW 6694   5.759   3.392   1.868
 1932SOL    HW1 6695   5.715   3.477   1.894
 1932SOL    HW2 6696   5.718   3.357   1.783
 1933SOL     OW 6697   2.130   5.007   0.577
 1933SOL    HW1 6698   2.098   5.101   0.585
 1933SOL    HW2 6699   2.230   5.005   0.577
 1934SOL     OW 6700   0.125   6.339   3.030
 1934SOL    HW1 6701   0.186   6.363   3.105
 1934SOL    HW2 6702   0.030   6.352   3.059
 1935SOL     OW 6703   0.929   1.612   2.019
 1935SOL    HW1 6704   0.974   1.571   2.099
 1935SOL    HW2 6705   0.832   1.589   2.020
 1936SOL     OW 6706   0.479   6.018   4.952
 1936SOL    HW1 6707   0.524   5.978   5.031
 1936SOL    HW2 6708   0.413   5.952   4.915
 1937SOL     OW 6709   4.429   1.955   3.592
 1937SOL    HW1 6710   4.465   1.923   3.680
 1937SOL    HW2 6711   4.349   2.013   3.608
 1938SOL     OW 6712   4.631   0.071   3.854
 1938SOL    HW1 6713   4.583   0.136   3.913
 1938SOL    HW2 6714   4.606   7.002   3.879
 1939SOL     OW 6715   2.730   0.940   4.150
 1939SOL    HW1 6716   2.830   0.942   4.154
 1939SOL    HW2 6717   2.693   0.947   4.242
 1940SOL     OW 6718   6.724   0.276   6.882
 1940SOL    HW1 6719   6.821   0.251   6.877
 1940SOL    HW2 6720   6.713   0.354   6.943
 1941SOL     OW 6721   4.576   4.864   2.669
 1941SOL    HW1 6722   4.524   4.781   2.690
 1941SOL    HW2 6723   4.632   4.889   2.748
 1942SOL     OW 6724   0.250   3.512   2.791
 1942SOL    HW1 6725   0.298   3.451   2.853
 1942SOL    HW2 6726   0.157   3.478   2.777
 1943SOL     OW 6727   3.383   5.277   3.419
 1943SOL    HW1 6728   3.422   5.186   3.403
 1943SOL    HW2 6729   3.457   5.344   3.427
 1944SOL     OW 6730   6.554   6.283   1.683
 1944SOL    HW1 6731   6.562   6.371   1.637
 1944SOL    HW2 6732   6.464   6.277   1.727
 1945SOL     OW 6733   2.998   5.138   2.065
 1945SOL    HW1 6734   3.072   5.090   2.113
 1945SOL    HW2 6735   2.963   5.211   2.125
 1946SOL     OW 6736   1.347   6.394   6.615
 1946SOL    HW1 6737   1.288   6.448   6.675
 1946SOL    HW2 6738   1.405   6.335   6.671
 1947SOL     OW 6739   4.331   1.453   3.801
 1947SOL    HW1 6740   4.234   1.472   3.818
 1947SOL    HW2 6741   4.354   1.362   3.836
 1948SOL     OW 6742   6.351   2.765   5.200
 1948SOL    HW1 6743   6.361   2.865   5.207
 1948SOL    HW2 6744   6.256   2.740   5.216
 1949SOL     OW 6745   4.640   3.180   6.993
 1949SOL    HW1 6746   4.699   3.178   0.050
 1949SOL    HW2 6747   4.586   3.264   6.993
 1950SOL     OW 6748   2.321   5.011   0.962
 1950SOL    HW1 6749   2.228   5.049   0.960
 1950SOL    HW2 6750   2.351   5.003   1.057
 1951SOL     OW 6751   5.628   2.986   6.348
 1951SOL    HW1 6752   5.619   2.999   6.447
 1951SOL    HW2 6753   5.697   3.048   6.312
 1952SOL     OW 6754   3.033   3.472   3.365
 1952SOL    HW1 6755   2.989   3.411   3.431
 1952SOL    HW2 6756   3.116   3.511   3.405
 1953SOL     OW 6757   0.690   1.925   4.450
 1953SOL    HW1 6758   0.642   1.838   4.457
 1953SOL    HW2 6759   0.624   1.998   4.435
 1954SOL     OW 6760   2.073   2.244   4.121
 1954SOL    HW1 6761   2.143   2.215   4.055
 1954SOL    HW2 6762   2.072   2.344   4.128
 1955SOL     OW 6763   6.365   5.708   3.116
 1955SOL    HW1 6764   6.318   5.756   3.042
 1955SOL    HW2 6765   6.308   5.632   3.149
 1956SOL     OW 6766   3.948   6.090   3.184
 1956SOL    HW1 6767   3.961   5.992   3.200
 1956SOL    HW2 6768   3.925   6.134   3.271
 1957SOL     OW 6769   2.328   5.914   5.878
 1957SOL    HW1 6770   2.319   5.844   5.807
 1957SOL    HW2 6771   2.315   5.872   5.968
 1958SOL     OW 6772   4.134   3.366   6.013
 1958SOL    HW1 6773   4.184   3.431   6.069
 1958SOL    HW2 6774   4.196   3.323   5.948
 1959SOL     OW 6775   3.030   0.227   1.062
 1959SOL    HW1 6776   3.006   0.268   1.150
 1959SOL    HW2 6777   2.967   0.259   0.991
 1960SOL     OW 6778   4.773   5.191   3.091
 1960SOL    HW1 6779   4.721   5.191   3.176
 1960SOL    HW2 6780   4.729   5.251   3.024
 1961SOL     OW 6781   5.769   4.781   5.148
 1961SOL    HW1 6782   5.744   4.868   5.105
 1961SOL    HW2 6783   5.686   4.731   5.173
 1962SOL     OW 6784   0.899   6.426   4.007
 1962SOL    HW1 6785   0.915   6.523   4.030
 1962SOL    HW2 6786   0.975   6.371   4.042
 1963SOL     OW 6787   2.526   1.254   3.476
 1963SOL    HW1 6788   2.588   1.214   3.543
 1963SOL    HW2 6789   2.464   1.317   3.522
 1964SOL     OW 6790   6.437   2.532   2.198
 1964SOL    HW1 6791   6.398   2.442   2.180
 1964SOL    HW2 6792   6.366   2.593   2.233
 1965SOL     OW 6793   1.705   7.016   3.400
 1965SOL    HW1 6794   1.772   6.998   3.328
 1965SOL    HW2 6795   1.750   7.013   3.489
 1966SOL     OW 6796   6.596   6.412   0.284
 1966SOL    HW1 6797   6.685   6.390   0.324
 1966SOL    HW2 6798   6.594   6.381   0.189
 1967SOL     OW 6799   6.386   2.519   4.834
 1967SOL    HW1 6800   6.448   2.589   4.870
 1967SOL    HW2 6801   6.428   2.429   4.843
 1968SOL     OW 6802   4.407   5.565   4.332
 1968SOL    HW1 6803   4.359   5.588   4.247
 1968SOL    HW2 6804   4.494   5.521   4.310
 1969SOL     OW 6805   6.134   0.826   1.696
 1969SOL    HW1 6806   6.061   0.783   1.750
 1969SOL    HW2 6807   6.210   0.850   1.756
 1970SOL     OW 6808   2.431   1.618   4.871
 1970SOL    HW1 6809   2.474   1.707   4.853
 1970SOL    HW2 6810   2.335   1.631   4.892
 1971SOL     OW 6811   0.107   1.462   6.168
 1971SOL    HW1 6812   0.017   1.494   6.196
 1971SOL    HW2 6813   0.156   1.537   6.124
 1972SOL     OW 6814   1.130   6.759   3.697
 1972SOL    HW1 6815   1.172   6.748   3.787
 1972SOL    HW2 6816   1.034   6.786   3.707
 1973SOL     OW 6817   3.582   2.884   0.095
 1973SOL    HW1 6818   3.530   2.809   0.054
 1973SOL    HW2 6819   3.610   2.948   0.024
 1974SOL     OW 6820   6.233   5.932   4.500
 1974SOL    HW1 6821   6.150   5.943   4.444
 1974SOL    HW2 6822   6.220   5.856   4.563
 1975SOL     OW 6823   2.519   6.825   3.886
 1975SOL    HW1 6824   2.492   6.868   3.800
 1975SOL    HW2 6825   2.508   6.890   3.961
 1976SOL     OW 6826   6.383   4.728   6.344
 1976SOL    HW1 6827   6.415   4.634   6.341
 1976SOL    HW2 6828   6.442   4.781   6.404
 1977SOL     OW 6829   3.107   2.010   5.117
 1977SOL    HW1 6830   3.120   2.107   5.096
 1977SOL    HW2 6831   3.016   1.981   5.089
 1978SOL     OW 6832   0.097   2.640   4.943
 1978SOL    HW1 6833   0.057   2.728   4.918
 1978SOL    HW2 6834   0.050   2.567   4.894
 1979SOL     OW 6835   6.894   4.424   2.632
 1979SOL    HW1 6836   6.872   4.335   2.672
 1979SOL    HW2 6837   6.881   4.420   2.533
 1980SOL     OW 6838   2.421   0.630   2.990
 1980SOL    HW1 6839   2.500   0.571   3.002
 1980SOL    HW2 6840   2.443   0.722   3.021
 1981SOL     OW 6841   5.708   3.208   2.238
 1981SOL    HW1 6842   5.635   3.201   2.305
 1981SOL    HW2 6843   5.714   3.302   2.205
 1982SOL     OW 6844   0.168   6.603   5.517
 1982SOL    HW1 6845   0.214   6.623   5.430
 1982SOL    HW2 6846   0.126   6.513   5.512
 1983SOL     OW 6847   1.013   4.971   1.554
 1983SOL    HW1 6848   0.924   5.014   1.570
 1983SOL    HW2 6849   1.018   4.938   1.460
 1984SOL     OW 6850   4.104   0.597   5.706
 1984SOL    HW1 6851   4.096   0.647   5.619
 1984SOL    HW2 6852   4.049   0.513   5.701
 1985SOL     OW 6853   0.921   5.653   1.824
 1985SOL    HW1 6854   0.859   5.582   1.790
 1985SOL    HW2 6855   0.937   5.639   1.922
 1986SOL     OW 6856   6.274   2.227   0.885
 1986SOL    HW1 6857   6.208   2.277   0.831
 1986SOL    HW2 6858   6.367   2.255   0.860
 1987SOL     OW 6859   2.351   3.227   0.202
 1987SOL    HW1 6860   2.327   3.135   0.171
 1987SOL    HW2 6861   2.353   3.230   0.302
 1988SOL     OW 6862   4.931   2.517   1.003
 1988SOL    HW1 6863   4.858   2.451   1.018
 1988SOL    HW2 6864   4.900   2.608   1.030
 1989SOL     OW 6865   2.758   2.332   3.212
 1989SOL    HW1 6866   2.704   2.263   3.259
 1989SOL    HW2 6867   2.702   2.414   3.197
 1990SOL     OW 6868   1.293   0.044   2.836
 1990SOL    HW1 6869   1.391   0.025   2.837
 1990SOL    HW2 6870   1.247   7.021   2.911
 1991SOL     OW 6871   5.042   5.540   2.691
 1991SOL    HW1 6872   5.043   5.442   2.672
 1991SOL    HW2 6873   5.135   5.573   2.707
 1992SOL     OW 6874   2.269   5.625   5.391
 1992SOL    HW1 6875   2.358   5.645   5.432
 1992SOL    HW2 6876   2.241   5.533   5.416
 1993SOL     OW 6877   3.251   3.111   4.104
 1993SOL    HW1 6878   3.266   3.012   4.115
 1993SOL    HW2 6879   3.237   3.153   4.193
 1994SOL     OW 6880   6.485   1.931   1.379
 1994SOL    HW1 6881   6.400   1.883   1.401
 1994SOL    HW2 6882   6.465   2.027   1.360
 1995SOL     OW 6883   4.082   2.590   1.682
 1995SOL    HW1 6884   4.081   2.493   1.657
 1995SOL    HW2 6885   3.995   2.615   1.723
 1996SOL     OW 6886   2.171   5.150   5.703
 1996SOL    HW1 6887   2.266   5.181   5.707
 1996SOL    HW2 6888   2.168   5.050   5.705
 1997SOL     OW 6889   5.487   6.177   4.670
 1997SOL    HW1 6890   5.548   6.101   4.688
 1997SOL    HW2 6891   5.468   6.226   4.755
 1998SOL     OW 6892   3.259   4.889   4.755
 1998SOL    HW1 6893   3.182   4.933   4.801
 1998SOL    HW2 6894   3.280   4.803   4.801
 1999SOL     OW 6895   3.645   1.860   2.017
 1999SOL    HW1 6896   3.701   1.897   1.943
 1999SOL    HW2 6897   3.704   1.834   2.093
 2000SOL     OW 6898   2.558   1.460   5.658
 2000SOL    HW1 6899   2.648   1.503   5.653
 2000SOL    HW2 6900   2.516   1.459   5.568
 2001SOL     OW 6901   2.034   2.928   0.069
 2001SOL    HW1 6902   2.011   3.024   0.054
 2001SOL    HW2 6903   2.133   2.916   0.064
 2002SOL     OW 6904   1.736   4.869   5.059
 2002SOL    HW1 6905   1.657   4.856   4.999
 2002SOL    HW2 6906   1.790   4.947   5.026
 2003SOL     OW 6907   6.581   3.691   3.297
 2003SOL    HW1 6908   6.556   3.595   3.309
 2003SOL    HW2 6909   6.517   3.735   3.235
 2004SOL     OW 6910   3.183   0.104   6.646
 2004SOL    HW1 6911   3.143   0.063   6.564
 2004SOL    HW2 6912   3.114   0.109   6.718
 2005SOL     OW 6913   2.477   6.979   5.314
 2005SOL    HW1 6914   2.473   6.903   5.249
 2005SOL    HW2 6915   2.571   7.014   5.318
 2006SOL     OW 6916   4.721   0.106   2.847
 2006SOL    HW1 6917   4.767   0.189   2.879
 2006SOL    HW2 6918   4.725   0.036   2.918
 2007SOL     OW 6919   0.020   5.223   0.104
 2007SOL    HW1 6920   7.024   5.304   0.160
 2007SOL    HW2 6921   0.020   5.249   0.007
 2008SOL     OW 6922   0.268   6.029   5.892
 2008SOL    HW1 6923   0.284   5.938   5.854
 2008SOL    HW2 6924   0.243   6.020   5.989
 2009SOL     OW 6925   1.321   0.618   6.859
 2009SOL    HW1 6926   1.310   0.716   6.845
 2009SOL    HW2 6927   1.248   0.584   6.919
 2010SOL     OW 6928   2.563   1.011   0.994
 2010SOL    HW1 6929   2.601   0.980   0.906
 2010SOL    HW2 6930   2.478   0.961   1.013
 2011SOL     OW 6931   6.691   1.537   4.573
 2011SOL    HW1 6932   6.788   1.518   4.585
 2011SOL    HW2 6933   6.646   1.541   4.662
 2012SOL     OW 6934   6.768   3.692   2.285
 2012SOL    HW1 6935   6.679   3.728   2.254
 2012SOL    HW2 6936   6.824   3.668   2.206
 2013SOL     OW 6937   3.551   2.479   1.699
 2013SOL    HW1 6938   3.604   2.420   1.759
 2013SOL    HW2 6939   3.454   2.471   1.721
 2014SOL     OW 6940   3.145   5.146   3.506
 2014SOL    HW1 6941   3.081   5.207   3.553
 2014SOL    HW2 6942   3.221   5.199   3.469
 2015SOL     OW 6943   2.765   5.126   0.199
 2015SOL    HW1 6944   2.827   5.200   0.227
 2015SOL    HW2 6945   2.753   5.062   0.275
 2016SOL     OW 6946   6.785   5.534   5.006
 2016SOL    HW1 6947   6.718   5.465   5.034
 2016SOL    HW2 6948   6.745   5.593   4.936
 2017SOL     OW 6949   1.663   4.939   1.518
 2017SOL    HW1 6950   1.690   4.851   1.556
 2017SOL    HW2 6951   1.568   4.934   1.486
 2018SOL     OW 6952   0.412   4.540   5.107
 2018SOL    HW1 6953   0.369   4.512   5.021
 2018SOL    HW2 6954   0.344   4.542   5.180
 2019SOL     OW 6955   5.119   0.481   2.567
 2019SOL    HW1 6956   5.109   0.572   2.529
 2019SOL    HW2 6957   5.172   0.424   2.504
 2020SOL     OW 6958   2.309   5.116   3.177
 2020SOL    HW1 6959   2.277   5.195   3.229
 2020SOL    HW2 6960   2.305   5.034   3.235
 2021SOL     OW 6961   1.940   6.120   1.983
 2021SOL    HW1 6962   1.864   6.141   2.045
 2021SOL    HW2 6963   1.905   6.069   1.904
 2022SOL     OW 6964   3.969   5.362   1.590
 2022SOL    HW1 6965   3.934   5.456   1.582
 2022SOL    HW2 6966   4.063   5.364   1.622
 2023SOL     OW 6967   6.920   2.499   6.104
 2023SOL    HW1 6968   6.923   2.461   6.011
 2023SOL    HW2 6969   6.992   2.568   6.113
 2024SOL     OW 6970   5.481   6.977   3.656
 2024SOL    HW1 6971   5.448   0.040   3.620
 2024SOL    HW2 6972   5.527   6.926   3.583
 2025SOL     OW 6973   6.068   1.039   1.270
 2025SOL    HW1 6974   6.080   1.137   1.287
 2025SOL    HW2 6975   6.127   0.987   1.331
 2026SOL     OW 6976   2.294   2.110   4.708
 2026SOL    HW1 6977   2.319   2.041   4.641
 2026SOL    HW2 6978   2.222   2.075   4.768
 2027SOL     OW 6979   6.319   6.997   2.333
 2027SOL    HW1 6980   6.399   6.938   2.320
 2027SOL    HW2 6981   6.236   6.941   2.329
 2028SOL     OW 6982   3.738   4.172   5.925
 2028SOL    HW1 6983   3.708   4.099   5.864
 2028SOL    HW2 6984   3.716   4.261   5.886
 2029SOL     OW 6985   2.186   0.331   0.067
 2029SOL    HW1 6986   2.147   0.385   0.141
 2029SOL    HW2 6987   2.283   0.352   0.057
 2030SOL     OW 6988   2.154   3.006   2.354
 2030SOL    HW1 6989   2.098   2.952   2.291
 2030SOL    HW2 6990   2.223   2.947   2.396
 2031SOL     OW 6991   5.789   0.036   2.243
 2031SOL    HW1 6992   5.859   0.078   2.186
 2031SOL    HW2 6993   5.791   0.077   2.334
 2032SOL     OW 6994   4.210   6.237   2.429
 2032SOL    HW1 6995   4.219   6.326   2.384
 2032SOL    HW2 6996   4.292   6.183   2.414
 2033SOL     OW 6997   0.105   4.829   6.799
 2033SOL    HW1 6998   0.056   4.915   6.782
 2033SOL    HW2 6999   0.051   4.772   6.862
 2034SOL     OW 7000   2.229   5.566   4.240
 2034SOL    HW1 7001   2.235   5.467   4.231
 2034SOL    HW2 7002   2.230   5.609   4.149
 2035SOL     OW 7003   0.649   1.399   3.285
 2035SOL    HW1 7004   0.586   1.339   3.236
 2035SOL    HW2 7005   0.600   1.479   3.319
 2036SOL     OW 7006   0.896   4.668   1.293
 2036SOL    HW1 7007   0.846   4.595   1.247
 2036SOL    HW2 7008   0.851   4.690   1.379
 2037SOL     OW 7009   0.655   3.034   6.229
 2037SOL    HW1 7010   0.615   2.968   6.166
 2037SOL    HW2 7011   0.631   3.126   6.200
 2038SOL     OW 7012   1.564   6.913   4.934
 2038SOL    HW1 7013   1.563   6.990   4.870
 2038SOL    HW2 7014   1.658   6.888   4.955
 2039SOL     OW 7015   0.967   5.580   2.085
 2039SOL    HW1 7016   0.998   5.584   2.179
 2039SOL    HW2 7017   0.954   5.485   2.057
 2040SOL     OW 7018   3.854   3.191   4.637
 2040SOL    HW1 7019   3.798   3.108   4.632
 2040SOL    HW2 7020   3.812   3.255   4.702
 2041SOL     OW 7021   5.180   3.029   6.908
 2041SOL    HW1 7022   5.273   3.063   6.922
 2041SOL    HW2 7023   5.163   3.019   6.810
 2042SOL     OW 7024   3.184   6.499   0.275
 2042SOL    HW1 7025   3.165   6.578   0.332
 2042SOL    HW2 7026   3.271   6.511   0.228
 2043SOL     OW 7027   5.019   5.532   2.397
 2043SOL    HW1 7028   5.011   5.547   2.495
 2043SOL    HW2 7029   4.976   5.445   2.373
 2044SOL     OW 7030   6.705   0.734   2.224
 2044SOL    HW1 7031   6.614   0.723   2.263
 2044SOL    HW2 7032   6.768   0.670   2.267
 2045SOL     OW 7033   3.430   6.865   5.671
 2045SOL    HW1 7034   3.443   6.942   5.733
 2045SOL    HW2 7035   3.337   6.867   5.633
 2046SOL     OW 7036   5.700   0.473   5.997
 2046SOL    HW1 7037   5.776   0.418   6.031
 2046SOL    HW2 7038   5.617   0.417   5.993
 2047SOL     OW 7039   5.006   3.211   0.225
 2047SOL    HW1 7040   5.029   3.149   0.301
 2047SOL    HW2 7041   5.062   3.188   0.146
 2048SOL     OW 7042   4.570   6.311   5.490
 2048SOL    HW1 7043   4.594   6.370   5.413
 2048SOL    HW2 7044   4.565   6.366   5.573
 2049SOL     OW 7045   5.543   5.768   6.494
 2049SOL    HW1 7046   5.465   5.779   6.433
 2049SOL    HW2 7047   5.523   5.696   6.561
 2050SOL     OW 7048   5.655   1.282   3.395
 2050SOL    HW1 7049   5.583   1.275   3.464
 2050SOL    HW2 7050   5.730   1.337   3.431
 2051SOL     OW 7051   3.295   5.786   1.201
 2051SOL    HW1 7052   3.277   5.723   1.277
 2051SOL    HW2 7053   3.242   5.870   1.215
 2052SOL     OW 7054   1.513   2.447   0.811
 2052SOL    HW1 7055   1.596   2.424   0.862
 2052SOL    HW2 7056   1.496   2.377   0.741
 2053SOL     OW 7057   4.552   0.687   0.506
 2053SOL    HW1 7058   4.649   0.667   0.521
 2053SOL    HW2 7059   4.532   0.685   0.408
 2054SOL     OW 7060   0.645   3.031   1.121
 2054SOL    HW1 7061   0.547   3.015   1.136
 2054SOL    HW2 7062   0.698   2.969   1.178
 2055SOL     OW 7063   6.596   0.863   3.746
 2055SOL    HW1 7064   6.655   0.940   3.770
 2055SOL    HW2 7065   6.643   0.804   3.681
 2056SOL     OW 7066   0.237   6.415   2.345
 2056SOL    HW1 7067   0.278   6.461   2.266
 2056SOL    HW2 7068   0.260   6.318   2.342
 2057SOL     OW 7069   4.977   3.096   4.245
 2057SOL    HW1 7070   5.074   3.076   4.262
 2057SOL    HW2 7071   4.940   3.029   4.181
 2058SOL     OW 7072   1.031   1.512   1.064
 2058SOL    HW1 7073   0.966   1.492   1.137
 2058SOL    HW2 7074   1.018   1.447   0.989
 2059SOL     OW 7075   1.688   0.683   6.926
 2059SOL    HW1 7076   1.691   0.775   6.964
 2059SOL    HW2 7077   1.769   0.631   6.956
 2060SOL     OW 7078   0.629   4.704   3.526
 2060SOL    HW1 7079   0.695   4.632   3.547
 2060SOL    HW2 7080   0.537   4.673   3.551
 2061SOL     OW 7081   1.466   0.459   0.181
 2061SOL    HW1 7082   1.463   0.435   0.083
 2061SOL    HW2 7083   1.536   0.404   0.226
 2062SOL     OW 7084   3.704   0.141   4.051
 2062SOL    HW1 7085   3.688   0.071   3.982
 2062SOL    HW2 7086   3.621   0.196   4.063
 2063SOL     OW 7087   2.511   2.992   1.258
 2063SOL    HW1 7088   2.478   3.053   1.186
 2063SOL    HW2 7089   2.567   3.044   1.323
 2064SOL     OW 7090   1.019   2.115   0.677
 2064SOL    HW1 7091   0.981   2.048   0.613
 2064SOL    HW2 7092   0.986   2.095   0.769
 2065SOL     OW 7093   0.207   2.966   3.008
 2065SOL    HW1 7094   0.128   3.000   3.058
 2065SOL    HW2 7095   0.205   3.001   2.914
 2066SOL     OW 7096   0.750   6.447   3.185
 2066SOL    HW1 7097   0.728   6.533   3.233
 2066SOL    HW2 7098   0.674   6.423   3.124
 2067SOL     OW 7099   0.130   0.588   0.804
 2067SOL    HW1 7100   0.189   0.555   0.730
 2067SOL    HW2 7101   0.179   0.657   0.858
 2068SOL     OW 7102   2.352   2.490   5.025
 2068SOL    HW1 7103   2.403   2.534   4.952
 2068SOL    HW2 7104   2.355   2.547   5.108
 2069SOL     OW 7105   1.567   2.238   1.728
 2069SOL    HW1 7106   1.556   2.242   1.628
 2069SOL    HW2 7107   1.654   2.278   1.753
 2070SOL     OW 7108   0.303   1.778   2.280
 2070SOL    HW1 7109   0.245   1.717   2.228
 2070SOL    HW2 7110   0.376   1.814   2.222
 2071SOL     OW 7111   2.533   5.847   5.538
 2071SOL    HW1 7112   2.622   5.809   5.514
 2071SOL    HW2 7113   2.541   5.901   5.621
 2072SOL     OW 7114   5.522   4.591   2.681
 2072SOL    HW1 7115   5.453   4.660   2.659
 2072SOL    HW2 7116   5.484   4.526   2.747
 2073SOL     OW 7117   3.120   6.386   5.078
 2073SOL    HW1 7118   3.144   6.347   4.990
 2073SOL    HW2 7119   3.126   6.315   5.149
 2074SOL     OW 7120   5.313   1.766   2.825
 2074SOL    HW1 7121   5.288   1.806   2.913
 2074SOL    HW2 7122   5.350   1.837   2.765
 2075SOL     OW 7123   3.458   3.067   6.695
 2075SOL    HW1 7124   3.471   3.161   6.665
 2075SOL    HW2 7125   3.382   3.063   6.759
 2076SOL     OW 7126   5.016   6.482   0.446
 2076SOL    HW1 7127   5.060   6.402   0.406
 2076SOL    HW2 7128   5.081   6.532   0.503
 2077SOL     OW 7129   4.319   0.724   4.829
 2077SOL    HW1 7130   4.313   0.627   4.805
 2077SOL    HW2 7131   4.345   0.777   4.749
 2078SOL     OW 7132   4.239   6.178   3.801
 2078SOL    HW1 7133   4.245   6.277   3.812
 2078SOL    HW2 7134   4.144   6.149   3.815
 2079SOL     OW 7135   5.483   0.330   4.127
 2079SOL    HW1 7136   5.435   0.269   4.063
 2079SOL    HW2 7137   5.487   0.286   4.217
 2080SOL     OW 7138   2.922   1.854   3.136
 2080SOL    HW1 7139   2.893   1.944   3.104
 2080SOL    HW2 7140   2.960   1.862   3.228
 2081SOL     OW 7141   1.543   5.641   3.412
 2081SOL    HW1 7142   1.562   5.601   3.322
 2081SOL    HW2 7143   1.493   5.727   3.399
 2082SOL     OW 7144   4.970   0.952   2.641
 2082SOL    HW1 7145   4.981   1.024   2.709
 2082SOL    HW2 7146   5.006   0.866   2.677
 2083SOL     OW 7147   3.856   4.656   5.609
 2083SOL    HW1 7148   3.940   4.710   5.611
 2083SOL    HW2 7149   3.799   4.679   5.688
 2084SOL     OW 7150   0.203   2.340   3.102
 2084SOL    HW1 7151   0.161   2.346   3.011
 2084SOL    HW2 7152   0.292   2.385   3.101
 2085SOL     OW 7153   5.823   6.750   0.452
 2085SOL    HW1 7154   5.920   6.732   0.466
 2085SOL    HW2 7155   5.773   6.664   0.446
 2086SOL     OW 7156   3.832   5.446   6.432
 2086SOL    HW1 7157   3.877   5.529   6.465
 2086SOL    HW2 7158   3.744   5.435   6.477
 2087SOL     OW 7159   5.898   6.091   2.922
 2087SOL    HW1 7160   5.967   6.137   2.866
 2087SOL    HW2 7161   5.847   6.159   2.975
 2088SOL     OW 7162   2.256   6.339   1.256
 2088SOL    HW1 7163   2.206   6.350   1.342
 2088SOL    HW2 7164   2.213   6.267   1.201
 2089SOL     OW 7165   2.642   1.052   6.647
 2089SOL    HW1 7166   2.659   0.953   6.650
 2089SOL    HW2 7167   2.662   1.086   6.555
 2090SOL     OW 7168   3.043   3.771   3.398
 2090SOL    HW1 7169   2.957   3.728   3.424
 2090SOL    HW2 7170   3.116   3.703   3.394
 2091SOL     OW 7171   2.379   4.337   1.875
 2091SOL    HW1 7172   2.356   4.246   1.909
 2091SOL    HW2 7173   2.450   4.330   1.805
 2092SOL     OW 7174   6.108   0.331   0.775
 2092SOL    HW1 7175   6.203   0.361   0.768
 2092SOL    HW2 7176   6.050   0.409   0.797
 2093SOL     OW 7177   1.842   1.285   1.717
 2093SOL    HW1 7178   1.844   1.380   1.748
 2093SOL    HW2 7179   1.925   1.238   1.747
 2094SOL     OW 7180   0.153   0.574   2.539
 2094SOL    HW1 7181   0.203   0.631   2.474
 2094SOL    HW2 7182   0.102   0.633   2.602
 2095SOL     OW 7183   5.990   4.646   5.188
 2095SOL    HW1 7184   6.065   4.666   5.125
 2095SOL    HW2 7185   5.911   4.701   5.164
 2096SOL     OW 7186   4.623   4.384   3.837
 2096SOL    HW1 7187   4.647   4.361   3.931
 2096SOL    HW2 7188   4.530   4.421   3.835
 2097SOL     OW 7189   6.324   3.473   5.591
 2097SOL    HW1 7190   6.230   3.491   5.620
 2097SOL    HW2 7191   6.374   3.431   5.666
 2098SOL     OW 7192   4.211   0.620   4.369
 2098SOL    HW1 7193   4.262   0.539   4.342
 2098SOL    HW2 7194   4.221   0.691   4.299
 2099SOL     OW 7195   2.599   1.764   4.019
 2099SOL    HW1 7196   2.620   1.838   3.955
 2099SOL    HW2 7197   2.501   1.748   4.023
 2100SOL     OW 7198   4.626   4.812   5.893
 2100SOL    HW1 7199   4.646   4.745   5.965
 2100SOL    HW2 7200   4.531   4.843   5.903
 2101SOL     OW 7201   5.378   6.959   1.682
 2101SOL    HW1 7202   5.342   6.936   1.592
 2101SOL    HW2 7203   5.357   6.885   1.746
 2102SOL     OW 7204   0.010   5.115   1.213
 2102SOL    HW1 7205   7.003   5.209   1.203
 2102SOL    HW2 7206   6.984   5.071   1.288
 2103SOL     OW 7207   3.232   3.958   6.630
 2103SOL    HW1 7208   3.302   3.991   6.693
 2103SOL    HW2 7209   3.143   3.994   6.657
 2104SOL     OW 7210   1.072   4.983   6.262
 2104SOL    HW1 7211   1.144   4.957   6.197
 2104SOL    HW2 7212   1.089   4.939   6.350
 2105SOL     OW 7213   5.884   5.965   2.633
 2105SOL    HW1 7214   5.889   6.027   2.711
 2105SOL    HW2 7215   5.871   6.018   2.549
 2106SOL     OW 7216   5.712   6.322   5.880
 2106SOL    HW1 7217   5.659   6.406   5.896
 2106SOL    HW2 7218   5.660   6.244   5.914
 2107SOL     OW 7219   2.721   4.960   0.426
 2107SOL    HW1 7220   2.763   4.944   0.515
 2107SOL    HW2 7221   2.663   4.882   0.402
 2108SOL     OW 7222   5.546   4.746   6.498
 2108SOL    HW1 7223   5.457   4.738   6.542
 2108SOL    HW2 7224   5.573   4.658   6.459
 2109SOL     OW 7225   5.330   5.575   2.708
 2109SOL    HW1 7226   5.397   5.644   2.679
 2109SOL    HW2 7227   5.365   5.484   2.686
 2110SOL     OW 7228   1.153   4.842   5.494
 2110SOL    HW1 7229   1.145   4.941   5.482
 2110SOL    HW2 7230   1.139   4.819   5.590
 2111SOL     OW 7231   1.679   2.080   6.679
 2111SOL    HW1 7232   1.749   2.099   6.610
 2111SOL    HW2 7233   1.589   2.108   6.644
 2112SOL     OW 7234   5.194   3.802   0.554
 2112SOL    HW1 7235   5.140   3.864   0.610
 2112SOL    HW2 7236   5.173   3.707   0.580
 2113SOL     OW 7237   6.974   1.102   3.654
 2113SOL    HW1 7238   6.959   1.193   3.694
 2113SOL    HW2 7239   6.923   1.034   3.706
 2114SOL     OW 7240   1.342   2.999   6.808
 2114SOL    HW1 7241   1.370   2.964   6.719
 2114SOL    HW2 7242   1.289   3.083   6.796
 2115SOL     OW 7243   4.133   5.277   1.934
 2115SOL    HW1 7244   4.147   5.345   1.862
 2115SOL    HW2 7245   4.045   5.295   1.979
 2116SOL     OW 7246   0.193   4.021   4.025
 2116SOL    HW1 7247   0.198   3.930   3.984
 2116SOL    HW2 7248   0.168   4.087   3.955
 2117SOL     OW 7249   6.114   5.929   5.686
 2117SOL    HW1 7250   6.184   5.872   5.727
 2117SOL    HW2 7251   6.030   5.925   5.741
 2118SOL     OW 7252   0.020   3.048   2.379
 2118SOL    HW1 7253   0.107   3.032   2.427
 2118SOL    HW2 7254   6.976   2.981   2.411
 2119SOL     OW 7255   4.031   6.548   0.093
 2119SOL    HW1 7256   3.933   6.542   0.113
 2119SOL    HW2 7257   4.073   6.617   0.152
 2120SOL     OW 7258   6.175   3.917   2.418
 2120SOL    HW1 7259   6.147   3.845   2.354
 2120SOL    HW2 7260   6.253   3.885   2.471
 2121SOL     OW 7261   0.696   3.810   4.861
 2121SOL    HW1 7262   0.796   3.807   4.859
 2121SOL    HW2 7263   0.664   3.794   4.955
 2122SOL     OW 7264   3.986   5.017   5.023
 2122SOL    HW1 7265   3.961   5.112   5.044
 2122SOL    HW2 7266   4.086   5.009   5.022
 2123SOL     OW 7267   3.946   5.828   3.268
 2123SOL    HW1 7268   3.858   5.782   3.280
 2123SOL    HW2 7269   4.020   5.761   3.273
 2124SOL     OW 7270   2.158   2.368   1.890
 2124SOL    HW1 7271   2.185   2.286   1.839
 2124SOL    HW2 7272   2.170   2.448   1.833
 2125SOL     OW 7273   4.718   6.026   7.023
 2125SOL    HW1 7274   4.760   6.110   0.034
 2125SOL    HW2 7275   4.784   5.951   0.005
 2126SOL     OW 7276   2.817   1.891   0.922
 2126SOL    HW1 7277   2.718   1.886   0.940
 2126SOL    HW2 7278   2.834   1.863   0.827
 2127SOL     OW 7279   5.761   2.720   4.322
 2127SOL    HW1 7280   5.768   2.818   4.343
 2127SOL    HW2 7281   5.668   2.689   4.340
 2128SOL     OW 7282   0.549   3.731   4.142
 2128SOL    HW1 7283   0.610   3.796   4.186
 2128SOL    HW2 7284   0.602   3.656   4.104
 2129SOL     OW 7285   4.467   2.239   5.079
 2129SOL    HW1 7286   4.440   2.250   4.984
 2129SOL    HW2 7287   4.541   2.171   5.085
 2130SOL     OW 7288   5.077   6.719   3.393
 2130SOL    HW1 7289   5.048   6.777   3.469
 2130SOL    HW2 7290   5.018   6.638   3.389
 2131SOL     OW 7291   5.065   1.550   6.818
 2131SOL    HW1 7292   5.137   1.619   6.827
 2131SOL    HW2 7293   5.000   1.578   6.748
 2132SOL     OW 7294   1.305   3.430   1.276
 2132SOL    HW1 7295   1.243   3.352   1.286
 2132SOL    HW2 7296   1.391   3.410   1.323
 2133SOL     OW 7297   2.609   4.090   6.489
 2133SOL    HW1 7298   2.545   4.025   6.529
 2133SOL    HW2 7299   2.671   4.123   6.560
 2134SOL     OW 7300   0.120   6.782   0.175
 2134SOL    HW1 7301   0.136   6.779   0.274
 2134SOL    HW2 7302   0.199   6.742   0.128
 2135SOL     OW 7303   6.436   5.449   5.555
 2135SOL    HW1 7304   6.378   5.519   5.513
 2135SOL    HW2 7305   6.378   5.376   5.591
 2136SOL     OW 7306   1.792   5.365   0.094
 2136SOL    HW1 7307   1.867   5.429   0.079
 2136SOL    HW2 7308   1.795   5.293   0.024
 2137SOL     OW 7309   1.377   6.661   3.555
 2137SOL    HW1 7310   1.405   6.750   3.518
 2137SOL    HW2 7311   1.287   6.669   3.596
 2138SOL     OW 7312   4.896   1.940   1.814
 2138SOL    HW1 7313   4.915   2.002   1.739
 2138SOL    HW2 7314   4.874   1.849   1.777
 2139SOL     OW 7315   2.841   6.064   5.656
 2139SOL    HW1 7316   2.893   6.129   5.712
 2139SOL    HW2 7317   2.746   6.062   5.687
 2140SOL     OW 7318   2.459   1.836   3.167
 2140SOL    HW1 7319   2.468   1.755   3.109
 2140SOL    HW2 7320   2.477   1.810   3.262
 2141SOL     OW 7321   6.750   3.396   2.670
 2141SOL    HW1 7322   6.767   3.459   2.746
 2141SOL    HW2 7323   6.820   3.325   2.670
 2142SOL     OW 7324   1.787   1.509   1.911
 2142SOL    HW1 7325   1.878   1.529   1.874
 2142SOL    HW2 7326   1.729   1.591   1.903
 2143SOL     OW 7327   6.389   5.541   5.881
 2143SOL    HW1 7328   6.473   5.566   5.834
 2143SOL    HW2 7329   6.404   5.460   5.938
 2144SOL     OW 7330   6.141   4.136   2.780
 2144SOL    HW1 7331   6.186   4.093   2.859
 2144SOL    HW2 7332   6.098   4.065   2.725
 2145SOL     OW 7333   3.401   1.341   3.162
 2145SOL    HW1 7334   3.497   1.337   3.136
 2145SOL    HW2 7335   3.372   1.436   3.168
 2146SOL     OW 7336   2.045   1.336   6.634
 2146SOL    HW1 7337   2.103   1.416   6.616
 2146SOL    HW2 7338   1.970   1.333   6.567
 2147SOL     OW 7339   6.430   0.344   5.623
 2147SOL    HW1 7340   6.521   0.385   5.630
 2147SOL    HW2 7341   6.390   0.336   5.714
 2148SOL     OW 7342   1.797   2.811   4.996
 2148SOL    HW1 7343   1.763   2.768   5.080
 2148SOL    HW2 7344   1.885   2.771   4.971
 2149SOL     OW 7345   0.560   6.699   0.219
 2149SOL    HW1 7346   0.576   6.614   0.268
 2149SOL    HW2 7347   0.478   6.690   0.162
 2150SOL     OW 7348   2.039   2.618   0.475
 2150SOL    HW1 7349   2.105   2.554   0.437
 2150SOL    HW2 7350   2.029   2.697   0.413
 2151SOL     OW 7351   0.971   5.490   6.357
 2151SOL    HW1 7352   1.042   5.560   6.363
 2151SOL    HW2 7353   1.002   5.416   6.298
 2152SOL     OW 7354   5.322   6.387   3.959
 2152SOL    HW1 7355   5.321   6.303   3.905
 2152SOL    HW2 7356   5.299   6.464   3.900
 2153SOL     OW 7357   4.901   6.964   4.100
 2153SOL    HW1 7358   4.819   7.009   4.136
 2153SOL    HW2 7359   4.910   6.984   4.002
 2154SOL     OW 7360   2.640   6.619   2.416
 2154SOL    HW1 7361   2.561   6.588   2.362
 2154SOL    HW2 7362   2.654   6.717   2.400
 2155SOL     OW 7363   5.194   0.524   0.688
 2155SOL    HW1 7364   5.280   0.563   0.657
 2155SOL    HW2 7365   5.166   0.567   0.774
 2156SOL     OW 7366   6.346   1.681   4.412
 2156SOL    HW1 7367   6.323   1.764   4.463
 2156SOL    HW2 7368   6.317   1.690   4.317
 2157SOL     OW 7369   4.565   6.016   3.379
 2157SOL    HW1 7370   4.636   6.086   3.376
 2157SOL    HW2 7371   4.487   6.050   3.433
 2158SOL     OW 7372   2.909   7.011   0.383
 2158SOL    HW1 7373   2.885   6.972   0.472
 2158SOL    HW2 7374   2.908   0.087   0.390
 2159SOL     OW 7375   0.550   1.902   5.408
 2159SOL    HW1 7376   0.511   1.978   5.356
 2159SOL    HW2 7377   0.583   1.832   5.345
 2160SOL     OW 7378   5.452   6.728   7.014
 2160SOL    HW1 7379   5.397   6.775   0.058
 2160SOL    HW2 7380   5.531   6.785   6.989
 2161SOL     OW 7381   1.093   3.678   0.544
 2161SOL    HW1 7382   1.157   3.609   0.512
 2161SOL    HW2 7383   1.107   3.693   0.642
 2162SOL     OW 7384   2.111   6.870   0.211
 2162SOL    HW1 7385   2.148   6.851   0.120
 2162SOL    HW2 7386   2.148   6.957   0.245
 2163SOL     OW 7387   0.728   2.914   4.471
 2163SOL    HW1 7388   0.769   2.995   4.512
 2163SOL    HW2 7389   0.762   2.832   4.519
 2164SOL     OW 7390   2.134   4.365   2.008
 2164SOL    HW1 7391   2.115   4.309   2.089
 2164SOL    HW2 7392   2.207   4.323   1.955
 2165SOL     OW 7393   6.215   2.049   5.890
 2165SOL    HW1 7394   6.206   1.967   5.833
 2165SOL    HW2 7395   6.255   2.123   5.835
 2166SOL     OW 7396   6.863   2.281   1.897
 2166SOL    HW1 7397   6.883   2.190   1.934
 2166SOL    HW2 7398   6.784   2.319   1.944
 2167SOL     OW 7399   1.495   2.205   2.632
 2167SOL    HW1 7400   1.499   2.305   2.627
 2167SOL    HW2 7401   1.497   2.167   2.539
 2168SOL     OW 7402   1.417   2.464   3.571
 2168SOL    HW1 7403   1.370   2.396   3.515
 2168SOL    HW2 7404   1.395   2.450   3.668
 2169SOL     OW 7405   6.857   7.005   1.034
 2169SOL    HW1 7406   6.818   7.017   1.125
 2169SOL    HW2 7407   6.785   6.986   0.968
 2170SOL     OW 7408   1.773   2.687   6.206
 2170SOL    HW1 7409   1.758   2.588   6.217
 2170SOL    HW2 7410   1.837   2.718   6.276
 2171SOL     OW 7411   0.011   6.153   1.656
 2171SOL    HW1 7412   0.031   6.223   1.588
 2171SOL    HW2 7413   6.964   6.185   1.718
 2172SOL     OW 7414   2.462   2.564   4.788
 2172SOL    HW1 7415   2.462   2.609   4.699
 2172SOL    HW2 7416   2.462   2.465   4.775
 2173SOL     OW 7417   4.285   0.652   5.100
 2173SOL    HW1 7418   4.308   0.685   5.008
 2173SOL    HW2 7419   4.244   0.726   5.153
 2174SOL     OW 7420   4.967   0.332   6.053
 2174SOL    HW1 7421   5.004   0.241   6.036
 2174SOL    HW2 7422   4.881   0.342   6.004
 2175SOL     OW 7423   3.070   3.125   5.799
 2175SOL    HW1 7424   3.017   3.043   5.822
 2175SOL    HW2 7425   3.162   3.099   5.771
 2176SOL     OW 7426   6.464   1.602   2.902
 2176SOL    HW1 7427   6.473   1.681   2.962
 2176SOL    HW2 7428   6.369   1.570   2.902
 2177SOL     OW 7429   0.493   1.020   5.204
 2177SOL    HW1 7430   0.500   0.956   5.281
 2177SOL    HW2 7431   0.397   1.028   5.176
 2178SOL     OW 7432   1.768   3.306   2.620
 2178SOL    HW1 7433   1.843   3.247   2.590
 2178SOL    HW2 7434   1.783   3.399   2.587
 2179SOL     OW 7435   1.600   4.148   7.014
 2179SOL    HW1 7436   1.522   4.200   6.977
 2179SOL    HW2 7437   1.600   4.056   6.974
 2180SOL     OW 7438   0.357   5.080   2.895
 2180SOL    HW1 7439   0.451   5.102   2.866
 2180SOL    HW2 7440   0.344   4.981   2.891
 2181SOL     OW 7441   4.296   4.678   3.370
 2181SOL    HW1 7442   4.276   4.620   3.449
 2181SOL    HW2 7443   4.233   4.756   3.369
 2182SOL     OW 7444   0.268   6.816   1.223
 2182SOL    HW1 7445   0.189   6.799   1.280
 2182SOL    HW2 7446   0.273   6.913   1.198
 2183SOL     OW 7447   3.671   3.066   6.932
 2183SOL    HW1 7448   3.705   3.036   6.843
 2183SOL    HW2 7449   3.627   3.155   6.923
 2184SOL     OW 7450   6.366   1.986   6.881
 2184SOL    HW1 7451   6.348   1.913   6.815
 2184SOL    HW2 7452   6.437   2.047   6.844
 2185SOL     OW 7453   0.125   1.019   6.263
 2185SOL    HW1 7454   0.132   0.925   6.230
 2185SOL    HW2 7455   0.083   1.076   6.193
 2186SOL     OW 7456   6.712   6.321   5.654
 2186SOL    HW1 7457   6.799   6.344   5.696
 2186SOL    HW2 7458   6.644   6.306   5.725
 2187SOL     OW 7459   5.970   3.901   1.557
 2187SOL    HW1 7460   6.006   3.830   1.497
 2187SOL    HW2 7461   5.949   3.983   1.503
 2188SOL     OW 7462   3.027   1.748   1.268
 2188SOL    HW1 7463   3.047   1.685   1.343
 2188SOL    HW2 7464   3.108   1.761   1.212
 2189SOL     OW 7465   2.186   0.837   2.280
 2189SOL    HW1 7466   2.121   0.771   2.318
 2189SOL    HW2 7467   2.151   0.930   2.294
 2190SOL     OW 7468   6.739   4.878   1.748
 2190SOL    HW1 7469   6.741   4.859   1.847
 2190SOL    HW2 7470   6.832   4.880   1.713
 2191SOL     OW 7471   3.429   0.065   6.757
 2191SOL    HW1 7472   3.331   0.073   6.737
 2191SOL    HW2 7473   3.455   6.993   6.755
 2192SOL     OW 7474   5.026   2.412   1.754
 2192SOL    HW1 7475   5.032   2.496   1.808
 2192SOL    HW2 7476   4.976   2.431   1.669
 2193SOL     OW 7477   1.598   0.311   5.518
 2193SOL    HW1 7478   1.644   0.289   5.432
 2193SOL    HW2 7479   1.619   0.405   5.544
 2194SOL     OW 7480   0.951   4.376   5.961
 2194SOL    HW1 7481   1.029   4.429   5.929
 2194SOL    HW2 7482   0.879   4.437   5.994
 2195SOL     OW 7483   0.343   4.456   5.423
 2195SOL    HW1 7484   0.361   4.378   5.483
 2195SOL    HW2 7485   0.421   4.519   5.426
 2196SOL     OW 7486   4.200   1.613   6.878
 2196SOL    HW1 7487   4.143   1.694   6.895
 2196SOL    HW2 7488   4.142   1.538   6.846
 2197SOL     OW 7489   4.169   5.123   6.324
 2197SOL    HW1 7490   4.080   5.166   6.312
 2197SOL    HW2 7491   4.184   5.102   6.421
 2198SOL     OW 7492   1.517   0.931   6.069
 2198SOL    HW1 7493   1.503   0.974   5.979
 2198SOL    HW2 7494   1.557   0.998   6.132
 2199SOL     OW 7495   4.339   6.730   3.784
 2199SOL    HW1 7496   4.421   6.767   3.828
 2199SOL    HW2 7497   4.366   6.668   3.710
 2200SOL     OW 7498   2.539   1.858   4.790
 2200SOL    HW1 7499   2.606   1.928   4.814
 2200SOL    HW2 7500   2.514   1.866   4.694
 2201SOL     OW 7501   6.214   3.388   4.645
 2201SOL    HW1 7502   6.255   3.300   4.622
 2201SOL    HW2 7503   6.116   3.385   4.628
 2202SOL     OW 7504   4.334   0.189   4.747
 2202SOL    HW1 7505   4.254   0.161   4.800
 2202SOL    HW2 7506   4.362   0.113   4.688
 2203SOL     OW 7507   2.179   6.077   1.068
 2203SOL    HW1 7508   2.246   6.005   1.049
 2203SOL    HW2 7509   2.097   6.036   1.106
 2204SOL     OW 7510   4.831   2.954   0.732
 2204SOL    HW1 7511   4.889   2.873   0.724
 2204SOL    HW2 7512   4.868   3.015   0.801
 2205SOL     OW 7513   5.214   5.529   1.239
 2205SOL    HW1 7514   5.230   5.442   1.191
 2205SOL    HW2 7515   5.149   5.584   1.187
 2206SOL     OW 7516   3.626   3.166   5.393
 2206SOL    HW1 7517   3.616   3.104   5.471
 2206SOL    HW2 7518   3.707   3.140   5.341
 2207SOL     OW 7519   4.425   4.899   1.383
 2207SOL    HW1 7520   4.499   4.840   1.417
 2207SOL    HW2 7521   4.358   4.843   1.335
 2208SOL     OW 7522   6.536   6.204   3.018
 2208SOL    HW1 7523   6.505   6.131   3.079
 2208SOL    HW2 7524   6.488   6.289   3.040
 2209SOL     OW 7525   2.817   5.688   3.994
 2209SOL    HW1 7526   2.782   5.658   3.906
 2209SOL    HW2 7527   2.865   5.775   3.983
 2210SOL     OW 7528   5.333   6.603   2.186
 2210SOL    HW1 7529   5.417   6.655   2.170
 2210SOL    HW2 7530   5.329   6.526   2.122
 2211SOL     OW 7531   1.688   0.558   1.533
 2211SOL    HW1 7532   1.591   0.569   1.515
 2211SOL    HW2 7533   1.718   0.628   1.598
 2212SOL     OW 7534   3.055   6.190   6.374
 2212SOL    HW1 7535   3.035   6.209   6.470
 2212SOL    HW2 7536   3.144   6.229   6.350
 2213SOL     OW 7537   3.085   1.780   4.571
 2213SOL    HW1 7538   3.108   1.847   4.500
 2213SOL    HW2 7539   3.034   1.825   4.644
 2214SOL     OW 7540   4.282   4.776   6.613
 2214SOL    HW1 7541   4.264   4.678   6.610
 2214SOL    HW2 7542   4.350   4.795   6.685
 2215SOL     OW 7543   6.444   5.357   6.528
 2215SOL    HW1 7544   6.457   5.303   6.445
 2215SOL    HW2 7545   6.515   5.428   6.534
 2216SOL     OW 7546   6.939   6.294   0.055
 2216SOL    HW1 7547   6.900   6.303   6.988
 2216SOL    HW2 7548   6.950   6.197   0.078
 2217SOL     OW 7549   3.890   1.451   3.617
 2217SOL    HW1 7550   3.879   1.352   3.611
 2217SOL    HW2 7551   3.955   1.473   3.690
 2218SOL     OW 7552   6.102   5.506   5.721
 2218SOL    HW1 7553   6.179   5.510   5.785
 2218SOL    HW2 7554   6.135   5.527   5.628
 2219SOL     OW 7555   5.586   2.113   0.379
 2219SOL    HW1 7556   5.511   2.177   0.394
 2219SOL    HW2 7557   5.589   2.087   0.282
 2220SOL     OW 7558   6.600   6.507   4.035
 2220SOL    HW1 7559   6.641   6.521   3.945
 2220SOL    HW2 7560   6.663   6.539   4.106
 2221SOL     OW 7561   5.048   0.181   3.987
 2221SOL    HW1 7562   5.028   0.225   4.075
 2221SOL    HW2 7563   4.963   0.146   3.947
 2222SOL     OW 7564   3.433   1.042   4.098
 2222SOL    HW1 7565   3.485   1.097   4.163
 2222SOL    HW2 7566   3.490   1.020   4.019
 2223SOL     OW 7567   0.710   0.259   5.566
 2223SOL    HW1 7568   0.756   0.177   5.601
 2223SOL    HW2 7569   0.771   0.338   5.576
 2224SOL     OW 7570   5.365   4.542   6.871
 2224SOL    HW1 7571   5.269   4.515   6.868
 2224SOL    HW2 7572   5.372   4.640   6.889
 2225SOL     OW 7573   6.418   0.579   0.615
 2225SOL    HW1 7574   6.419   0.495   0.669
 2225SOL    HW2 7575   6.414   0.555   0.518
 2226SOL     OW 7576   2.844   3.370   6.892
 2226SOL    HW1 7577   2.927   3.376   6.948
 2226SOL    HW2 7578   2.869   3.367   6.796
 2227SOL     OW 7579   4.473   1.806   1.556
 2227SOL    HW1 7580   4.479   1.708   1.535
 2227SOL    HW2 7581   4.469   1.818   1.655
 2228SOL     OW 7582   4.975   6.814   6.552
 2228SOL    HW1 7583   5.075   6.813   6.540
 2228SOL    HW2 7584   4.931   6.778   6.470
 2229SOL     OW 7585   3.517   2.952   4.317
 2229SOL    HW1 7586   3.573   3.030   4.290
 2229SOL    HW2 7587   3.483   2.906   4.235
 2230SOL     OW 7588   6.533   1.455   6.309
 2230SOL    HW1 7589   6.560   1.511   6.231
 2230SOL    HW2 7590   6.541   1.358   6.284
 2231SOL     OW 7591   1.132   6.901   6.096
 2231SOL    HW1 7592   1.046   6.849   6.099
 2231SOL    HW2 7593   1.199   6.850   6.041
 2232SOL     OW 7594   1.613   0.850   6.475
 2232SOL    HW1 7595   1.694   0.907   6.460
 2232SOL    HW2 7596   1.586   0.855   6.571
 2233SOL     OW 7597   2.959   5.893   1.153
 2233SOL    HW1 7598   2.977   5.871   1.057
 2233SOL    HW2 7599   2.928   5.811   1.201
 2234SOL     OW 7600   5.229   1.955   1.829
 2234SOL    HW1 7601   5.302   1.945   1.761
 2234SOL    HW2 7602   5.166   2.027   1.800
 2235SOL     OW 7603   1.116   1.990   3.433
 2235SOL    HW1 7604   1.064   1.997   3.518
 2235SOL    HW2 7605   1.199   2.045   3.440
 2236SOL     OW 7606   2.584   4.718   5.139
 2236SOL    HW1 7607   2.525   4.639   5.155
 2236SOL    HW2 7608   2.667   4.689   5.091
 2237SOL     OW 7609   6.162   6.674   6.270
 2237SOL    HW1 7610   6.185   6.578   6.288
 2237SOL    HW2 7611   6.191   6.698   6.177
 2238SOL     OW 7612   5.212   3.906   1.568
 2238SOL    HW1 7613   5.216   3.858   1.480
 2238SOL    HW2 7614   5.265   3.855   1.635
 2239SOL     OW 7615   3.535   0.310   3.167
 2239SOL    HW1 7616   3.467   0.380   3.146
 2239SOL    HW2 7617   3.626   0.345   3.145
 2240SOL     OW 7618   4.935   5.283   2.717
 2240SOL    HW1 7619   4.970   5.292   2.811
 2240SOL    HW2 7620   4.836   5.295   2.717
 2241SOL     OW 7621   1.084   1.828   3.182
 2241SOL    HW1 7622   1.065   1.808   3.086
 2241SOL    HW2 7623   1.154   1.900   3.188
 2242SOL     OW 7624   5.289   2.183   4.135
 2242SOL    HW1 7625   5.316   2.220   4.224
 2242SOL    HW2 7626   5.266   2.257   4.073
 2243SOL     OW 7627   2.737   0.738   0.099
 2243SOL    HW1 7628   2.747   0.650   0.052
 2243SOL    HW2 7629   2.786   0.809   0.048
 2244SOL     OW 7630   2.288   1.745   1.045
 2244SOL    HW1 7631   2.286   1.845   1.044
 2244SOL    HW2 7632   2.194   1.710   1.051
 2245SOL     OW 7633   0.008   1.162   0.415
 2245SOL    HW1 7634   0.099   1.123   0.399
 2245SOL    HW2 7635   6.963   1.101   0.375
 2246SOL     OW 7636   5.667   1.000   5.527
 2246SOL    HW1 7637   5.625   1.078   5.480
 2246SOL    HW2 7638   5.766   1.006   5.520
 2247SOL     OW 7639   3.855   3.410   1.716
 2247SOL    HW1 7640   3.883   3.325   1.760
 2247SOL    HW2 7641   3.783   3.453   1.770
 2248SOL     OW 7642   5.594   3.211   4.580
 2248SOL    HW1 7643   5.669   3.207   4.515
 2248SOL    HW2 7644   5.617   3.159   4.662
 2249SOL     OW 7645   2.335   6.137   3.396
 2249SOL    HW1 7646   2.344   6.234   3.377
 2249SOL    HW2 7647   2.241   6.108   3.379
 2250SOL     OW 7648   4.226   6.205   6.109
 2250SOL    HW1 7649   4.320   6.178   6.088
 2250SOL    HW2 7650   4.209   6.192   6.207
 2251SOL     OW 7651   3.780   6.814   4.505
 2251SOL    HW1 7652   3.795   6.901   4.552
 2251SOL    HW2 7653   3.756   6.832   4.409
 2252SOL     OW 7654   3.552   1.265   2.558
 2252SOL    HW1 7655   3.545   1.363   2.539
 2252SOL    HW2 7656   3.589   1.217   2.478
 2253SOL     OW 7657   1.307   2.741   1.749
 2253SOL    HW1 7658   1.233   2.800   1.717
 2253SOL    HW2 7659   1.395   2.784   1.728
 2254SOL     OW 7660   3.259   2.969   2.822
 2254SOL    HW1 7661   3.266   2.978   2.921
 2254SOL    HW2 7662   3.175   3.012   2.790
 2255SOL     OW 7663   1.564   1.949   6.150
 2255SOL    HW1 7664   1.510   1.878   6.194
 2255SOL    HW2 7665   1.517   1.981   6.068
 2256SOL     OW 7666   4.838   0.245   1.096
 2256SOL    HW1 7667   4.822   0.324   1.154
 2256SOL    HW2 7668   4.923   0.259   1.044
 2257SOL     OW 7669   0.165   0.678   6.404
 2257SOL    HW1 7670   0.085   0.729   6.435
 2257SOL    HW2 7671   0.235   0.678   6.476
 2258SOL     OW 7672   2.453   0.233   3.306
 2258SOL    HW1 7673   2.391   0.161   3.273
 2258SOL    HW2 7674   2.416   0.322   3.279
 2259SOL     OW 7675   6.040   0.404   5.415
 2259SOL    HW1 7676   6.113   0.446   5.361
 2259SOL    HW2 7677   6.069   0.396   5.510
 2260SOL     OW 7678   1.225   3.757   1.301
 2260SOL    HW1 7679   1.249   3.724   1.209
 2260SOL    HW2 7680   1.128   3.777   1.305
 2261SOL     OW 7681   4.803   4.436   6.701
 2261SOL    HW1 7682   4.885   4.492   6.689
 2261SOL    HW2 7683   4.727   4.477   6.650
 2262SOL     OW 7684   6.532   0.296   3.720
 2262SOL    HW1 7685   6.511   0.200   3.700
 2262SOL    HW2 7686   6.541   0.347   3.634
 2263SOL     OW 7687   2.550   4.326   6.771
 2263SOL    HW1 7688   2.477   4.363   6.713
 2263SOL    HW2 7689   2.637   4.328   6.721
 2264SOL     OW 7690   2.301   0.847   6.547
 2264SOL    HW1 7691   2.227   0.905   6.514
 2264SOL    HW2 7692   2.341   0.887   6.629
 2265SOL     OW 7693   0.633   6.237   3.480
 2265SOL    HW1 7694   0.657   6.334   3.472
 2265SOL    HW2 7695   0.655   6.204   3.572
 2266SOL     OW 7696   4.578   3.933   6.784
 2266SOL    HW1 7697   4.639   4.011   6.767
 2266SOL    HW2 7698   4.487   3.966   6.806
 2267SOL     OW 7699   5.644   3.073   4.789
 2267SOL    HW1 7700   5.722   3.015   4.767
 2267SOL    HW2 7701   5.647   3.099   4.885
 2268SOL     OW 7702   0.841   6.011   4.805
 2268SOL    HW1 7703   0.784   5.929   4.804
 2268SOL    HW2 7704   0.925   5.992   4.855
 2269SOL     OW 7705   2.022   2.307   5.337
 2269SOL    HW1 7706   1.996   2.249   5.414
 2269SOL    HW2 7707   1.941   2.327   5.282
 2270SOL     OW 7708   4.513   1.584   6.363
 2270SOL    HW1 7709   4.443   1.543   6.421
 2270SOL    HW2 7710   4.481   1.672   6.328
 2271SOL     OW 7711   4.182   5.553   5.110
 2271SOL    HW1 7712   4.110   5.559   5.040
 2271SOL    HW2 7713   4.140   5.538   5.200
 2272SOL     OW 7714   6.010   0.817   6.598
 2272SOL    HW1 7715   5.980   0.721   6.593
 2272SOL    HW2 7716   6.066   0.830   6.679
 2273SOL     OW 7717   1.680   2.203   4.230
 2273SOL    HW1 7718   1.683   2.263   4.149
 2273SOL    HW2 7719   1.672   2.259   4.312
 2274SOL     OW 7720   1.413   1.191   6.835
 2274SOL    HW1 7721   1.393   1.159   6.742
 2274SOL    HW2 7722   1.512   1.189   6.850
 2275SOL     OW 7723   5.707   3.198   3.244
 2275SOL    HW1 7724   5.655   3.259   3.304
 2275SOL    HW2 7725   5.764   3.137   3.299
 2276SOL     OW 7726   1.946   1.803   1.646
 2276SOL    HW1 7727   1.950   1.893   1.690
 2276SOL    HW2 7728   1.854   1.789   1.609
 2277SOL     OW 7729   3.857   3.138   3.238
 2277SOL    HW1 7730   3.936   3.164   3.183
 2277SOL    HW2 7731   3.777   3.128   3.180
 2278SOL     OW 7732   6.638   3.450   3.885
 2278SOL    HW1 7733   6.598   3.484   3.970
 2278SOL    HW2 7734   6.705   3.378   3.906
 2279SOL     OW 7735   0.683   5.367   5.972
 2279SOL    HW1 7736   0.606   5.308   5.951
 2279SOL    HW2 7737   0.760   5.312   6.005
 2280SOL     OW 7738   4.934   2.662   5.659
 2280SOL    HW1 7739   5.002   2.673   5.587
 2280SOL    HW2 7740   4.967   2.597   5.727
 2281SOL     OW 7741   5.146   6.736   2.353
 2281SOL    HW1 7742   5.214   6.709   2.285
 2281SOL    HW2 7743   5.066   6.675   2.346
 2282SOL     OW 7744   3.389   5.381   5.934
 2282SOL    HW1 7745   3.412   5.399   5.839
 2282SOL    HW2 7746   3.445   5.305   5.968
 2283SOL     OW 7747   6.844   1.166   5.160
 2283SOL    HW1 7748   6.820   1.204   5.250
 2283SOL    HW2 7749   6.798   1.077   5.149
 2284SOL     OW 7750   1.460   3.703   6.221
 2284SOL    HW1 7751   1.508   3.772   6.276
 2284SOL    HW2 7752   1.494   3.612   6.245
 2285SOL     OW 7753   1.325   5.272   6.561
 2285SOL    HW1 7754   1.316   5.348   6.497
 2285SOL    HW2 7755   1.391   5.206   6.525
 2286SOL     OW 7756   4.815   4.318   2.535
 2286SOL    HW1 7757   4.823   4.281   2.628
 2286SOL    HW2 7758   4.904   4.311   2.489
 2287SOL     OW 7759   1.749   1.176   4.105
 2287SOL    HW1 7760   1.666   1.143   4.150
 2287SOL    HW2 7761   1.828   1.160   4.164
 2288SOL     OW 7762   6.393   5.060   3.209
 2288SOL    HW1 7763   6.433   4.977   3.172
 2288SOL    HW2 7764   6.346   5.040   3.295
 2289SOL     OW 7765   0.200   4.822   0.109
 2289SOL    HW1 7766   0.117   4.866   0.144
 2289SOL    HW2 7767   0.213   4.847   0.013
 2290SOL     OW 7768   0.848   5.175   6.786
 2290SOL    HW1 7769   0.877   5.160   6.692
 2290SOL    HW2 7770   0.924   5.214   6.839
 2291SOL     OW 7771   1.856   1.541   6.793
 2291SOL    HW1 7772   1.806   1.516   6.876
 2291SOL    HW2 7773   1.932   1.478   6.779
 2292SOL     OW 7774   2.166   0.800   4.548
 2292SOL    HW1 7775   2.175   0.892   4.588
 2292SOL    HW2 7776   2.088   0.754   4.589
 2293SOL     OW 7777   4.969   4.153   3.305
 2293SOL    HW1 7778   4.968   4.189   3.398
 2293SOL    HW2 7779   5.043   4.197   3.253
 2294SOL     OW 7780   3.673   0.057   6.898
 2294SOL    HW1 7781   3.585   0.051   6.851
 2294SOL    HW2 7782   3.720   6.993   6.892
 2295SOL     OW 7783   1.227   0.844   1.869
 2295SOL    HW1 7784   1.182   0.888   1.792
 2295SOL    HW2 7785   1.160   0.793   1.923
 2296SOL     OW 7786   2.809   6.401   7.020
 2296SOL    HW1 7787   2.775   6.484   0.040
 2296SOL    HW2 7788   2.906   6.388   0.018
 2297SOL     OW 7789   4.151   6.202   6.363
 2297SOL    HW1 7790   4.210   6.135   6.407
 2297SOL    HW2 7791   4.056   6.187   6.392
 2298SOL     OW 7792   4.275   3.143   6.595
 2298SOL    HW1 7793   4.323   3.229   6.608
 2298SOL    HW2 7794   4.294   3.082   6.672
 2299SOL     OW 7795   4.516   0.162   1.493
 2299SOL    HW1 7796   4.531   0.159   1.394
 2299SOL    HW2 7797   4.424   0.196   1.512
 2300SOL     OW 7798   0.855   5.086   0.840
 2300SOL    HW1 7799   0.932   5.146   0.860
 2300SOL    HW2 7800   0.791   5.087   0.917
 2301SOL     OW 7801   3.333   3.420   1.523
 2301SOL    HW1 7802   3.317   3.322   1.536
 2301SOL    HW2 7803   3.427   3.442   1.549
 2302SOL     OW 7804   2.877   5.419   2.655
 2302SOL    HW1 7805   2.852   5.403   2.751
 2302SOL    HW2 7806   2.845   5.510   2.627
 2303SOL     OW 7807   0.252   3.562   5.905
 2303SOL    HW1 7808   0.282   3.642   5.851
 2303SOL    HW2 7809   0.224   3.592   5.996
 2304SOL     OW 7810   1.928   1.002   4.587
 2304SOL    HW1 7811   1.925   0.948   4.503
 2304SOL    HW2 7812   2.014   1.052   4.591
 2305SOL     OW 7813   4.176   5.003   1.871
 2305SOL    HW1 7814   4.178   5.097   1.905
 2305SOL    HW2 7815   4.214   4.999   1.779
 2306SOL     OW 7816   0.353   4.125   0.229
 2306SOL    HW1 7817   0.429   4.162   0.176
 2306SOL    HW2 7818   0.267   4.147   0.184
 2307SOL     OW 7819   0.290   0.833   3.066
 2307SOL    HW1 7820   0.384   0.808   3.045
 2307SOL    HW2 7821   0.289   0.910   3.130
 2308SOL     OW 7822   1.018   0.078   0.127
 2308SOL    HW1 7823   0.980   7.019   0.168
 2308SOL    HW2 7824   1.093   0.111   0.185
 2309SOL     OW 7825   2.034   5.016   6.540
 2309SOL    HW1 7826   2.001   4.979   6.627
 2309SOL    HW2 7827   2.131   4.992   6.528
 2310SOL     OW 7828   5.443   1.422   3.167
 2310SOL    HW1 7829   5.459   1.450   3.073
 2310SOL    HW2 7830   5.484   1.332   3.183
 2311SOL     OW 7831   2.750   6.971   2.728
 2311SOL    HW1 7832   2.741   0.001   2.811
 2311SOL    HW2 7833   2.664   6.924   2.709
 2312SOL     OW 7834   2.476   1.041   2.416
 2312SOL    HW1 7835   2.488   0.958   2.362
 2312SOL    HW2 7836   2.498   1.121   2.361
 2313SOL     OW 7837   4.804   4.748   1.689
 2313SOL    HW1 7838   4.857   4.685   1.746
 2313SOL    HW2 7839   4.860   4.828   1.667
 2314SOL     OW 7840   6.652   5.911   3.344
 2314SOL    HW1 7841   6.616   5.927   3.252
 2314SOL    HW2 7842   6.620   5.822   3.378
 2315SOL     OW 7843   4.911   6.284   5.375
 2315SOL    HW1 7844   4.953   6.232   5.300
 2315SOL    HW2 7845   4.836   6.232   5.414
 2316SOL     OW 7846   3.727   2.007   5.978
 2316SOL    HW1 7847   3.712   1.998   5.880
 2316SOL    HW2 7848   3.671   2.082   6.013
 2317SOL     OW 7849   0.180   5.075   2.534
 2317SOL    HW1 7850   0.278   5.084   2.514
 2317SOL    HW2 7851   0.163   5.102   2.628
 2318SOL     OW 7852   1.352   5.023   3.810
 2318SOL    HW1 7853   1.350   4.930   3.774
 2318SOL    HW2 7854   1.265   5.043   3.855
 2319SOL     OW 7855   2.665   5.851   2.947
 2319SOL    HW1 7856   2.614   5.848   3.033
 2319SOL    HW2 7857   2.605   5.888   2.875
 2320SOL     OW 7858   0.890   1.751   5.093
 2320SOL    HW1 7859   0.916   1.724   5.001
 2320SOL    HW2 7860   0.913   1.848   5.107
 2321SOL     OW 7861   1.948   4.976   5.252
 2321SOL    HW1 7862   2.030   4.988   5.195
 2321SOL    HW2 7863   1.940   4.881   5.280
 2322SOL     OW 7864   1.978   3.808   1.739
 2322SOL    HW1 7865   2.067   3.762   1.738
 2322SOL    HW2 7866   1.919   3.764   1.807
 2323SOL     OW 7867   2.719   5.801   0.169
 2323SOL    HW1 7868   2.721   5.725   0.234
 2323SOL    HW2 7869   2.624   5.826   0.150
 2324SOL     OW 7870   6.434   4.996   2.694
 2324SOL    HW1 7871   6.506   5.033   2.636
 2324SOL    HW2 7872   6.444   5.032   2.787
 2325SOL     OW 7873   6.512   4.175   3.030
 2325SOL    HW1 7874   6.414   4.191   3.046
 2325SOL    HW2 7875   6.546   4.244   2.965
 2326SOL     OW 7876   2.194   0.080   0.312
 2326SOL    HW1 7877   2.176   0.061   0.408
 2326SOL    HW2 7878   2.257   0.158   0.304
 2327SOL     OW 7879   6.422   6.258   1.988
 2327SOL    HW1 7880   6.372   6.318   1.925
 2327SOL    HW2 7881   6.501   6.307   2.025
 2328SOL     OW 7882   2.086   3.517   2.481
 2328SOL    HW1 7883   1.989   3.539   2.472
 2328SOL    HW2 7884   2.104   3.426   2.443
 2329SOL     OW 7885   0.637   4.870   2.465
 2329SOL    HW1 7886   0.693   4.953   2.460
 2329SOL    HW2 7887   0.666   4.807   2.393
 2330SOL     OW 7888   6.070   2.871   1.383
 2330SOL    HW1 7889   6.161   2.840   1.356
 2330SOL    HW2 7890   6.010   2.792   1.397
 2331SOL     OW 7891   4.919   5.595   1.471
 2331SOL    HW1 7892   4.954   5.504   1.448
 2331SOL    HW2 7893   4.995   5.655   1.496
 2332SOL     OW 7894   6.289   7.013   6.105
 2332SOL    HW1 7895   6.217   7.003   6.173
 2332SOL    HW2 7896   6.247   0.002   6.014
 2333SOL     OW 7897   1.397   4.427   2.650
 2333SOL    HW1 7898   1.385   4.471   2.561
 2333SOL    HW2 7899   1.445   4.340   2.638
 2334SOL     OW 7900   3.472   1.568   6.138
 2334SOL    HW1 7901   3.480   1.520   6.050
 2334SOL    HW2 7902   3.412   1.647   6.127
 2335SOL     OW 7903   6.756   1.079   3.825
 2335SOL    HW1 7904   6.796   1.170   3.835
 2335SOL    HW2 7905   6.760   1.031   3.913
 2336SOL     OW 7906   1.871   1.699   3.447
 2336SOL    HW1 7907   1.872   1.607   3.484
 2336SOL    HW2 7908   1.929   1.703   3.365
 2337SOL     OW 7909   3.902   0.966   1.847
 2337SOL    HW1 7910   3.836   0.982   1.920
 2337SOL    HW2 7911   3.881   0.880   1.801
 2338SOL     OW 7912   6.828   3.894   3.480
 2338SOL    HW1 7913   6.906   3.879   3.540
 2338SOL    HW2 7914   6.850   3.966   3.414
 2339SOL     OW 7915   3.508   3.063   2.728
 2339SOL    HW1 7916   3.567   2.995   2.685
 2339SOL    HW2 7917   3.417   3.024   2.743
 2340SOL     OW 7918   2.091   3.518   6.865
 2340SOL    HW1 7919   2.153   3.588   6.832
 2340SOL    HW2 7920   1.997   3.546   6.849
 2341SOL     OW 7921   2.935   5.089   4.176
 2341SOL    HW1 7922   2.949   5.059   4.270
 2341SOL    HW2 7923   2.837   5.098   4.157
 2342SOL     OW 7924   3.818   1.194   4.629
 2342SOL    HW1 7925   3.912   1.227   4.641
 2342SOL    HW2 7926   3.820   1.106   4.582
 2343SOL     OW 7927   0.075   0.115   0.956
 2343SOL    HW1 7928   7.014   0.067   0.975
 2343SOL    HW2 7929   0.151   0.068   1.002
 2344SOL     OW 7930   6.228   4.692   0.244
 2344SOL    HW1 7931   6.205   4.610   0.297
 2344SOL    HW2 7932   6.258   4.664   0.153
 2345SOL     OW 7933   3.806   6.248   4.622
 2345SOL    HW1 7934   3.742   6.264   4.697
 2345SOL    HW2 7935   3.761   6.267   4.535
 2346SOL     OW 7936   4.962   3.466   0.409
 2346SOL    HW1 7937   4.932   3.389   0.353
 2346SOL    HW2 7938   5.061   3.466   0.415
 2347SOL     OW 7939   1.461   1.018   1.472
 2347SOL    HW1 7940   1.410   1.072   1.404
 2347SOL    HW2 7941   1.535   1.073   1.510
 2348SOL     OW 7942   6.969   5.766   2.449
 2348SOL    HW1 7943   6.924   5.789   2.535
 2348SOL    HW2 7944   0.019   5.701   2.466
 2349SOL     OW 7945   0.708   4.865   4.831
 2349SOL    HW1 7946   0.669   4.914   4.753
 2349SOL    HW2 7947   0.653   4.783   4.849
 2350SOL     OW 7948   5.461   4.051   0.464
 2350SOL    HW1 7949   5.381   4.106   0.490
 2350SOL    HW2 7950   5.451   4.021   0.370
 2351SOL     OW 7951   2.335   6.143   1.584
 2351SOL    HW1 7952   2.416   6.178   1.536
 2351SOL    HW2 7953   2.260   6.208   1.574
 2352SOL     OW 7954   6.757   2.731   3.281
 2352SOL    HW1 7955   6.824   2.657   3.289
 2352SOL    HW2 7956   6.673   2.695   3.239
 2353SOL     OW 7957   3.200   5.867   4.039
 2353SOL    HW1 7958   3.289   5.848   3.999
 2353SOL    HW2 7959   3.207   5.867   4.139
 2354SOL     OW 7960   2.484   2.618   3.591
 2354SOL    HW1 7961   2.564   2.567   3.559
 2354SOL    HW2 7962   2.499   2.646   3.686
 2355SOL     OW 7963   2.302   5.559   4.552
 2355SOL    HW1 7964   2.262   5.556   4.461
 2355SOL    HW2 7965   2.345   5.648   4.567
 2356SOL     OW 7966   6.752   2.779   6.950
 2356SOL    HW1 7967   6.707   2.690   6.947
 2356SOL    HW2 7968   6.824   2.782   6.881
 2357SOL     OW 7969   2.075   6.745   2.963
 2357SOL    HW1 7970   2.146   6.756   3.033
 2357SOL    HW2 7971   2.099   6.668   2.904
 2358SOL     OW 7972   4.513   5.509   6.055
 2358SOL    HW1 7973   4.566   5.592   6.075
 2358SOL    HW2 7974   4.434   5.504   6.116
 2359SOL     OW 7975   1.872   0.129   5.443
 2359SOL    HW1 7976   1.890   0.170   5.532
 2359SOL    HW2 7977   1.816   0.191   5.388
 2360SOL     OW 7978   6.656   3.848   0.274
 2360SOL    HW1 7979   6.649   3.787   0.353
 2360SOL    HW2 7980   6.617   3.937   0.297
 2361SOL     OW 7981   3.742   1.172   0.322
 2361SOL    HW1 7982   3.702   1.133   0.239
 2361SOL    HW2 7983   3.670   1.187   0.390
 2362SOL     OW 7984   2.739   5.445   3.300
 2362SOL    HW1 7985   2.832   5.416   3.279
 2362SOL    HW2 7986   2.725   5.444   3.399
 2363SOL     OW 7987   4.150   0.746   3.856
 2363SOL    HW1 7988   4.181   0.673   3.916
 2363SOL    HW2 7989   4.097   0.708   3.780
 2364SOL     OW 7990   1.309   2.778   1.292
 2364SOL    HW1 7991   1.368   2.705   1.328
 2364SOL    HW2 7992   1.323   2.785   1.193
 2365SOL     OW 7993   4.986   1.761   0.342
 2365SOL    HW1 7994   4.923   1.759   0.265
 2365SOL    HW2 7995   4.991   1.854   0.379
 2366SOL     OW 7996   4.727   5.383   0.740
 2366SOL    HW1 7997   4.825   5.392   0.760
 2366SOL    HW2 7998   4.699   5.289   0.757
 2367SOL     OW 7999   1.982   3.653   6.003
 2367SOL    HW1 8000   2.034   3.591   5.945
 2367SOL    HW2 8001   1.884   3.640   5.987
 2368SOL     OW 8002   5.961   6.162   1.920
 2368SOL    HW1 8003   6.001   6.170   1.829
 2368SOL    HW2 8004   6.031   6.178   1.990
 2369SOL     OW 8005   2.252   1.560   3.253
 2369SOL    HW1 8006   2.258   1.467   3.291
 2369SOL    HW2 8007   2.337   1.609   3.273
 2370SOL     OW 8008   6.160   2.823   6.149
 2370SOL    HW1 8009   6.234   2.891   6.153
 2370SOL    HW2 8010   6.074   2.867   6.125
 2371SOL     OW 8011   1.738   6.004   1.792
 2371SOL    HW1 8012   1.701   5.944   1.864
 2371SOL    HW2 8013   1.705   5.973   1.703
 2372SOL     OW 8014   6.319   2.550   2.902
 2372SOL    HW1 8015   6.259   2.537   2.823
 2372SOL    HW2 8016   6.410   2.576   2.871
 2373SOL     OW 8017   2.345   3.645   6.469
 2373SOL    HW1 8018   2.395   3.566   6.435
 2373SOL    HW2 8019   2.325   3.708   6.394
 2374SOL     OW 8020   5.423   2.541   4.578
 2374SOL    HW1 8021   5.336   2.523   4.623
 2374SOL    HW2 8022   5.498   2.514   4.638
 2375SOL     OW 8023   1.235   6.665   5.954
 2375SOL    HW1 8024   1.193   6.734   5.896
 2375SOL    HW2 8025   1.266   6.588   5.897
 2376SOL     OW 8026   0.295   2.436   3.870
 2376SOL    HW1 8027   0.320   2.452   3.966
 2376SOL    HW2 8028   0.280   2.524   3.825
 2377SOL     OW 8029   3.378   2.866   4.059
 2377SOL    HW1 8030   3.468   2.873   4.016
 2377SOL    HW2 8031   3.324   2.797   4.012
 2378SOL     OW 8032   5.242   2.069   0.661
 2378SOL    HW1 8033   5.162   2.118   0.696
 2378SOL    HW2 8034   5.320   2.083   0.723
 2379SOL     OW 8035   6.729   6.860   6.085
 2379SOL    HW1 8036   6.659   6.817   6.142
 2379SOL    HW2 8037   6.818   6.849   6.127
 2380SOL     OW 8038   6.333   2.016   2.821
 2380SOL    HW1 8039   6.340   1.954   2.743
 2380SOL    HW2 8040   6.247   2.067   2.815
 2381SOL     OW 8041   2.010   6.100   2.731
 2381SOL    HW1 8042   1.991   6.008   2.694
 2381SOL    HW2 8043   2.107   6.106   2.755
 2382SOL     OW 8044   1.631   2.864   5.645
 2382SOL    HW1 8045   1.602   2.807   5.722
 2382SOL    HW2 8046   1.724   2.898   5.662
 2383SOL     OW 8047   5.805   5.426   1.773
 2383SOL    HW1 8048   5.748   5.346   1.750
 2383SOL    HW2 8049   5.754   5.486   1.834
 2384SOL     OW 8050   4.214   1.298   1.588
 2384SOL    HW1 8051   4.257   1.323   1.502
 2384SOL    HW2 8052   4.123   1.340   1.594
 2385SOL     OW 8053   1.412   2.486   0.055
 2385SOL    HW1 8054   1.453   2.396   0.065
 2385SOL    HW2 8055   1.432   2.521   6.988
 2386SOL     OW 8056   4.263   4.923   3.721
 2386SOL    HW1 8057   4.289   4.995   3.656
 2386SOL    HW2 8058   4.323   4.928   3.801
 2387SOL     OW 8059   1.260   1.321   2.751
 2387SOL    HW1 8060   1.305   1.378   2.820
 2387SOL    HW2 8061   1.311   1.326   2.665
 2388SOL     OW 8062   0.166   1.369   3.889
 2388SOL    HW1 8063   0.245   1.308   3.887
 2388SOL    HW2 8064   0.196   1.461   3.918
 2389SOL     OW 8065   3.560   6.633   2.424
 2389SOL    HW1 8066   3.658   6.623   2.406
 2389SOL    HW2 8067   3.536   6.581   2.505
 2390SOL     OW 8068   2.966   4.813   1.303
 2390SOL    HW1 8069   2.970   4.768   1.393
 2390SOL    HW2 8070   2.943   4.746   1.233
 2391SOL     OW 8071   4.375   5.325   4.459
 2391SOL    HW1 8072   4.380   5.420   4.428
 2391SOL    HW2 8073   4.466   5.291   4.480
 2392SOL     OW 8074   4.075   1.379   6.756
 2392SOL    HW1 8075   4.044   1.362   6.662
 2392SOL    HW2 8076   4.151   1.317   6.777
 2393SOL     OW 8077   3.688   4.938   4.950
 2393SOL    HW1 8078   3.785   4.963   4.958
 2393SOL    HW2 8079   3.659   4.890   5.033
 2394SOL     OW 8080   6.992   4.779   5.445
 2394SOL    HW1 8081   6.945   4.859   5.482
 2394SOL    HW2 8082   7.024   4.721   5.520
 2395SOL     OW 8083   4.216   6.434   6.490
 2395SOL    HW1 8084   4.203   6.350   6.438
 2395SOL    HW2 8085   4.153   6.504   6.456
 2396SOL     OW 8086   2.854   5.676   1.258
 2396SOL    HW1 8087   2.838   5.629   1.171
 2396SOL    HW2 8088   2.947   5.658   1.289
 2397SOL     OW 8089   0.547   3.318   4.461
 2397SOL    HW1 8090   0.589   3.332   4.550
 2397SOL    HW2 8091   0.475   3.385   4.447
 2398SOL     OW 8092   4.778   3.606   5.397
 2398SOL    HW1 8093   4.826   3.525   5.432
 2398SOL    HW2 8094   4.729   3.582   5.313
 2399SOL     OW 8095   4.664   2.297   1.377
 2399SOL    HW1 8096   4.575   2.259   1.402
 2399SOL    HW2 8097   4.663   2.324   1.281
 2400SOL     OW 8098   1.722   4.994   0.347
 2400SOL    HW1 8099   1.622   4.987   0.352
 2400SOL    HW2 8100   1.752   4.964   0.256
 2401SOL     OW 8101   6.293   6.032   6.750
 2401SOL    HW1 8102   6.318   5.946   6.706
 2401SOL    HW2 8103   6.375   6.080   6.778
 2402SOL     OW 8104   6.892   0.035   4.034
 2402SOL    HW1 8105   6.855   7.011   3.954
 2402SOL    HW2 8106   6.982   7.021   4.057
 2403SOL     OW 8107   1.310   1.083   3.692
 2403SOL    HW1 8108   1.404   1.083   3.725
 2403SOL    HW2 8109   1.270   0.993   3.705
 2404SOL     OW 8110   1.314   0.287   6.689
 2404SOL    HW1 8111   1.226   0.251   6.720
 2404SOL    HW2 8112   1.383   0.215   6.693
 2405SOL     OW 8113   2.926   4.636   1.484
 2405SOL    HW1 8114   2.850   4.600   1.430
 2405SOL    HW2 8115   2.941   4.577   1.563
 2406SOL     OW 8116   5.062   1.190   1.330
 2406SOL    HW1 8117   5.028   1.272   1.285
 2406SOL    HW2 8118   5.024   1.109   1.284
 2407SOL     OW 8119   5.306   6.583   3.784
 2407SOL    HW1 8120   5.363   6.665   3.791
 2407SOL    HW2 8121   5.332   6.531   3.702
 2408SOL     OW 8122   4.311   4.680   2.215
 2408SOL    HW1 8123   4.364   4.612   2.166
 2408SOL    HW2 8124   4.362   4.712   2.295
 2409SOL     OW 8125   1.275   4.436   0.721
 2409SOL    HW1 8126   1.361   4.387   0.734
 2409SOL    HW2 8127   1.206   4.399   0.784
 2410SOL     OW 8128   4.097   3.397   2.727
 2410SOL    HW1 8129   4.193   3.414   2.702
 2410SOL    HW2 8130   4.047   3.484   2.725
 2411SOL     OW 8131   3.594   0.409   4.940
 2411SOL    HW1 8132   3.505   0.373   4.911
 2411SOL    HW2 8133   3.594   0.509   4.928
 2412SOL     OW 8134   4.311   3.923   1.253
 2412SOL    HW1 8135   4.409   3.909   1.241
 2412SOL    HW2 8136   4.288   4.019   1.234
 2413SOL     OW 8137   3.793   0.435   3.140
 2413SOL    HW1 8138   3.859   0.479   3.079
 2413SOL    HW2 8139   3.832   0.427   3.232
 2414SOL     OW 8140   5.324   3.218   4.457
 2414SOL    HW1 8141   5.410   3.221   4.508
 2414SOL    HW2 8142   5.325   3.288   4.385
 2415SOL     OW 8143   4.294   0.350   3.602
 2415SOL    HW1 8144   4.230   0.366   3.677
 2415SOL    HW2 8145   4.277   0.414   3.528
 2416SOL     OW 8146   5.617   1.806   6.273
 2416SOL    HW1 8147   5.571   1.803   6.362
 2416SOL    HW2 8148   5.577   1.738   6.212
 2417SOL     OW 8149   3.344   4.157   5.163
 2417SOL    HW1 8150   3.387   4.242   5.192
 2417SOL    HW2 8151   3.372   4.136   5.069
 2418SOL     OW 8152   2.974   3.276   2.427
 2418SOL    HW1 8153   3.057   3.303   2.477
 2418SOL    HW2 8154   2.899   3.339   2.451
 2419SOL     OW 8155   6.958   0.651   3.727
 2419SOL    HW1 8156   6.946   0.651   3.826
 2419SOL    HW2 8157   0.003   0.583   3.702
 2420SOL     OW 8158   2.186   0.075   2.060
 2420SOL    HW1 8159   2.250   0.143   2.026
 2420SOL    HW2 8160   2.236   7.023   2.100
 2421SOL     OW 8161   4.046   2.250   3.017
 2421SOL    HW1 8162   3.969   2.195   3.049
 2421SOL    HW2 8163   4.092   2.292   3.095
 2422SOL     OW 8164   5.454   1.590   1.191
 2422SOL    HW1 8165   5.386   1.619   1.258
 2422SOL    HW2 8166   5.473   1.492   1.204
 2423SOL     OW 8167   1.508   4.954   2.326
 2423SOL    HW1 8168   1.455   5.039   2.324
 2423SOL    HW2 8169   1.507   4.917   2.418
 2424SOL     OW 8170   6.716   0.086   0.200
 2424SOL    HW1 8171   6.656   0.110   0.125
 2424SOL    HW2 8172   6.680   0.123   0.286
 2425SOL     OW 8173   6.891   0.193   4.542
 2425SOL    HW1 8174   6.902   0.292   4.533
 2425SOL    HW2 8175   6.841   0.173   4.626
 2426SOL     OW 8176   1.915   5.323   4.334
 2426SOL    HW1 8177   1.882   5.369   4.251
 2426SOL    HW2 8178   1.864   5.357   4.413
 2427SOL     OW 8179   6.480   0.900   5.538
 2427SOL    HW1 8180   6.550   0.869   5.603
 2427SOL    HW2 8181   6.521   0.910   5.447
 2428SOL     OW 8182   5.850   1.842   0.546
 2428SOL    HW1 8183   5.878   1.774   0.479
 2428SOL    HW2 8184   5.848   1.800   0.637
 2429SOL     OW 8185   4.670   4.558   2.754
 2429SOL    HW1 8186   4.711   4.617   2.684
 2429SOL    HW2 8187   4.575   4.540   2.732
 2430SOL     OW 8188   4.871   0.118   2.629
 2430SOL    HW1 8189   4.833   0.091   2.717
 2430SOL    HW2 8190   4.806   0.094   2.556
 2431SOL     OW 8191   4.152   6.731   2.334
 2431SOL    HW1 8192   4.087   6.790   2.286
 2431SOL    HW2 8193   4.160   6.761   2.429
 2432SOL     OW 8194   2.446   5.882   2.012
 2432SOL    HW1 8195   2.452   5.937   1.929
 2432SOL    HW2 8196   2.385   5.805   1.997
 2433SOL     OW 8197   5.192   6.635   0.605
 2433SOL    HW1 8198   5.225   6.652   0.513
 2433SOL    HW2 8199   5.152   6.718   0.643
 2434SOL     OW 8200   3.157   3.417   5.048
 2434SOL    HW1 8201   3.215   3.395   4.970
 2434SOL    HW2 8202   3.192   3.372   5.130
 2435SOL     OW 8203   6.004   5.816   6.225
 2435SOL    HW1 8204   6.020   5.726   6.185
 2435SOL    HW2 8205   5.906   5.837   6.221
 2436SOL     OW 8206   3.052   4.472   1.127
 2436SOL    HW1 8207   3.026   4.549   1.070
 2436SOL    HW2 8208   3.106   4.504   1.205
 2437SOL     OW 8209   6.904   0.766   6.074
 2437SOL    HW1 8210   6.999   0.799   6.067
 2437SOL    HW2 8211   6.885   0.704   5.997
 2438SOL     OW 8212   3.601   3.594   0.612
 2438SOL    HW1 8213   3.505   3.610   0.589
 2438SOL    HW2 8214   3.646   3.683   0.625
 2439SOL     OW 8215   5.976   4.279   6.510
 2439SOL    HW1 8216   5.956   4.374   6.534
 2439SOL    HW2 8217   6.013   4.275   6.417
 2440SOL     OW 8218   5.977   5.224   6.398
 2440SOL    HW1 8219   5.924   5.281   6.461
 2440SOL    HW2 8220   5.965   5.128   6.422
 2441SOL     OW 8221   6.555   2.280   0.816
 2441SOL    HW1 8222   6.592   2.356   0.870
 2441SOL    HW2 8223   6.583   2.290   0.721
 2442SOL     OW 8224   6.595   1.837   4.650
 2442SOL    HW1 8225   6.637   1.746   4.649
 2442SOL    HW2 8226   6.496   1.828   4.633
 2443SOL     OW 8227   2.749   4.976   6.044
 2443SOL    HW1 8228   2.762   4.890   5.995
 2443SOL    HW2 8229   2.708   4.958   6.134
 2444SOL     OW 8230   3.355   2.402   6.371
 2444SOL    HW1 8231   3.428   2.407   6.302
 2444SOL    HW2 8232   3.376   2.465   6.446
 2445SOL     OW 8233   1.216   0.330   0.891
 2445SOL    HW1 8234   1.291   0.284   0.842
 2445SOL    HW2 8235   1.254   0.400   0.952
 2446SOL     OW 8236   4.939   2.807   6.523
 2446SOL    HW1 8237   4.990   2.727   6.492
 2446SOL    HW2 8238   4.864   2.826   6.459
 2447SOL     OW 8239   0.973   3.768   6.709
 2447SOL    HW1 8240   0.906   3.704   6.671
 2447SOL    HW2 8241   1.027   3.722   6.780
 2448SOL     OW 8242   6.811   0.798   4.948
 2448SOL    HW1 8243   6.887   0.835   5.000
 2448SOL    HW2 8244   6.735   0.863   4.949
 2449SOL     OW 8245   6.652   3.142   5.592
 2449SOL    HW1 8246   6.702   3.171   5.673
 2449SOL    HW2 8247   6.595   3.064   5.614
 2450SOL     OW 8248   2.616   3.180   1.410
 2450SOL    HW1 8249   2.547   3.235   1.457
 2450SOL    HW2 8250   2.695   3.237   1.389
 2451SOL     OW 8251   1.970   6.091   3.574
 2451SOL    HW1 8252   2.014   6.095   3.664
 2451SOL    HW2 8253   1.885   6.038   3.581
 2452SOL     OW 8254   2.524   1.700   4.289
 2452SOL    HW1 8255   2.536   1.746   4.202
 2452SOL    HW2 8256   2.586   1.739   4.357
 2453SOL     OW 8257   0.223   4.182   1.027
 2453SOL    HW1 8258   0.210   4.141   0.937
 2453SOL    HW2 8259   0.234   4.110   1.095
 2454SOL     OW 8260   0.878   6.753   1.848
 2454SOL    HW1 8261   0.865   6.852   1.843
 2454SOL    HW2 8262   0.958   6.727   1.794
 2455SOL     OW 8263   5.647   3.724   1.274
 2455SOL    HW1 8264   5.604   3.783   1.343
 2455SOL    HW2 8265   5.732   3.766   1.242
 2456SOL     OW 8266   2.570   6.642   1.699
 2456SOL    HW1 8267   2.574   6.546   1.728
 2456SOL    HW2 8268   2.658   6.686   1.720
 2457SOL     OW 8269   5.259   5.697   0.824
 2457SOL    HW1 8270   5.323   5.673   0.898
 2457SOL    HW2 8271   5.167   5.709   0.862
 2458SOL     OW 8272   0.741   6.352   1.291
 2458SOL    HW1 8273   0.787   6.430   1.334
 2458SOL    HW2 8274   0.677   6.386   1.222
 2459SOL     OW 8275   1.559   1.908   6.997
 2459SOL    HW1 8276   1.627   1.863   6.939
 2459SOL    HW2 8277   1.474   1.919   6.945
 2460SOL     OW 8278   2.014   4.653   0.940
 2460SOL    HW1 8279   2.021   4.685   1.035
 2460SOL    HW2 8280   2.106   4.635   0.904
 2461SOL     OW 8281   4.384   1.406   3.536
 2461SOL    HW1 8282   4.360   1.438   3.628
 2461SOL    HW2 8283   4.449   1.470   3.495
 2462SOL     OW 8284   3.119   4.695   6.292
 2462SOL    HW1 8285   3.183   4.645   6.233
 2462SOL    HW2 8286   3.069   4.762   6.237
 2463SOL     OW 8287   1.131   3.382   5.292
 2463SOL    HW1 8288   1.191   3.304   5.275
 2463SOL    HW2 8289   1.073   3.362   5.371
 2464SOL     OW 8290   0.860   3.650   0.823
 2464SOL    HW1 8291   0.922   3.583   0.782
 2464SOL    HW2 8292   0.768   3.636   0.787
 2465SOL     OW 8293   5.942   4.026   3.083
 2465SOL    HW1 8294   5.932   4.046   3.180
 2465SOL    HW2 8295   5.853   4.034   3.038
 2466SOL     OW 8296   4.468   1.861   1.839
 2466SOL    HW1 8297   4.479   1.831   1.934
 2466SOL    HW2 8298   4.410   1.942   1.835
 2467SOL     OW 8299   1.293   1.217   4.319
 2467SOL    HW1 8300   1.225   1.176   4.259
 2467SOL    HW2 8301   1.337   1.294   4.273
 2468SOL     OW 8302   6.167   5.356   6.558
 2468SOL    HW1 8303   6.265   5.353   6.539
 2468SOL    HW2 8304   6.117   5.314   6.482
 2469SOL     OW 8305   2.734   2.171   6.087
 2469SOL    HW1 8306   2.744   2.219   6.000
 2469SOL    HW2 8307   2.641   2.185   6.122
 2470SOL     OW 8308   5.050   2.829   1.126
 2470SOL    HW1 8309   5.111   2.763   1.081
 2470SOL    HW2 8310   4.966   2.783   1.155
 2471SOL     OW 8311   0.210   1.063   3.223
 2471SOL    HW1 8312   0.125   1.087   3.271
 2471SOL    HW2 8313   0.260   1.147   3.201
 2472SOL     OW 8314   6.434   1.004   4.131
 2472SOL    HW1 8315   6.384   1.067   4.071
 2472SOL    HW2 8316   6.407   1.021   4.226
 2473SOL     OW 8317   0.733   5.750   4.842
 2473SOL    HW1 8318   0.821   5.706   4.827
 2473SOL    HW2 8319   0.682   5.699   4.911
 2474SOL     OW 8320   5.825   6.797   4.633
 2474SOL    HW1 8321   5.883   6.843   4.566
 2474SOL    HW2 8322   5.808   6.859   4.710
 2475SOL     OW 8323   3.597   2.694   6.353
 2475SOL    HW1 8324   3.498   2.699   6.346
 2475SOL    HW2 8325   3.639   2.733   6.271
 2476SOL     OW 8326   0.936   1.091   3.602
 2476SOL    HW1 8327   0.851   1.108   3.552
 2476SOL    HW2 8328   0.929   1.004   3.651
 2477SOL     OW 8329   4.507   4.562   2.065
 2477SOL    HW1 8330   4.536   4.467   2.061
 2477SOL    HW2 8331   4.487   4.595   1.972
 2478SOL     OW 8332   6.898   0.358   2.865
 2478SOL    HW1 8333   6.934   0.316   2.948
 2478SOL    HW2 8334   6.967   0.355   2.793
 2479SOL     OW 8335   1.245   3.215   0.554
 2479SOL    HW1 8336   1.249   3.145   0.627
 2479SOL    HW2 8337   1.280   3.301   0.589
 2480SOL     OW 8338   6.619   4.722   0.937
 2480SOL    HW1 8339   6.568   4.797   0.980
 2480SOL    HW2 8340   6.713   4.721   0.972
 2481SOL     OW 8341   4.151   4.784   2.702
 2481SOL    HW1 8342   4.064   4.758   2.661
 2481SOL    HW2 8343   4.184   4.869   2.661
 2482SOL     OW 8344   4.137   2.142   4.649
 2482SOL    HW1 8345   4.177   2.051   4.655
 2482SOL    HW2 8346   4.128   2.168   4.553
 2483SOL     OW 8347   0.962   3.347   7.009
 2483SOL    HW1 8348   0.946   3.248   7.013
 2483SOL    HW2 8349   0.896   3.394   0.043
 2484SOL     OW 8350   3.684   4.271   5.460
 2484SOL    HW1 8351   3.767   4.302   5.505
 2484SOL    HW2 8352   3.692   4.173   5.439
 2485SOL     OW 8353   0.633   4.446   7.009
 2485SOL    HW1 8354   0.586   4.528   6.977
 2485SOL    HW2 8355   0.723   4.471   0.020
 2486SOL     OW 8356   0.692   5.251   4.126
 2486SOL    HW1 8357   0.769   5.210   4.175
 2486SOL    HW2 8358   0.705   5.241   4.027
 2487SOL     OW 8359   2.415   1.260   0.985
 2487SOL    HW1 8360   2.466   1.305   0.911
 2487SOL    HW2 8361   2.439   1.163   0.988
 2488SOL     OW 8362   2.785   5.486   0.087
 2488SOL    HW1 8363   2.725   5.452   0.015
 2488SOL    HW2 8364   2.778   5.586   0.091
 2489SOL     OW 8365   6.507   5.787   4.651
 2489SOL    HW1 8366   6.556   5.851   4.592
 2489SOL    HW2 8367   6.431   5.747   4.601
 2490SOL     OW 8368   5.689   2.560   1.230
 2490SOL    HW1 8369   5.763   2.593   1.172
 2490SOL    HW2 8370   5.672   2.625   1.304
 2491SOL     OW 8371   6.818   4.331   2.393
 2491SOL    HW1 8372   6.826   4.312   2.295
 2491SOL    HW2 8373   6.722   4.332   2.419
 2492SOL     OW 8374   3.744   1.948   0.121
 2492SOL    HW1 8375   3.745   2.011   0.043
 2492SOL    HW2 8376   3.668   1.884   0.112
 2493SOL     OW 8377   6.447   0.851   5.829
 2493SOL    HW1 8378   6.387   0.895   5.763
 2493SOL    HW2 8379   6.497   0.920   5.881
 2494SOL     OW 8380   5.476   5.381   0.262
 2494SOL    HW1 8381   5.547   5.311   0.264
 2494SOL    HW2 8382   5.386   5.338   0.259
 2495SOL     OW 8383   6.887   1.152   2.299
 2495SOL    HW1 8384   6.887   1.056   2.327
 2495SOL    HW2 8385   6.973   1.172   2.252
 2496SOL     OW 8386   1.923   4.819   0.733
 2496SOL    HW1 8387   1.884   4.911   0.735
 2496SOL    HW2 8388   1.924   4.781   0.825
 2497SOL     OW 8389   5.991   1.296   6.355
 2497SOL    HW1 8390   6.031   1.231   6.290
 2497SOL    HW2 8391   6.021   1.388   6.332
 2498SOL     OW 8392   1.262   3.211   4.518
 2498SOL    HW1 8393   1.303   3.295   4.553
 2498SOL    HW2 8394   1.195   3.233   4.448
 2499SOL     OW 8395   5.129   0.440   6.740
 2499SOL    HW1 8396   5.217   0.487   6.745
 2499SOL    HW2 8397   5.111   0.396   6.828
 2500SOL     OW 8398   5.566   3.329   6.043
 2500SOL    HW1 8399   5.630   3.345   6.118
 2500SOL    HW2 8400   5.490   3.272   6.075
 2501SOL     OW 8401   6.296   5.018   0.903
 2501SOL    HW1 8402   6.204   5.030   0.939
 2501SOL    HW2 8403   6.349   4.959   0.964
 2502SOL     OW 8404   1.211   6.670   2.930
 2502SOL    HW1 8405   1.128   6.638   2.975
 2502SOL    HW2 8406   1.252   6.744   2.983
 2503SOL     OW 8407   5.627   5.955   3.400
 2503SOL    HW1 8408   5.658   6.043   3.363
 2503SOL    HW2 8409   5.550   5.922   3.346
 2504SOL     OW 8410   2.698   5.046   3.021
 2504SOL    HW1 8411   2.725   4.950   3.028
 2504SOL    HW2 8412   2.598   5.052   3.014
 2505SOL     OW 8413   4.861   4.008   4.476
 2505SOL    HW1 8414   4.876   3.940   4.548
 2505SOL    HW2 8415   4.850   3.961   4.388
 2506SOL     OW 8416   1.375   1.604   0.031
 2506SOL    HW1 8417   1.440   1.600   6.979
 2506SOL    HW2 8418   1.281   1.606   7.019
 2507SOL     OW 8419   0.055   5.874   0.773
 2507SOL    HW1 8420   6.999   5.867   0.713
 2507SOL    HW2 8421   0.063   5.968   0.807
 2508SOL     OW 8422   1.662   1.426   1.438
 2508SOL    HW1 8423   1.589   1.441   1.370
 2508SOL    HW2 8424   1.661   1.331   1.467
 2509SOL     OW 8425   6.269   6.905   3.986
 2509SOL    HW1 8426   6.218   6.963   3.923
 2509SOL    HW2 8427   6.209   6.875   4.060
 2510SOL     OW 8428   3.565   5.952   2.773
 2510SOL    HW1 8429   3.647   5.973   2.827
 2510SOL    HW2 8430   3.564   6.010   2.692
 2511SOL     OW 8431   0.826   5.025   4.193
 2511SOL    HW1 8432   0.787   5.013   4.102
 2511SOL    HW2 8433   0.755   5.012   4.262
 2512SOL     OW 8434   6.029   3.118   4.583
 2512SOL    HW1 8435   5.978   3.203   4.594
 2512SOL    HW2 8436   6.015   3.060   4.663
 2513SOL     OW 8437   0.658   4.844   1.765
 2513SOL    HW1 8438   0.566   4.811   1.788
 2513SOL    HW2 8439   0.699   4.887   1.845
 2514SOL     OW 8440   6.648   1.998   4.418
 2514SOL    HW1 8441   6.636   1.936   4.496
 2514SOL    HW2 8442   6.718   2.066   4.439
 2515SOL     OW 8443   0.574   4.665   6.271
 2515SOL    HW1 8444   0.614   4.754   6.295
 2515SOL    HW2 8445   0.640   4.593   6.292
 2516SOL     OW 8446   4.298   6.720   4.880
 2516SOL    HW1 8447   4.264   6.736   4.973
 2516SOL    HW2 8448   4.397   6.734   4.879
 2517SOL     OW 8449   2.941   5.793   6.916
 2517SOL    HW1 8450   2.841   5.787   6.917
 2517SOL    HW2 8451   2.980   5.703   6.938
 2518SOL     OW 8452   2.003   1.916   0.049
 2518SOL    HW1 8453   1.977   1.889   0.142
 2518SOL    HW2 8454   2.102   1.907   0.038
 2519SOL     OW 8455   6.134   4.283   4.635
 2519SOL    HW1 8456   6.111   4.264   4.540
 2519SOL    HW2 8457   6.201   4.357   4.639
 2520SOL     OW 8458   4.143   5.664   1.179
 2520SOL    HW1 8459   4.189   5.577   1.192
 2520SOL    HW2 8460   4.206   5.729   1.137
 2521SOL     OW 8461   5.853   6.819   5.660
 2521SOL    HW1 8462   5.939   6.849   5.701
 2521SOL    HW2 8463   5.829   6.729   5.697
 2522SOL     OW 8464   3.655   5.299   5.265
 2522SOL    HW1 8465   3.607   5.248   5.193
 2522SOL    HW2 8466   3.621   5.393   5.266
 2523SOL     OW 8467   0.971   2.013   6.803
 2523SOL    HW1 8468   0.974   2.083   6.733
 2523SOL    HW2 8469   1.060   2.007   6.849
 2524SOL     OW 8470   1.929   6.977   4.282
 2524SOL    HW1 8471   2.010   6.924   4.257
 2524SOL    HW2 8472   1.867   6.980   4.204
 2525SOL     OW 8473   2.853   4.931   2.321
 2525SOL    HW1 8474   2.812   4.846   2.288
 2525SOL    HW2 8475   2.940   4.946   2.276
 2526SOL     OW 8476   1.868   3.214   4.697
 2526SOL    HW1 8477   1.930   3.231   4.774
 2526SOL    HW2 8478   1.810   3.294   4.684
 2527SOL     OW 8479   6.683   0.139   4.201
 2527SOL    HW1 8480   6.758   0.086   4.162
 2527SOL    HW2 8481   6.597   0.113   4.157
 2528SOL     OW 8482   5.330   4.780   2.088
 2528SOL    HW1 8483   5.393   4.769   2.011
 2528SOL    HW2 8484   5.349   4.710   2.157
 2529SOL     OW 8485   5.198   5.346   4.898
 2529SOL    HW1 8486   5.252   5.430   4.894
 2529SOL    HW2 8487   5.141   5.347   4.980
 2530SOL     OW 8488   1.204   6.572   3.256
 2530SOL    HW1 8489   1.303   6.563   3.263
 2530SOL    HW2 8490   1.171   6.633   3.328
 2531SOL     OW 8491   5.352   2.759   6.368
 2531SOL    HW1 8492   5.259   2.793   6.382
 2531SOL    HW2 8493   5.391   2.800   6.286
 2532SOL     OW 8494   0.087   5.708   6.787
 2532SOL    HW1 8495   0.080   5.639   6.859
 2532SOL    HW2 8496   0.161   5.684   6.724
 2533SOL     OW 8497   5.048   0.562   4.294
 2533SOL    HW1 8498   5.124   0.612   4.333
 2533SOL    HW2 8499   5.048   0.468   4.329
 2534SOL     OW 8500   6.811   1.532   2.592
 2534SOL    HW1 8501   6.736   1.504   2.532
 2534SOL    HW2 8502   6.775   1.586   2.668
 2535SOL     OW 8503   2.883   1.380   1.831
 2535SOL    HW1 8504   2.879   1.446   1.907
 2535SOL    HW2 8505   2.871   1.429   1.745
 2536SOL     OW 8506   0.749   6.955   3.322
 2536SOL    HW1 8507   0.720   0.021   3.292
 2536SOL    HW2 8508   0.848   6.953   3.335
 2537SOL     OW 8509   2.145   6.185   2.175
 2537SOL    HW1 8510   2.078   6.137   2.118
 2537SOL    HW2 8511   2.103   6.266   2.215
 2538SOL     OW 8512   6.621   5.436   5.345
 2538SOL    HW1 8513   6.566   5.397   5.419
 2538SOL    HW2 8514   6.627   5.371   5.270
 2539SOL     OW 8515   0.852   0.149   5.247
 2539SOL    HW1 8516   0.847   0.052   5.227
 2539SOL    HW2 8517   0.779   0.175   5.310
 2540SOL     OW 8518   5.561   2.878   1.700
 2540SOL    HW1 8519   5.483   2.885   1.761
 2540SOL    HW2 8520   5.587   2.782   1.690
 2541SOL     OW 8521   2.022   0.812   0.226
 2541SOL    HW1 8522   1.966   0.821   0.144
 2541SOL    HW2 8523   2.021   0.898   0.277
 2542SOL     OW 8524   3.818   2.154   3.152
 2542SOL    HW1 8525   3.879   2.102   3.212
 2542SOL    HW2 8526   3.735   2.101   3.135
 2543SOL     OW 8527   5.947   6.489   5.234
 2543SOL    HW1 8528   5.987   6.414   5.287
 2543SOL    HW2 8529   5.857   6.512   5.273
 2544SOL     OW 8530   0.024   0.410   0.387
 2544SOL    HW1 8531   0.092   0.478   0.417
 2544SOL    HW2 8532   0.040   0.324   0.435
 2545SOL     OW 8533   0.760   1.452   0.158
 2545SOL    HW1 8534   0.675   1.490   0.194
 2545SOL    HW2 8535   0.797   1.387   0.223
 2546SOL     OW 8536   5.834   2.924   3.363
 2546SOL    HW1 8537   5.790   2.836   3.379
 2546SOL    HW2 8538   5.880   2.955   3.447
 2547SOL     OW 8539   6.033   3.515   0.832
 2547SOL    HW1 8540   6.072   3.587   0.889
 2547SOL    HW2 8541   5.937   3.536   0.812
 2548SOL     OW 8542   6.327   0.449   5.367
 2548SOL    HW1 8543   6.358   0.384   5.437
 2548SOL    HW2 8544   6.318   0.540   5.407
 2549SOL     OW 8545   2.760   4.332   6.609
 2549SOL    HW1 8546   2.755   4.349   6.510
 2549SOL    HW2 8547   2.843   4.374   6.646
 2550SOL     OW 8548   3.909   0.827   1.133
 2550SOL    HW1 8549   3.977   0.898   1.152
 2550SOL    HW2 8550   3.955   0.745   1.098
 2551SOL     OW 8551   2.753   4.514   1.257
 2551SOL    HW1 8552   2.806   4.429   1.262
 2551SOL    HW2 8553   2.783   4.567   1.177
 2552SOL     OW 8554   3.109   5.614   1.365
 2552SOL    HW1 8555   3.095   5.616   1.464
 2552SOL    HW2 8556   3.123   5.520   1.335
 2553SOL     OW 8557   4.265   2.159   1.449
 2553SOL    HW1 8558   4.292   2.244   1.403
 2553SOL    HW2 8559   4.311   2.153   1.538
 2554SOL     OW 8560   1.313   6.141   0.713
 2554SOL    HW1 8561   1.242   6.146   0.783
 2554SOL    HW2 8562   1.286   6.074   0.643
 2555SOL     OW 8563   0.684   5.718   4.270
 2555SOL    HW1 8564   0.634   5.770   4.339
 2555SOL    HW2 8565   0.708   5.779   4.194
 2556SOL     OW 8566   5.539   0.940   0.607
 2556SOL    HW1 8567   5.536   1.028   0.655
 2556SOL    HW2 8568   5.635   0.912   0.596
 2557SOL     OW 8569   2.981   1.283   0.155
 2557SOL    HW1 8570   2.896   1.320   0.192
 2557SOL    HW2 8571   2.997   1.323   0.064
 2558SOL     OW 8572   5.905   2.674   1.519
 2558SOL    HW1 8573   5.923   2.580   1.547
 2558SOL    HW2 8574   5.807   2.691   1.520
 2559SOL     OW 8575   6.898   6.055   3.292
 2559SOL    HW1 8576   6.836   5.984   3.326
 2559SOL    HW2 8577   6.863   6.145   3.321
 2560SOL     OW 8578   4.211   2.870   1.661
 2560SOL    HW1 8579   4.193   2.778   1.625
 2560SOL    HW2 8580   4.138   2.896   1.725
 2561SOL     OW 8581   3.626   0.622   4.600
 2561SOL    HW1 8582   3.536   0.584   4.622
 2561SOL    HW2 8583   3.691   0.599   4.673
 2562SOL     OW 8584   1.869   6.369   5.204
 2562SOL    HW1 8585   1.781   6.417   5.206
 2562SOL    HW2 8586   1.869   6.296   5.272
 2563SOL     OW 8587   4.663   2.460   0.132
 2563SOL    HW1 8588   4.613   2.374   0.141
 2563SOL    HW2 8589   4.624   2.513   0.056
 2564SOL     OW 8590   1.696   1.168   1.500
 2564SOL    HW1 8591   1.747   1.114   1.433
 2564SOL    HW2 8592   1.759   1.207   1.567
 2565SOL     OW 8593   6.666   0.249   0.927
 2565SOL    HW1 8594   6.669   0.301   0.842
 2565SOL    HW2 8595   6.645   0.153   0.906
 2566SOL     OW 8596   3.033   1.485   0.851
 2566SOL    HW1 8597   3.002   1.472   0.756
 2566SOL    HW2 8598   3.064   1.580   0.863
 2567SOL     OW 8599   2.196   0.887   5.904
 2567SOL    HW1 8600   2.237   0.797   5.917
 2567SOL    HW2 8601   2.218   0.945   5.983
 2568SOL     OW 8602   3.265   6.375   6.992
 2568SOL    HW1 8603   3.179   6.364   0.017
 2568SOL    HW2 8604   3.247   6.377   6.893
 2569SOL     OW 8605   2.880   6.470   6.729
 2569SOL    HW1 8606   2.826   6.480   6.813
 2569SOL    HW2 8607   2.839   6.527   6.658
 2570SOL     OW 8608   6.875   0.285   3.335
 2570SOL    HW1 8609   6.855   0.265   3.430
 2570SOL    HW2 8610   6.860   0.383   3.318
 2571SOL     OW 8611   3.182   3.569   2.280
 2571SOL    HW1 8612   3.235   3.648   2.309
 2571SOL    HW2 8613   3.085   3.593   2.275
 2572SOL     OW 8614   3.290   6.669   2.466
 2572SOL    HW1 8615   3.228   6.598   2.435
 2572SOL    HW2 8616   3.381   6.654   2.427
 2573SOL     OW 8617   6.054   0.437   2.459
 2573SOL    HW1 8618   5.973   0.464   2.406
 2573SOL    HW2 8619   6.079   0.510   2.522
 2574SOL     OW 8620   0.738   4.360   2.130
 2574SOL    HW1 8621   0.835   4.381   2.134
 2574SOL    HW2 8622   0.713   4.302   2.208
 2575SOL     OW 8623   4.411   3.581   5.263
 2575SOL    HW1 8624   4.427   3.644   5.339
 2575SOL    HW2 8625   4.497   3.562   5.216
 2576SOL     OW 8626   0.630   0.546   3.112
 2576SOL    HW1 8627   0.576   0.616   3.065
 2576SOL    HW2 8628   0.608   0.456   3.075
 2577SOL     OW 8629   1.501   4.591   0.550
 2577SOL    HW1 8630   1.585   4.642   0.529
 2577SOL    HW2 8631   1.494   4.513   0.488
 2578SOL     OW 8632   4.981   1.338   5.023
 2578SOL    HW1 8633   5.030   1.258   5.059
 2578SOL    HW2 8634   4.927   1.380   5.096
 2579SOL     OW 8635   0.259   1.848   6.323
 2579SOL    HW1 8636   0.179   1.842   6.384
 2579SOL    HW2 8637   0.285   1.944   6.313
 2580SOL     OW 8638   1.675   2.492   5.431
 2580SOL    HW1 8639   1.725   2.495   5.517
 2580SOL    HW2 8640   1.578   2.505   5.447
 2581SOL     OW 8641   4.456   6.553   4.090
 2581SOL    HW1 8642   4.405   6.610   4.155
 2581SOL    HW2 8643   4.434   6.457   4.106
 2582SOL     OW 8644   6.776   4.825   2.952
 2582SOL    HW1 8645   6.816   4.738   2.922
 2582SOL    HW2 8646   6.769   4.886   2.873
 2583SOL     OW 8647   2.850   0.939   6.956
 2583SOL    HW1 8648   2.919   0.959   0.000
 2583SOL    HW2 8649   2.892   0.937   6.865
 2584SOL     OW 8650   3.589   0.158   3.382
 2584SOL    HW1 8651   3.529   0.212   3.323
 2584SOL    HW2 8652   3.671   0.132   3.331
 2585SOL     OW 8653   3.853   0.847   3.082
 2585SOL    HW1 8654   3.900   0.787   3.146
 2585SOL    HW2 8655   3.775   0.798   3.041
 2586SOL     OW 8656   1.789   1.848   4.326
 2586SOL    HW1 8657   1.799   1.863   4.228
 2586SOL    HW2 8658   1.821   1.928   4.376
 2587SOL     OW 8659   6.704   4.442   3.429
 2587SOL    HW1 8660   6.752   4.530   3.430
 2587SOL    HW2 8661   6.665   4.426   3.520
 2588SOL     OW 8662   3.210   0.264   2.533
 2588SOL    HW1 8663   3.201   0.269   2.632
 2588SOL    HW2 8664   3.122   0.242   2.492
 2589SOL     OW 8665   4.615   6.829   2.072
 2589SOL    HW1 8666   4.695   6.785   2.112
 2589SOL    HW2 8667   4.537   6.821   2.135
 2590SOL     OW 8668   4.540   6.297   3.665
 2590SOL    HW1 8669   4.592   6.301   3.751
 2590SOL    HW2 8670   4.511   6.202   3.649
 2591SOL     OW 8671   5.559   0.750   1.268
 2591SOL    HW1 8672   5.626   0.814   1.229
 2591SOL    HW2 8673   5.545   0.675   1.204
 2592SOL     OW 8674   2.482   5.059   1.680
 2592SOL    HW1 8675   2.558   4.996   1.664
 2592SOL    HW2 8676   2.468   5.071   1.778
 2593SOL     OW 8677   2.473   7.021   4.114
 2593SOL    HW1 8678   2.498   0.088   4.081
 2593SOL    HW2 8679   2.532   6.997   4.191
 2594SOL     OW 8680   2.193   5.777   6.080
 2594SOL    HW1 8681   2.183   5.679   6.101
 2594SOL    HW2 8682   2.189   5.829   6.165
 2595SOL     OW 8683   6.919   3.090   5.368
 2595SOL    HW1 8684   6.882   3.163   5.426
 2595SOL    HW2 8685   6.985   3.036   5.420
 2596SOL     OW 8686   4.479   1.580   0.622
 2596SOL    HW1 8687   4.432   1.609   0.539
 2596SOL    HW2 8688   4.420   1.518   0.674
 2597SOL     OW 8689   2.414   1.940   6.287
 2597SOL    HW1 8690   2.336   1.880   6.304
 2597SOL    HW2 8691   2.479   1.934   6.363
 2598SOL     OW 8692   6.426   1.465   3.161
 2598SOL    HW1 8693   6.507   1.509   3.199
 2598SOL    HW2 8694   6.405   1.503   3.071
 2599SOL     OW 8695   4.949   5.793   5.816
 2599SOL    HW1 8696   4.976   5.885   5.789
 2599SOL    HW2 8697   4.850   5.791   5.831
 2600SOL     OW 8698   0.309   2.862   4.738
 2600SOL    HW1 8699   0.252   2.791   4.696
 2600SOL    HW2 8700   0.394   2.821   4.770
 2601SOL     OW 8701   4.277   4.322   5.384
 2601SOL    HW1 8702   4.274   4.343   5.287
 2601SOL    HW2 8703   4.296   4.405   5.436
 2602SOL     OW 8704   6.091   6.910   0.248
 2602SOL    HW1 8705   6.102   6.870   0.338
 2602SOL    HW2 8706   5.996   6.941   0.237
 2603SOL     OW 8707   1.827   1.805   6.857
 2603SOL    HW1 8708   1.860   1.805   6.951
 2603SOL    HW2 8709   1.843   1.715   6.816
 2604SOL     OW 8710   5.885   1.514   0.711
 2604SOL    HW1 8711   5.944   1.541   0.634
 2604SOL    HW2 8712   5.937   1.520   0.796
 2605SOL     OW 8713   5.644   2.566   5.346
 2605SOL    HW1 8714   5.572   2.530   5.286
 2605SOL    HW2 8715   5.713   2.495   5.362
 2606SOL     OW 8716   6.208   4.339   1.596
 2606SOL    HW1 8717   6.181   4.306   1.686
 2606SOL    HW2 8718   6.259   4.267   1.548
 2607SOL     OW 8719   0.488   0.769   3.304
 2607SOL    HW1 8720   0.580   0.789   3.272
 2607SOL    HW2 8721   0.473   0.670   3.301
 2608SOL     OW 8722   4.500   0.444   0.076
 2608SOL    HW1 8723   4.514   0.457   7.002
 2608SOL    HW2 8724   4.580   0.481   0.125
 2609SOL     OW 8725   1.019   4.174   3.362
 2609SOL    HW1 8726   0.937   4.203   3.411
 2609SOL    HW2 8727   1.060   4.095   3.408
 2610SOL     OW 8728   5.617   5.451   4.362
 2610SOL    HW1 8729   5.661   5.401   4.288
 2610SOL    HW2 8730   5.687   5.495   4.418
 2611SOL     OW 8731   2.716   6.429   1.969
 2611SOL    HW1 8732   2.678   6.414   1.878
 2611SOL    HW2 8733   2.745   6.524   1.978
 2612SOL     OW 8734   0.869   6.654   4.500
 2612SOL    HW1 8735   0.830   6.572   4.458
 2612SOL    HW2 8736   0.961   6.634   4.534
 2613SOL     OW 8737   4.071   2.003   6.972
 2613SOL    HW1 8738   4.094   2.044   6.884
 2613SOL    HW2 8739   4.066   1.903   6.961
 2614SOL     OW 8740   6.401   6.666   6.686
 2614SOL    HW1 8741   6.496   6.660   6.717
 2614SOL    HW2 8742   6.370   6.575   6.657
 2615SOL     OW 8743   0.348   4.257   1.458
 2615SOL    HW1 8744   0.355   4.323   1.384
 2615SOL    HW2 8745   0.437   4.245   1.502
 2616SOL     OW 8746   3.727   3.854   1.730
 2616SOL    HW1 8747   3.651   3.859   1.665
 2616SOL    HW2 8748   3.732   3.940   1.782
 2617SOL     OW 8749   2.737   6.723   1.330
 2617SOL    HW1 8750   2.725   6.808   1.380
 2617SOL    HW2 8751   2.657   6.706   1.272
 2618SOL     OW 8752   1.253   5.821   0.206
 2618SOL    HW1 8753   1.233   5.839   0.110
 2618SOL    HW2 8754   1.324   5.883   0.238
 2619SOL     OW 8755   6.291   1.177   2.350
 2619SOL    HW1 8756   6.194   1.172   2.327
 2619SOL    HW2 8757   6.322   1.087   2.381
 2620SOL     OW 8758   1.921   5.675   3.746
 2620SOL    HW1 8759   2.018   5.650   3.748
 2620SOL    HW2 8760   1.908   5.760   3.796
 2621SOL     OW 8761   1.708   5.795   4.336
 2621SOL    HW1 8762   1.789   5.748   4.301
 2621SOL    HW2 8763   1.626   5.757   4.291
 2622SOL     OW 8764   2.273   2.705   4.145
 2622SOL    HW1 8765   2.232   2.782   4.097
 2622SOL    HW2 8766   2.275   2.723   4.243
 2623SOL     OW 8767   3.075   6.921   5.395
 2623SOL    HW1 8768   3.044   6.940   5.302
 2623SOL    HW2 8769   3.002   6.942   5.459
 2624SOL     OW 8770   4.870   2.294   4.613
 2624SOL    HW1 8771   4.896   2.244   4.696
 2624SOL    HW2 8772   4.793   2.249   4.569
 2625SOL     OW 8773   2.428   0.052   5.792
 2625SOL    HW1 8774   2.372   0.129   5.822
 2625SOL    HW2 8775   2.446   7.015   5.869
 2626SOL     OW 8776   2.806   6.917   3.351
 2626SOL    HW1 8777   2.725   6.897   3.297
 2626SOL    HW2 8778   2.816   7.017   3.360
 2627SOL     OW 8779   0.909   0.414   4.988
 2627SOL    HW1 8780   0.981   0.456   4.933
 2627SOL    HW2 8781   0.901   0.317   4.966
 2628SOL     OW 8782   5.131   5.301   6.968
 2628SOL    HW1 8783   5.072   5.221   6.974
 2628SOL    HW2 8784   5.216   5.284   7.018
 2629SOL     OW 8785   2.907   3.694   1.916
 2629SOL    HW1 8786   2.933   3.781   1.958
 2629SOL    HW2 8787   2.849   3.712   1.836
 2630SOL     OW 8788   3.755   1.848   2.302
 2630SOL    HW1 8789   3.664   1.817   2.330
 2630SOL    HW2 8790   3.825   1.806   2.360
 2631SOL     OW 8791   3.348   6.807   4.298
 2631SOL    HW1 8792   3.371   6.860   4.216
 2631SOL    HW2 8793   3.425   6.747   4.321
 2632SOL     OW 8794   4.913   1.359   1.190
 2632SOL    HW1 8795   4.945   1.355   1.096
 2632SOL    HW2 8796   4.911   1.454   1.221
 2633SOL     OW 8797   0.442   2.047   0.368
 2633SOL    HW1 8798   0.428   1.955   0.329
 2633SOL    HW2 8799   0.468   2.110   0.295
 2634SOL     OW 8800   2.405   4.994   0.715
 2634SOL    HW1 8801   2.479   4.927   0.708
 2634SOL    HW2 8802   2.361   4.986   0.804
 2635SOL     OW 8803   6.926   4.126   3.355
 2635SOL    HW1 8804   6.997   4.163   3.295
 2635SOL    HW2 8805   6.849   4.190   3.358
 2636SOL     OW 8806   5.672   4.822   5.624
 2636SOL    HW1 8807   5.640   4.821   5.718
 2636SOL    HW2 8808   5.610   4.878   5.568
 2637SOL     OW 8809   5.311   5.175   2.185
 2637SOL    HW1 8810   5.311   5.084   2.226
 2637SOL    HW2 8811   5.376   5.233   2.233
 2638SOL     OW 8812   4.698   5.652   0.669
 2638SOL    HW1 8813   4.708   5.560   0.707
 2638SOL    HW2 8814   4.785   5.683   0.633
 2639SOL     OW 8815   6.853   0.968   0.319
 2639SOL    HW1 8816   6.917   0.925   0.255
 2639SOL    HW2 8817   6.765   0.921   0.317
 2640SOL     OW 8818   6.777   6.104   0.771
 2640SOL    HW1 8819   6.787   6.149   0.683
 2640SOL    HW2 8820   6.743   6.011   0.758
 2641SOL     OW 8821   0.023   5.642   1.187
 2641SOL    HW1 8822   7.016   5.548   1.205
 2641SOL    HW2 8823   0.046   5.651   1.090
 2642SOL     OW 8824   6.714   0.413   4.301
 2642SOL    HW1 8825   6.624   0.456   4.300
 2642SOL    HW2 8826   6.712   0.331   4.243
 2643SOL     OW 8827   1.961   0.647   1.925
 2643SOL    HW1 8828   1.923   0.582   1.990
 2643SOL    HW2 8829   2.038   0.695   1.967
 2644SOL     OW 8830   5.761   6.526   5.016
 2644SOL    HW1 8831   5.800   6.556   4.929
 2644SOL    HW2 8832   5.835   6.500   5.078
 2645SOL     OW 8833   5.548   6.020   6.497
 2645SOL    HW1 8834   5.557   5.920   6.492
 2645SOL    HW2 8835   5.574   6.051   6.589
 2646SOL     OW 8836   5.500   5.317   5.486
 2646SOL    HW1 8837   5.583   5.339   5.436
 2646SOL    HW2 8838   5.427   5.381   5.461
 2647SOL     OW 8839   3.201   4.334   0.534
 2647SOL    HW1 8840   3.296   4.340   0.505
 2647SOL    HW2 8841   3.194   4.274   0.613
 2648SOL     OW 8842   4.570   1.604   3.734
 2648SOL    HW1 8843   4.626   1.607   3.817
 2648SOL    HW2 8844   4.474   1.592   3.759
 2649SOL     OW 8845   2.905   3.960   5.021
 2649SOL    HW1 8846   2.842   3.898   4.973
 2649SOL    HW2 8847   2.910   4.047   4.973
 2650SOL     OW 8848   0.240   0.099   2.035
 2650SOL    HW1 8849   0.288   0.036   1.974
 2650SOL    HW2 8850   0.276   0.192   2.022
 2651SOL     OW 8851   1.664   6.862   2.458
 2651SOL    HW1 8852   1.664   6.960   2.434
 2651SOL    HW2 8853   1.570   6.832   2.474
 2652SOL     OW 8854   3.296   2.825   1.644
 2652SOL    HW1 8855   3.219   2.771   1.678
 2652SOL    HW2 8856   3.346   2.863   1.722
 2653SOL     OW 8857   6.103   6.884   1.283
 2653SOL    HW1 8858   6.188   6.858   1.329
 2653SOL    HW2 8859   6.061   6.804   1.243
 2654SOL     OW 8860   6.806   3.228   5.799
 2654SOL    HW1 8861   6.874   3.155   5.803
 2654SOL    HW2 8862   6.816   3.287   5.878
 2655SOL     OW 8863   5.341   4.600   4.040
 2655SOL    HW1 8864   5.342   4.508   4.078
 2655SOL    HW2 8865   5.259   4.612   3.984
 2656SOL     OW 8866   5.897   3.361   5.119
 2656SOL    HW1 8867   5.922   3.434   5.056
 2656SOL    HW2 8868   5.853   3.400   5.199
 2657SOL     OW 8869   3.971   2.174   5.551
 2657SOL    HW1 8870   4.024   2.133   5.625
 2657SOL    HW2 8871   3.960   2.272   5.567
 2658SOL     OW 8872   6.916   4.320   5.301
 2658SOL    HW1 8873   6.998   4.312   5.359
 2658SOL    HW2 8874   6.835   4.300   5.355
 2659SOL     OW 8875   6.585   1.143   3.546
 2659SOL    HW1 8876   6.656   1.179   3.607
 2659SOL    HW2 8877   6.589   1.191   3.459
 2660SOL     OW 8878   1.088   1.767   3.762
 2660SOL    HW1 8879   1.028   1.822   3.702
 2660SOL    HW2 8880   1.087   1.672   3.731
 2661SOL     OW 8881   3.381   6.575   3.605
 2661SOL    HW1 8882   3.302   6.516   3.586
 2661SOL    HW2 8883   3.461   6.538   3.557
 2662SOL     OW 8884   3.830   1.269   3.985
 2662SOL    HW1 8885   3.920   1.280   4.027
 2662SOL    HW2 8886   3.821   1.175   3.951
 2663SOL     OW 8887   0.772   4.020   2.953
 2663SOL    HW1 8888   0.815   4.011   3.042
 2663SOL    HW2 8889   0.722   3.936   2.931
 2664SOL     OW 8890   4.699   4.388   1.816
 2664SOL    HW1 8891   4.641   4.341   1.882
 2664SOL    HW2 8892   4.753   4.458   1.863
 2665SOL     OW 8893   4.185   0.875   5.218
 2665SOL    HW1 8894   4.264   0.926   5.182
 2665SOL    HW2 8895   4.107   0.886   5.156
 2666SOL     OW 8896   5.150   6.235   1.691
 2666SOL    HW1 8897   5.129   6.311   1.630
 2666SOL    HW2 8898   5.093   6.242   1.774
 2667SOL     OW 8899   1.780   4.784   2.706
 2667SOL    HW1 8900   1.853   4.795   2.772
 2667SOL    HW2 8901   1.732   4.698   2.723
 2668SOL     OW 8902   6.944   2.661   5.243
 2668SOL    HW1 8903   6.864   2.637   5.189
 2668SOL    HW2 8904   7.023   2.606   5.214
 2669SOL     OW 8905   3.869   5.843   4.916
 2669SOL    HW1 8906   3.852   5.927   4.865
 2669SOL    HW2 8907   3.792   5.780   4.903
 2670SOL     OW 8908   2.047   6.565   4.283
 2670SOL    HW1 8909   2.081   6.502   4.214
 2670SOL    HW2 8910   2.039   6.518   4.371
 2671SOL     OW 8911   3.135   3.811   6.859
 2671SOL    HW1 8912   3.102   3.854   6.943
 2671SOL    HW2 8913   3.060   3.807   6.792
 2672SOL     OW 8914   0.734   4.617   0.727
 2672SOL    HW1 8915   0.665   4.668   0.778
 2672SOL    HW2 8916   0.821   4.620   0.775
 2673SOL     OW 8917   3.901   1.785   3.045
 2673SOL    HW1 8918   3.969   1.815   3.112
 2673SOL    HW2 8919   3.901   1.686   3.039
 2674SOL     OW 8920   5.040   6.134   5.145
 2674SOL    HW1 8921   5.114   6.175   5.092
 2674SOL    HW2 8922   4.966   6.107   5.083
 2675SOL     OW 8923   0.090   5.139   6.104
 2675SOL    HW1 8924   0.126   5.068   6.043
 2675SOL    HW2 8925   0.011   5.183   6.062
 2676SOL     OW 8926   4.828   0.118   1.788
 2676SOL    HW1 8927   4.878   0.136   1.703
 2676SOL    HW2 8928   4.783   0.029   1.781
 2677SOL     OW 8929   2.478   4.518   2.172
 2677SOL    HW1 8930   2.518   4.587   2.111
 2677SOL    HW2 8931   2.423   4.455   2.118
 2678SOL     OW 8932   0.823   6.516   6.965
 2678SOL    HW1 8933   0.870   6.522   6.877
 2678SOL    HW2 8934   0.744   6.576   6.965
 2679SOL     OW 8935   1.999   5.344   1.266
 2679SOL    HW1 8936   1.948   5.395   1.196
 2679SOL    HW2 8937   1.939   5.276   1.308
 2680SOL     OW 8938   6.466   2.491   1.182
 2680SOL    HW1 8939   6.532   2.426   1.216
 2680SOL    HW2 8940   6.512   2.578   1.161
 2681SOL     OW 8941   1.868   2.134   1.493
 2681SOL    HW1 8942   1.898   2.156   1.586
 2681SOL    HW2 8943   1.905   2.203   1.430
 2682SOL     OW 8944   0.452   2.859   3.856
 2682SOL    HW1 8945   0.402   2.777   3.829
 2682SOL    HW2 8946   0.460   2.920   3.778
 2683SOL     OW 8947   1.759   6.785   0.743
 2683SOL    HW1 8948   1.803   6.818   0.826
 2683SOL    HW2 8949   1.753   6.859   0.676
 2684SOL     OW 8950   2.763   4.780   2.966
 2684SOL    HW1 8951   2.686   4.718   2.960
 2684SOL    HW2 8952   2.827   4.762   2.891
 2685SOL     OW 8953   5.098   4.328   5.953
 2685SOL    HW1 8954   5.096   4.424   5.979
 2685SOL    HW2 8955   5.179   4.285   5.992
 2686SOL     OW 8956   1.358   3.454   4.592
 2686SOL    HW1 8957   1.362   3.550   4.564
 2686SOL    HW2 8958   1.405   3.444   4.680
 2687SOL     OW 8959   4.415   5.114   2.996
 2687SOL    HW1 8960   4.329   5.072   2.966
 2687SOL    HW2 8961   4.492   5.062   2.960
 2688SOL     OW 8962   3.169   4.538   5.355
 2688SOL    HW1 8963   3.110   4.571   5.282
 2688SOL    HW2 8964   3.169   4.438   5.355
 2689SOL     OW 8965   5.867   1.537   4.031
 2689SOL    HW1 8966   5.861   1.580   4.121
 2689SOL    HW2 8967   5.933   1.586   3.975
 2690SOL     OW 8968   3.652   4.122   3.493
 2690SOL    HW1 8969   3.597   4.180   3.432
 2690SOL    HW2 8970   3.593   4.085   3.565
 2691SOL     OW 8971   0.853   5.974   1.127
 2691SOL    HW1 8972   0.881   6.070   1.131
 2691SOL    HW2 8973   0.915   5.924   1.066
 2692SOL     OW 8974   6.892   4.356   4.059
 2692SOL    HW1 8975   6.905   4.281   4.124
 2692SOL    HW2 8976   6.898   4.444   4.107
 2693SOL     OW 8977   2.133   3.696   2.722
 2693SOL    HW1 8978   2.151   3.674   2.626
 2693SOL    HW2 8979   2.160   3.790   2.740
 2694SOL     OW 8980   1.907   1.631   2.702
 2694SOL    HW1 8981   1.878   1.636   2.606
 2694SOL    HW2 8982   1.934   1.721   2.733
 2695SOL     OW 8983   4.000   2.153   1.995
 2695SOL    HW1 8984   4.002   2.069   2.050
 2695SOL    HW2 8985   3.905   2.175   1.973
 2696SOL     OW 8986   2.997   3.569   6.265
 2696SOL    HW1 8987   3.088   3.528   6.268
 2696SOL    HW2 8988   2.958   3.557   6.174
 2697SOL     OW 8989   2.384   0.933   4.891
 2697SOL    HW1 8990   2.425   0.893   4.973
 2697SOL    HW2 8991   2.293   0.894   4.877
 2698SOL     OW 8992   1.739   1.470   7.015
 2698SOL    HW1 8993   1.656   1.512   6.978
 2698SOL    HW2 8994   1.756   1.506   0.083
 2699SOL     OW 8995   1.651   4.983   3.761
 2699SOL    HW1 8996   1.556   5.010   3.779
 2699SOL    HW2 8997   1.652   4.915   3.687
 2700SOL     OW 8998   1.996   4.351   3.075
 2700SOL    HW1 8999   2.005   4.428   3.139
 2700SOL    HW2 9000   2.045   4.272   3.111
 2701SOL     OW 9001   1.812   0.602   5.286
 2701SOL    HW1 9002   1.813   0.689   5.237
 2701SOL    HW2 9003   1.718   0.578   5.310
 2702SOL     OW 9004   5.847   6.040   2.378
 2702SOL    HW1 9005   5.819   6.117   2.322
 2702SOL    HW2 9006   5.837   5.955   2.327
 2703SOL     OW 9007   2.037   2.636   2.446
 2703SOL    HW1 9008   2.093   2.702   2.397
 2703SOL    HW2 9009   2.030   2.551   2.393
 2704SOL     OW 9010   0.617   6.455   0.350
 2704SOL    HW1 9011   0.685   6.466   0.422
 2704SOL    HW2 9012   0.652   6.393   0.280
 2705SOL     OW 9013   0.412   2.864   2.783
 2705SOL    HW1 9014   0.478   2.893   2.714
 2705SOL    HW2 9015   0.328   2.919   2.773
 2706SOL     OW 9016   6.638   2.238   3.561
 2706SOL    HW1 9017   6.665   2.310   3.623
 2706SOL    HW2 9018   6.668   2.260   3.468
 2707SOL     OW 9019   3.901   0.593   0.401
 2707SOL    HW1 9020   3.843   0.673   0.411
 2707SOL    HW2 9021   3.995   0.621   0.380
 2708SOL     OW 9022   1.598   4.695   6.515
 2708SOL    HW1 9023   1.656   4.711   6.435
 2708SOL    HW2 9024   1.504   4.676   6.484
 2709SOL     OW 9025   4.068   0.144   2.015
 2709SOL    HW1 9026   3.970   0.164   2.010
 2709SOL    HW2 9027   4.101   0.165   2.107
 2710SOL     OW 9028   5.726   3.820   3.267
 2710SOL    HW1 9029   5.682   3.848   3.352
 2710SOL    HW2 9030   5.825   3.821   3.279
 2711SOL     OW 9031   0.526   6.610   1.670
 2711SOL    HW1 9032   0.498   6.572   1.757
 2711SOL    HW2 9033   0.608   6.562   1.637
 2712SOL     OW 9034   3.393   5.561   2.979
 2712SOL    HW1 9035   3.325   5.562   3.053
 2712SOL    HW2 9036   3.481   5.532   3.016
 2713SOL     OW 9037   2.149   2.834   5.605
 2713SOL    HW1 9038   2.186   2.925   5.588
 2713SOL    HW2 9039   2.174   2.773   5.529
 2714SOL     OW 9040   5.603   0.801   6.814
 2714SOL    HW1 9041   5.623   0.796   6.716
 2714SOL    HW2 9042   5.567   0.892   6.836
 2715SOL     OW 9043   5.636   0.317   7.007
 2715SOL    HW1 9044   5.672   0.400   6.965
 2715SOL    HW2 9045   5.608   0.336   0.077
 2716SOL     OW 9046   6.123   6.524   1.936
 2716SOL    HW1 9047   6.153   6.563   2.023
 2716SOL    HW2 9048   6.060   6.448   1.953
 2717SOL     OW 9049   0.681   6.692   3.323
 2717SOL    HW1 9050   0.596   6.670   3.276
 2717SOL    HW2 9051   0.693   6.791   3.326
 2718SOL     OW 9052   6.912   4.007   3.029
 2718SOL    HW1 9053   6.999   3.962   3.052
 2718SOL    HW2 9054   6.845   3.990   3.101
 2719SOL     OW 9055   4.603   4.295   3.153
 2719SOL    HW1 9056   4.631   4.296   3.057
 2719SOL    HW2 9057   4.542   4.372   3.171
 2720SOL     OW 9058   0.402   6.802   4.229
 2720SOL    HW1 9059   0.424   6.714   4.272
 2720SOL    HW2 9060   0.353   6.786   4.144
 2721SOL     OW 9061   5.148   6.053   2.886
 2721SOL    HW1 9062   5.208   6.017   2.815
 2721SOL    HW2 9063   5.103   6.136   2.853
 2722SOL     OW 9064   0.718   5.948   2.661
 2722SOL    HW1 9065   0.809   5.941   2.619
 2722SOL    HW2 9066   0.702   6.042   2.691
 2723SOL     OW 9067   2.424   2.157   4.407
 2723SOL    HW1 9068   2.401   2.065   4.439
 2723SOL    HW2 9069   2.504   2.191   4.456
 2724SOL     OW 9070   4.753   6.104   5.574
 2724SOL    HW1 9071   4.681   6.125   5.507
 2724SOL    HW2 9072   4.747   6.168   5.650
 2725SOL     OW 9073   1.740   5.247   2.123
 2725SOL    HW1 9074   1.807   5.320   2.111
 2725SOL    HW2 9075   1.755   5.202   2.211
 2726SOL     OW 9076   4.019   5.988   2.820
 2726SOL    HW1 9077   4.063   6.006   2.732
 2726SOL    HW2 9078   4.087   5.990   2.892
 2727SOL     OW 9079   2.188   5.562   3.774
 2727SOL    HW1 9080   2.235   5.502   3.839
 2727SOL    HW2 9081   2.241   5.568   3.690
 2728SOL     OW 9082   2.118   6.786   5.182
 2728SOL    HW1 9083   2.112   6.789   5.282
 2728SOL    HW2 9084   2.060   6.858   5.143
 2729SOL     OW 9085   0.026   4.194   2.411
 2729SOL    HW1 9086   0.068   4.180   2.501
 2729SOL    HW2 9087   6.953   4.214   2.422
 2730SOL     OW 9088   1.429   3.090   1.853
 2730SOL    HW1 9089   1.335   3.118   1.834
 2730SOL    HW2 9090   1.465   3.039   1.776
 2731SOL     OW 9091   2.024   3.188   6.992
 2731SOL    HW1 9092   2.082   3.227   6.920
 2731SOL    HW2 9093   1.931   3.177   6.958
 2732SOL     OW 9094   5.938   3.366   4.604
 2732SOL    HW1 9095   5.888   3.445   4.641
 2732SOL    HW2 9096   5.885   3.326   4.528
 2733SOL     OW 9097   2.287   0.570   6.667
 2733SOL    HW1 9098   2.188   0.551   6.670
 2733SOL    HW2 9099   2.303   0.656   6.620
 2734SOL     OW 9100   2.150   0.167   3.892
 2734SOL    HW1 9101   2.143   0.247   3.951
 2734SOL    HW2 9102   2.062   0.153   3.845
 2735SOL     OW 9103   1.324   5.709   1.606
 2735SOL    HW1 9104   1.257   5.780   1.626
 2735SOL    HW2 9105   1.390   5.743   1.539
 2736SOL     OW 9106   4.301   0.484   6.816
 2736SOL    HW1 9107   4.344   0.395   6.835
 2736SOL    HW2 9108   4.334   0.519   6.729
 2737SOL     OW 9109   4.130   4.063   5.383
 2737SOL    HW1 9110   4.164   4.157   5.380
 2737SOL    HW2 9111   4.190   4.009   5.442
 2738SOL     OW 9112   0.224   4.146   5.167
 2738SOL    HW1 9113   0.238   4.218   5.234
 2738SOL    HW2 9114   0.141   4.166   5.115
 2739SOL     OW 9115   4.417   3.790   6.469
 2739SOL    HW1 9116   4.483   3.759   6.537
 2739SOL    HW2 9117   4.365   3.712   6.435
 2740SOL     OW 9118   6.606   2.694   4.514
 2740SOL    HW1 9119   6.634   2.765   4.579
 2740SOL    HW2 9120   6.642   2.606   4.544
 2741SOL     OW 9121   2.117   3.413   5.886
 2741SOL    HW1 9122   2.185   3.401   5.958
 2741SOL    HW2 9123   2.156   3.470   5.813
 2742SOL     OW 9124   2.613   6.087   5.377
 2742SOL    HW1 9125   2.702   6.049   5.404
 2742SOL    HW2 9126   2.555   6.095   5.458
 2743SOL     OW 9127   5.541   3.860   6.069
 2743SOL    HW1 9128   5.589   3.820   6.146
 2743SOL    HW2 9129   5.443   3.865   6.090
 2744SOL     OW 9130   5.277   6.788   1.089
 2744SOL    HW1 9131   5.333   6.723   1.038
 2744SOL    HW2 9132   5.221   6.739   1.156
 2745SOL     OW 9133   2.887   5.292   2.278
 2745SOL    HW1 9134   2.871   5.227   2.352
 2745SOL    HW2 9135   2.836   5.377   2.295
 2746SOL     OW 9136   1.024   2.639   6.890
 2746SOL    HW1 9137   0.997   2.550   6.927
 2746SOL    HW2 9138   1.122   2.653   6.905
 2747SOL     OW 9139   5.006   6.332   3.848
 2747SOL    HW1 9140   4.996   6.365   3.753
 2747SOL    HW2 9141   5.073   6.390   3.896
 2748SOL     OW 9142   5.417   1.311   4.869
 2748SOL    HW1 9143   5.367   1.266   4.794
 2748SOL    HW2 9144   5.416   1.252   4.950
 2749SOL     OW 9145   5.404   5.062   3.164
 2749SOL    HW1 9146   5.426   4.964   3.164
 2749SOL    HW2 9147   5.461   5.109   3.097
 2750SOL     OW 9148   0.756   0.191   0.330
 2750SOL    HW1 9149   0.808   0.115   0.369
 2750SOL    HW2 9150   0.719   0.163   0.241
 2751SOL     OW 9151   1.345   0.569   6.598
 2751SOL    HW1 9152   1.340   0.600   6.693
 2751SOL    HW2 9153   1.365   0.471   6.596
 2752SOL     OW 9154   0.002   6.399   6.212
 2752SOL    HW1 9155   6.977   6.429   6.294
 2752SOL    HW2 9156   6.962   6.388   6.136
 2753SOL     OW 9157   3.494   5.228   4.263
 2753SOL    HW1 9158   3.546   5.205   4.180
 2753SOL    HW2 9159   3.512   5.159   4.333
 2754SOL     OW 9160   1.129   5.163   3.900
 2754SOL    HW1 9161   1.169   5.238   3.953
 2754SOL    HW2 9162   1.079   5.200   3.822
 2755SOL     OW 9163   4.541   6.698   2.726
 2755SOL    HW1 9164   4.595   6.734   2.650
 2755SOL    HW2 9165   4.491   6.617   2.695
 2756SOL     OW 9166   0.220   3.107   4.827
 2756SOL    HW1 9167   0.264   3.023   4.796
 2756SOL    HW2 9168   0.122   3.092   4.837
 2757SOL     OW 9169   4.965   3.866   5.420
 2757SOL    HW1 9170   4.875   3.825   5.435
 2757SOL    HW2 9171   4.974   3.947   5.477
 2758SOL     OW 9172   0.124   6.581   1.544
 2758SOL    HW1 9173   0.208   6.633   1.557
 2758SOL    HW2 9174   0.124   6.540   1.452
 2759SOL     OW 9175   3.923   4.101   4.657
 2759SOL    HW1 9176   3.981   4.056   4.589
 2759SOL    HW2 9177   3.978   4.125   4.737
 2760SOL     OW 9178   4.652   5.390   2.909
 2760SOL    HW1 9179   4.631   5.385   2.812
 2760SOL    HW2 9180   4.621   5.477   2.946
 2761SOL     OW 9181   1.845   3.398   3.848
 2761SOL    HW1 9182   1.791   3.381   3.765
 2761SOL    HW2 9183   1.868   3.495   3.853
 2762SOL     OW 9184   4.322   1.496   2.382
 2762SOL    HW1 9185   4.277   1.584   2.370
 2762SOL    HW2 9186   4.317   1.469   2.479
 2763SOL     OW 9187   5.441   0.801   4.079
 2763SOL    HW1 9188   5.472   0.720   4.030
 2763SOL    HW2 9189   5.512   0.871   4.077
 2764SOL     OW 9190   0.087   2.273   2.851
 2764SOL    HW1 9191   0.131   2.246   2.765
 2764SOL    HW2 9192   0.007   2.215   2.867
 2765SOL     OW 9193   6.771   6.671   0.211
 2765SOL    HW1 9194   6.825   6.596   0.249
 2765SOL    HW2 9195   6.815   6.704   0.127
 2766SOL     OW 9196   5.291   0.307   0.207
 2766SOL    HW1 9197   5.309   0.310   0.305
 2766SOL    HW2 9198   5.200   0.347   0.190
 2767SOL     OW 9199   0.590   5.997   6.216
 2767SOL    HW1 9200   0.642   5.938   6.278
 2767SOL    HW2 9201   0.525   6.052   6.269
 2768SOL     OW 9202   4.282   0.248   1.611
 2768SOL    HW1 9203   4.287   0.325   1.674
 2768SOL    HW2 9204   4.188   0.213   1.608
 2769SOL     OW 9205   0.868   5.158   6.022
 2769SOL    HW1 9206   0.810   5.080   6.047
 2769SOL    HW2 9207   0.937   5.172   6.093
 2770SOL     OW 9208   2.426   6.803   0.462
 2770SOL    HW1 9209   2.374   6.718   0.452
 2770SOL    HW2 9210   2.520   6.781   0.488
 2771SOL     OW 9211   3.880   6.219   5.636
 2771SOL    HW1 9212   3.914   6.282   5.706
 2771SOL    HW2 9213   3.957   6.167   5.598
 2772SOL     OW 9214   6.101   1.841   2.981
 2772SOL    HW1 9215   6.096   1.916   2.915
 2772SOL    HW2 9216   6.187   1.791   2.967
 2773SOL     OW 9217   4.718   1.486   6.226
 2773SOL    HW1 9218   4.795   1.549   6.219
 2773SOL    HW2 9219   4.648   1.526   6.285
 2774SOL     OW 9220   5.945   6.763   3.870
 2774SOL    HW1 9221   6.011   6.819   3.921
 2774SOL    HW2 9222   5.854   6.774   3.909
 2775SOL     OW 9223   0.331   2.503   4.658
 2775SOL    HW1 9224   0.351   2.513   4.755
 2775SOL    HW2 9225   0.258   2.566   4.631
 2776SOL     OW 9226   5.201   3.997   5.797
 2776SOL    HW1 9227   5.225   4.036   5.885
 2776SOL    HW2 9228   5.192   3.898   5.806
 2777SOL     OW 9229   1.477   1.403   0.717
 2777SOL    HW1 9230   1.508   1.495   0.695
 2777SOL    HW2 9231   1.383   1.407   0.753
 2778SOL     OW 9232   2.648   6.319   6.065
 2778SOL    HW1 9233   2.738   6.285   6.090
 2778SOL    HW2 9234   2.578   6.276   6.123
 2779SOL     OW 9235   5.315   1.244   3.873
 2779SOL    HW1 9236   5.335   1.146   3.872
 2779SOL    HW2 9237   5.216   1.258   3.876
 2780SOL     OW 9238   0.562   0.296   5.054
 2780SOL    HW1 9239   0.642   0.261   5.006
 2780SOL    HW2 9240   0.592   0.356   5.129
 2781SOL     OW 9241   6.841   6.883   2.922
 2781SOL    HW1 9242   6.917   6.942   2.894
 2781SOL    HW2 9243   6.870   6.787   2.920
 2782SOL     OW 9244   5.564   6.723   5.103
 2782SOL    HW1 9245   5.562   6.768   5.192
 2782SOL    HW2 9246   5.624   6.643   5.106
 2783SOL     OW 9247   0.263   2.090   1.811
 2783SOL    HW1 9248   0.301   2.172   1.854
 2783SOL    HW2 9249   0.247   2.108   1.714
 2784SOL     OW 9250   1.156   2.265   2.167
 2784SOL    HW1 9251   1.144   2.242   2.263
 2784SOL    HW2 9252   1.138   2.184   2.111
 2785SOL     OW 9253   5.314   3.274   3.795
 2785SOL    HW1 9254   5.283   3.188   3.836
 2785SOL    HW2 9255   5.372   3.254   3.716
 2786SOL     OW 9256   0.397   5.621   0.917
 2786SOL    HW1 9257   0.299   5.639   0.912
 2786SOL    HW2 9258   0.439   5.640   0.829
 2787SOL     OW 9259   0.143   6.710   6.066
 2787SOL    HW1 9260   0.100   6.766   5.994
 2787SOL    HW2 9261   0.169   6.769   6.142
 2788SOL     OW 9262   2.766   6.693   6.636
 2788SOL    HW1 9263   2.782   6.773   6.579
 2788SOL    HW2 9264   2.727   6.722   6.724
 2789SOL     OW 9265   2.172   2.145   3.732
 2789SOL    HW1 9266   2.176   2.086   3.813
 2789SOL    HW2 9267   2.129   2.094   3.657
 2790SOL     OW 9268   1.103   4.881   1.286
 2790SOL    HW1 9269   1.036   4.807   1.281
 2790SOL    HW2 9270   1.074   4.957   1.228
 2791SOL     OW 9271   0.444   3.761   5.514
 2791SOL    HW1 9272   0.359   3.746   5.463
 2791SOL    HW2 9273   0.481   3.851   5.490
 2792SOL     OW 9274   2.996   2.564   6.981
 2792SOL    HW1 9275   3.080   2.614   7.001
 2792SOL    HW2 9276   2.956   2.529   0.042
 2793SOL     OW 9277   4.306   3.496   6.213
 2793SOL    HW1 9278   4.243   3.507   6.290
 2793SOL    HW2 9279   4.358   3.412   6.224
 2794SOL     OW 9280   1.357   2.127   6.585
 2794SOL    HW1 9281   1.303   2.179   6.652
 2794SOL    HW2 9282   1.303   2.051   6.549
 2795SOL     OW 9283   1.253   0.104   0.300
 2795SOL    HW1 9284   1.301   0.048   0.368
 2795SOL    HW2 9285   1.246   0.198   0.333
 2796SOL     OW 9286   3.193   5.882   0.094
 2796SOL    HW1 9287   3.179   5.941   0.014
 2796SOL    HW2 9288   3.257   5.809   0.071
 2797SOL     OW 9289   4.836   4.273   5.021
 2797SOL    HW1 9290   4.904   4.324   4.967
 2797SOL    HW2 9291   4.807   4.192   4.970
 2798SOL     OW 9292   5.769   2.295   1.759
 2798SOL    HW1 9293   5.812   2.207   1.776
 2798SOL    HW2 9294   5.741   2.301   1.664
 2799SOL     OW 9295   3.447   0.262   4.030
 2799SOL    HW1 9296   3.438   0.327   3.954
 2799SOL    HW2 9297   3.360   0.257   4.079
 2800SOL     OW 9298   4.502   1.247   0.245
 2800SOL    HW1 9299   4.505   1.276   0.150
 2800SOL    HW2 9300   4.589   1.267   0.290
 2801SOL     OW 9301   0.324   4.205   3.311
 2801SOL    HW1 9302   0.287   4.164   3.228
 2801SOL    HW2 9303   0.423   4.214   3.303
 2802SOL     OW 9304   1.996   4.254   4.208
 2802SOL    HW1 9305   1.906   4.264   4.166
 2802SOL    HW2 9306   2.029   4.343   4.239
 2803SOL     OW 9307   2.962   2.942   6.802
 2803SOL    HW1 9308   2.976   2.956   6.704
 2803SOL    HW2 9309   2.901   2.864   6.817
 2804SOL     OW 9310   5.359   2.581   3.482
 2804SOL    HW1 9311   5.314   2.492   3.469
 2804SOL    HW2 9312   5.393   2.614   3.395
 2805SOL     OW 9313   3.758   5.341   0.095
 2805SOL    HW1 9314   3.781   5.263   0.037
 2805SOL    HW2 9315   3.675   5.321   0.147
 2806SOL     OW 9316   0.798   3.444   5.003
 2806SOL    HW1 9317   0.858   3.407   4.932
 2806SOL    HW2 9318   0.751   3.525   4.968
 2807SOL     OW 9319   4.690   1.575   4.006
 2807SOL    HW1 9320   4.600   1.613   4.029
 2807SOL    HW2 9321   4.746   1.569   4.089
 2808SOL     OW 9322   0.992   6.184   6.669
 2808SOL    HW1 9323   0.906   6.134   6.655
 2808SOL    HW2 9324   1.057   6.158   6.598
 2809SOL     OW 9325   0.859   6.404   0.545
 2809SOL    HW1 9326   0.887   6.368   0.456
 2809SOL    HW2 9327   0.940   6.435   0.595
 2810SOL     OW 9328   0.059   6.701   2.149
 2810SOL    HW1 9329   0.146   6.653   2.157
 2810SOL    HW2 9330   0.045   6.729   2.054
 2811SOL     OW 9331   1.041   0.192   0.542
 2811SOL    HW1 9332   1.049   0.099   0.505
 2811SOL    HW2 9333   1.121   0.246   0.515
 2812SOL     OW 9334   2.098   0.741   1.043
 2812SOL    HW1 9335   2.045   0.753   1.126
 2812SOL    HW2 9336   2.117   0.644   1.029
 2813SOL     OW 9337   5.901   2.052   1.795
 2813SOL    HW1 9338   5.934   2.019   1.706
 2813SOL    HW2 9339   5.809   2.018   1.812
 2814SOL     OW 9340   2.126   4.034   6.684
 2814SOL    HW1 9341   2.085   4.110   6.734
 2814SOL    HW2 9342   2.176   4.069   6.605
 2815SOL     OW 9343   6.097   6.459   4.832
 2815SOL    HW1 9344   6.140   6.497   4.750
 2815SOL    HW2 9345   5.997   6.468   4.825
 2816SOL     OW 9346   0.849   5.041   5.339
 2816SOL    HW1 9347   0.813   5.004   5.254
 2816SOL    HW2 9348   0.901   5.125   5.320
 2817SOL     OW 9349   2.884   0.978   1.330
 2817SOL    HW1 9350   2.853   0.908   1.266
 2817SOL    HW2 9351   2.969   0.948   1.373
 2818SOL     OW 9352   2.474   0.541   0.419
 2818SOL    HW1 9353   2.398   0.560   0.356
 2818SOL    HW2 9354   2.556   0.589   0.388
 2819SOL     OW 9355   5.953   0.558   6.625
 2819SOL    HW1 9356   5.856   0.536   6.628
 2819SOL    HW2 9357   6.002   0.500   6.691
 2820SOL     OW 9358   1.544   1.783   0.211
 2820SOL    HW1 9359   1.496   1.700   0.182
 2820SOL    HW2 9360   1.557   1.844   0.133
 2821SOL     OW 9361   3.649   2.434   6.103
 2821SOL    HW1 9362   3.592   2.470   6.029
 2821SOL    HW2 9363   3.638   2.334   6.109
 2822SOL     OW 9364   4.380   3.513   1.459
 2822SOL    HW1 9365   4.307   3.517   1.528
 2822SOL    HW2 9366   4.414   3.606   1.443
 2823SOL     OW 9367   5.361   4.120   3.380
 2823SOL    HW1 9368   5.437   4.066   3.343
 2823SOL    HW2 9369   5.368   4.215   3.347
 2824SOL     OW 9370   0.606   4.395   5.598
 2824SOL    HW1 9371   0.575   4.400   5.693
 2824SOL    HW2 9372   0.602   4.486   5.556
 2825SOL     OW 9373   4.955   2.611   5.226
 2825SOL    HW1 9374   4.923   2.702   5.252
 2825SOL    HW2 9375   5.014   2.575   5.298
 2826SOL     OW 9376   3.184   2.716   6.661
 2826SOL    HW1 9377   3.148   2.778   6.592
 2826SOL    HW2 9378   3.218   2.768   6.739
 2827SOL     OW 9379   0.165   1.861   0.264
 2827SOL    HW1 9380   0.104   1.891   0.191
 2827SOL    HW2 9381   0.175   1.935   0.331
 2828SOL     OW 9382   2.022   3.811   0.111
 2828SOL    HW1 9383   2.051   3.715   0.123
 2828SOL    HW2 9384   1.952   3.816   0.040
 2829SOL     OW 9385   3.348   4.583   1.019
 2829SOL    HW1 9386   3.436   4.610   0.981
 2829SOL    HW2 9387   3.275   4.604   0.953
 2830SOL     OW 9388   2.555   5.345   4.882
 2830SOL    HW1 9389   2.598   5.271   4.933
 2830SOL    HW2 9390   2.476   5.309   4.831
 2831SOL     OW 9391   5.375   1.577   1.866
 2831SOL    HW1 9392   5.447   1.531   1.814
 2831SOL    HW2 9393   5.413   1.608   1.954
 2832SOL     OW 9394   1.380   3.570   1.702
 2832SOL    HW1 9395   1.313   3.581   1.628
 2832SOL    HW2 9396   1.343   3.608   1.787
 2833SOL     OW 9397   6.293   1.838   3.284
 2833SOL    HW1 9398   6.372   1.804   3.335
 2833SOL    HW2 9399   6.229   1.882   3.347
 2834SOL     OW 9400   3.006   0.500   4.319
 2834SOL    HW1 9401   3.071   0.447   4.373
 2834SOL    HW2 9402   2.929   0.443   4.292
 2835SOL     OW 9403   6.446   1.677   0.603
 2835SOL    HW1 9404   6.443   1.613   0.680
 2835SOL    HW2 9405   6.521   1.742   0.617
 2836SOL     OW 9406   2.975   6.321   2.088
 2836SOL    HW1 9407   3.017   6.412   2.094
 2836SOL    HW2 9408   2.899   6.323   2.023
 2837SOL     OW 9409   4.932   4.363   3.548
 2837SOL    HW1 9410   4.941   4.325   3.639
 2837SOL    HW2 9411   4.842   4.407   3.538
 2838SOL     OW 9412   6.945   4.357   6.030
 2838SOL    HW1 9413   6.898   4.284   5.982
 2838SOL    HW2 9414   6.925   4.445   5.986
 2839SOL     OW 9415   5.883   2.986   6.774
 2839SOL    HW1 9416   5.879   2.973   6.873
 2839SOL    HW2 9417   5.792   2.978   6.735
 2840SOL     OW 9418   6.266   5.688   5.035
 2840SOL    HW1 9419   6.174   5.651   5.051
 2840SOL    HW2 9420   6.331   5.641   5.094
 2841SOL     OW 9421   5.734   3.310   2.988
 2841SOL    HW1 9422   5.758   3.399   3.025
 2841SOL    HW2 9423   5.731   3.243   3.062
 2842SOL     OW 9424   0.950   6.225   3.631
 2842SOL    HW1 9425   1.005   6.174   3.564
 2842SOL    HW2 9426   0.982   6.320   3.634
 2843SOL     OW 9427   0.732   2.813   3.919
 2843SOL    HW1 9428   0.758   2.791   4.013
 2843SOL    HW2 9429   0.644   2.861   3.919
 2844SOL     OW 9430   5.581   4.187   0.111
 2844SOL    HW1 9431   5.497   4.236   0.089
 2844SOL    HW2 9432   5.659   4.232   0.067
 2845SOL     OW 9433   3.748   1.777   1.382
 2845SOL    HW1 9434   3.748   1.793   1.283
 2845SOL    HW2 9435   3.758   1.865   1.429
 2846SOL     OW 9436   5.487   0.924   6.162
 2846SOL    HW1 9437   5.525   0.877   6.082
 2846SOL    HW2 9438   5.490   1.023   6.147
 2847SOL     OW 9439   5.844   4.640   3.088
 2847SOL    HW1 9440   5.919   4.706   3.088
 2847SOL    HW2 9441   5.790   4.652   3.004
 2848SOL     OW 9442   6.991   3.929   0.522
 2848SOL    HW1 9443   6.923   4.001   0.534
 2848SOL    HW2 9444   6.955   3.858   0.461
 2849SOL     OW 9445   5.079   1.066   0.440
 2849SOL    HW1 9446   5.078   1.165   0.449
 2849SOL    HW2 9447   4.991   1.028   0.471
 2850SOL     OW 9448   6.926   1.426   0.864
 2850SOL    HW1 9449   6.911   1.378   0.778
 2850SOL    HW2 9450   6.897   1.521   0.855
 2851SOL     OW 9451   3.273   3.234   2.109
 2851SOL    HW1 9452   3.180   3.205   2.132
 2851SOL    HW2 9453   3.308   3.294   2.181
 2852SOL     OW 9454   0.818   4.613   5.184
 2852SOL    HW1 9455   0.840   4.570   5.271
 2852SOL    HW2 9456   0.899   4.614   5.126
 2853SOL     OW 9457   6.803   5.332   5.747
 2853SOL    HW1 9458   6.722   5.360   5.696
 2853SOL    HW2 9459   6.874   5.402   5.738
 2854SOL     OW 9460   3.221   0.667   6.519
 2854SOL    HW1 9461   3.306   0.695   6.474
 2854SOL    HW2 9462   3.235   0.580   6.566
 2855SOL     OW 9463   2.675   2.350   4.216
 2855SOL    HW1 9464   2.733   2.343   4.134
 2855SOL    HW2 9465   2.587   2.389   4.191
 2856SOL     OW 9466   1.425   5.336   4.841
 2856SOL    HW1 9467   1.506   5.374   4.887
 2856SOL    HW2 9468   1.390   5.259   4.894
 2857SOL     OW 9469   0.873   4.159   0.269
 2857SOL    HW1 9470   0.859   4.137   0.172
 2857SOL    HW2 9471   0.884   4.257   0.280
 2858SOL     OW 9472   5.397   4.335   4.180
 2858SOL    HW1 9473   5.432   4.370   4.267
 2858SOL    HW2 9474   5.371   4.239   4.191
 2859SOL     OW 9475   0.534   5.404   1.992
 2859SOL    HW1 9476   0.451   5.352   2.012
 2859SOL    HW2 9477   0.552   5.469   2.066
 2860SOL     OW 9478   1.401   6.195   2.896
 2860SOL    HW1 9479   1.371   6.282   2.857
 2860SOL    HW2 9480   1.421   6.131   2.822
 2861SOL     OW 9481   5.926   3.258   5.453
 2861SOL    HW1 9482   5.996   3.248   5.382
 2861SOL    HW2 9483   5.882   3.347   5.444
 2862SOL     OW 9484   4.345   1.293   0.483
 2862SOL    HW1 9485   4.388   1.271   0.571
 2862SOL    HW2 9486   4.409   1.273   0.409
 2863SOL     OW 9487   5.602   1.462   6.373
 2863SOL    HW1 9488   5.651   1.482   6.458
 2863SOL    HW2 9489   5.504   1.476   6.387
 2864SOL     OW 9490   4.564   4.811   0.530
 2864SOL    HW1 9491   4.502   4.888   0.512
 2864SOL    HW2 9492   4.602   4.778   0.443
 2865SOL     OW 9493   5.602   4.432   6.465
 2865SOL    HW1 9494   5.599   4.445   6.564
 2865SOL    HW2 9495   5.513   4.399   6.433
 2866SOL     OW 9496   5.012   5.922   1.054
 2866SOL    HW1 9497   4.967   5.850   1.001
 2866SOL    HW2 9498   4.947   5.959   1.121
 2867SOL     OW 9499   0.298   6.189   3.414
 2867SOL    HW1 9500   0.262   6.127   3.484
 2867SOL    HW2 9501   0.371   6.245   3.454
 2868SOL     OW 9502   6.469   0.205   5.076
 2868SOL    HW1 9503   6.543   0.259   5.038
 2868SOL    HW2 9504   6.395   0.266   5.106
 2869SOL     OW 9505   6.215   4.642   5.011
 2869SOL    HW1 9506   6.234   4.739   5.021
 2869SOL    HW2 9507   6.161   4.627   4.928
 2870SOL     OW 9508   0.787   1.200   1.189
 2870SOL    HW1 9509   0.758   1.157   1.103
 2870SOL    HW2 9510   0.763   1.297   1.187
 2871SOL     OW 9511   4.632   1.566   3.487
 2871SOL    HW1 9512   4.727   1.582   3.460
 2871SOL    HW2 9513   4.623   1.578   3.586
 2872SOL     OW 9514   3.504   1.532   2.562
 2872SOL    HW1 9515   3.417   1.524   2.611
 2872SOL    HW2 9516   3.576   1.560   2.626
 2873SOL     OW 9517   0.231   0.124   2.510
 2873SOL    HW1 9518   0.249   0.042   2.564
 2873SOL    HW2 9519   0.173   0.101   2.432
 2874SOL     OW 9520   1.619   0.932   2.033
 2874SOL    HW1 9521   1.607   0.880   2.118
 2874SOL    HW2 9522   1.690   1.001   2.046
 2875SOL     OW 9523   3.101   0.992   2.308
 2875SOL    HW1 9524   3.144   0.920   2.253
 2875SOL    HW2 9525   3.018   1.024   2.263
 2876SOL     OW 9526   1.274   0.091   1.112
 2876SOL    HW1 9527   1.181   0.091   1.077
 2876SOL    HW2 9528   1.321   0.175   1.083
 2877SOL     OW 9529   0.994   3.466   6.714
 2877SOL    HW1 9530   1.078   3.468   6.660
 2877SOL    HW2 9531   1.015   3.433   6.806
 2878SOL     OW 9532   4.103   3.692   4.547
 2878SOL    HW1 9533   4.115   3.623   4.475
 2878SOL    HW2 9534   4.106   3.647   4.637
 2879SOL     OW 9535   6.250   6.415   0.136
 2879SOL    HW1 9536   6.280   6.416   0.232
 2879SOL    HW2 9537   6.314   6.469   0.081
 2880SOL     OW 9538   1.474   1.277   2.553
 2880SOL    HW1 9539   1.416   1.224   2.492
 2880SOL    HW2 9540   1.540   1.216   2.598
 2881SOL     OW 9541   5.184   5.662   6.738
 2881SOL    HW1 9542   5.143   5.742   6.693
 2881SOL    HW2 9543   5.260   5.692   6.796
 2882SOL     OW 9544   4.641   6.109   0.688
 2882SOL    HW1 9545   4.641   6.203   0.654
 2882SOL    HW2 9546   4.667   6.047   0.615
 2883SOL     OW 9547   5.168   6.047   3.181
 2883SOL    HW1 9548   5.125   6.088   3.262
 2883SOL    HW2 9549   5.099   6.039   3.108
 2884SOL     OW 9550   6.353   5.597   3.660
 2884SOL    HW1 9551   6.317   5.660   3.728
 2884SOL    HW2 9552   6.449   5.617   3.643
 2885SOL     OW 9553   0.826   3.854   3.402
 2885SOL    HW1 9554   0.865   3.869   3.493
 2885SOL    HW2 9555   0.732   3.821   3.411
 2886SOL     OW 9556   1.969   4.274   5.161
 2886SOL    HW1 9557   2.053   4.250   5.112
 2886SOL    HW2 9558   1.985   4.270   5.259
 2887SOL     OW 9559   0.523   4.670   2.667
 2887SOL    HW1 9560   0.553   4.743   2.606
 2887SOL    HW2 9561   0.468   4.604   2.615
 2888SOL     OW 9562   4.830   6.159   6.704
 2888SOL    HW1 9563   4.842   6.184   6.608
 2888SOL    HW2 9564   4.733   6.161   6.727
 2889SOL     OW 9565   4.105   5.201   3.674
 2889SOL    HW1 9566   4.052   5.154   3.603
 2889SOL    HW2 9567   4.201   5.201   3.649
 2890SOL     OW 9568   1.391   1.503   0.968
 2890SOL    HW1 9569   1.426   1.523   0.876
 2890SOL    HW2 9570   1.292   1.516   0.970
 2891SOL     OW 9571   1.311   1.808   4.999
 2891SOL    HW1 9572   1.388   1.806   5.063
 2891SOL    HW2 9573   1.319   1.732   4.935
 2892SOL     OW 9574   5.775   3.792   2.402
 2892SOL    HW1 9575   5.701   3.857   2.422
 2892SOL    HW2 9576   5.782   3.780   2.303
 2893SOL     OW 9577   6.444   6.264   5.212
 2893SOL    HW1 9578   6.399   6.321   5.144
 2893SOL    HW2 9579   6.477   6.321   5.287
 2894SOL     OW 9580   1.544   5.543   1.199
 2894SOL    HW1 9581   1.546   5.454   1.244
 2894SOL    HW2 9582   1.615   5.546   1.128
 2895SOL     OW 9583   4.846   6.724   6.279
 2895SOL    HW1 9584   4.886   6.634   6.265
 2895SOL    HW2 9585   4.747   6.720   6.265
 2896SOL     OW 9586   6.685   0.215   6.605
 2896SOL    HW1 9587   6.752   0.160   6.556
 2896SOL    HW2 9588   6.729   0.259   6.684
 2897SOL     OW 9589   2.565   6.430   3.853
 2897SOL    HW1 9590   2.628   6.455   3.779
 2897SOL    HW2 9591   2.616   6.386   3.926
 2898SOL     OW 9592   5.436   2.351   2.770
 2898SOL    HW1 9593   5.472   2.440   2.741
 2898SOL    HW2 9594   5.460   2.336   2.866
 2899SOL     OW 9595   6.163   2.577   1.210
 2899SOL    HW1 9596   6.180   2.479   1.199
 2899SOL    HW2 9597   6.235   2.618   1.264
 2900SOL     OW 9598   2.924   3.181   5.231
 2900SOL    HW1 9599   2.942   3.160   5.134
 2900SOL    HW2 9600   2.828   3.165   5.251
 2901SOL     OW 9601   1.527   2.936   1.646
 2901SOL    HW1 9602   1.617   2.974   1.667
 2901SOL    HW2 9603   1.534   2.874   1.568
 2902SOL     OW 9604   5.281   5.971   3.529
 2902SOL    HW1 9605   5.319   5.951   3.439
 2902SOL    HW2 9606   5.279   5.887   3.583
 2903SOL     OW 9607   0.916   5.313   1.735
 2903SOL    HW1 9608   0.990   5.252   1.763
 2903SOL    HW2 9609   0.933   5.345   1.641
 2904SOL     OW 9610   3.364   4.979   3.934
 2904SOL    HW1 9611   3.316   4.973   4.022
 2904SOL    HW2 9612   3.321   4.918   3.868
 2905SOL     OW 9613   1.711   4.352   1.095
 2905SOL    HW1 9614   1.640   4.390   1.036
 2905SOL    HW2 9615   1.741   4.264   1.058
 2906SOL     OW 9616   6.313   6.407   6.626
 2906SOL    HW1 9617   6.262   6.395   6.711
 2906SOL    HW2 9618   6.273   6.348   6.555
 2907SOL     OW 9619   7.020   1.200   6.098
 2907SOL    HW1 9620   0.013   1.159   6.009
 2907SOL    HW2 9621   0.041   1.289   6.104
 2908SOL     OW 9622   3.847   5.819   3.686
 2908SOL    HW1 9623   3.943   5.793   3.681
 2908SOL    HW2 9624   3.839   5.917   3.702
 2909SOL     OW 9625   0.144   6.323   0.843
 2909SOL    HW1 9626   0.148   6.316   0.744
 2909SOL    HW2 9627   0.089   6.248   0.880
 2910SOL     OW 9628   1.215   0.117   4.205
 2910SOL    HW1 9629   1.165   0.052   4.148
 2910SOL    HW2 9630   1.223   0.081   4.298
 2911SOL     OW 9631   6.773   3.394   3.580
 2911SOL    HW1 9632   6.728   3.343   3.506
 2911SOL    HW2 9633   6.832   3.332   3.632
 2912SOL     OW 9634   0.003   1.532   2.992
 2912SOL    HW1 9635   6.955   1.464   3.005
 2912SOL    HW2 9636   0.049   1.514   2.905
 2913SOL     OW 9637   1.087   6.287   4.130
 2913SOL    HW1 9638   1.097   6.192   4.159
 2913SOL    HW2 9639   1.177   6.331   4.128
 2914SOL     OW 9640   3.774   4.670   0.962
 2914SOL    HW1 9641   3.707   4.621   0.906
 2914SOL    HW2 9642   3.808   4.608   1.033
 2915SOL     OW 9643   2.122   6.932   3.684
 2915SOL    HW1 9644   2.187   6.858   3.669
 2915SOL    HW2 9645   2.091   6.932   3.779
 2916SOL     OW 9646   0.445   5.847   6.520
 2916SOL    HW1 9647   0.373   5.850   6.590
 2916SOL    HW2 9648   0.489   5.936   6.513
 2917SOL     OW 9649   1.962   1.871   3.822
 2917SOL    HW1 9650   1.962   1.965   3.855
 2917SOL    HW2 9651   1.900   1.863   3.744
 2918SOL     OW 9652   4.707   1.150   1.236
 2918SOL    HW1 9653   4.666   1.165   1.146
 2918SOL    HW2 9654   4.755   1.233   1.265
 2919SOL     OW 9655   1.087   5.112   4.876
 2919SOL    HW1 9656   0.991   5.132   4.857
 2919SOL    HW2 9657   1.098   5.086   4.972
 2920SOL     OW 9658   2.767   2.585   1.743
 2920SOL    HW1 9659   2.823   2.666   1.756
 2920SOL    HW2 9660   2.811   2.507   1.789
 2921SOL     OW 9661   0.105   5.216   3.348
 2921SOL    HW1 9662   0.156   5.136   3.379
 2921SOL    HW2 9663   0.023   5.186   3.299
 2922SOL     OW 9664   3.766   5.095   3.878
 2922SOL    HW1 9665   3.713   5.014   3.902
 2922SOL    HW2 9666   3.780   5.098   3.779
 2923SOL     OW 9667   1.297   4.175   3.482
 2923SOL    HW1 9668   1.217   4.205   3.535
 2923SOL    HW2 9669   1.267   4.139   3.394
 2924SOL     OW 9670   4.726   1.297   6.941
 2924SOL    HW1 9671   4.793   1.225   6.925
 2924SOL    HW2 9672   4.772   1.378   6.976
 2925SOL     OW 9673   5.375   6.767   4.643
 2925SOL    HW1 9674   5.462   6.762   4.692
 2925SOL    HW2 9675   5.391   6.803   4.551
 2926SOL     OW 9676   0.168   2.589   5.204
 2926SOL    HW1 9677   0.265   2.575   5.227
 2926SOL    HW2 9678   0.161   2.617   5.108
 2927SOL     OW 9679   0.799   1.759   2.655
 2927SOL    HW1 9680   0.891   1.790   2.632
 2927SOL    HW2 9681   0.800   1.660   2.669
 2928SOL     OW 9682   5.085   4.773   0.087
 2928SOL    HW1 9683   5.103   4.817   0.175
 2928SOL    HW2 9684   5.160   4.793   0.024
 2929SOL     OW 9685   1.724   1.723   2.931
 2929SOL    HW1 9686   1.784   1.671   2.871
 2929SOL    HW2 9687   1.744   1.699   3.026
 2930SOL     OW 9688   0.722   3.007   4.223
 2930SOL    HW1 9689   0.730   2.925   4.166
 2930SOL    HW2 9690   0.719   2.981   4.319
 2931SOL     OW 9691   5.642   4.094   5.626
 2931SOL    HW1 9692   5.642   4.057   5.534
 2931SOL    HW2 9693   5.693   4.033   5.687
 2932SOL     OW 9694   6.949   6.923   0.722
 2932SOL    HW1 9695   6.921   6.875   0.639
 2932SOL    HW2 9696   6.925   7.020   0.715
 2933SOL     OW 9697   0.583   0.563   6.682
 2933SOL    HW1 9698   0.510   0.495   6.674
 2933SOL    HW2 9699   0.618   0.565   6.776
 2934SOL     OW 9700   5.529   5.052   2.789
 2934SOL    HW1 9701   5.540   4.954   2.800
 2934SOL    HW2 9702   5.522   5.096   2.879
 2935SOL     OW 9703   0.481   4.336   6.173
 2935SOL    HW1 9704   0.465   4.362   6.268
 2935SOL    HW2 9705   0.519   4.244   6.169
 2936SOL     OW 9706   4.446   6.130   2.405
 2936SOL    HW1 9707   4.489   6.104   2.491
 2936SOL    HW2 9708   4.441   6.050   2.345
 2937SOL     OW 9709   6.348   3.133   3.396
 2937SOL    HW1 9710   6.323   3.110   3.302
 2937SOL    HW2 9711   6.282   3.198   3.433
 2938SOL     OW 9712   0.236   5.159   1.467
 2938SOL    HW1 9713   0.236   5.177   1.369
 2938SOL    HW2 9714   0.294   5.227   1.513
 2939SOL     OW 9715   6.340   5.870   1.951
 2939SOL    HW1 9716   6.406   5.912   1.888
 2939SOL    HW2 9717   6.380   5.866   2.042
 2940SOL     OW 9718   4.739   5.680   3.098
 2940SOL    HW1 9719   4.711   5.708   3.006
 2940SOL    HW2 9720   4.782   5.757   3.145
 2941SOL     OW 9721   2.917   4.951   1.750
 2941SOL    HW1 9722   3.009   4.912   1.749
 2941SOL    HW2 9723   2.888   4.966   1.844
 2942SOL     OW 9724   2.688   1.655   0.534
 2942SOL    HW1 9725   2.703   1.723   0.462
 2942SOL    HW2 9726   2.589   1.642   0.546
 2943SOL     OW 9727   0.283   4.420   3.763
 2943SOL    HW1 9728   0.205   4.362   3.787
 2943SOL    HW2 9729   0.318   4.465   3.846
 2944SOL     OW 9730   0.695   4.926   3.661
 2944SOL    HW1 9731   0.714   5.010   3.611
 2944SOL    HW2 9732   0.657   4.858   3.598
 2945SOL     OW 9733   5.457   3.538   0.650
 2945SOL    HW1 9734   5.489   3.627   0.617
 2945SOL    HW2 9735   5.372   3.551   0.702
 2946SOL     OW 9736   3.503   3.761   4.497
 2946SOL    HW1 9737   3.451   3.712   4.567
 2946SOL    HW2 9738   3.564   3.828   4.541
 2947SOL     OW 9739   6.407   6.871   0.617
 2947SOL    HW1 9740   6.333   6.805   0.629
 2947SOL    HW2 9741   6.491   6.834   0.656
 2948SOL     OW 9742   6.257   4.490   0.670
 2948SOL    HW1 9743   6.212   4.434   0.740
 2948SOL    HW2 9744   6.330   4.543   0.712
 2949SOL     OW 9745   1.582   6.060   0.912
 2949SOL    HW1 9746   1.538   5.976   0.943
 2949SOL    HW2 9747   1.549   6.083   0.821
 2950SOL     OW 9748   5.118   4.911   2.246
 2950SOL    HW1 9749   5.189   4.860   2.199
 2950SOL    HW2 9750   5.046   4.936   2.181
 2951SOL     OW 9751   0.584   2.669   0.856
 2951SOL    HW1 9752   0.624   2.680   0.947
 2951SOL    HW2 9753   0.637   2.720   0.789
 2952SOL     OW 9754   1.117   1.329   4.564
 2952SOL    HW1 9755   1.058   1.249   4.571
 2952SOL    HW2 9756   1.186   1.314   4.494
 2953SOL     OW 9757   1.038   5.546   3.277
 2953SOL    HW1 9758   1.025   5.640   3.310
 2953SOL    HW2 9759   1.002   5.539   3.184
 2954SOL     OW 9760   0.558   4.767   5.915
 2954SOL    HW1 9761   0.470   4.752   5.959
 2954SOL    HW2 9762   0.552   4.745   5.818
 2955SOL     OW 9763   1.413   5.051   5.727
 2955SOL    HW1 9764   1.409   5.106   5.644
 2955SOL    HW2 9765   1.481   5.089   5.790
 2956SOL     OW 9766   6.443   3.320   5.160
 2956SOL    HW1 9767   6.394   3.374   5.091
 2956SOL    HW2 9768   6.526   3.369   5.188
 2957SOL     OW 9769   1.637   4.889   1.855
 2957SOL    HW1 9770   1.712   4.927   1.910
 2957SOL    HW2 9771   1.676   4.839   1.777
 2958SOL     OW 9772   1.932   3.304   1.230
 2958SOL    HW1 9773   1.841   3.344   1.226
 2958SOL    HW2 9774   1.957   3.285   1.325
 2959SOL     OW 9775   0.716   4.148   3.843
 2959SOL    HW1 9776   0.786   4.217   3.821
 2959SOL    HW2 9777   0.627   4.193   3.849
 2960SOL     OW 9778   5.387   6.163   0.796
 2960SOL    HW1 9779   5.295   6.156   0.834
 2960SOL    HW2 9780   5.454   6.139   0.866
 2961SOL     OW 9781   5.879   2.057   0.995
 2961SOL    HW1 9782   5.786   2.088   0.977
 2961SOL    HW2 9783   5.943   2.133   0.984
 2962SOL     OW 9784   6.548   0.567   3.941
 2962SOL    HW1 9785   6.603   0.627   3.882
 2962SOL    HW2 9786   6.494   0.505   3.884
 2963SOL     OW 9787   1.763   1.409   6.115
 2963SOL    HW1 9788   1.846   1.438   6.068
 2963SOL    HW2 9789   1.693   1.386   6.047
 2964SOL     OW 9790   0.791   0.938   5.727
 2964SOL    HW1 9791   0.774   1.034   5.747
 2964SOL    HW2 9792   0.817   0.890   5.810
 2965SOL     OW 9793   5.999   0.350   6.272
 2965SOL    HW1 9794   6.076   0.399   6.229
 2965SOL    HW2 9795   5.972   0.274   6.213
 2966SOL     OW 9796   3.710   6.826   3.078
 2966SOL    HW1 9797   3.680   6.797   2.987
 2966SOL    HW2 9798   3.668   6.768   3.148
 2967SOL     OW 9799   5.698   0.288   5.195
 2967SOL    HW1 9800   5.619   0.258   5.141
 2967SOL    HW2 9801   5.744   0.208   5.234
 2968SOL     OW 9802   1.782   3.925   1.941
 2968SOL    HW1 9803   1.833   4.011   1.934
 2968SOL    HW2 9804   1.753   3.895   1.850
 2969SOL     OW 9805   4.153   1.915   5.146
 2969SOL    HW1 9806   4.248   1.925   5.117
 2969SOL    HW2 9807   4.108   2.004   5.141
 2970SOL     OW 9808   3.109   2.220   6.258
 2970SOL    HW1 9809   3.089   2.270   6.174
 2970SOL    HW2 9810   3.140   2.284   6.328
 2971SOL     OW 9811   4.044   3.265   5.607
 2971SOL    HW1 9812   4.088   3.354   5.594
 2971SOL    HW2 9813   3.952   3.278   5.643
 2972SOL     OW 9814   0.701   5.761   6.698
 2972SOL    HW1 9815   0.629   5.784   6.632
 2972SOL    HW2 9816   0.697   5.663   6.717
 2973SOL     OW 9817   5.028   0.313   4.436
 2973SOL    HW1 9818   4.969   0.318   4.517
 2973SOL    HW2 9819   5.088   0.233   4.443
 2974SOL     OW 9820   5.185   5.228   2.540
 2974SOL    HW1 9821   5.099   5.221   2.590
 2974SOL    HW2 9822   5.166   5.237   2.443
 2975SOL     OW 9823   0.624   3.362   4.728
 2975SOL    HW1 9824   0.581   3.281   4.767
 2975SOL    HW2 9825   0.557   3.437   4.725
 2976SOL     OW 9826   4.297   0.333   1.182
 2976SOL    HW1 9827   4.322   0.427   1.204
 2976SOL    HW2 9828   4.295   0.279   1.267
 2977SOL     OW 9829   1.320   1.453   2.075
 2977SOL    HW1 9830   1.221   1.434   2.072
 2977SOL    HW2 9831   1.370   1.367   2.084
 2978SOL     OW 9832   3.269   6.062   0.427
 2978SOL    HW1 9833   3.298   5.966   0.418
 2978SOL    HW2 9834   3.348   6.121   0.414
 2979SOL     OW 9835   2.017   1.336   5.357
 2979SOL    HW1 9836   2.056   1.247   5.377
 2979SOL    HW2 9837   1.925   1.325   5.320
 2980SOL     OW 9838   3.205   3.039   3.102
 2980SOL    HW1 9839   3.129   2.975   3.088
 2980SOL    HW2 9840   3.255   3.013   3.185
 2981SOL     OW 9841   2.722   1.734   1.564
 2981SOL    HW1 9842   2.749   1.719   1.469
 2981SOL    HW2 9843   2.698   1.830   1.577
 2982SOL     OW 9844   0.720   0.130   2.507
 2982SOL    HW1 9845   0.765   0.212   2.473
 2982SOL    HW2 9846   0.724   0.128   2.607
 2983SOL     OW 9847   6.316   2.528   6.087
 2983SOL    HW1 9848   6.372   2.526   6.169
 2983SOL    HW2 9849   6.335   2.447   6.031
 2984SOL     OW 9850   0.598   5.978   0.987
 2984SOL    HW1 9851   0.599   6.078   0.980
 2984SOL    HW2 9852   0.661   5.950   1.060
 2985SOL     OW 9853   6.929   6.880   5.589
 2985SOL    HW1 9854   6.932   6.880   5.489
 2985SOL    HW2 9855   6.943   6.973   5.623
 2986SOL     OW 9856   3.998   3.851   2.855
 2986SOL    HW1 9857   4.030   3.791   2.928
 2986SOL    HW2 9858   3.925   3.910   2.890
 2987SOL     OW 9859   2.746   6.364   5.749
 2987SOL    HW1 9860   2.676   6.362   5.820
 2987SOL    HW2 9861   2.829   6.320   5.782
 2988SOL     OW 9862   1.035   2.212   6.589
 2988SOL    HW1 9863   0.986   2.282   6.536
 2988SOL    HW2 9864   1.049   2.131   6.532
 2989SOL     OW 9865   5.803   3.604   5.935
 2989SOL    HW1 9866   5.859   3.637   6.012
 2989SOL    HW2 9867   5.718   3.565   5.970
 2990SOL     OW 9868   4.955   2.159   4.833
 2990SOL    HW1 9869   5.009   2.075   4.835
 2990SOL    HW2 9870   4.984   2.218   4.908
 2991SOL     OW 9871   6.190   2.780   0.119
 2991SOL    HW1 9872   6.275   2.788   0.066
 2991SOL    HW2 9873   6.208   2.801   0.215
 2992SOL     OW 9874   2.268   4.505   4.621
 2992SOL    HW1 9875   2.221   4.593   4.621
 2992SOL    HW2 9876   2.214   4.438   4.672
 2993SOL     OW 9877   3.875   5.213   6.881
 2993SOL    HW1 9878   3.923   5.293   6.845
 2993SOL    HW2 9879   3.777   5.223   6.864
 2994SOL     OW 9880   2.745   4.936   4.840
 2994SOL    HW1 9881   2.844   4.926   4.848
 2994SOL    HW2 9882   2.723   4.991   4.760
 2995SOL     OW 9883   5.220   0.373   2.089
 2995SOL    HW1 9884   5.187   0.396   1.997
 2995SOL    HW2 9885   5.301   0.316   2.081
 2996SOL     OW 9886   0.075   0.502   3.955
 2996SOL    HW1 9887   0.056   0.410   3.920
 2996SOL    HW2 9888   0.010   0.525   4.027
 2997SOL     OW 9889   4.794   5.872   3.841
 2997SOL    HW1 9890   4.823   5.959   3.881
 2997SOL    HW2 9891   4.756   5.888   3.750
 2998SOL     OW 9892   3.048   0.343   1.964
 2998SOL    HW1 9893   2.948   0.336   1.954
 2998SOL    HW2 9894   3.093   0.307   1.882
 2999SOL     OW 9895   2.498   5.251   0.747
 2999SOL    HW1 9896   2.534   5.237   0.655
 2999SOL    HW2 9897   2.436   5.176   0.770
 3000SOL     OW 9898   1.892   4.274   6.722
 3000SOL    HW1 9899   1.969   4.293   6.783
 3000SOL    HW2 9900   1.927   4.259   6.629
 3001SOL     OW 9901   3.186   0.707   6.141
 3001SOL    HW1 9902   3.186   0.799   6.102
 3001SOL    HW2 9903   3.098   0.664   6.124
 3002SOL     OW 9904   1.584   2.188   1.455
 3002SOL    HW1 9905   1.567   2.150   1.364
 3002SOL    HW2 9906   1.659   2.140   1.498
 3003SOL     OW 9907   1.311   5.777   6.803
 3003SOL    HW1 9908   1.252   5.824   6.869
 3003SOL    HW2 9909   1.266   5.694   6.771
 3004SOL     OW 9910   3.033   0.976   4.567
 3004SOL    HW1 9911   3.098   0.992   4.641
 3004SOL    HW2 9912   2.965   0.909   4.596
 3005SOL     OW 9913   2.613   1.454   6.897
 3005SOL    HW1 9914   2.673   1.374   6.900
 3005SOL    HW2 9915   2.668   1.537   6.893
 3006SOL     OW 9916   5.859   0.982   5.804
 3006SOL    HW1 9917   5.945   0.954   5.761
 3006SOL    HW2 9918   5.814   0.901   5.843
 3007SOL     OW 9919   6.512   5.691   6.244
 3007SOL    HW1 9920   6.516   5.788   6.268
 3007SOL    HW2 9921   6.420   5.656   6.264
 3008SOL     OW 9922   5.414   3.690   5.428
 3008SOL    HW1 9923   5.378   3.597   5.437
 3008SOL    HW2 9924   5.393   3.742   5.511
 3009SOL     OW 9925   5.579   3.898   1.486
 3009SOL    HW1 9926   5.593   3.992   1.519
 3009SOL    HW2 9927   5.521   3.849   1.550
 3010SOL     OW 9928   4.544   4.421   1.468
 3010SOL    HW1 9929   4.455   4.395   1.505
 3010SOL    HW2 9930   4.611   4.350   1.489
 3011SOL     OW 9931   5.479   0.549   1.100
 3011SOL    HW1 9932   5.452   0.452   1.106
 3011SOL    HW2 9933   5.475   0.579   1.005
 3012SOL     OW 9934   2.068   2.220   4.578
 3012SOL    HW1 9935   2.044   2.310   4.541
 3012SOL    HW2 9936   2.143   2.229   4.643
 3013SOL     OW 9937   0.592   5.281   5.610
 3013SOL    HW1 9938   0.602   5.204   5.674
 3013SOL    HW2 9939   0.563   5.247   5.521
 3014SOL     OW 9940   3.699   0.068   0.981
 3014SOL    HW1 9941   3.796   0.058   0.958
 3014SOL    HW2 9942   3.651   7.007   0.961
 3015SOL     OW 9943   2.337   6.801   6.214
 3015SOL    HW1 9944   2.274   6.781   6.140
 3015SOL    HW2 9945   2.371   6.716   6.254
 3016SOL     OW 9946   3.052   1.526   4.597
 3016SOL    HW1 9947   3.053   1.626   4.600
 3016SOL    HW2 9948   2.966   1.495   4.556
 3017SOL     OW 9949   1.801   6.126   6.880
 3017SOL    HW1 9950   1.748   6.042   6.865
 3017SOL    HW2 9951   1.886   6.121   6.828
 3018SOL     OW 9952   1.994   2.781   1.828
 3018SOL    HW1 9953   2.078   2.788   1.880
 3018SOL    HW2 9954   1.923   2.837   1.871
 3019SOL     OW 9955   0.888   1.222   5.260
 3019SOL    HW1 9956   0.944   1.180   5.331
 3019SOL    HW2 9957   0.928   1.310   5.234
 3020SOL     OW 9958   5.557   4.194   6.751
 3020SOL    HW1 9959   5.639   4.153   6.711
 3020SOL    HW2 9960   5.562   4.294   6.743
 3021SOL     OW 9961   4.229   6.835   4.393
 3021SOL    HW1 9962   4.219   6.736   4.401
 3021SOL    HW2 9963   4.155   6.872   4.338
 3022SOL     OW 9964   3.752   6.415   2.217
 3022SOL    HW1 9965   3.754   6.485   2.146
 3022SOL    HW2 9966   3.845   6.400   2.251
 3023SOL     OW 9967   5.293   4.568   5.065
 3023SOL    HW1 9968   5.247   4.519   5.140
 3023SOL    HW2 9969   5.328   4.502   4.999
 3024SOL     OW 9970   6.046   1.557   6.326
 3024SOL    HW1 9971   6.024   1.652   6.344
 3024SOL    HW2 9972   6.121   1.527   6.385
 3025SOL     OW 9973   3.758   5.425   1.010
 3025SOL    HW1 9974   3.784   5.499   0.948
 3025SOL    HW2 9975   3.826   5.416   1.082
 3026SOL     OW 9976   6.621   6.224   2.394
 3026SOL    HW1 9977   6.675   6.148   2.359
 3026SOL    HW2 9978   6.675   6.276   2.460
 3027SOL     OW 9979   3.990   0.096   0.927
 3027SOL    HW1 9980   4.075   0.066   0.884
 3027SOL    HW2 9981   4.006   0.182   0.976
 3028SOL     OW 9982   3.753   3.434   3.796
 3028SOL    HW1 9983   3.768   3.423   3.894
 3028SOL    HW2 9984   3.655   3.424   3.776
 3029SOL     OW 9985   0.056   2.300   5.346
 3029SOL    HW1 9986   7.016   2.338   5.413
 3029SOL    HW2 9987   0.118   2.372   5.315
 3030SOL     OW 9988   0.072   4.022   6.099
 3030SOL    HW1 9989   7.009   3.973   6.103
 3030SOL    HW2 9990   0.147   3.956   6.103
 3031SOL     OW 9991   0.204   4.449   6.995
 3031SOL    HW1 9992   0.132   4.384   6.971
 3031SOL    HW2 9993   0.250   4.480   6.912
 3032SOL     OW 9994   3.967   0.422   3.389
 3032SOL    HW1 9995   3.884   0.372   3.412
 3032SOL    HW2 9996   4.038   0.356   3.361
 3033SOL     OW 9997   2.096   0.272   6.559
 3033SOL    HW1 9998   2.024   0.341   6.571
 3033SOL    HW2 9999   2.136   0.251   6.648
 3034SOL     OW10000   4.943   3.468   3.240
 3034SOL    HW110001   4.863   3.528   3.240
 3034SOL    HW210002   5.024   3.520   3.213
 3035SOL     OW10003   6.159   4.143   6.709
 3035SOL    HW110004   6.140   4.199   6.790
 3035SOL    HW210005   6.105   4.176   6.633
 3036SOL     OW10006   2.762   2.753   6.817
 3036SOL    HW110007   2.767   2.654   6.833
 3036SOL    HW210008   2.698   2.794   6.882
 3037SOL     OW10009   0.452   5.404   6.264
 3037SOL    HW110010   0.550   5.409   6.285
 3037SOL    HW210011   0.408   5.490   6.291
 3038SOL     OW10012   5.823   5.028   5.031
 3038SOL    HW110013   5.763   5.093   4.984
 3038SOL    HW210014   5.888   5.078   5.088
 3039SOL     OW10015   6.362   3.409   6.579
 3039SOL    HW110016   6.327   3.415   6.672
 3039SOL    HW210017   6.288   3.383   6.517
 3040SOL     OW10018   3.636   6.748   6.674
 3040SOL    HW110019   3.636   6.837   6.630
 3040SOL    HW210020   3.582   6.752   6.758
 3041SOL     OW10021   2.534   5.916   6.669
 3041SOL    HW110022   2.626   5.931   6.633
 3041SOL    HW210023   2.484   5.853   6.610
 3042SOL     OW10024   0.069   5.465   4.491
 3042SOL    HW110025   7.011   5.521   4.506
 3042SOL    HW210026   0.070   5.434   4.396
 3043SOL     OW10027   2.178   3.405   1.114
 3043SOL    HW110028   2.263   3.440   1.152
 3043SOL    HW210029   2.137   3.339   1.177
 3044SOL     OW10030   3.953   3.982   4.044
 3044SOL    HW110031   3.905   4.007   4.128
 3044SOL    HW210032   4.034   3.928   4.067
 3045SOL     OW10033   5.461   6.981   3.347
 3045SOL    HW110034   5.472   6.886   3.320
 3045SOL    HW210035   5.552   7.023   3.359
 3046SOL     OW10036   6.716   5.811   1.767
 3046SOL    HW110037   6.699   5.746   1.693
 3046SOL    HW210038   6.784   5.878   1.736
 3047SOL     OW10039   4.522   1.879   3.861
 3047SOL    HW110040   4.509   1.811   3.933
 3047SOL    HW210041   4.471   1.962   3.885
 3048SOL     OW10042   4.410   5.042   0.709
 3048SOL    HW110043   4.509   5.030   0.717
 3048SOL    HW210044   4.381   5.010   0.619
 3049SOL     OW10045   0.337   0.720   1.259
 3049SOL    HW110046   0.305   0.628   1.241
 3049SOL    HW210047   0.275   0.764   1.325
 3050SOL     OW10048   3.818   2.810   5.309
 3050SOL    HW110049   3.846   2.729   5.256
 3050SOL    HW210050   3.812   2.889   5.248
 3051SOL     OW10051   2.288   4.497   6.115
 3051SOL    HW110052   2.200   4.477   6.071
 3051SOL    HW210053   2.359   4.503   6.045
 3052SOL     OW10054   5.927   6.598   4.149
 3052SOL    HW110055   5.892   6.510   4.115
 3052SOL    HW210056   5.910   6.605   4.247
 3053SOL     OW10057   0.385   5.363   5.776
 3053SOL    HW110058   0.304   5.368   5.718
 3053SOL    HW210059   0.466   5.344   5.720
 3054SOL     OW10060   5.785   6.582   3.485
 3054SOL    HW110061   5.852   6.656   3.483
 3054SOL    HW210062   5.772   6.547   3.392
 3055SOL     OW10063   5.889   6.040   0.791
 3055SOL    HW110064   5.860   5.948   0.764
 3055SOL    HW210065   5.895   6.098   0.709
 3056SOL     OW10066   4.465   2.545   1.230
 3056SOL    HW110067   4.396   2.473   1.228
 3056SOL    HW210068   4.478   2.576   1.325
 3057SOL     OW10069   6.828   2.411   3.032
 3057SOL    HW110070   6.745   2.361   3.057
 3057SOL    HW210071   6.900   2.393   3.099
 3058SOL     OW10072   5.385   4.063   6.560
 3058SOL    HW110073   5.441   4.105   6.630
 3058SOL    HW210074   5.291   4.096   6.567
 3059SOL     OW10075   1.745   2.595   3.014
 3059SOL    HW110076   1.709   2.506   3.043
 3059SOL    HW210077   1.818   2.623   3.077
 3060SOL     OW10078   6.484   2.890   4.083
 3060SOL    HW110079   6.474   2.858   4.177
 3060SOL    HW210080   6.578   2.876   4.052
 3061SOL     OW10081   5.414   5.835   2.241
 3061SOL    HW110082   5.440   5.782   2.321
 3061SOL    HW210083   5.320   5.813   2.215
 3062SOL     OW10084   4.120   5.083   6.866
 3062SOL    HW110085   4.113   5.017   6.941
 3062SOL    HW210086   4.031   5.125   6.850
 3063SOL     OW10087   6.283   5.936   1.319
 3063SOL    HW110088   6.241   5.878   1.249
 3063SOL    HW210089   6.271   5.893   1.408
 3064SOL     OW10090   4.837   0.798   5.857
 3064SOL    HW110091   4.926   0.818   5.899
 3064SOL    HW210092   4.850   0.730   5.785
 3065SOL     OW10093   4.860   1.735   6.330
 3065SOL    HW110094   4.804   1.811   6.363
 3065SOL    HW210095   4.865   1.665   6.401
 3066SOL     OW10096   5.385   0.086   6.106
 3066SOL    HW110097   5.352   0.025   6.178
 3066SOL    HW210098   5.429   0.033   6.034
 3067SOL     OW10099   0.868   2.145   4.556
 3067SOL    HW110100   0.823   2.079   4.616
 3067SOL    HW210101   0.965   2.120   4.546
 3068SOL     OW10102   6.083   0.769   0.762
 3068SOL    HW110103   6.049   0.783   0.669
 3068SOL    HW210104   6.180   0.794   0.765
 3069SOL     OW10105   5.543   5.916   4.040
 3069SOL    HW110106   5.565   5.877   4.129
 3069SOL    HW210107   5.452   5.885   4.011
 3070SOL     OW10108   2.222   1.592   0.318
 3070SOL    HW110109   2.319   1.604   0.339
 3070SOL    HW210110   2.208   1.501   0.279
 3071SOL     OW10111   6.360   4.126   4.441
 3071SOL    HW110112   6.339   4.111   4.537
 3071SOL    HW210113   6.441   4.073   4.415
 3072SOL     OW10114   1.855   6.759   4.482
 3072SOL    HW110115   1.880   6.835   4.542
 3072SOL    HW210116   1.872   6.785   4.387
 3073SOL     OW10117   0.524   5.116   3.215
 3073SOL    HW110118   0.448   5.098   3.153
 3073SOL    HW210119   0.551   5.030   3.261
 3074SOL     OW10120   3.156   3.576   1.884
 3074SOL    HW110121   3.069   3.599   1.927
 3074SOL    HW210122   3.154   3.480   1.855
 3075SOL     OW10123   4.057   4.911   0.477
 3075SOL    HW110124   4.035   4.825   0.524
 3075SOL    HW210125   4.015   4.987   0.526
 3076SOL     OW10126   2.411   1.163   4.241
 3076SOL    HW110127   2.424   1.260   4.221
 3076SOL    HW210128   2.388   1.152   4.338
 3077SOL     OW10129   6.569   3.532   2.509
 3077SOL    HW110130   6.625   3.613   2.529
 3077SOL    HW210131   6.605   3.453   2.559
 3078SOL     OW10132   6.310   4.616   1.630
 3078SOL    HW110133   6.360   4.678   1.689
 3078SOL    HW210134   6.331   4.521   1.655
 3079SOL     OW10135   7.022   4.241   2.066
 3079SOL    HW110136   6.950   4.259   1.999
 3079SOL    HW210137   0.010   4.321   2.124
 3080SOL     OW10138   3.173   5.110   1.408
 3080SOL    HW110139   3.181   5.020   1.452
 3080SOL    HW210140   3.175   5.098   1.309
 3081SOL     OW10141   2.020   2.383   5.979
 3081SOL    HW110142   2.062   2.450   6.041
 3081SOL    HW210143   2.011   2.295   6.026
 3082SOL     OW10144   6.476   3.489   4.626
 3082SOL    HW110145   6.529   3.482   4.710
 3082SOL    HW210146   6.385   3.450   4.640
 3083SOL     OW10147   4.469   5.596   1.910
 3083SOL    HW110148   4.396   5.639   1.856
 3083SOL    HW210149   4.555   5.645   1.896
 3084SOL     OW10150   0.369   5.519   4.300
 3084SOL    HW110151   0.404   5.517   4.393
 3084SOL    HW210152   0.440   5.488   4.237
 3085SOL     OW10153   6.820   5.794   5.364
 3085SOL    HW110154   6.722   5.802   5.379
 3085SOL    HW210155   6.863   5.884   5.372
 3086SOL     OW10156   6.066   6.467   6.098
 3086SOL    HW110157   6.031   6.379   6.064
 3086SOL    HW210158   6.099   6.521   6.020
 3087SOL     OW10159   3.038   0.371   1.612
 3087SOL    HW110160   2.963   0.336   1.669
 3087SOL    HW210161   3.106   0.299   1.600
 3088SOL     OW10162   2.337   2.955   5.413
 3088SOL    HW110163   2.308   3.049   5.430
 3088SOL    HW210164   2.400   2.953   5.335
 3089SOL     OW10165   4.115   6.796   0.304
 3089SOL    HW110166   4.057   6.730   0.352
 3089SOL    HW210167   4.195   6.749   0.267
 3090SOL     OW10168   0.562   2.109   2.874
 3090SOL    HW110169   0.632   2.175   2.845
 3090SOL    HW210170   0.522   2.139   2.960
 3091SOL     OW10171   1.237   1.884   5.413
 3091SOL    HW110172   1.287   1.949   5.355
 3091SOL    HW210173   1.235   1.918   5.507
 3092SOL     OW10174   5.262   1.871   3.835
 3092SOL    HW110175   5.232   1.792   3.782
 3092SOL    HW210176   5.216   1.953   3.802
 3093SOL     OW10177   6.066   5.762   0.192
 3093SOL    HW110178   6.009   5.843   0.181
 3093SOL    HW210179   6.045   5.697   0.119
 3094SOL     OW10180   2.145   1.031   6.404
 3094SOL    HW110181   2.173   0.995   6.315
 3094SOL    HW210182   2.109   1.124   6.392
 3095SOL     OW10183   1.718   3.564   6.058
 3095SOL    HW110184   1.737   3.537   6.153
 3095SOL    HW210185   1.695   3.483   6.004
 3096SOL     OW10186   2.104   3.611   3.520
 3096SOL    HW110187   2.144   3.654   3.601
 3096SOL    HW210188   2.007   3.591   3.537
 3097SOL     OW10189   5.145   2.352   6.512
 3097SOL    HW110190   5.205   2.347   6.592
 3097SOL    HW210191   5.198   2.384   6.433
 3098SOL     OW10192   1.958   4.088   2.603
 3098SOL    HW110193   1.891   4.047   2.665
 3098SOL    HW210194   1.937   4.061   2.509
 3099SOL     OW10195   0.147   0.882   5.999
 3099SOL    HW110196   0.131   0.947   5.925
 3099SOL    HW210197   0.223   0.822   5.975
 3100SOL     OW10198   5.709   3.981   2.964
 3100SOL    HW110199   5.615   3.987   2.998
 3100SOL    HW210200   5.724   3.890   2.925
 3101SOL     OW10201   4.707   0.361   4.335
 3101SOL    HW110202   4.641   0.398   4.400
 3101SOL    HW210203   4.795   0.348   4.381
 3102SOL     OW10204   5.541   3.019   3.132
 3102SOL    HW110205   5.617   2.968   3.092
 3102SOL    HW210206   5.577   3.097   3.184
 3103SOL     OW10207   1.299   1.090   2.390
 3103SOL    HW110208   1.345   1.010   2.428
 3103SOL    HW210209   1.314   1.094   2.291
 3104SOL     OW10210   5.943   1.407   6.079
 3104SOL    HW110211   6.008   1.434   6.150
 3104SOL    HW210212   5.925   1.309   6.085
 3105SOL     OW10213   5.600   4.618   0.387
 3105SOL    HW110214   5.700   4.611   0.385
 3105SOL    HW210215   5.560   4.532   0.354
 3106SOL     OW10216   5.426   1.647   5.654
 3106SOL    HW110217   5.384   1.612   5.738
 3106SOL    HW210218   5.358   1.697   5.601
 3107SOL     OW10219   4.345   1.830   4.544
 3107SOL    HW110220   4.288   1.864   4.469
 3107SOL    HW210221   4.383   1.741   4.518
 3108SOL     OW10222   2.449   4.959   4.274
 3108SOL    HW110223   2.493   4.885   4.326
 3108SOL    HW210224   2.409   4.922   4.190
 3109SOL     OW10225   0.162   5.275   4.268
 3109SOL    HW110226   0.130   5.322   4.186
 3109SOL    HW210227   0.262   5.283   4.273
 3110SOL     OW10228   1.871   5.255   3.649
 3110SOL    HW110229   1.863   5.200   3.733
 3110SOL    HW210230   1.808   5.333   3.654
 3111SOL     OW10231   6.846   3.651   4.038
 3111SOL    HW110232   6.935   3.635   4.080
 3111SOL    HW210233   6.778   3.668   4.110
 3112SOL     OW10234   4.230   0.020   0.720
 3112SOL    HW110235   4.199   6.952   0.695
 3112SOL    HW210236   4.283   0.015   0.805
 3113SOL     OW10237   1.453   6.286   3.508
 3113SOL    HW110238   1.446   6.297   3.408
 3113SOL    HW210239   1.364   6.262   3.545
 3114SOL     OW10240   5.225   5.184   5.228
 3114SOL    HW110241   5.194   5.138   5.311
 3114SOL    HW210242   5.285   5.122   5.177
 3115SOL     OW10243   5.311   5.698   4.600
 3115SOL    HW110244   5.255   5.615   4.592
 3115SOL    HW210245   5.339   5.728   4.509
 3116SOL     OW10246   0.898   2.552   6.182
 3116SOL    HW110247   0.835   2.587   6.251
 3116SOL    HW210248   0.947   2.628   6.140
 3117SOL     OW10249   4.368   0.067   2.117
 3117SOL    HW110250   4.288   0.109   2.160
 3117SOL    HW210251   4.340   7.007   2.070
 3118SOL     OW10252   0.610   1.939   3.603
 3118SOL    HW110253   0.517   1.923   3.570
 3118SOL    HW210254   0.676   1.899   3.539
 3119SOL     OW10255   4.364   6.356   3.279
 3119SOL    HW110256   4.310   6.272   3.278
 3119SOL    HW210257   4.308   6.433   3.249
 3120SOL     OW10258   3.778   6.411   6.454
 3120SOL    HW110259   3.805   6.498   6.494
 3120SOL    HW210260   3.764   6.343   6.527
 3121SOL     OW10261   3.999   1.487   2.943
 3121SOL    HW110262   4.049   1.505   3.027
 3121SOL    HW210263   4.062   1.490   2.865
 3122SOL     OW10264   5.475   3.464   6.775
 3122SOL    HW110265   5.543   3.393   6.793
 3122SOL    HW210266   5.509   3.552   6.809
 3123SOL     OW10267   2.096   3.175   2.795
 3123SOL    HW110268   2.063   3.117   2.721
 3123SOL    HW210269   2.114   3.267   2.760
 3124SOL     OW10270   5.077   7.015   5.352
 3124SOL    HW110271   5.068   0.008   5.450
 3124SOL    HW210272   4.993   6.972   5.318
 3125SOL     OW10273   2.175   1.605   4.923
 3125SOL    HW110274   2.109   1.548   4.971
 3125SOL    HW210275   2.168   1.589   4.825
 3126SOL     OW10276   5.520   4.195   4.818
 3126SOL    HW110277   5.551   4.252   4.742
 3126SOL    HW210278   5.500   4.103   4.785
 3127SOL     OW10279   6.447   2.271   6.399
 3127SOL    HW110280   6.540   2.263   6.363
 3127SOL    HW210281   6.446   2.342   6.470
 3128SOL     OW10282   4.428   2.131   1.657
 3128SOL    HW110283   4.379   2.111   1.742
 3128SOL    HW210284   4.526   2.116   1.670
 3129SOL     OW10285   4.378   4.767   0.085
 3129SOL    HW110286   4.395   4.668   0.089
 3129SOL    HW210287   4.289   4.788   0.126
 3130SOL     OW10288   6.394   5.129   2.936
 3130SOL    HW110289   6.453   5.209   2.933
 3130SOL    HW210290   6.356   5.118   3.028
 3131SOL     OW10291   0.203   2.448   3.351
 3131SOL    HW110292   0.190   2.385   3.274
 3131SOL    HW210293   0.255   2.402   3.422
 3132SOL     OW10294   4.616   3.973   5.875
 3132SOL    HW110295   4.652   4.030   5.948
 3132SOL    HW210296   4.692   3.938   5.820
 3133SOL     OW10297   5.737   6.650   4.394
 3133SOL    HW110298   5.723   6.565   4.444
 3133SOL    HW210299   5.773   6.720   4.456
 3134SOL     OW10300   3.954   5.162   3.095
 3134SOL    HW110301   3.915   5.251   3.071
 3134SOL    HW210302   4.033   5.144   3.037
 3135SOL     OW10303   4.198   1.076   5.981
 3135SOL    HW110304   4.209   1.136   5.901
 3135SOL    HW210305   4.131   1.005   5.961
 3136SOL     OW10306   6.055   5.650   2.139
 3136SOL    HW110307   6.151   5.672   2.157
 3136SOL    HW210308   6.042   5.551   2.146
 3137SOL     OW10309   5.022   3.760   0.102
 3137SOL    HW110310   5.104   3.817   0.096
 3137SOL    HW210311   4.969   3.767   0.017
 3138SOL     OW10312   6.811   6.408   5.263
 3138SOL    HW110313   6.891   6.408   5.324
 3138SOL    HW210314   6.737   6.460   5.305
 3139SOL     OW10315   1.275   4.927   2.094
 3139SOL    HW110316   1.349   4.936   2.161
 3139SOL    HW210317   1.314   4.915   2.003
 3140SOL     OW10318   4.882   5.598   6.725
 3140SOL    HW110319   4.970   5.580   6.681
 3140SOL    HW210320   4.859   5.694   6.715
 3141SOL     OW10321   6.106   2.022   0.180
 3141SOL    HW110322   6.128   2.022   0.277
 3141SOL    HW210323   6.077   2.113   0.152
 3142SOL     OW10324   4.155   0.963   4.016
 3142SOL    HW110325   4.166   0.892   3.946
 3142SOL    HW210326   4.183   0.927   4.105
 3143SOL     OW10327   6.212   1.399   6.901
 3143SOL    HW110328   6.165   1.368   6.818
 3143SOL    HW210329   6.163   1.478   6.939
 3144SOL     OW10330   3.730   5.157   6.538
 3144SOL    HW110331   3.827   5.168   6.521
 3144SOL    HW210332   3.690   5.245   6.563
 3145SOL     OW10333   0.630   5.689   5.622
 3145SOL    HW110334   0.583   5.668   5.536
 3145SOL    HW210335   0.662   5.783   5.621
 3146SOL     OW10336   6.878   1.481   4.152
 3146SOL    HW110337   6.927   1.559   4.112
 3146SOL    HW210338   6.877   1.405   4.087
 3147SOL     OW10339   5.096   6.912   0.634
 3147SOL    HW110340   5.009   6.946   0.599
 3147SOL    HW210341   5.146   6.987   0.678
 3148SOL     OW10342   5.553   4.997   0.425
 3148SOL    HW110343   5.531   4.953   0.511
 3148SOL    HW210344   5.643   4.967   0.394
 3149SOL     OW10345   4.356   2.999   6.877
 3149SOL    HW110346   4.431   2.994   6.943
 3149SOL    HW210347   4.281   3.053   6.916
 3150SOL     OW10348   7.017   0.236   5.356
 3150SOL    HW110349   0.040   0.184   5.285
 3150SOL    HW210350   0.024   0.207   5.446
 3151SOL     OW10351   0.231   1.832   6.725
 3151SOL    HW110352   0.175   1.803   6.647
 3151SOL    HW210353   0.328   1.815   6.705
 3152SOL     OW10354   2.463   1.719   6.101
 3152SOL    HW110355   2.436   1.785   6.171
 3152SOL    HW210356   2.508   1.767   6.026
 3153SOL     OW10357   5.732   5.599   1.563
 3153SOL    HW110358   5.768   5.689   1.590
 3153SOL    HW210359   5.780   5.527   1.612
 3154SOL     OW10360   3.456   2.214   0.566
 3154SOL    HW110361   3.553   2.238   0.559
 3154SOL    HW210362   3.408   2.284   0.619
 3155SOL     OW10363   6.544   6.158   6.552
 3155SOL    HW110364   6.643   6.150   6.543
 3155SOL    HW210365   6.517   6.253   6.536
 3156SOL     OW10366   2.619   4.427   0.776
 3156SOL    HW110367   2.593   4.472   0.862
 3156SOL    HW210368   2.718   4.419   0.771
 3157SOL     OW10369   1.452   1.216   3.066
 3157SOL    HW110370   1.493   1.227   3.157
 3157SOL    HW210371   1.357   1.187   3.076
 3158SOL     OW10372   2.071   0.453   6.013
 3158SOL    HW110373   1.982   0.452   5.969
 3158SOL    HW210374   2.084   0.368   6.064
 3159SOL     OW10375   4.656   5.526   1.295
 3159SOL    HW110376   4.572   5.472   1.303
 3159SOL    HW210377   4.681   5.563   1.384
 3160SOL     OW10378   2.450   1.094   5.767
 3160SOL    HW110379   2.531   1.094   5.827
 3160SOL    HW210380   2.457   1.018   5.702
 3161SOL     OW10381   1.969   2.399   2.090
 3161SOL    HW110382   2.012   2.390   2.180
 3161SOL    HW210383   2.037   2.382   2.019
 3162SOL     OW10384   1.553   5.815   2.373
 3162SOL    HW110385   1.599   5.729   2.351
 3162SOL    HW210386   1.475   5.797   2.432
 3163SOL     OW10387   5.336   4.614   1.598
 3163SOL    HW110388   5.263   4.548   1.616
 3163SOL    HW210389   5.300   4.707   1.605
 3164SOL     OW10390   2.325   6.996   3.223
 3164SOL    HW110391   2.240   7.006   3.276
 3164SOL    HW210392   2.303   6.972   3.129
 3165SOL     OW10393   0.329   5.367   6.861
 3165SOL    HW110394   0.399   5.330   6.800
 3165SOL    HW210395   0.343   5.466   6.872
 3166SOL     OW10396   3.731   2.032   4.723
 3166SOL    HW110397   3.646   2.034   4.776
 3166SOL    HW210398   3.790   2.108   4.752
 3167SOL     OW10399   6.334   2.923   2.803
 3167SOL    HW110400   6.299   3.005   2.758
 3167SOL    HW210401   6.399   2.877   2.742
 3168SOL     OW10402   5.463   1.508   0.834
 3168SOL    HW110403   5.460   1.603   0.803
 3168SOL    HW210404   5.379   1.486   0.882
 3169SOL     OW10405   1.050   2.548   2.104
 3169SOL    HW110406   1.055   2.473   2.170
 3169SOL    HW210407   1.014   2.514   2.018
 3170SOL     OW10408   2.356   4.855   4.049
 3170SOL    HW110409   2.265   4.837   4.011
 3170SOL    HW210410   2.405   4.918   3.988
 3171SOL     OW10411   6.291   1.908   4.595
 3171SOL    HW110412   6.318   2.004   4.601
 3171SOL    HW210413   6.258   1.877   4.684
 3172SOL     OW10414   5.912   4.237   1.167
 3172SOL    HW110415   5.974   4.291   1.225
 3172SOL    HW210416   5.850   4.299   1.118
 3173SOL     OW10417   5.475   4.358   0.364
 3173SOL    HW110418   5.482   4.300   0.283
 3173SOL    HW210419   5.388   4.342   0.410
 3174SOL     OW10420   2.863   2.895   0.134
 3174SOL    HW110421   2.850   2.937   0.044
 3174SOL    HW210422   2.791   2.926   0.196
 3175SOL     OW10423   5.731   5.962   5.573
 3175SOL    HW110424   5.744   6.057   5.604
 3175SOL    HW210425   5.819   5.925   5.542
 3176SOL     OW10426   6.814   5.267   3.996
 3176SOL    HW110427   6.738   5.202   4.003
 3176SOL    HW210428   6.900   5.220   4.018
 3177SOL     OW10429   5.534   2.421   1.503
 3177SOL    HW110430   5.488   2.385   1.421
 3177SOL    HW210431   5.469   2.424   1.579
 3178SOL     OW10432   1.661   0.570   2.279
 3178SOL    HW110433   1.677   0.665   2.305
 3178SOL    HW210434   1.583   0.534   2.329
 3179SOL     OW10435   0.595   4.236   2.854
 3179SOL    HW110436   0.647   4.318   2.830
 3179SOL    HW210437   0.656   4.168   2.894
 3180SOL     OW10438   6.211   0.078   6.468
 3180SOL    HW110439   6.143   0.037   6.407
 3180SOL    HW210440   6.175   0.081   6.561
 3181SOL     OW10441   6.829   6.925   4.540
 3181SOL    HW110442   6.839   6.918   4.640
 3181SOL    HW210443   6.870   7.011   4.510
 3182SOL     OW10444   1.379   6.819   1.444
 3182SOL    HW110445   1.449   6.890   1.439
 3182SOL    HW210446   1.331   6.826   1.532
 3183SOL     OW10447   4.263   3.987   0.173
 3183SOL    HW110448   4.165   3.974   0.156
 3183SOL    HW210449   4.281   4.083   0.194
 3184SOL     OW10450   6.550   0.624   4.652
 3184SOL    HW110451   6.545   0.524   4.658
 3184SOL    HW210452   6.466   0.664   4.687
 3185SOL     OW10453   0.973   1.025   6.330
 3185SOL    HW110454   1.053   0.964   6.329
 3185SOL    HW210455   0.920   1.010   6.246
 3186SOL     OW10456   0.811   1.927   5.993
 3186SOL    HW110457   0.715   1.906   5.973
 3186SOL    HW210458   0.816   1.985   6.074
 3187SOL     OW10459   4.973   0.260   3.638
 3187SOL    HW110460   5.033   0.204   3.581
 3187SOL    HW210461   5.005   0.355   3.636
 3188SOL     OW10462   1.101   6.010   1.314
 3188SOL    HW110463   1.133   6.055   1.398
 3188SOL    HW210464   1.078   6.079   1.246
 3189SOL     OW10465   2.520   2.041   5.463
 3189SOL    HW110466   2.472   2.048   5.376
 3189SOL    HW210467   2.612   2.080   5.454
 3190SOL     OW10468   6.636   6.224   4.650
 3190SOL    HW110469   6.549   6.251   4.690
 3190SOL    HW210470   6.710   6.277   4.692
 3191SOL     OW10471   3.998   5.134   0.629
 3191SOL    HW110472   4.010   5.202   0.557
 3191SOL    HW210473   4.054   5.159   0.708
 3192SOL     OW10474   5.402   0.755   3.384
 3192SOL    HW110475   5.461   0.833   3.405
 3192SOL    HW210476   5.456   0.671   3.387
 3193SOL     OW10477   3.617   5.799   4.557
 3193SOL    HW110478   3.594   5.844   4.470
 3193SOL    HW210479   3.580   5.706   4.558
 3194SOL     OW10480   2.451   6.199   6.226
 3194SOL    HW110481   2.408   6.230   6.311
 3194SOL    HW210482   2.391   6.133   6.181
 3195SOL     OW10483   0.179   5.846   1.399
 3195SOL    HW110484   0.169   5.757   1.355
 3195SOL    HW210485   0.126   5.848   1.483
 3196SOL     OW10486   5.495   0.492   3.299
 3196SOL    HW110487   5.559   0.426   3.339
 3196SOL    HW210488   5.532   0.525   3.213
 3197SOL     OW10489   3.196   0.812   0.007
 3197SOL    HW110490   3.161   0.806   6.938
 3197SOL    HW210491   3.200   0.909   0.034
 3198SOL     OW10492   5.927   4.083   4.219
 3198SOL    HW110493   5.927   4.040   4.129
 3198SOL    HW210494   5.845   4.055   4.269
 3199SOL     OW10495   5.341   3.143   4.137
 3199SOL    HW110496   5.362   3.231   4.181
 3199SOL    HW210497   5.281   3.159   4.058
 3200SOL     OW10498   6.762   3.151   4.991
 3200SOL    HW110499   6.729   3.076   5.049
 3200SOL    HW210500   6.705   3.158   4.909
 3201SOL     OW10501   6.098   3.333   2.381
 3201SOL    HW110502   6.087   3.283   2.296
 3201SOL    HW210503   6.016   3.387   2.399
 3202SOL     OW10504   2.963   3.030   6.120
 3202SOL    HW110505   2.887   3.079   6.075
 3202SOL    HW210506   3.047   3.083   6.111
 3203SOL     OW10507   3.394   6.616   1.607
 3203SOL    HW110508   3.362   6.528   1.642
 3203SOL    HW210509   3.409   6.679   1.683
 3204SOL     OW10510   5.217   0.409   3.299
 3204SOL    HW110511   5.149   0.481   3.291
 3204SOL    HW210512   5.308   0.449   3.311
 3205SOL     OW10513   5.330   2.894   0.521
 3205SOL    HW110514   5.369   2.978   0.483
 3205SOL    HW210515   5.375   2.874   0.608
 3206SOL     OW10516   3.608   5.039   0.113
 3206SOL    HW110517   3.520   4.998   0.138
 3206SOL    HW210518   3.676   4.967   0.100
 3207SOL     OW10519   1.977   6.029   3.044
 3207SOL    HW110520   1.965   6.099   2.974
 3207SOL    HW210521   1.905   6.037   3.113
 3208SOL     OW10522   0.012   3.730   6.947
 3208SOL    HW110523   0.061   3.750   0.008
 3208SOL    HW210524   0.006   3.631   6.935
 3209SOL     OW10525   5.322   6.957   5.188
 3209SOL    HW110526   5.421   6.954   5.201
 3209SOL    HW210527   5.282   7.019   5.255
 3210SOL     OW10528   4.652   5.001   2.455
 3210SOL    HW110529   4.750   5.008   2.437
 3210SOL    HW210530   4.637   4.957   2.543
 3211SOL     OW10531   2.722   0.185   6.904
 3211SOL    HW110532   2.640   0.178   6.849
 3211SOL    HW210533   2.700   0.170   7.000
 3212SOL     OW10534   3.917   6.814   4.044
 3212SOL    HW110535   3.945   6.866   4.124
 3212SOL    HW210536   3.985   6.825   3.971
 3213SOL     OW10537   0.965   0.211   5.881
 3213SOL    HW110538   1.033   0.207   5.954
 3213SOL    HW210539   0.924   0.302   5.878
 3214SOL     OW10540   2.233   6.964   2.964
 3214SOL    HW110541   2.227   0.038   2.946
 3214SOL    HW210542   2.164   6.916   2.911
 3215SOL     OW10543   2.172   3.335   1.709
 3215SOL    HW110544   2.224   3.396   1.769
 3215SOL    HW210545   2.075   3.338   1.735
 3216SOL     OW10546   6.998   4.148   1.302
 3216SOL    HW110547   0.041   4.076   1.319
 3216SOL    HW210548   6.994   4.210   1.381
 3217SOL     OW10549   6.223   5.794   3.804
 3217SOL    HW110550   6.193   5.828   3.893
 3217SOL    HW210551   6.146   5.791   3.741
 3218SOL     OW10552   5.900   1.365   3.483
 3218SOL    HW110553   5.960   1.425   3.536
 3218SOL    HW210554   5.950   1.332   3.402
 3219SOL     OW10555   4.850   2.053   4.382
 3219SOL    HW110556   4.751   2.050   4.387
 3219SOL    HW210557   4.881   2.146   4.361
 3220SOL     OW10558   7.009   3.663   5.355
 3220SOL    HW110559   6.911   3.671   5.339
 3220SOL    HW210560   0.006   3.686   5.450
 3221SOL     OW10561   4.215   1.751   2.361
 3221SOL    HW110562   4.135   1.744   2.302
 3221SOL    HW210563   4.253   1.844   2.356
 3222SOL     OW10564   2.802   0.852   3.374
 3222SOL    HW110565   2.880   0.873   3.433
 3222SOL    HW210566   2.717   0.877   3.419
 3223SOL     OW10567   1.685   5.763   0.626
 3223SOL    HW110568   1.662   5.849   0.580
 3223SOL    HW210569   1.732   5.783   0.712
 3224SOL     OW10570   4.499   2.528   3.664
 3224SOL    HW110571   4.506   2.603   3.598
 3224SOL    HW210572   4.568   2.540   3.735
 3225SOL     OW10573   3.675   0.884   5.099
 3225SOL    HW110574   3.664   0.906   5.002
 3225SOL    HW210575   3.602   0.927   5.152
 3226SOL     OW10576   5.602   0.991   0.120
 3226SOL    HW110577   5.682   0.951   0.076
 3226SOL    HW210578   5.557   0.921   0.177
 3227SOL     OW10579   6.143   4.152   5.850
 3227SOL    HW110580   6.047   4.171   5.831
 3227SOL    HW210581   6.166   4.061   5.814
 3228SOL     OW10582   1.865   4.445   0.831
 3228SOL    HW110583   1.934   4.504   0.874
 3228SOL    HW210584   1.775   4.467   0.867
 3229SOL     OW10585   1.078   0.784   0.589
 3229SOL    HW110586   1.052   0.853   0.657
 3229SOL    HW210587   1.122   0.707   0.636
 3230SOL     OW10588   3.161   6.241   5.304
 3230SOL    HW110589   3.116   6.152   5.297
 3230SOL    HW210590   3.116   6.296   5.375
 3231SOL     OW10591   2.854   2.069   2.536
 3231SOL    HW110592   2.857   2.131   2.457
 3231SOL    HW210593   2.930   2.091   2.598
 3232SOL     OW10594   3.175   4.875   3.783
 3232SOL    HW110595   3.093   4.879   3.840
 3232SOL    HW210596   3.155   4.824   3.700
 3233SOL     OW10597   2.544   0.284   5.434
 3233SOL    HW110598   2.579   0.210   5.376
 3233SOL    HW210599   2.460   0.321   5.394
 3234SOL     OW10600   3.721   3.840   0.684
 3234SOL    HW110601   3.714   3.870   0.779
 3234SOL    HW210602   3.791   3.894   0.637
 3235SOL     OW10603   0.285   2.077   2.970
 3235SOL    HW110604   0.289   2.117   2.878
 3235SOL    HW210605   0.228   2.135   3.028
 3236SOL     OW10606   6.020   6.491   0.759
 3236SOL    HW110607   6.111   6.515   0.724
 3236SOL    HW210608   5.965   6.574   0.766
 3237SOL     OW10609   6.233   2.345   5.725
 3237SOL    HW110610   6.201   2.298   5.642
 3237SOL    HW210611   6.306   2.409   5.701
 3238SOL     OW10612   0.631   4.868   1.124
 3238SOL    HW110613   0.565   4.825   1.186
 3238SOL    HW210614   0.583   4.921   1.055
 3239SOL     OW10615   6.309   1.308   5.095
 3239SOL    HW110616   6.348   1.253   5.021
 3239SOL    HW210617   6.271   1.393   5.058
 3240SOL     OW10618   0.908   2.094   1.421
 3240SOL    HW110619   0.906   2.194   1.420
 3240SOL    HW210620   0.830   2.059   1.473
 3241SOL     OW10621   6.999   2.784   5.484
 3241SOL    HW110622   6.962   2.749   5.397
 3241SOL    HW210623   0.040   2.857   5.465
 3242SOL     OW10624   0.302   4.856   5.322
 3242SOL    HW110625   0.280   4.760   5.305
 3242SOL    HW210626   0.266   4.884   5.411
 3243SOL     OW10627   6.401   5.085   5.220
 3243SOL    HW110628   6.454   5.053   5.142
 3243SOL    HW210629   6.382   5.008   5.281
 3244SOL     OW10630   5.021   0.130   0.018
 3244SOL    HW110631   5.056   0.061   6.978
 3244SOL    HW210632   5.071   0.125   0.104
 3245SOL     OW10633   2.144   6.361   4.477
 3245SOL    HW110634   2.242   6.363   4.499
 3245SOL    HW210635   2.116   6.266   4.462
 3246SOL     OW10636   6.165   5.398   2.631
 3246SOL    HW110637   6.140   5.329   2.699
 3246SOL    HW210638   6.170   5.355   2.540
 3247SOL     OW10639   2.165   4.323   4.794
 3247SOL    HW110640   2.177   4.319   4.893
 3247SOL    HW210641   2.210   4.244   4.752
 3248SOL     OW10642   6.103   2.424   3.869
 3248SOL    HW110643   6.096   2.420   3.770
 3248SOL    HW210644   6.014   2.406   3.910
 3249SOL     OW10645   3.840   4.027   4.298
 3249SOL    HW110646   3.914   3.993   4.356
 3249SOL    HW210647   3.765   4.060   4.355
 3250SOL     OW10648   4.493   5.613   3.319
 3250SOL    HW110649   4.519   5.671   3.241
 3250SOL    HW210650   4.573   5.561   3.349
 3251SOL     OW10651   1.846   2.159   2.188
 3251SOL    HW110652   1.896   2.239   2.154
 3251SOL    HW210653   1.763   2.189   2.234
 3252SOL     OW10654   1.574   1.522   2.460
 3252SOL    HW110655   1.534   1.442   2.504
 3252SOL    HW210656   1.572   1.600   2.524
 3253SOL     OW10657   6.493   3.257   0.927
 3253SOL    HW110658   6.535   3.319   0.860
 3253SOL    HW210659   6.461   3.309   1.006
 3254SOL     OW10660   6.021   7.009   0.753
 3254SOL    HW110661   6.077   0.068   0.754
 3254SOL    HW210662   5.926   0.008   0.775
 3255SOL     OW10663   3.759   4.923   2.112
 3255SOL    HW110664   3.698   4.858   2.066
 3255SOL    HW210665   3.740   5.015   2.079
 3256SOL     OW10666   5.813   2.155   2.068
 3256SOL    HW110667   5.772   2.244   2.050
 3256SOL    HW210668   5.793   2.093   1.992
 3257SOL     OW10669   2.581   1.380   2.620
 3257SOL    HW110670   2.497   1.354   2.667
 3257SOL    HW210671   2.621   1.461   2.665
 3258SOL     OW10672   0.456   5.149   4.237
 3258SOL    HW110673   0.456   5.192   4.327
 3258SOL    HW210674   0.549   5.148   4.200
 3259SOL     OW10675   6.149   5.240   3.388
 3259SOL    HW110676   6.230   5.182   3.385
 3259SOL    HW210677   6.119   5.251   3.482
 3260SOL     OW10678   2.702   4.709   3.783
 3260SOL    HW110679   2.656   4.760   3.710
 3260SOL    HW210680   2.801   4.714   3.770
 3261SOL     OW10681   6.093   6.827   4.165
 3261SOL    HW110682   6.050   6.738   4.158
 3261SOL    HW210683   6.141   6.835   4.252
 3262SOL     OW10684   2.788   1.636   2.445
 3262SOL    HW110685   2.750   1.693   2.372
 3262SOL    HW210686   2.800   1.692   2.527
 3263SOL     OW10687   5.784   0.228   1.736
 3263SOL    HW110688   5.693   0.210   1.773
 3263SOL    HW210689   5.779   0.236   1.637
 3264SOL     OW10690   1.154   5.124   6.685
 3264SOL    HW110691   1.065   5.158   6.654
 3264SOL    HW210692   1.227   5.167   6.632
 3265SOL     OW10693   6.679   5.890   5.742
 3265SOL    HW110694   6.704   5.955   5.670
 3265SOL    HW210695   6.622   5.818   5.703
 3266SOL     OW10696   3.648   4.693   6.213
 3266SOL    HW110697   3.713   4.618   6.198
 3266SOL    HW210698   3.699   4.777   6.229
 3267SOL     OW10699   3.275   0.144   0.255
 3267SOL    HW110700   3.244   0.238   0.269
 3267SOL    HW210701   3.309   0.108   0.342
 3268SOL     OW10702   5.645   4.198   2.829
 3268SOL    HW110703   5.658   4.116   2.885
 3268SOL    HW210704   5.720   4.262   2.846
 3269SOL     OW10705   2.021   5.757   0.686
 3269SOL    HW110706   2.119   5.760   0.704
 3269SOL    HW210707   2.003   5.789   0.593
 3270SOL     OW10708   2.046   3.050   6.408
 3270SOL    HW110709   2.081   3.116   6.342
 3270SOL    HW210710   2.074   3.076   6.500
 3271SOL     OW10711   0.895   4.219   1.461
 3271SOL    HW110712   0.879   4.150   1.390
 3271SOL    HW210713   0.986   4.205   1.500
 3272SOL     OW10714   3.731   0.175   0.502
 3272SOL    HW110715   3.801   0.120   0.457
 3272SOL    HW210716   3.773   0.256   0.543
 3273SOL     OW10717   4.462   3.640   6.784
 3273SOL    HW110718   4.429   3.573   6.851
 3273SOL    HW210719   4.424   3.730   6.806
 3274SOL     OW10720   4.646   0.093   2.206
 3274SOL    HW110721   4.733   0.089   2.156
 3274SOL    HW210722   4.572   0.063   2.146
 3275SOL     OW10723   4.956   0.514   1.534
 3275SOL    HW110724   5.022   0.581   1.569
 3275SOL    HW210725   4.881   0.504   1.599
 3276SOL     OW10726   5.933   6.003   0.115
 3276SOL    HW110727   5.946   6.102   0.113
 3276SOL    HW210728   5.862   5.980   0.182
 3277SOL     OW10729   4.664   1.163   2.338
 3277SOL    HW110730   4.711   1.160   2.250
 3277SOL    HW210731   4.676   1.076   2.386
 3278SOL     OW10732   4.975   1.112   6.629
 3278SOL    HW110733   4.952   1.172   6.551
 3278SOL    HW210734   5.064   1.070   6.614
 3279SOL     OW10735   4.166   0.158   2.288
 3279SOL    HW110736   4.102   0.100   2.338
 3279SOL    HW210737   4.176   0.245   2.336
 3280SOL     OW10738   0.112   2.457   4.248
 3280SOL    HW110739   0.199   2.506   4.258
 3280SOL    HW210740   0.067   2.488   4.164
 3281SOL     OW10741   6.121   2.638   2.012
 3281SOL    HW110742   6.145   2.735   2.011
 3281SOL    HW210743   6.167   2.591   1.938
 3282SOL     OW10744   6.712   4.991   5.004
 3282SOL    HW110745   6.779   4.919   4.987
 3282SOL    HW210746   6.721   5.024   5.098
 3283SOL     OW10747   3.595   1.216   0.547
 3283SOL    HW110748   3.515   1.277   0.541
 3283SOL    HW210749   3.567   1.129   0.588
 3284SOL     OW10750   2.282   0.881   5.657
 3284SOL    HW110751   2.235   0.806   5.610
 3284SOL    HW210752   2.229   0.909   5.737
 3285SOL     OW10753   4.235   1.449   4.301
 3285SOL    HW110754   4.191   1.499   4.227
 3285SOL    HW210755   4.291   1.512   4.356
 3286SOL     OW10756   1.225   3.971   3.248
 3286SOL    HW110757   1.219   3.878   3.284
 3286SOL    HW210758   1.216   3.970   3.149
 3287SOL     OW10759   3.285   1.154   0.518
 3287SOL    HW110760   3.311   1.184   0.610
 3287SOL    HW210761   3.281   1.232   0.457
 3288SOL     OW10762   2.847   5.427   1.651
 3288SOL    HW110763   2.876   5.335   1.623
 3288SOL    HW210764   2.747   5.430   1.656
 3289SOL     OW10765   5.211   0.177   0.517
 3289SOL    HW110766   5.303   0.201   0.550
 3289SOL    HW210767   5.158   0.260   0.502
 3290SOL     OW10768   0.780   4.094   0.011
 3290SOL    HW110769   0.684   4.120   0.011
 3290SOL    HW210770   0.799   4.038   6.954
 3291SOL     OW10771   4.857   6.770   5.713
 3291SOL    HW110772   4.843   6.746   5.809
 3291SOL    HW210773   4.908   6.697   5.668
 3292SOL     OW10774   0.384   2.945   1.182
 3292SOL    HW110775   0.301   2.997   1.158
 3292SOL    HW210776   0.393   2.867   1.120
 3293SOL     OW10777   6.641   4.581   2.451
 3293SOL    HW110778   6.595   4.558   2.365
 3293SOL    HW210779   6.572   4.610   2.519
 3294SOL     OW10780   4.149   2.824   5.542
 3294SOL    HW110781   4.135   2.921   5.522
 3294SOL    HW210782   4.216   2.786   5.479
 3295SOL     OW10783   1.073   3.476   3.400
 3295SOL    HW110784   1.136   3.436   3.466
 3295SOL    HW210785   1.057   3.411   3.325
 3296SOL     OW10786   2.321   0.645   0.149
 3296SOL    HW110787   2.303   0.699   0.067
 3296SOL    HW210788   2.240   0.647   0.208
 3297SOL     OW10789   2.974   0.854   5.928
 3297SOL    HW110790   2.945   0.895   5.842
 3297SOL    HW210791   3.052   0.904   5.964
 3298SOL     OW10792   4.113   3.871   6.304
 3298SOL    HW110793   4.057   3.840   6.227
 3298SOL    HW210794   4.210   3.860   6.280
 3299SOL     OW10795   2.460   6.740   4.268
 3299SOL    HW110796   2.437   6.643   4.268
 3299SOL    HW210797   2.555   6.752   4.237
 3300SOL     OW10798   1.789   1.069   3.083
 3300SOL    HW110799   1.741   0.982   3.070
 3300SOL    HW210800   1.750   1.138   3.022
 3301SOL     OW10801   1.339   0.566   2.127
 3301SOL    HW110802   1.382   0.503   2.192
 3301SOL    HW210803   1.369   0.659   2.146
 3302SOL     OW10804   1.546   4.894   4.836
 3302SOL    HW110805   1.520   4.802   4.867
 3302SOL    HW210806   1.464   4.948   4.818
 3303SOL     OW10807   4.397   3.833   0.537
 3303SOL    HW110808   4.364   3.774   0.463
 3303SOL    HW210809   4.321   3.855   0.598
 3304SOL     OW10810   2.454   4.125   0.669
 3304SOL    HW110811   2.547   4.141   0.704
 3304SOL    HW210812   2.457   4.056   0.596
 3305SOL     OW10813   3.210   2.749   0.001
 3305SOL    HW110814   3.197   2.832   0.055
 3305SOL    HW210815   3.266   2.770   6.945
 3306SOL     OW10816   2.777   0.583   0.867
 3306SOL    HW110817   2.829   0.644   0.926
 3306SOL    HW210818   2.839   0.516   0.826
 3307SOL     OW10819   2.038   5.588   4.999
 3307SOL    HW110820   1.947   5.627   4.985
 3307SOL    HW210821   2.108   5.658   4.981
 3308SOL     OW10822   5.435   5.337   1.706
 3308SOL    HW110823   5.385   5.373   1.626
 3308SOL    HW210824   5.516   5.288   1.675
 3309SOL     OW10825   5.785   3.287   4.391
 3309SOL    HW110826   5.719   3.355   4.359
 3309SOL    HW210827   5.818   3.233   4.313
 3310SOL     OW10828   6.341   4.460   6.618
 3310SOL    HW110829   6.341   4.556   6.645
 3310SOL    HW210830   6.320   4.402   6.697
 3311SOL     OW10831   1.381   2.842   1.049
 3311SOL    HW110832   1.445   2.904   1.094
 3311SOL    HW210833   1.427   2.794   0.975
 3312SOL     OW10834   5.233   3.690   0.295
 3312SOL    HW110835   5.207   3.762   0.360
 3312SOL    HW210836   5.256   3.730   0.207
 3313SOL     OW10837   1.142   6.795   3.404
 3313SOL    HW110838   1.101   6.880   3.371
 3313SOL    HW210839   1.100   6.770   3.492
 3314SOL     OW10840   2.946   6.454   3.876
 3314SOL    HW110841   2.941   6.392   3.954
 3314SOL    HW210842   3.022   6.518   3.889
 3315SOL     OW10843   1.238   6.238   3.703
 3315SOL    HW110844   1.317   6.263   3.759
 3315SOL    HW210845   1.170   6.311   3.707
 3316SOL     OW10846   3.884   1.702   0.497
 3316SOL    HW110847   3.923   1.734   0.411
 3316SOL    HW210848   3.835   1.616   0.482
 3317SOL     OW10849   5.920   2.289   0.785
 3317SOL    HW110850   5.866   2.350   0.726
 3317SOL    HW210851   5.954   2.212   0.731
 3318SOL     OW10852   4.060   2.489   0.408
 3318SOL    HW110853   4.022   2.573   0.446
 3318SOL    HW210854   3.987   2.433   0.369
 3319SOL     OW10855   6.531   6.124   4.215
 3319SOL    HW110856   6.615   6.177   4.205
 3319SOL    HW210857   6.468   6.148   4.141
 3320SOL     OW10858   6.268   0.559   2.831
 3320SOL    HW110859   6.189   0.600   2.786
 3320SOL    HW210860   6.245   0.467   2.862
 3321SOL     OW10861   4.635   1.580   6.789
 3321SOL    HW110862   4.698   1.540   6.856
 3321SOL    HW210863   4.575   1.509   6.753
 3322SOL     OW10864   6.155   3.518   1.627
 3322SOL    HW110865   6.174   3.597   1.686
 3322SOL    HW210866   6.098   3.453   1.676
 3323SOL     OW10867   0.717   0.166   2.038
 3323SOL    HW110868   0.773   0.244   2.067
 3323SOL    HW210869   0.709   0.165   1.939
 3324SOL     OW10870   6.610   5.439   6.178
 3324SOL    HW110871   6.575   5.529   6.203
 3324SOL    HW210872   6.537   5.385   6.137
 3325SOL     OW10873   2.628   5.461   6.434
 3325SOL    HW110874   2.550   5.467   6.497
 3325SOL    HW210875   2.660   5.367   6.430
 3326SOL     OW10876   4.194   1.593   1.805
 3326SOL    HW110877   4.147   1.555   1.884
 3326SOL    HW210878   4.291   1.569   1.808
 3327SOL     OW10879   1.716   6.221   5.701
 3327SOL    HW110880   1.710   6.206   5.800
 3327SOL    HW210881   1.627   6.206   5.659
 3328SOL     OW10882   4.473   2.955   5.363
 3328SOL    HW110883   4.535   2.935   5.440
 3328SOL    HW210884   4.401   2.886   5.359
 3329SOL     OW10885   6.835   6.617   5.478
 3329SOL    HW110886   6.909   6.685   5.479
 3329SOL    HW210887   6.774   6.633   5.555
 3330SOL     OW10888   6.443   2.855   3.068
 3330SOL    HW110889   6.409   2.839   2.975
 3330SOL    HW210890   6.441   2.769   3.119
 3331SOL     OW10891   1.793   3.129   0.676
 3331SOL    HW110892   1.880   3.115   0.724
 3331SOL    HW210893   1.784   3.059   0.605
 3332SOL     OW10894   6.812   4.293   1.899
 3332SOL    HW110895   6.801   4.243   1.814
 3332SOL    HW210896   6.727   4.343   1.920
 3333SOL     OW10897   3.441   5.939   4.968
 3333SOL    HW110898   3.377   6.012   4.944
 3333SOL    HW210899   3.399   5.850   4.949
 3334SOL     OW10900   1.537   3.095   1.175
 3334SOL    HW110901   1.526   3.151   1.093
 3334SOL    HW210902   1.628   3.055   1.176
 3335SOL     OW10903   5.415   4.509   4.826
 3335SOL    HW110904   5.342   4.465   4.773
 3335SOL    HW210905   5.470   4.567   4.766
 3336SOL     OW10906   3.634   6.188   5.513
 3336SOL    HW110907   3.640   6.195   5.414
 3336SOL    HW210908   3.723   6.211   5.553
 3337SOL     OW10909   4.174   1.350   0.810
 3337SOL    HW110910   4.183   1.395   0.721
 3337SOL    HW210911   4.079   1.321   0.823
 3338SOL     OW10912   6.789   5.497   0.431
 3338SOL    HW110913   6.794   5.397   0.427
 3338SOL    HW210914   6.696   5.527   0.409
 3339SOL     OW10915   0.055   4.255   6.579
 3339SOL    HW110916   0.066   4.184   6.509
 3339SOL    HW210917   0.079   4.344   6.539
 3340SOL     OW10918   3.886   0.521   1.981
 3340SOL    HW110919   3.967   0.502   2.036
 3340SOL    HW210920   3.805   0.519   2.039
 3341SOL     OW10921   0.746   0.227   6.451
 3341SOL    HW110922   0.648   0.208   6.453
 3341SOL    HW210923   0.762   0.325   6.442
 3342SOL     OW10924   1.768   6.759   5.486
 3342SOL    HW110925   1.852   6.775   5.537
 3342SOL    HW210926   1.714   6.844   5.483
 3343SOL     OW10927   0.278   2.442   0.562
 3343SOL    HW110928   0.214   2.510   0.598
 3343SOL    HW210929   0.365   2.486   0.542
 3344SOL     OW10930   1.533   2.186   6.366
 3344SOL    HW110931   1.558   2.123   6.293
 3344SOL    HW210932   1.463   2.144   6.424
 3345SOL     OW10933   2.686   3.212   6.554
 3345SOL    HW110934   2.609   3.152   6.531
 3345SOL    HW210935   2.744   3.224   6.473
 3346SOL     OW10936   2.478   5.730   2.550
 3346SOL    HW110937   2.526   5.811   2.518
 3346SOL    HW210938   2.449   5.675   2.472
 3347SOL     OW10939   5.843   4.275   3.930
 3347SOL    HW110940   5.889   4.188   3.943
 3347SOL    HW210941   5.758   4.261   3.880
 3348SOL     OW10942   3.730   3.619   3.493
 3348SOL    HW110943   3.716   3.520   3.490
 3348SOL    HW210944   3.643   3.665   3.508
 3349SOL     OW10945   4.983   2.339   0.663
 3349SOL    HW110946   4.952   2.277   0.735
 3349SOL    HW210947   4.940   2.314   0.576
 3350SOL     OW10948   2.634   3.045   1.653
 3350SOL    HW110949   2.657   3.068   1.558
 3350SOL    HW210950   2.560   3.103   1.684
 3351SOL     OW10951   5.953   2.628   0.798
 3351SOL    HW110952   5.958   2.606   0.895
 3351SOL    HW210953   6.013   2.705   0.778
 3352SOL     OW10954   0.113   3.690   0.704
 3352SOL    HW110955   0.068   3.626   0.766
 3352SOL    HW210956   0.126   3.778   0.750
 3353SOL     OW10957   1.268   6.426   6.357
 3353SOL    HW110958   1.302   6.395   6.446
 3353SOL    HW210959   1.290   6.522   6.345
 3354SOL     OW10960   0.781   6.507   1.909
 3354SOL    HW110961   0.737   6.470   1.827
 3354SOL    HW210962   0.821   6.596   1.888
 3355SOL     OW10963   5.470   0.988   2.731
 3355SOL    HW110964   5.437   0.932   2.655
 3355SOL    HW210965   5.395   1.045   2.765
 3356SOL     OW10966   1.424   3.919   6.944
 3356SOL    HW110967   1.424   3.996   6.880
 3356SOL    HW210968   1.344   3.862   6.928
 3357SOL     OW10969   2.925   5.765   2.316
 3357SOL    HW110970   2.843   5.799   2.271
 3357SOL    HW210971   2.900   5.709   2.395
 3358SOL     OW10972   0.114   3.862   3.110
 3358SOL    HW110973   0.070   3.787   3.160
 3358SOL    HW210974   0.144   3.829   3.021
 3359SOL     OW10975   2.362   1.564   1.702
 3359SOL    HW110976   2.419   1.643   1.724
 3359SOL    HW210977   2.294   1.590   1.634
 3360SOL     OW10978   2.736   1.105   6.381
 3360SOL    HW110979   2.787   1.021   6.401
 3360SOL    HW210980   2.794   1.168   6.328
 3361SOL     OW10981   2.319   0.870   2.665
 3361SOL    HW110982   2.303   0.947   2.603
 3361SOL    HW210983   2.322   0.903   2.759
 3362SOL     OW10984   2.912   2.167   4.379
 3362SOL    HW110985   2.858   2.139   4.458
 3362SOL    HW210986   2.905   2.266   4.367
 3363SOL     OW10987   6.169   0.680   0.280
 3363SOL    HW110988   6.197   0.587   0.304
 3363SOL    HW210989   6.233   0.718   0.213
 3364SOL     OW10990   1.201   5.294   5.192
 3364SOL    HW110991   1.240   5.383   5.166
 3364SOL    HW210992   1.239   5.223   5.133
 3365SOL     OW10993   6.551   2.018   5.114
 3365SOL    HW110994   6.581   2.112   5.128
 3365SOL    HW210995   6.585   1.985   5.026
 3366SOL     OW10996   4.981   0.766   0.260
 3366SOL    HW110997   4.986   0.754   0.359
 3366SOL    HW210998   5.061   0.817   0.228
 3367SOL     OW10999   1.955   0.215   2.085
 3367SOL    HW111000   1.933   0.231   1.989
 3367SOL    HW211001   2.046   0.172   2.092
 3368SOL     OW11002   6.185   1.509   4.614
 3368SOL    HW111003   6.243   1.565   4.554
 3368SOL    HW211004   6.101   1.558   4.634
 3369SOL     OW11005   3.912   5.220   6.302
 3369SOL    HW111006   3.900   5.300   6.361
 3369SOL    HW211007   3.838   5.216   6.235
 3370SOL     OW11008   6.121   0.676   5.781
 3370SOL    HW111009   6.161   0.679   5.872
 3370SOL    HW211010   6.108   0.770   5.747
 3371SOL     OW11011   6.586   4.722   1.428
 3371SOL    HW111012   6.595   4.806   1.480
 3371SOL    HW211013   6.497   4.719   1.384
 3372SOL     OW11014   1.348   2.761   3.068
 3372SOL    HW111015   1.435   2.787   3.029
 3372SOL    HW211016   1.277   2.762   2.997
 3373SOL     OW11017   1.181   2.600   5.954
 3373SOL    HW111018   1.132   2.602   5.866
 3373SOL    HW211019   1.126   2.645   6.024
 3374SOL     OW11020   3.636   5.981   4.783
 3374SOL    HW111021   3.559   5.958   4.841
 3374SOL    HW211022   3.642   5.916   4.707
 3375SOL     OW11023   3.168   3.865   4.954
 3375SOL    HW111024   3.076   3.838   4.983
 3375SOL    HW211025   3.168   3.960   4.925
 3376SOL     OW11026   3.562   2.897   1.310
 3376SOL    HW111027   3.544   2.859   1.401
 3376SOL    HW211028   3.582   2.994   1.318
 3377SOL     OW11029   2.608   5.394   6.150
 3377SOL    HW111030   2.612   5.441   6.238
 3377SOL    HW211031   2.525   5.422   6.101
 3378SOL     OW11032   6.725   1.068   0.729
 3378SOL    HW111033   6.659   1.105   0.794
 3378SOL    HW211034   6.723   0.968   0.731
 3379SOL     OW11035   5.850   5.063   5.662
 3379SOL    HW111036   5.775   5.002   5.640
 3379SOL    HW211037   5.858   5.133   5.590
 3380SOL     OW11038   0.881   3.954   5.075
 3380SOL    HW111039   0.957   3.929   5.136
 3380SOL    HW211040   0.797   3.912   5.109
 3381SOL     OW11041   2.953   2.069   1.098
 3381SOL    HW111042   3.044   2.045   1.064
 3381SOL    HW211043   2.885   2.015   1.050
 3382SOL     OW11044   6.873   6.792   0.468
 3382SOL    HW111045   6.945   6.724   0.481
 3382SOL    HW211046   6.825   6.774   0.382
 3383SOL     OW11047   0.621   4.227   1.584
 3383SOL    HW111048   0.710   4.257   1.550
 3383SOL    HW211049   0.633   4.165   1.661
 3384SOL     OW11050   3.307   3.567   2.940
 3384SOL    HW111051   3.283   3.470   2.954
 3384SOL    HW211052   3.375   3.594   3.008
 3385SOL     OW11053   6.750   3.905   3.963
 3385SOL    HW111054   6.802   3.966   4.023
 3385SOL    HW211055   6.788   3.813   3.969
 3386SOL     OW11056   5.736   4.586   4.327
 3386SOL    HW111057   5.643   4.622   4.333
 3386SOL    HW211058   5.789   4.618   4.406
 3387SOL     OW11059   3.502   1.676   2.274
 3387SOL    HW111060   3.508   1.599   2.211
 3387SOL    HW211061   3.472   1.644   2.363
 3388SOL     OW11062   5.611   1.742   1.032
 3388SOL    HW111063   5.540   1.704   1.091
 3388SOL    HW211064   5.699   1.699   1.054
 3389SOL     OW11065   4.120   5.659   2.542
 3389SOL    HW111066   4.063   5.663   2.624
 3389SOL    HW211067   4.094   5.580   2.487
 3390SOL     OW11068   4.636   1.698   5.652
 3390SOL    HW111069   4.715   1.666   5.600
 3390SOL    HW211070   4.552   1.665   5.608
 3391SOL     OW11071   2.953   2.022   4.022
 3391SOL    HW111072   2.857   2.009   4.047
 3391SOL    HW211073   2.984   2.111   4.057
 3392SOL     OW11074   5.324   5.934   3.860
 3392SOL    HW111075   5.405   5.966   3.810
 3392SOL    HW211076   5.286   5.854   3.813
 3393SOL     OW11077   6.882   6.786   6.304
 3393SOL    HW111078   6.814   6.783   6.377
 3393SOL    HW211079   6.937   6.702   6.305
 3394SOL     OW11080   5.097   1.690   1.816
 3394SOL    HW111081   5.183   1.639   1.804
 3394SOL    HW211082   5.116   1.788   1.816
 3395SOL     OW11083   1.755   4.088   5.104
 3395SOL    HW111084   1.810   4.171   5.099
 3395SOL    HW211085   1.812   4.013   5.140
 3396SOL     OW11086   6.204   3.804   4.249
 3396SOL    HW111087   6.277   3.740   4.273
 3396SOL    HW211088   6.230   3.896   4.278
 3397SOL     OW11089   3.264   5.746   6.325
 3397SOL    HW111090   3.266   5.661   6.272
 3397SOL    HW211091   3.176   5.791   6.311
 3398SOL     OW11092   0.519   1.498   3.812
 3398SOL    HW111093   0.467   1.548   3.882
 3398SOL    HW211094   0.456   1.460   3.744
 3399SOL     OW11095   4.156   5.637   4.477
 3399SOL    HW111096   4.140   5.540   4.460
 3399SOL    HW211097   4.113   5.691   4.404
 3400SOL     OW11098   5.091   2.015   0.409
 3400SOL    HW111099   5.004   2.004   0.456
 3400SOL    HW211100   5.164   2.032   0.476
 3401SOL     OW11101   6.805   4.873   6.964
 3401SOL    HW111102   6.876   4.803   6.970
 3401SOL    HW211103   6.837   4.946   6.903
 3402SOL     OW11104   4.000   4.781   2.081
 3402SOL    HW111105   3.922   4.843   2.092
 3402SOL    HW211106   3.968   4.687   2.082
 3403SOL     OW11107   4.020   1.917   6.349
 3403SOL    HW111108   4.022   1.818   6.364
 3403SOL    HW211109   3.945   1.957   6.402
 3404SOL     OW11110   4.729   5.761   1.969
 3404SOL    HW111111   4.763   5.843   2.016
 3404SOL    HW211112   4.757   5.680   2.019
 3405SOL     OW11113   6.028   4.209   0.120
 3405SOL    HW111114   6.003   4.217   0.216
 3405SOL    HW211115   6.065   4.118   0.102
 3406SOL     OW11116   1.182   3.144   1.759
 3406SOL    HW111117   1.099   3.186   1.794
 3406SOL    HW211118   1.160   3.053   1.724
 3407SOL     OW11119   0.928   5.716   2.570
 3407SOL    HW111120   0.917   5.678   2.662
 3407SOL    HW211121   0.955   5.812   2.576
 3408SOL     OW11122   5.544   3.615   2.391
 3408SOL    HW111123   5.509   3.596   2.483
 3408SOL    HW211124   5.630   3.665   2.399
 3409SOL     OW11125   2.719   1.199   6.860
 3409SOL    HW111126   2.687   1.150   6.779
 3409SOL    HW211127   2.786   1.143   6.908
 3410SOL     OW11128   0.447   1.802   0.199
 3410SOL    HW111129   0.347   1.791   0.192
 3410SOL    HW211130   0.487   1.799   0.107
 3411SOL     OW11131   4.782   1.985   2.708
 3411SOL    HW111132   4.799   2.083   2.714
 3411SOL    HW211133   4.685   1.969   2.690
 3412SOL     OW11134   4.261   5.319   6.924
 3412SOL    HW111135   4.210   5.233   6.921
 3412SOL    HW211136   4.322   5.324   6.845
 3413SOL     OW11137   5.279   1.146   2.812
 3413SOL    HW111138   5.182   1.122   2.811
 3413SOL    HW211139   5.289   1.244   2.796
 3414SOL     OW11140   3.677   0.474   5.495
 3414SOL    HW111141   3.688   0.535   5.574
 3414SOL    HW211142   3.615   0.516   5.429
 3415SOL     OW11143   2.009   6.212   5.451
 3415SOL    HW111144   2.019   6.180   5.545
 3415SOL    HW211145   1.962   6.300   5.450
 3416SOL     OW11146   1.431   4.605   5.794
 3416SOL    HW111147   1.457   4.554   5.712
 3416SOL    HW211148   1.493   4.684   5.805
 3417SOL     OW11149   5.101   0.782   1.150
 3417SOL    HW111150   5.034   0.855   1.164
 3417SOL    HW211151   5.181   0.800   1.208
 3418SOL     OW11152   2.750   2.015   5.684
 3418SOL    HW111153   2.815   2.043   5.754
 3418SOL    HW211154   2.733   2.092   5.622
 3419SOL     OW11155   4.708   3.545   6.301
 3419SOL    HW111156   4.647   3.614   6.263
 3419SOL    HW211157   4.762   3.505   6.226
 3420SOL     OW11158   3.111   0.736   5.127
 3420SOL    HW111159   3.019   0.708   5.156
 3420SOL    HW211160   3.118   0.836   5.129
 3421SOL     OW11161   0.880   6.775   2.986
 3421SOL    HW111162   0.839   6.737   2.902
 3421SOL    HW211163   0.906   6.700   3.047
 3422SOL     OW11164   3.301   1.995   2.784
 3422SOL    HW111165   3.311   1.903   2.747
 3422SOL    HW211166   3.275   1.990   2.880
 3423SOL     OW11167   3.587   1.162   1.672
 3423SOL    HW111168   3.598   1.063   1.662
 3423SOL    HW211169   3.675   1.204   1.692
 3424SOL     OW11170   4.610   1.697   1.109
 3424SOL    HW111171   4.571   1.677   1.019
 3424SOL    HW211172   4.542   1.742   1.166
 3425SOL     OW11173   4.347   3.868   1.607
 3425SOL    HW111174   4.398   3.943   1.648
 3425SOL    HW211175   4.309   3.810   1.680
 3426SOL     OW11176   4.756   3.800   0.889
 3426SOL    HW111177   4.705   3.716   0.909
 3426SOL    HW211178   4.708   3.852   0.818
 3427SOL     OW11179   0.905   1.854   0.647
 3427SOL    HW111180   0.974   1.787   0.618
 3427SOL    HW211181   0.820   1.806   0.669
 3428SOL     OW11182   4.504   4.533   3.268
 3428SOL    HW111183   4.571   4.582   3.214
 3428SOL    HW211184   4.427   4.593   3.290
 3429SOL     OW11185   0.351   2.772   0.950
 3429SOL    HW111186   0.428   2.711   0.936
 3429SOL    HW211187   0.268   2.731   0.914
 3430SOL     OW11188   0.902   5.150   6.493
 3430SOL    HW111189   0.952   5.176   6.410
 3430SOL    HW211190   0.817   5.203   6.498
 3431SOL     OW11191   1.618   5.902   6.248
 3431SOL    HW111192   1.629   5.848   6.331
 3431SOL    HW211193   1.553   5.857   6.187
 3432SOL     OW11194   4.015   2.013   6.079
 3432SOL    HW111195   4.031   1.992   6.175
 3432SOL    HW211196   3.919   2.036   6.065
 3433SOL     OW11197   4.028   1.357   4.696
 3433SOL    HW111198   4.104   1.415   4.666
 3433SOL    HW211199   3.949   1.414   4.717
 3434SOL     OW11200   4.212   1.672   3.516
 3434SOL    HW111201   4.290   1.708   3.465
 3434SOL    HW211202   4.219   1.573   3.524
 3435SOL     OW11203   1.009   1.050   6.834
 3435SOL    HW111204   0.945   1.101   6.892
 3435SOL    HW211205   1.020   1.098   6.747
 3436SOL     OW11206   4.137   6.374   1.900
 3436SOL    HW111207   4.121   6.296   1.961
 3436SOL    HW211208   4.106   6.352   1.808
 3437SOL     OW11209   3.910   0.024   0.364
 3437SOL    HW111210   3.891   6.997   0.280
 3437SOL    HW211211   3.990   0.083   0.350
 3438SOL     OW11212   0.661   5.274   6.478
 3438SOL    HW111213   0.599   5.339   6.521
 3438SOL    HW211214   0.610   5.193   6.449
 3439SOL     OW11215   2.370   0.517   4.096
 3439SOL    HW111216   2.396   0.613   4.108
 3439SOL    HW211217   2.445   0.458   4.126
 3440SOL     OW11218   3.714   1.977   0.403
 3440SOL    HW111219   3.748   1.967   0.309
 3440SOL    HW211220   3.656   2.059   0.409
 3441SOL     OW11221   4.742   0.570   4.139
 3441SOL    HW111222   4.729   0.520   4.224
 3441SOL    HW211223   4.811   0.642   4.153
 3442SOL     OW11224   0.918   5.442   3.049
 3442SOL    HW111225   0.829   5.439   3.094
 3442SOL    HW211226   0.966   5.356   3.066
 3443SOL     OW11227   5.565   6.614   4.194
 3443SOL    HW111228   5.602   6.550   4.126
 3443SOL    HW211229   5.633   6.628   4.266
 3444SOL     OW11230   3.919   5.541   0.112
 3444SOL    HW111231   3.840   5.480   0.124
 3444SOL    HW211232   3.886   5.635   0.105
 3445SOL     OW11233   6.093   5.098   5.085
 3445SOL    HW111234   6.137   5.081   4.997
 3445SOL    HW211235   6.142   5.171   5.134
 3446SOL     OW11236   2.331   6.397   1.803
 3446SOL    HW111237   2.363   6.352   1.886
 3446SOL    HW211238   2.307   6.492   1.824
 3447SOL     OW11239   6.192   4.497   5.542
 3447SOL    HW111240   6.126   4.560   5.583
 3447SOL    HW211241   6.272   4.489   5.601
 3448SOL     OW11242   3.963   3.217   0.413
 3448SOL    HW111243   3.906   3.290   0.378
 3448SOL    HW211244   3.907   3.136   0.432
 3449SOL     OW11245   6.277   6.429   3.287
 3449SOL    HW111246   6.301   6.418   3.191
 3449SOL    HW211247   6.324   6.359   3.341
 3450SOL     OW11248   0.648   2.190   0.810
 3450SOL    HW111249   0.673   2.286   0.824
 3450SOL    HW211250   0.550   2.179   0.825
 3451SOL     OW11251   1.817   4.952   4.379
 3451SOL    HW111252   1.752   4.998   4.318
 3451SOL    HW211253   1.808   4.853   4.369
 3452SOL     OW11254   6.611   2.019   0.864
 3452SOL    HW111255   6.579   2.012   0.959
 3452SOL    HW211256   6.601   2.113   0.832
 3453SOL     OW11257   5.906   5.412   5.081
 3453SOL    HW111258   5.966   5.354   5.027
 3453SOL    HW211259   5.813   5.375   5.081
 3454SOL     OW11260   0.401   1.178   0.682
 3454SOL    HW111261   0.302   1.174   0.699
 3454SOL    HW211262   0.440   1.255   0.731
 3455SOL     OW11263   1.298   2.919   3.331
 3455SOL    HW111264   1.348   2.843   3.290
 3455SOL    HW211265   1.230   2.953   3.267
 3456SOL     OW11266   5.969   0.443   0.434
 3456SOL    HW111267   5.959   0.382   0.513
 3456SOL    HW211268   5.911   0.523   0.446
 3457SOL     OW11269   1.774   6.545   3.357
 3457SOL    HW111270   1.832   6.573   3.434
 3457SOL    HW211271   1.803   6.454   3.326
 3458SOL     OW11272   4.898   5.091   0.174
 3458SOL    HW111273   4.826   5.156   0.200
 3458SOL    HW211274   4.879   5.057   0.082
 3459SOL     OW11275   6.203   0.130   3.177
 3459SOL    HW111276   6.116   0.109   3.220
 3459SOL    HW211277   6.275   0.136   3.247
 3460SOL     OW11278   4.299   3.077   0.692
 3460SOL    HW111279   4.393   3.067   0.659
 3460SOL    HW211280   4.301   3.112   0.786
 3461SOL     OW11281   2.578   6.050   3.377
 3461SOL    HW111282   2.487   6.089   3.384
 3461SOL    HW211283   2.639   6.095   3.442
 3462SOL     OW11284   4.892   2.556   2.604
 3462SOL    HW111285   4.934   2.640   2.569
 3462SOL    HW211286   4.957   2.480   2.596
 3463SOL     OW11287   0.994   3.344   0.901
 3463SOL    HW111288   0.929   3.304   0.965
 3463SOL    HW211289   1.076   3.287   0.895
 3464SOL     OW11290   5.333   1.345   6.218
 3464SOL    HW111291   5.423   1.302   6.211
 3464SOL    HW211292   5.305   1.350   6.314
 3465SOL     OW11293   2.170   4.443   1.539
 3465SOL    HW111294   2.131   4.496   1.464
 3465SOL    HW211295   2.120   4.464   1.623
 3466SOL     OW11296   6.543   3.955   4.295
 3466SOL    HW111297   6.493   3.888   4.350
 3466SOL    HW211298   6.499   3.965   4.205
 3467SOL     OW11299   3.715   3.359   0.283
 3467SOL    HW111300   3.696   3.361   0.382
 3467SOL    HW211301   3.666   3.282   0.242
 3468SOL     OW11302   4.352   1.165   1.765
 3468SOL    HW111303   4.277   1.185   1.703
 3468SOL    HW211304   4.427   1.230   1.749
 3469SOL     OW11305   3.880   5.611   5.147
 3469SOL    HW111306   3.853   5.642   5.238
 3469SOL    HW211307   3.812   5.640   5.080
 3470SOL     OW11308   1.097   2.845   0.984
 3470SOL    HW111309   1.190   2.811   0.973
 3470SOL    HW211310   1.036   2.768   1.004
 3471SOL     OW11311   5.138   3.169   4.662
 3471SOL    HW111312   5.149   3.070   4.648
 3471SOL    HW211313   5.179   3.218   4.585
 3472SOL     OW11314   4.811   1.732   2.341
 3472SOL    HW111315   4.747   1.802   2.311
 3472SOL    HW211316   4.766   1.643   2.342
 3473SOL     OW11317   6.151   4.492   1.965
 3473SOL    HW111318   6.097   4.577   1.966
 3473SOL    HW211319   6.202   4.484   2.050
 3474SOL     OW11320   5.029   3.917   3.610
 3474SOL    HW111321   4.954   3.916   3.545
 3474SOL    HW211322   4.996   3.891   3.701
 3475SOL     OW11323   6.927   4.217   4.296
 3475SOL    HW111324   6.860   4.165   4.349
 3475SOL    HW211325   7.019   4.196   4.329
 3476SOL     OW11326   2.030   2.711   3.424
 3476SOL    HW111327   1.993   2.669   3.507
 3476SOL    HW211328   2.127   2.733   3.438
 3477SOL     OW11329   0.956   4.201   1.892
 3477SOL    HW111330   1.018   4.273   1.861
 3477SOL    HW211331   1.008   4.117   1.911
 3478SOL     OW11332   2.731   0.408   1.676
 3478SOL    HW111333   2.751   0.398   1.579
 3478SOL    HW211334   2.731   0.505   1.700
 3479SOL     OW11335   0.927   4.509   5.400
 3479SOL    HW111336   0.996   4.438   5.385
 3479SOL    HW211337   0.926   4.533   5.497
 3480SOL     OW11338   1.115   4.858   6.543
 3480SOL    HW111339   1.043   4.789   6.553
 3480SOL    HW211340   1.103   4.928   6.614
 3481SOL     OW11341   6.050   0.965   4.583
 3481SOL    HW111342   6.048   0.980   4.484
 3481SOL    HW211343   6.131   0.910   4.606
 3482SOL     OW11344   6.273   2.748   6.680
 3482SOL    HW111345   6.247   2.830   6.731
 3482SOL    HW211346   6.239   2.667   6.728
 3483SOL     OW11347   5.227   2.452   4.749
 3483SOL    HW111348   5.193   2.546   4.755
 3483SOL    HW211349   5.191   2.399   4.825
 3484SOL     OW11350   1.018   2.811   4.617
 3484SOL    HW111351   1.014   2.749   4.695
 3484SOL    HW211352   1.051   2.901   4.647
 3485SOL     OW11353   6.673   4.088   6.944
 3485SOL    HW111354   6.590   4.056   6.899
 3485SOL    HW211355   6.753   4.057   6.892
 3486SOL     OW11356   1.689   6.570   5.081
 3486SOL    HW111357   1.631   6.578   5.162
 3486SOL    HW211358   1.715   6.661   5.049
 3487SOL     OW11359   4.608   1.875   6.816
 3487SOL    HW111360   4.615   1.776   6.803
 3487SOL    HW211361   4.518   1.897   6.854
 3488SOL     OW11362   5.058   6.515   5.284
 3488SOL    HW111363   5.141   6.494   5.231
 3488SOL    HW211364   5.000   6.434   5.288
 3489SOL     OW11365   3.649   6.376   0.584
 3489SOL    HW111366   3.564   6.373   0.638
 3489SOL    HW211367   3.728   6.378   0.646
 3490SOL     OW11368   3.843   6.799   0.802
 3490SOL    HW111369   3.761   6.838   0.844
 3490SOL    HW211370   3.868   6.852   0.721
 3491SOL     OW11371   4.711   4.574   5.764
 3491SOL    HW111372   4.738   4.510   5.835
 3491SOL    HW211373   4.650   4.643   5.802
 3492SOL     OW11374   5.599   3.637   3.599
 3492SOL    HW111375   5.575   3.721   3.550
 3492SOL    HW211376   5.529   3.617   3.668
 3493SOL     OW11377   0.033   3.629   5.634
 3493SOL    HW111378   6.965   3.592   5.638
 3493SOL    HW211379   0.090   3.572   5.575
 3494SOL     OW11380   4.205   1.324   2.221
 3494SOL    HW111381   4.113   1.305   2.256
 3494SOL    HW211382   4.255   1.379   2.288
 3495SOL     OW11383   1.824   3.697   3.889
 3495SOL    HW111384   1.805   3.663   3.981
 3495SOL    HW211385   1.753   3.761   3.861
 3496SOL     OW11386   6.391   5.274   1.157
 3496SOL    HW111387   6.394   5.329   1.073
 3496SOL    HW211388   6.394   5.335   1.236
 3497SOL     OW11389   3.457   0.307   1.580
 3497SOL    HW111390   3.427   0.390   1.533
 3497SOL    HW211391   3.540   0.327   1.632
 3498SOL     OW11392   2.530   2.717   1.301
 3498SOL    HW111393   2.623   2.683   1.318
 3498SOL    HW211394   2.533   2.812   1.272
 3499SOL     OW11395   5.583   6.809   4.838
 3499SOL    HW111396   5.666   6.864   4.844
 3499SOL    HW211397   5.540   6.803   4.928
 3500SOL     OW11398   2.895   2.187   3.742
 3500SOL    HW111399   2.993   2.204   3.731
 3500SOL    HW211400   2.847   2.212   3.657
 3501SOL     OW11401   1.683   6.901   6.218
 3501SOL    HW111402   1.603   6.899   6.279
 3501SOL    HW211403   1.653   6.920   6.125
 3502SOL     OW11404   5.312   2.222   1.949
 3502SOL    HW111405   5.249   2.182   2.016
 3502SOL    HW211406   5.395   2.167   1.944
 3503SOL     OW11407   0.787   5.890   6.395
 3503SOL    HW111408   0.768   5.795   6.418
 3503SOL    HW211409   0.883   5.899   6.368
 3504SOL     OW11410   2.312   0.876   6.857
 3504SOL    HW111411   2.327   0.952   6.921
 3504SOL    HW211412   2.219   0.843   6.867
 3505SOL     OW11413   5.203   2.891   5.276
 3505SOL    HW111414   5.190   2.815   5.339
 3505SOL    HW211415   5.144   2.879   5.196
 3506SOL     OW11416   4.386   4.763   5.049
 3506SOL    HW111417   4.297   4.788   5.086
 3506SOL    HW211418   4.386   4.667   5.022
 3507SOL     OW11419   3.234   1.830   1.114
 3507SOL    HW111420   3.317   1.790   1.076
 3507SOL    HW211421   3.258   1.910   1.168
 3508SOL     OW11422   4.000   1.651   6.370
 3508SOL    HW111423   3.903   1.637   6.391
 3508SOL    HW211424   4.022   1.604   6.284
 3509SOL     OW11425   4.476   5.646   6.717
 3509SOL    HW111426   4.377   5.654   6.700
 3509SOL    HW211427   4.517   5.736   6.714
 3510SOL     OW11428   2.428   1.354   1.306
 3510SOL    HW111429   2.446   1.276   1.246
 3510SOL    HW211430   2.508   1.413   1.309
 3511SOL     OW11431   2.582   4.699   2.005
 3511SOL    HW111432   2.532   4.652   1.932
 3511SOL    HW211433   2.680   4.693   1.986
 3512SOL     OW11434   6.746   5.266   6.337
 3512SOL    HW111435   6.684   5.336   6.301
 3512SOL    HW211436   6.841   5.296   6.323
 3513SOL     OW11437   5.419   1.646   0.087
 3513SOL    HW111438   5.492   1.596   0.042
 3513SOL    HW211439   5.386   1.594   0.167
 3514SOL     OW11440   3.142   1.896   1.894
 3514SOL    HW111441   3.153   1.880   1.796
 3514SOL    HW211442   3.183   1.819   1.945
 3515SOL     OW11443   0.318   4.267   4.102
 3515SOL    HW111444   0.363   4.254   4.013
 3515SOL    HW211445   0.295   4.178   4.140
 3516SOL     OW11446   4.517   0.868   1.214
 3516SOL    HW111447   4.590   0.821   1.263
 3516SOL    HW211448   4.537   0.967   1.213
 3517SOL     OW11449   4.690   0.953   2.155
 3517SOL    HW111450   4.622   0.881   2.170
 3517SOL    HW211451   4.713   0.958   2.057
 3518SOL     OW11452   6.080   1.409   5.410
 3518SOL    HW111453   6.128   1.324   5.387
 3518SOL    HW211454   6.028   1.440   5.331
 3519SOL     OW11455   3.414   1.381   1.636
 3519SOL    HW111456   3.471   1.464   1.630
 3519SOL    HW211457   3.472   1.303   1.658
 3520SOL     OW11458   2.441   6.085   4.379
 3520SOL    HW111459   2.434   6.086   4.479
 3520SOL    HW211460   2.439   5.990   4.347
 3521SOL     OW11461   2.505   2.684   6.224
 3521SOL    HW111462   2.580   2.618   6.231
 3521SOL    HW211463   2.537   2.767   6.180
 3522SOL     OW11464   1.175   6.129   6.447
 3522SOL    HW111465   1.267   6.114   6.484
 3522SOL    HW211466   1.168   6.223   6.414
 3523SOL     OW11467   3.453   5.735   0.091
 3523SOL    HW111468   3.479   5.643   0.062
 3523SOL    HW211469   3.531   5.797   0.079
 3524SOL     OW11470   4.566   0.998   3.950
 3524SOL    HW111471   4.530   0.925   3.892
 3524SOL    HW211472   4.490   1.053   3.985
 3525SOL     OW11473   0.145   2.981   3.648
 3525SOL    HW111474   0.241   2.989   3.622
 3525SOL    HW211475   0.098   2.922   3.582
 3526SOL     OW11476   0.324   6.781   1.556
 3526SOL    HW111477   0.370   6.869   1.544
 3526SOL    HW211478   0.387   6.715   1.596
 3527SOL     OW11479   6.405   3.136   0.304
 3527SOL    HW111480   6.461   3.070   0.253
 3527SOL    HW211481   6.316   3.145   0.259
 3528SOL     OW11482   2.416   4.819   4.854
 3528SOL    HW111483   2.445   4.799   4.948
 3528SOL    HW211484   2.491   4.864   4.806
 3529SOL     OW11485   4.404   4.346   0.258
 3529SOL    HW111486   4.499   4.355   0.288
 3529SOL    HW211487   4.352   4.292   0.324
 3530SOL     OW11488   6.458   0.394   1.071
 3530SOL    HW111489   6.544   0.353   1.040
 3530SOL    HW211490   6.451   0.385   1.170
 3531SOL     OW11491   4.604   2.076   0.438
 3531SOL    HW111492   4.506   2.057   0.440
 3531SOL    HW211493   4.639   2.064   0.345
 3532SOL     OW11494   2.298   0.694   1.287
 3532SOL    HW111495   2.329   0.777   1.334
 3532SOL    HW211496   2.199   0.700   1.272
 3533SOL     OW11497   2.101   2.721   2.974
 3533SOL    HW111498   2.097   2.819   2.993
 3533SOL    HW211499   2.065   2.670   3.052
 3534SOL     OW11500   0.717   1.423   0.753
 3534SOL    HW111501   0.671   1.448   0.667
 3534SOL    HW211502   0.649   1.413   0.825
 3535SOL     OW11503   3.744   6.837   3.471
 3535SOL    HW111504   3.720   6.771   3.399
 3535SOL    HW211505   3.778   6.921   3.429
 3536SOL     OW11506   4.065   1.955   3.896
 3536SOL    HW111507   4.124   1.979   3.819
 3536SOL    HW211508   3.988   1.901   3.864
 3537SOL     OW11509   1.664   6.357   2.718
 3537SOL    HW111510   1.645   6.455   2.725
 3537SOL    HW211511   1.611   6.317   2.643
 3538SOL     OW11512   3.325   5.733   1.683
 3538SOL    HW111513   3.373   5.663   1.631
 3538SOL    HW211514   3.227   5.713   1.684
 3539SOL     OW11515   3.444   3.808   4.228
 3539SOL    HW111516   3.377   3.882   4.238
 3539SOL    HW211517   3.479   3.783   4.318
 3540SOL     OW11518   1.715   2.325   3.095
 3540SOL    HW111519   1.793   2.273   3.060
 3540SOL    HW211520   1.699   2.301   3.191
 3541SOL     OW11521   3.642   4.190   4.401
 3541SOL    HW111522   3.551   4.155   4.378
 3541SOL    HW211523   3.648   4.286   4.376
 3542SOL     OW11524   7.022   5.442   1.460
 3542SOL    HW111525   6.987   5.357   1.500
 3542SOL    HW211526   0.082   5.468   1.507
 3543SOL     OW11527   5.384   2.270   4.372
 3543SOL    HW111528   5.412   2.218   4.453
 3543SOL    HW211529   5.336   2.353   4.400
 3544SOL     OW11530   2.962   6.943   6.779
 3544SOL    HW111531   2.965   0.011   6.817
 3544SOL    HW211532   2.909   6.944   6.694
 3545SOL     OW11533   3.200   5.455   0.629
 3545SOL    HW111534   3.114   5.427   0.672
 3545SOL    HW211535   3.264   5.378   0.630
 3546SOL     OW11536   1.045   4.438   2.743
 3546SOL    HW111537   1.078   4.492   2.666
 3546SOL    HW211538   1.001   4.354   2.709
 3547SOL     OW11539   5.096   4.479   4.524
 3547SOL    HW111540   5.063   4.505   4.433
 3547SOL    HW211541   5.145   4.556   4.565
 3548SOL     OW11542   5.232   3.103   5.702
 3548SOL    HW111543   5.173   3.167   5.751
 3548SOL    HW211544   5.239   3.017   5.753
 3549SOL     OW11545   4.915   3.315   2.397
 3549SOL    HW111546   4.898   3.288   2.302
 3549SOL    HW211547   4.883   3.243   2.459
 3550SOL     OW11548   5.174   1.646   3.709
 3550SOL    HW111549   5.101   1.677   3.648
 3550SOL    HW211550   5.206   1.556   3.680
 3551SOL     OW11551   1.820   0.335   2.477
 3551SOL    HW111552   1.917   0.309   2.473
 3551SOL    HW211553   1.812   0.434   2.482
 3552SOL     OW11554   6.346   4.383   3.294
 3552SOL    HW111555   6.404   4.325   3.351
 3552SOL    HW211556   6.336   4.343   3.203
 3553SOL     OW11557   5.751   1.706   3.398
 3553SOL    HW111558   5.670   1.703   3.341
 3553SOL    HW211559   5.833   1.707   3.340
 3554SOL     OW11560   4.007   5.447   6.870
 3554SOL    HW111561   3.965   5.490   6.950
 3554SOL    HW211562   4.095   5.407   6.896
 3555SOL     OW11563   1.102   2.148   3.927
 3555SOL    HW111564   1.087   2.133   3.829
 3555SOL    HW211565   1.038   2.092   3.979
 3556SOL     OW11566   4.485   1.532   6.073
 3556SOL    HW111567   4.535   1.502   6.154
 3556SOL    HW211568   4.549   1.569   6.006
 3557SOL     OW11569   1.139   0.463   3.933
 3557SOL    HW111570   1.106   0.558   3.930
 3557SOL    HW211571   1.061   0.401   3.943
 3558SOL     OW11572   0.525   6.706   1.300
 3558SOL    HW111573   0.573   6.740   1.381
 3558SOL    HW211574   0.434   6.748   1.296
 3559SOL     OW11575   0.679   0.329   6.091
 3559SOL    HW111576   0.775   0.315   6.115
 3559SOL    HW211577   0.659   0.427   6.090
 3560SOL     OW11578   6.839   6.886   1.930
 3560SOL    HW111579   6.913   6.827   1.900
 3560SOL    HW211580   6.845   6.974   1.883
 3561SOL     OW11581   5.478   4.665   3.688
 3561SOL    HW111582   5.437   4.583   3.647
 3561SOL    HW211583   5.555   4.638   3.745
 3562SOL     OW11584   4.208   2.061   2.430
 3562SOL    HW111585   4.174   2.069   2.524
 3562SOL    HW211586   4.161   2.128   2.372
 3563SOL     OW11587   4.315   6.533   1.691
 3563SOL    HW111588   4.220   6.562   1.683
 3563SOL    HW211589   4.341   6.530   1.787
 3564SOL     OW11590   6.311   4.440   2.254
 3564SOL    HW111591   6.302   4.341   2.247
 3564SOL    HW211592   6.295   4.469   2.348
 3565SOL     OW11593   0.792   0.723   5.339
 3565SOL    HW111594   0.853   0.746   5.415
 3565SOL    HW211595   0.791   0.799   5.273
 3566SOL     OW11596   0.752   4.497   6.351
 3566SOL    HW111597   0.738   4.399   6.363
 3566SOL    HW211598   0.849   4.514   6.331
 3567SOL     OW11599   6.917   2.423   0.888
 3567SOL    HW111600   6.825   2.457   0.905
 3567SOL    HW211601   6.959   2.394   0.974
 3568SOL     OW11602   4.739   4.165   3.704
 3568SOL    HW111603   4.704   4.247   3.750
 3568SOL    HW211604   4.717   4.169   3.607
 3569SOL     OW11605   4.179   3.446   3.799
 3569SOL    HW111606   4.182   3.513   3.873
 3569SOL    HW211607   4.144   3.489   3.716
 3570SOL     OW11608   0.321   2.399   5.662
 3570SOL    HW111609   0.301   2.302   5.672
 3570SOL    HW211610   0.414   2.411   5.627
 3571SOL     OW11611   2.989   6.968   4.488
 3571SOL    HW111612   3.040   0.010   4.543
 3571SOL    HW211613   2.903   6.946   4.535
 3572SOL     OW11614   5.161   4.328   2.569
 3572SOL    HW111615   5.254   4.319   2.605
 3572SOL    HW211616   5.107   4.387   2.630
 3573SOL     OW11617   0.279   4.799   3.888
 3573SOL    HW111618   0.360   4.841   3.927
 3573SOL    HW211619   0.231   4.747   3.958
 3574SOL     OW11620   1.930   1.812   6.054
 3574SOL    HW111621   1.847   1.768   6.018
 3574SOL    HW211622   1.996   1.825   5.980
 3575SOL     OW11623   4.849   0.686   6.446
 3575SOL    HW111624   4.909   0.721   6.375
 3575SOL    HW211625   4.754   0.688   6.414
 3576SOL     OW11626   0.748   2.801   0.669
 3576SOL    HW111627   0.796   2.736   0.610
 3576SOL    HW211628   0.815   2.856   0.719
 3577SOL     OW11629   2.122   3.706   4.514
 3577SOL    HW111630   2.144   3.767   4.590
 3577SOL    HW211631   2.110   3.760   4.431
 3578SOL     OW11632   4.504   2.291   0.600
 3578SOL    HW111633   4.546   2.230   0.532
 3578SOL    HW211634   4.447   2.359   0.553
 3579SOL     OW11635   0.771   3.368   2.246
 3579SOL    HW111636   0.688   3.316   2.268
 3579SOL    HW211637   0.824   3.318   2.178
 3580SOL     OW11638   6.693   4.224   2.142
 3580SOL    HW111639   6.657   4.314   2.118
 3580SOL    HW211640   6.727   4.179   2.060
 3581SOL     OW11641   1.688   0.248   2.897
 3581SOL    HW111642   1.613   0.264   2.961
 3581SOL    HW211643   1.717   0.335   2.858
 3582SOL     OW11644   4.937   6.492   6.652
 3582SOL    HW111645   4.994   6.512   6.572
 3582SOL    HW211646   4.993   6.450   6.723
 3583SOL     OW11647   1.837   6.294   0.511
 3583SOL    HW111648   1.748   6.337   0.526
 3583SOL    HW211649   1.879   6.271   0.599
 3584SOL     OW11650   5.536   4.915   4.867
 3584SOL    HW111651   5.621   4.898   4.817
 3584SOL    HW211652   5.501   5.006   4.842
 3585SOL     OW11653   4.230   2.362   3.827
 3585SOL    HW111654   4.295   2.431   3.793
 3585SOL    HW211655   4.225   2.286   3.763
 3586SOL     OW11656   6.619   2.703   5.232
 3586SOL    HW111657   6.524   2.732   5.241
 3586SOL    HW211658   6.676   2.781   5.207
 3587SOL     OW11659   2.448   0.514   6.239
 3587SOL    HW111660   2.411   0.440   6.295
 3587SOL    HW211661   2.466   0.594   6.297
 3588SOL     OW11662   6.084   3.766   3.998
 3588SOL    HW111663   6.036   3.678   4.003
 3588SOL    HW211664   6.117   3.790   4.089
 3589SOL     OW11665   0.368   0.716   6.197
 3589SOL    HW111666   0.309   0.678   6.268
 3589SOL    HW211667   0.374   0.651   6.121
 3590SOL     OW11668   6.133   5.014   5.690
 3590SOL    HW111669   6.136   4.915   5.672
 3590SOL    HW211670   6.042   5.048   5.666
 3591SOL     OW11671   4.808   1.461   0.736
 3591SOL    HW111672   4.724   1.495   0.780
 3591SOL    HW211673   4.826   1.514   0.653
 3592SOL     OW11674   0.976   6.235   1.150
 3592SOL    HW111675   0.951   6.310   1.210
 3592SOL    HW211676   0.999   6.270   1.060
 3593SOL     OW11677   4.223   3.152   5.808
 3593SOL    HW111678   4.198   3.076   5.868
 3593SOL    HW211679   4.156   3.159   5.734
 3594SOL     OW11680   4.609   4.330   5.184
 3594SOL    HW111681   4.698   4.334   5.139
 3594SOL    HW211682   4.537   4.326   5.115
 3595SOL     OW11683   4.867   0.030   5.963
 3595SOL    HW111684   4.830   6.963   5.947
 3595SOL    HW211685   4.958   0.023   6.004
 3596SOL     OW11686   3.287   1.563   1.805
 3596SOL    HW111687   3.349   1.501   1.757
 3596SOL    HW211688   3.325   1.656   1.805
 3597SOL     OW11689   4.070   4.574   5.288
 3597SOL    HW111690   4.144   4.522   5.246
 3597SOL    HW211691   3.986   4.521   5.286
 3598SOL     OW11692   6.658   5.628   4.267
 3598SOL    HW111693   6.733   5.612   4.331
 3598SOL    HW211694   6.670   5.717   4.222
 3599SOL     OW11695   2.209   1.093   5.494
 3599SOL    HW111696   2.230   1.095   5.397
 3599SOL    HW211697   2.258   1.018   5.538
 3600SOL     OW11698   2.062   4.051   1.051
 3600SOL    HW111699   2.107   3.964   1.033
 3600SOL    HW211700   1.978   4.056   0.997
 3601SOL     OW11701   3.188   0.102   5.034
 3601SOL    HW111702   3.252   0.051   5.091
 3601SOL    HW211703   3.172   0.192   5.074
 3602SOL     OW11704   1.580   2.034   0.703
 3602SOL    HW111705   1.510   2.071   0.764
 3602SOL    HW211706   1.640   1.974   0.755
 3603SOL     OW11707   1.317   6.656   6.215
 3603SOL    HW111708   1.296   6.671   6.118
 3603SOL    HW211709   1.387   6.721   6.244
 3604SOL     OW11710   0.111   1.030   4.481
 3604SOL    HW111711   0.064   1.008   4.396
 3604SOL    HW211712   0.067   0.983   4.557
 3605SOL     OW11713   1.248   0.111   4.646
 3605SOL    HW111714   1.154   0.145   4.640
 3605SOL    HW211715   1.274   0.070   4.559
 3606SOL     OW11716   1.952   6.989   3.134
 3606SOL    HW111717   1.947   6.890   3.117
 3606SOL    HW211718   2.017   7.007   3.208
 3607SOL     OW11719   5.880   1.706   4.276
 3607SOL    HW111720   5.925   1.795   4.267
 3607SOL    HW211721   5.888   1.674   4.370
 3608SOL     OW11722   3.923   1.812   5.446
 3608SOL    HW111723   3.863   1.891   5.435
 3608SOL    HW211724   4.019   1.841   5.443
 3609SOL     OW11725   2.910   6.758   4.975
 3609SOL    HW111726   2.991   6.740   4.919
 3609SOL    HW211727   2.882   6.674   5.021
 3610SOL     OW11728   1.233   0.192   5.997
 3610SOL    HW111729   1.292   0.241   6.062
 3610SOL    HW211730   1.235   0.094   6.018
 3611SOL     OW11731   5.396   3.422   2.792
 3611SOL    HW111732   5.357   3.450   2.880
 3611SOL    HW211733   5.394   3.498   2.728
 3612SOL     OW11734   4.990   1.327   0.923
 3612SOL    HW111735   4.924   1.382   0.871
 3612SOL    HW211736   4.986   1.232   0.891
 3613SOL     OW11737   4.047   0.632   2.798
 3613SOL    HW111738   3.953   0.600   2.783
 3613SOL    HW211739   4.104   0.605   2.721
 3614SOL     OW11740   3.350   5.804   0.372
 3614SOL    HW111741   3.362   5.766   0.280
 3614SOL    HW211742   3.369   5.733   0.440
 3615SOL     OW11743   5.726   2.467   4.785
 3615SOL    HW111744   5.807   2.447   4.840
 3615SOL    HW211745   5.646   2.473   4.844
 3616SOL     OW11746   1.718   1.150   1.094
 3616SOL    HW111747   1.760   1.096   1.167
 3616SOL    HW211748   1.788   1.177   1.028
 3617SOL     OW11749   4.146   5.203   4.631
 3617SOL    HW111750   4.238   5.232   4.603
 3617SOL    HW211751   4.128   5.235   4.724
 3618SOL     OW11752   1.031   5.455   4.438
 3618SOL    HW111753   0.955   5.392   4.454
 3618SOL    HW211754   1.033   5.523   4.510
 3619SOL     OW11755   0.118   1.977   2.293
 3619SOL    HW111756   0.179   1.899   2.278
 3619SOL    HW211757   0.168   2.062   2.280
 3620SOL     OW11758   4.744   6.317   5.752
 3620SOL    HW111759   4.815   6.360   5.696
 3620SOL    HW211760   4.659   6.368   5.742
 3621SOL     OW11761   3.309   2.940   3.335
 3621SOL    HW111762   3.296   2.922   3.432
 3621SOL    HW211763   3.404   2.966   3.319
 3622SOL     OW11764   2.457   5.753   6.449
 3622SOL    HW111765   2.499   5.663   6.459
 3622SOL    HW211766   2.505   5.805   6.377
 3623SOL     OW11767   2.002   6.081   5.715
 3623SOL    HW111768   2.020   6.005   5.776
 3623SOL    HW211769   1.914   6.124   5.738
 3624SOL     OW11770   2.581   1.920   2.734
 3624SOL    HW111771   2.508   1.902   2.668
 3624SOL    HW211772   2.668   1.889   2.696
 3625SOL     OW11773   6.302   1.676   1.243
 3625SOL    HW111774   6.331   1.664   1.338
 3625SOL    HW211775   6.216   1.727   1.240
 3626SOL     OW11776   0.495   3.112   5.810
 3626SOL    HW111777   0.509   3.037   5.747
 3626SOL    HW211778   0.558   3.187   5.787
 3627SOL     OW11779   3.246   1.459   2.640
 3627SOL    HW111780   3.231   1.454   2.738
 3627SOL    HW211781   3.193   1.388   2.594
 3628SOL     OW11782   0.261   1.160   1.696
 3628SOL    HW111783   0.281   1.180   1.600
 3628SOL    HW211784   0.163   1.142   1.706
 3629SOL     OW11785   1.707   0.771   4.601
 3629SOL    HW111786   1.666   0.862   4.589
 3629SOL    HW211787   1.731   0.757   4.697
 3630SOL     OW11788   6.976   1.774   2.599
 3630SOL    HW111789   6.968   1.678   2.574
 3630SOL    HW211790   6.886   1.810   2.624
 3631SOL     OW11791   2.093   5.371   2.422
 3631SOL    HW111792   2.136   5.285   2.392
 3631SOL    HW211793   2.003   5.351   2.460
 3632SOL     OW11794   5.155   3.048   2.546
 3632SOL    HW111795   5.230   3.006   2.596
 3632SOL    HW211796   5.191   3.103   2.471
 3633SOL     OW11797   4.762   5.054   5.933
 3633SOL    HW111798   4.722   4.962   5.932
 3633SOL    HW211799   4.718   5.108   6.005
 3634SOL     OW11800   2.881   5.350   6.175
 3634SOL    HW111801   2.881   5.322   6.271
 3634SOL    HW211802   2.787   5.357   6.143
 3635SOL     OW11803   1.686   6.635   2.683
 3635SOL    HW111804   1.626   6.687   2.623
 3635SOL    HW211805   1.781   6.659   2.665
 3636SOL     OW11806   6.932   6.321   4.260
 3636SOL    HW111807   6.875   6.242   4.236
 3636SOL    HW211808   7.003   6.333   4.190
 3637SOL     OW11809   5.277   2.360   6.751
 3637SOL    HW111810   5.208   2.423   6.786
 3637SOL    HW211811   5.315   2.307   6.827
 3638SOL     OW11812   0.661   2.568   3.810
 3638SOL    HW111813   0.677   2.653   3.859
 3638SOL    HW211814   0.622   2.500   3.873
 3639SOL     OW11815   3.570   3.351   4.124
 3639SOL    HW111816   3.593   3.439   4.083
 3639SOL    HW211817   3.484   3.360   4.175
 3640SOL     OW11818   4.518   1.845   2.753
 3640SOL    HW111819   4.510   1.745   2.757
 3640SOL    HW211820   4.445   1.882   2.695
 3641SOL     OW11821   0.195   3.312   1.523
 3641SOL    HW111822   0.168   3.277   1.433
 3641SOL    HW211823   0.272   3.374   1.513
 3642SOL     OW11824   4.267   4.576   6.361
 3642SOL    HW111825   4.179   4.620   6.345
 3642SOL    HW211826   4.300   4.533   6.277
 3643SOL     OW11827   4.556   5.353   4.720
 3643SOL    HW111828   4.591   5.355   4.813
 3643SOL    HW211829   4.488   5.426   4.708
 3644SOL     OW11830   3.436   1.729   1.443
 3644SOL    HW111831   3.346   1.701   1.411
 3644SOL    HW211832   3.477   1.792   1.377
 3645SOL     OW11833   1.494   3.623   3.941
 3645SOL    HW111834   1.574   3.596   3.993
 3645SOL    HW211835   1.426   3.663   4.003
 3646SOL     OW11836   2.724   4.930   5.243
 3646SOL    HW111837   2.663   5.006   5.263
 3646SOL    HW211838   2.674   4.857   5.195
 3647SOL     OW11839   3.481   0.371   0.647
 3647SOL    HW111840   3.574   0.388   0.617
 3647SOL    HW211841   3.480   0.295   0.712
 3648SOL     OW11842   5.616   5.393   3.565
 3648SOL    HW111843   5.586   5.336   3.488
 3648SOL    HW211844   5.634   5.335   3.644
 3649SOL     OW11845   5.455   3.116   6.991
 3649SOL    HW111846   5.520   3.137   6.919
 3649SOL    HW211847   5.455   3.189   0.035
 3650SOL     OW11848   5.257   6.541   6.988
 3650SOL    HW111849   5.346   6.585   6.976
 3650SOL    HW211850   5.194   6.576   6.918
 3651SOL     OW11851   1.012   1.803   5.842
 3651SOL    HW111852   0.988   1.843   5.753
 3651SOL    HW211853   0.948   1.834   5.911
 3652SOL     OW11854   5.975   2.036   2.576
 3652SOL    HW111855   5.902   2.103   2.594
 3652SOL    HW211856   5.991   2.029   2.478
 3653SOL     OW11857   2.004   1.744   0.320
 3653SOL    HW111858   2.074   1.673   0.331
 3653SOL    HW211859   1.949   1.750   0.403
 3654SOL     OW11860   4.029   6.135   0.603
 3654SOL    HW111861   3.973   6.085   0.668
 3654SOL    HW211862   4.115   6.087   0.589
 3655SOL     OW11863   1.024   7.017   3.811
 3655SOL    HW111864   1.106   0.021   3.861
 3655SOL    HW211865   0.943   0.032   3.855
 3656SOL     OW11866   0.418   0.904   0.794
 3656SOL    HW111867   0.518   0.899   0.798
 3656SOL    HW211868   0.391   0.998   0.772
 3657SOL     OW11869   6.502   4.990   6.453
 3657SOL    HW111870   6.433   5.061   6.441
 3657SOL    HW211871   6.593   5.031   6.447
 3658SOL     OW11872   1.865   4.576   5.835
 3658SOL    HW111873   1.808   4.586   5.753
 3658SOL    HW211874   1.870   4.664   5.883
 3659SOL     OW11875   0.889   2.401   0.175
 3659SOL    HW111876   0.834   2.483   0.194
 3659SOL    HW211877   0.924   2.364   0.261
 3660SOL     OW11878   4.518   4.749   4.243
 3660SOL    HW111879   4.476   4.706   4.323
 3660SOL    HW211880   4.503   4.848   4.246
 3661SOL     OW11881   1.023   0.770   5.480
 3661SOL    HW111882   1.033   0.735   5.573
 3661SOL    HW211883   1.081   0.717   5.418
 3662SOL     OW11884   3.761   2.563   5.671
 3662SOL    HW111885   3.861   2.562   5.675
 3662SOL    HW211886   3.729   2.647   5.627
 3663SOL     OW11887   1.664   2.825   5.976
 3663SOL    HW111888   1.577   2.800   5.932
 3663SOL    HW211889   1.684   2.758   6.048
 3664SOL     OW11890   2.038   2.259   1.020
 3664SOL    HW111891   2.010   2.234   0.928
 3664SOL    HW211892   2.081   2.349   1.019
 3665SOL     OW11893   6.879   6.372   5.011
 3665SOL    HW111894   6.928   6.284   5.013
 3665SOL    HW211895   6.844   6.392   5.103
 3666SOL     OW11896   2.161   3.897   4.765
 3666SOL    HW111897   2.190   3.970   4.703
 3666SOL    HW211898   2.197   3.914   4.856
 3667SOL     OW11899   2.551   6.291   1.152
 3667SOL    HW111900   2.618   6.254   1.087
 3667SOL    HW211901   2.462   6.296   1.108
 3668SOL     OW11902   4.473   0.753   0.920
 3668SOL    HW111903   4.379   0.730   0.896
 3668SOL    HW211904   4.474   0.808   1.003
 3669SOL     OW11905   6.646   1.110   2.207
 3669SOL    HW111906   6.734   1.146   2.237
 3669SOL    HW211907   6.574   1.142   2.268
 3670SOL     OW11908   2.106   6.760   2.199
 3670SOL    HW111909   2.045   6.808   2.135
 3670SOL    HW211910   2.103   6.662   2.179
 3671SOL     OW11911   0.478   0.396   5.658
 3671SOL    HW111912   0.414   0.387   5.581
 3671SOL    HW211913   0.570   0.371   5.628
 3672SOL     OW11914   2.667   0.544   3.071
 3672SOL    HW111915   2.765   0.544   3.049
 3672SOL    HW211916   2.654   0.516   3.166
 3673SOL     OW11917   3.611   1.577   1.639
 3673SOL    HW111918   3.580   1.656   1.586
 3673SOL    HW211919   3.687   1.533   1.591
 3674SOL     OW11920   6.824   5.645   6.391
 3674SOL    HW111921   6.780   5.670   6.305
 3674SOL    HW211922   6.887   5.718   6.419
 3675SOL     OW11923   5.858   0.733   5.337
 3675SOL    HW111924   5.856   0.692   5.428
 3675SOL    HW211925   5.915   0.676   5.276
 3676SOL     OW11926   2.293   0.645   6.077
 3676SOL    HW111927   2.360   0.592   6.129
 3676SOL    HW211928   2.213   0.588   6.057
 3677SOL     OW11929   1.544   0.212   5.096
 3677SOL    HW111930   1.581   0.132   5.143
 3677SOL    HW211931   1.449   0.194   5.069
 3678SOL     OW11932   2.715   1.096   3.600
 3678SOL    HW111933   2.804   1.138   3.623
 3678SOL    HW211934   2.694   1.025   3.666
 3679SOL     OW11935   3.072   1.194   1.945
 3679SOL    HW111936   2.998   1.247   1.903
 3679SOL    HW211937   3.076   1.104   1.902
 3680SOL     OW11938   4.450   1.727   4.069
 3680SOL    HW111939   4.467   1.764   4.160
 3680SOL    HW211940   4.352   1.707   4.060
 3681SOL     OW11941   1.101   5.316   3.419
 3681SOL    HW111942   1.093   5.399   3.363
 3681SOL    HW211943   1.112   5.237   3.359
 3682SOL     OW11944   5.057   1.228   2.180
 3682SOL    HW111945   5.065   1.150   2.243
 3682SOL    HW211946   4.961   1.253   2.169
 3683SOL     OW11947   6.252   2.326   1.137
 3683SOL    HW111948   6.241   2.322   1.038
 3683SOL    HW211949   6.319   2.396   1.160
 3684SOL     OW11950   2.549   6.082   5.716
 3684SOL    HW111951   2.516   6.174   5.693
 3684SOL    HW211952   2.486   6.039   5.779
 3685SOL     OW11953   1.341   6.444   2.817
 3685SOL    HW111954   1.389   6.459   2.731
 3685SOL    HW211955   1.307   6.532   2.852
 3686SOL     OW11956   1.069   5.073   0.537
 3686SOL    HW111957   1.074   4.988   0.588
 3686SOL    HW211958   0.990   5.072   0.476
 3687SOL     OW11959   0.161   4.674   4.302
 3687SOL    HW111960   0.175   4.772   4.288
 3687SOL    HW211961   0.183   4.625   4.217
 3688SOL     OW11962   0.341   2.608   1.635
 3688SOL    HW111963   0.360   2.517   1.671
 3688SOL    HW211964   0.377   2.677   1.698
 3689SOL     OW11965   2.720   2.473   5.598
 3689SOL    HW111966   2.687   2.530   5.523
 3689SOL    HW211967   2.643   2.433   5.647
 3690SOL     OW11968   6.968   5.440   2.347
 3690SOL    HW111969   0.037   5.463   2.374
 3690SOL    HW211970   6.923   5.520   2.307
 3691SOL     OW11971   2.706   1.985   6.977
 3691SOL    HW111972   2.798   2.021   6.964
 3691SOL    HW211973   2.644   2.027   6.910
 3692SOL     OW11974   1.119   2.697   5.690
 3692SOL    HW111975   1.214   2.698   5.659
 3692SOL    HW211976   1.059   2.676   5.612
 3693SOL     OW11977   0.258   1.441   3.090
 3693SOL    HW111978   0.294   1.535   3.094
 3693SOL    HW211979   0.158   1.444   3.092
 3694SOL     OW11980   0.153   6.444   1.800
 3694SOL    HW111981   0.148   6.397   1.888
 3694SOL    HW211982   0.061   6.476   1.775
 3695SOL     OW11983   5.933   3.583   4.949
 3695SOL    HW111984   5.835   3.582   4.967
 3695SOL    HW211985   5.956   3.664   4.894
 3696SOL     OW11986   4.156   0.345   4.205
 3696SOL    HW111987   4.249   0.310   4.218
 3696SOL    HW211988   4.097   0.272   4.170
 3697SOL     OW11989   6.918   5.005   2.713
 3697SOL    HW111990   6.961   4.940   2.650
 3697SOL    HW211991   6.989   5.056   2.761
 3698SOL     OW11992   1.401   0.608   3.830
 3698SOL    HW111993   1.313   0.621   3.876
 3698SOL    HW211994   1.462   0.555   3.890
 3699SOL     OW11995   3.251   1.828   3.399
 3699SOL    HW111996   3.159   1.814   3.435
 3699SOL    HW211997   3.292   1.909   3.441
 3700SOL     OW11998   0.828   5.159   4.815
 3700SOL    HW111999   0.790   5.252   4.819
 3700SOL    HW212000   0.820   5.124   4.722
 3701SOL     OW12001   6.492   0.644   2.338
 3701SOL    HW112002   6.444   0.682   2.416
 3701SOL    HW212003   6.446   0.561   2.308
 3702SOL     OW12004   6.763   4.724   3.424
 3702SOL    HW112005   6.823   4.800   3.398
 3702SOL    HW212006   6.742   4.729   3.521
 3703SOL     OW12007   0.855   2.045   3.336
 3703SOL    HW112008   0.833   2.030   3.240
 3703SOL    HW212009   0.939   1.996   3.360
 3704SOL     OW12010   6.630   7.009   0.880
 3704SOL    HW112011   6.544   6.978   0.921
 3704SOL    HW212012   6.641   6.967   0.790
 3705SOL     OW12013   6.589   4.180   3.949
 3705SOL    HW112014   6.501   4.162   3.904
 3705SOL    HW212015   6.625   4.094   3.986
 3706SOL     OW12016   0.443   6.015   6.984
 3706SOL    HW112017   0.503   5.975   0.029
 3706SOL    HW212018   0.497   6.041   6.904
 3707SOL     OW12019   6.572   4.183   3.366
 3707SOL    HW112020   6.606   4.277   3.359
 3707SOL    HW212021   6.606   4.129   3.289
 3708SOL     OW12022   0.808   5.693   0.006
 3708SOL    HW112023   0.851   5.782   7.013
 3708SOL    HW212024   0.792   5.683   0.104
 3709SOL     OW12025   0.573   1.813   1.156
 3709SOL    HW112026   0.523   1.731   1.182
 3709SOL    HW212027   0.574   1.822   1.056
 3710SOL     OW12028   2.019   3.698   5.122
 3710SOL    HW112029   2.001   3.776   5.063
 3710SOL    HW212030   1.951   3.694   5.195
 3711SOL     OW12031   1.310   4.858   5.899
 3711SOL    HW112032   1.351   4.933   5.848
 3711SOL    HW212033   1.327   4.771   5.852
 3712SOL     OW12034   3.581   4.904   3.576
 3712SOL    HW112035   3.536   4.818   3.599
 3712SOL    HW212036   3.557   4.930   3.483
 3713SOL     OW12037   6.569   0.507   6.505
 3713SOL    HW112038   6.661   0.470   6.491
 3713SOL    HW212039   6.505   0.433   6.521
 3714SOL     OW12040   0.296   5.534   0.203
 3714SOL    HW112041   0.289   5.550   0.302
 3714SOL    HW212042   0.296   5.436   0.185
 3715SOL     OW12043   5.489   4.302   2.122
 3715SOL    HW112044   5.583   4.335   2.107
 3715SOL    HW212045   5.449   4.275   2.035
 3716SOL     OW12046   5.133   5.061   5.459
 3716SOL    HW112047   5.112   4.969   5.491
 3716SOL    HW212048   5.136   5.123   5.538
 3717SOL     OW12049   4.643   0.103   1.242
 3717SOL    HW112050   4.670   0.006   1.242
 3717SOL    HW212051   4.716   0.157   1.200
 3718SOL     OW12052   5.282   6.208   6.613
 3718SOL    HW112053   5.215   6.208   6.688
 3718SOL    HW212054   5.374   6.206   6.652
 3719SOL     OW12055   2.950   4.043   0.580
 3719SOL    HW112056   3.031   3.986   0.597
 3719SOL    HW212057   2.969   4.106   0.505
 3720SOL     OW12058   0.983   2.306   0.397
 3720SOL    HW112059   0.914   2.234   0.391
 3720SOL    HW212060   0.982   2.345   0.489
 3721SOL     OW12061   6.641   0.466   5.852
 3721SOL    HW112062   6.678   0.526   5.780
 3721SOL    HW212063   6.624   0.519   5.935
 3722SOL     OW12064   5.281   6.664   1.578
 3722SOL    HW112065   5.352   6.708   1.523
 3722SOL    HW212066   5.302   6.677   1.675
 3723SOL     OW12067   4.272   4.143   6.220
 3723SOL    HW112068   4.188   4.168   6.267
 3723SOL    HW212069   4.254   4.137   6.121
 3724SOL     OW12070   6.147   3.923   5.327
 3724SOL    HW112071   6.105   4.007   5.295
 3724SOL    HW212072   6.149   3.856   5.254
 3725SOL     OW12073   6.822   6.171   1.216
 3725SOL    HW112074   6.889   6.108   1.177
 3725SOL    HW212075   6.804   6.245   1.152
 3726SOL     OW12076   6.106   3.608   5.283
 3726SOL    HW112077   6.027   3.622   5.344
 3726SOL    HW212078   6.074   3.604   5.188
 3727SOL     OW12079   6.218   1.675   4.101
 3727SOL    HW112080   6.229   1.770   4.128
 3727SOL    HW212081   6.143   1.667   4.035
 3728SOL     OW12082   1.987   4.511   0.584
 3728SOL    HW112083   2.024   4.603   0.591
 3728SOL    HW212084   1.960   4.478   0.675
 3729SOL     OW12085   0.139   6.948   6.202
 3729SOL    HW112086   0.090   6.982   6.122
 3729SOL    HW212087   0.183   0.001   6.250
 3730SOL     OW12088   6.053   4.642   4.786
 3730SOL    HW112089   6.002   4.719   4.826
 3730SOL    HW212090   6.029   4.633   4.690
 3731SOL     OW12091   6.389   1.422   1.936
 3731SOL    HW112092   6.472   1.445   1.885
 3731SOL    HW212093   6.352   1.336   1.901
 3732SOL     OW12094   4.404   2.467   6.965
 3732SOL    HW112095   4.338   2.488   0.013
 3732SOL    HW212096   4.466   2.544   6.954
 3733SOL     OW12097   1.959   1.322   2.882
 3733SOL    HW112098   1.994   1.350   2.793
 3733SOL    HW212099   1.864   1.291   2.872
 3734SOL     OW12100   4.371   1.158   2.033
 3734SOL    HW112101   4.295   1.177   2.095
 3734SOL    HW212102   4.339   1.160   1.939
 3735SOL     OW12103   3.716   0.987   2.451
 3735SOL    HW112104   3.775   1.024   2.523
 3735SOL    HW212105   3.644   0.931   2.493
 3736SOL     OW12106   0.804   0.873   6.747
 3736SOL    HW112107   0.816   0.774   6.750
 3736SOL    HW212108   0.874   0.917   6.803
 3737SOL     OW12109   4.973   1.935   4.610
 3737SOL    HW112110   5.054   1.991   4.627
 3737SOL    HW212111   4.905   1.989   4.561
 3738SOL     OW12112   0.914   0.951   0.404
 3738SOL    HW112113   0.957   1.001   0.328
 3738SOL    HW212114   0.983   0.894   0.448
 3739SOL     OW12115   3.328   4.930   6.512
 3739SOL    HW112116   3.364   4.837   6.515
 3739SOL    HW212117   3.229   4.927   6.499
 3740SOL     OW12118   6.651   6.896   6.957
 3740SOL    HW112119   6.614   6.840   0.006
 3740SOL    HW212120   6.598   6.981   6.949
 3741SOL     OW12121   6.014   4.772   0.095
 3741SOL    HW112122   5.998   4.851   0.035
 3741SOL    HW212123   6.103   4.781   0.139
 3742SOL     OW12124   4.802   5.127   1.371
 3742SOL    HW112125   4.840   5.034   1.370
 3742SOL    HW212126   4.704   5.123   1.354
 3743SOL     OW12127   2.278   4.084   1.240
 3743SOL    HW112128   2.328   3.997   1.237
 3743SOL    HW212129   2.180   4.066   1.230
 3744SOL     OW12130   6.314   5.692   2.293
 3744SOL    HW112131   6.323   5.792   2.296
 3744SOL    HW212132   6.306   5.657   2.387
 3745SOL     OW12133   6.184   0.929   2.730
 3745SOL    HW112134   6.251   0.997   2.760
 3745SOL    HW212135   6.105   0.932   2.791
 3746SOL     OW12136   5.633   0.060   5.891
 3746SOL    HW112137   5.694   0.073   5.813
 3746SOL    HW212138   5.576   0.141   5.904
 3747SOL     OW12139   1.897   4.768   5.502
 3747SOL    HW112140   1.817   4.767   5.442
 3747SOL    HW212141   1.970   4.713   5.461
 3748SOL     OW12142   4.896   1.719   3.364
 3748SOL    HW112143   4.859   1.776   3.291
 3748SOL    HW212144   4.955   1.649   3.323
 3749SOL     OW12145   6.031   5.346   0.779
 3749SOL    HW112146   6.092   5.412   0.737
 3749SOL    HW212147   5.937   5.367   0.754
 3750SOL     OW12148   0.269   4.626   1.461
 3750SOL    HW112149   0.312   4.567   1.530
 3750SOL    HW212150   0.326   4.705   1.444
 3751SOL     OW12151   1.917   5.253   0.730
 3751SOL    HW112152   1.840   5.204   0.689
 3751SOL    HW212153   1.899   5.351   0.728
 3752SOL     OW12154   1.543   0.206   6.314
 3752SOL    HW112155   1.632   0.250   6.302
 3752SOL    HW212156   1.478   0.244   6.249
 3753SOL     OW12157   0.679   1.433   5.979
 3753SOL    HW112158   0.666   1.431   5.880
 3753SOL    HW212159   0.597   1.401   6.025
 3754SOL     OW12160   6.745   6.436   1.065
 3754SOL    HW112161   6.658   6.444   1.115
 3754SOL    HW212162   6.804   6.514   1.089
 3755SOL     OW12163   4.598   2.661   3.026
 3755SOL    HW112164   4.652   2.681   2.943
 3755SOL    HW212165   4.639   2.708   3.104
 3756SOL     OW12166   3.184   6.922   0.180
 3756SOL    HW112167   3.239   7.000   0.214
 3756SOL    HW212168   3.100   6.956   0.140
 3757SOL     OW12169   2.984   4.016   5.457
 3757SOL    HW112170   2.951   3.957   5.383
 3757SOL    HW212171   2.907   4.058   5.504
 3758SOL     OW12172   0.667   0.635   1.635
 3758SOL    HW112173   0.764   0.620   1.650
 3758SOL    HW212174   0.653   0.722   1.588
 3759SOL     OW12175   5.747   4.340   0.579
 3759SOL    HW112176   5.679   4.352   0.507
 3759SOL    HW212177   5.822   4.405   0.565
 3760SOL     OW12178   1.752   1.493   5.735
 3760SOL    HW112179   1.850   1.476   5.750
 3760SOL    HW212180   1.740   1.559   5.661
 3761SOL     OW12181   0.149   6.381   4.400
 3761SOL    HW112182   0.175   6.285   4.411
 3761SOL    HW212183   0.052   6.392   4.421
 3762SOL     OW12184   0.104   3.782   1.543
 3762SOL    HW112185   0.034   3.758   1.609
 3762SOL    HW212186   0.101   3.719   1.466
 3763SOL     OW12187   0.461   2.297   5.044
 3763SOL    HW112188   0.413   2.368   4.991
 3763SOL    HW212189   0.503   2.338   5.124
 3764SOL     OW12190   2.226   0.407   2.992
 3764SOL    HW112191   2.256   0.499   3.017
 3764SOL    HW212192   2.306   0.347   2.988
 3765SOL     OW12193   6.216   1.311   3.713
 3765SOL    HW112194   6.149   1.384   3.714
 3765SOL    HW212195   6.297   1.339   3.764
 3766SOL     OW12196   2.172   1.292   4.439
 3766SOL    HW112197   2.267   1.266   4.457
 3766SOL    HW212198   2.167   1.345   4.354
 3767SOL     OW12199   6.618   4.506   1.596
 3767SOL    HW112200   6.698   4.554   1.633
 3767SOL    HW212201   6.563   4.571   1.543
 3768SOL     OW12202   5.011   6.891   1.345
 3768SOL    HW112203   4.936   6.917   1.284
 3768SOL    HW212204   5.025   6.792   1.340
 3769SOL     OW12205   4.101   6.716   4.648
 3769SOL    HW112206   4.172   6.709   4.717
 3769SOL    HW212207   4.050   6.801   4.661
 3770SOL     OW12208   1.520   2.902   0.231
 3770SOL    HW112209   1.530   2.962   0.311
 3770SOL    HW212210   1.608   2.893   0.185
 3771SOL     OW12211   4.845   1.404   5.261
 3771SOL    HW112212   4.770   1.466   5.238
 3771SOL    HW212213   4.821   1.353   5.344
 3772SOL     OW12214   4.965   0.278   2.975
 3772SOL    HW112215   5.039   0.322   2.924
 3772SOL    HW212216   4.909   0.348   3.019
 3773SOL     OW12217   5.914   2.338   1.052
 3773SOL    HW112218   5.876   2.423   1.090
 3773SOL    HW212219   5.944   2.354   0.958
 3774SOL     OW12220   2.083   1.182   1.736
 3774SOL    HW112221   2.160   1.226   1.783
 3774SOL    HW212222   2.103   1.085   1.724
 3775SOL     OW12223   5.416   2.542   3.749
 3775SOL    HW112224   5.409   2.582   3.658
 3775SOL    HW212225   5.369   2.453   3.750
 3776SOL     OW12226   3.148   2.031   6.845
 3776SOL    HW112227   3.245   2.037   6.867
 3776SOL    HW212228   3.137   2.009   6.748
 3777SOL     OW12229   1.556   4.062   3.257
 3777SOL    HW112230   1.500   4.045   3.339
 3777SOL    HW212231   1.607   3.979   3.235
 3778SOL     OW12232   2.121   0.462   1.693
 3778SOL    HW112233   2.146   0.498   1.783
 3778SOL    HW212234   2.201   0.465   1.633
 3779SOL     OW12235   1.903   4.073   0.515
 3779SOL    HW112236   1.911   4.053   0.612
 3779SOL    HW212237   1.923   4.170   0.498
 3780SOL     OW12238   2.129   0.372   4.066
 3780SOL    HW112239   2.224   0.390   4.094
 3780SOL    HW212240   2.098   0.448   4.008
 3781SOL     OW12241   3.039   4.936   4.409
 3781SOL    HW112242   2.987   4.869   4.461
 3781SOL    HW212243   3.120   4.963   4.459
 3782SOL     OW12244   2.843   1.125   2.243
 3782SOL    HW112245   2.920   1.188   2.246
 3782SOL    HW212246   2.819   1.097   2.336
 3783SOL     OW12247   5.209   4.431   5.277
 3783SOL    HW112248   5.149   4.355   5.251
 3783SOL    HW212249   5.291   4.394   5.321
 3784SOL     OW12250   4.753   2.868   4.930
 3784SOL    HW112251   4.687   2.793   4.932
 3784SOL    HW212252   4.767   2.897   4.835
 3785SOL     OW12253   0.109   6.992   1.709
 3785SOL    HW112254   0.011   7.002   1.690
 3785SOL    HW212255   0.156   0.053   1.685
 3786SOL     OW12256   2.792   6.335   1.449
 3786SOL    HW112257   2.834   6.262   1.394
 3786SOL    HW212258   2.859   6.407   1.465
 3787SOL     OW12259   4.348   1.341   3.182
 3787SOL    HW112260   4.397   1.352   3.269
 3787SOL    HW212261   4.403   1.379   3.108
 3788SOL     OW12262   0.204   3.028   2.716
 3788SOL    HW112263   0.193   2.952   2.653
 3788SOL    HW212264   0.210   3.114   2.665
 3789SOL     OW12265   1.932   5.436   2.154
 3789SOL    HW112266   2.020   5.398   2.127
 3789SOL    HW212267   1.936   5.463   2.250
 3790SOL     OW12268   2.031   3.464   2.811
 3790SOL    HW112269   1.938   3.500   2.815
 3790SOL    HW212270   2.092   3.533   2.775
 3791SOL     OW12271   6.740   0.540   2.734
 3791SOL    HW112272   6.808   0.476   2.769
 3791SOL    HW212273   6.696   0.501   2.653
 3792SOL     OW12274   1.614   5.139   5.890
 3792SOL    HW112275   1.710   5.118   5.870
 3792SOL    HW212276   1.605   5.236   5.912
 3793SOL     OW12277   6.378   6.229   2.518
 3793SOL    HW112278   6.391   6.250   2.615
 3793SOL    HW212279   6.467   6.227   2.472
 3794SOL     OW12280   4.055   6.939   5.035
 3794SOL    HW112281   4.103   6.999   5.098
 3794SOL    HW212282   4.084   6.845   5.049
 3795SOL     OW12283   5.746   0.423   0.745
 3795SOL    HW112284   5.721   0.423   0.648
 3795SOL    HW212285   5.672   0.385   0.799
 3796SOL     OW12286   0.111   2.536   1.343
 3796SOL    HW112287   0.123   2.626   1.385
 3796SOL    HW212288   0.194   2.482   1.357
 3797SOL     OW12289   6.409   5.943   2.259
 3797SOL    HW112290   6.484   5.967   2.198
 3797SOL    HW212291   6.354   6.025   2.278
 3798SOL     OW12292   1.270   4.286   0.169
 3798SOL    HW112293   1.297   4.196   0.202
 3798SOL    HW212294   1.303   4.299   0.075
 3799SOL     OW12295   0.627   0.449   5.305
 3799SOL    HW112296   0.685   0.429   5.384
 3799SOL    HW212297   0.552   0.508   5.334
 3800SOL     OW12298   4.666   2.406   4.910
 3800SOL    HW112299   4.584   2.460   4.931
 3800SOL    HW212300   4.730   2.461   4.856
 3801SOL     OW12301   6.871   0.599   5.839
 3801SOL    HW112302   6.880   0.513   5.890
 3801SOL    HW212303   6.940   0.602   5.767
 3802SOL     OW12304   2.094   2.417   4.869
 3802SOL    HW112305   2.071   2.322   4.893
 3802SOL    HW212306   2.193   2.428   4.872
 3803SOL     OW12307   4.498   1.242   1.484
 3803SOL    HW112308   4.409   1.241   1.438
 3803SOL    HW212309   4.564   1.291   1.427
 3804SOL     OW12310   5.189   4.037   4.649
 3804SOL    HW112311   5.205   4.032   4.551
 3804SOL    HW212312   5.109   3.982   4.672
 3805SOL     OW12313   1.970   3.599   1.224
 3805SOL    HW112314   1.930   3.577   1.313
 3805SOL    HW212315   2.014   3.518   1.185
 3806SOL     OW12316   3.988   0.317   0.358
 3806SOL    HW112317   3.933   0.398   0.380
 3806SOL    HW212318   4.085   0.341   0.359
 3807SOL     OW12319   1.952   6.657   2.601
 3807SOL    HW112320   2.005   6.741   2.617
 3807SOL    HW212321   1.888   6.672   2.526
 3808SOL     OW12322   3.895   1.255   0.598
 3808SOL    HW112323   3.984   1.210   0.590
 3808SOL    HW212324   3.831   1.212   0.535
 3809SOL     OW12325   3.983   1.292   0.283
 3809SOL    HW112326   3.912   1.229   0.317
 3809SOL    HW212327   4.046   1.242   0.224
 3810SOL     OW12328   1.778   3.494   6.878
 3810SOL    HW112329   1.780   3.427   6.952
 3810SOL    HW212330   1.708   3.562   6.896
 3811SOL     OW12331   6.864   1.019   5.563
 3811SOL    HW112332   6.896   1.085   5.631
 3811SOL    HW212333   6.941   0.990   5.505
 3812SOL     OW12334   4.378   0.332   5.719
 3812SOL    HW112335   4.347   0.384   5.798
 3812SOL    HW212336   4.359   0.384   5.635
 3813SOL     OW12337   3.938   4.903   1.701
 3813SOL    HW112338   3.989   4.924   1.785
 3813SOL    HW212339   3.850   4.862   1.726
 3814SOL     OW12340   2.255   0.143   1.745
 3814SOL    HW112341   2.281   0.184   1.658
 3814SOL    HW212342   2.155   0.129   1.747
 3815SOL     OW12343   5.122   2.170   2.128
 3815SOL    HW112344   5.035   2.214   2.149
 3815SOL    HW212345   5.129   2.083   2.178
 3816SOL     OW12346   0.133   6.012   0.349
 3816SOL    HW112347   0.115   5.914   0.349
 3816SOL    HW212348   0.231   6.028   0.363
 3817SOL     OW12349   5.607   1.838   5.174
 3817SOL    HW112350   5.565   1.917   5.219
 3817SOL    HW212351   5.707   1.850   5.172
 3818SOL     OW12352   3.599   6.684   3.283
 3818SOL    HW112353   3.519   6.743   3.293
 3818SOL    HW212354   3.569   6.593   3.253
 3819SOL     OW12355   5.747   3.419   6.244
 3819SOL    HW112356   5.753   3.519   6.238
 3819SOL    HW212357   5.770   3.391   6.337
 3820SOL     OW12358   4.221   6.131   3.286
 3820SOL    HW112359   4.135   6.159   3.243
 3820SOL    HW212360   4.202   6.077   3.367
 3821SOL     OW12361   0.836   4.478   1.559
 3821SOL    HW112362   0.854   4.392   1.512
 3821SOL    HW212363   0.808   4.459   1.653
 3822SOL     OW12364   0.982   3.683   1.627
 3822SOL    HW112365   1.053   3.644   1.567
 3822SOL    HW212366   1.025   3.744   1.693
 3823SOL     OW12367   2.151   3.582   5.323
 3823SOL    HW112368   2.119   3.590   5.229
 3823SOL    HW212369   2.182   3.671   5.356
 3824SOL     OW12370   0.553   2.669   6.243
 3824SOL    HW112371   0.455   2.662   6.222
 3824SOL    HW212372   0.595   2.738   6.185
 3825SOL     OW12373   0.466   6.140   6.415
 3825SOL    HW112374   0.375   6.135   6.455
 3825SOL    HW212375   0.513   6.221   6.448
 3826SOL     OW12376   0.215   1.612   1.490
 3826SOL    HW112377   0.120   1.602   1.458
 3826SOL    HW212378   0.218   1.599   1.589
 3827SOL     OW12379   4.614   1.861   2.116
 3827SOL    HW112380   4.544   1.897   2.177
 3827SOL    HW212381   4.678   1.934   2.090
 3828SOL     OW12382   3.686   1.257   1.284
 3828SOL    HW112383   3.653   1.273   1.191
 3828SOL    HW212384   3.608   1.259   1.348
 3829SOL     OW12385   0.969   5.215   3.647
 3829SOL    HW112386   0.951   5.118   3.635
 3829SOL    HW212387   1.012   5.252   3.564
 3830SOL     OW12388   1.573   0.127   5.706
 3830SOL    HW112389   1.598   0.201   5.644
 3830SOL    HW212390   1.554   0.165   5.796
 3831SOL     OW12391   4.817   2.068   2.344
 3831SOL    HW112392   4.834   2.106   2.253
 3831SOL    HW212393   4.856   2.129   2.414
 3832SOL     OW12394   6.180   0.220   2.610
 3832SOL    HW112395   6.272   0.183   2.595
 3832SOL    HW212396   6.157   0.284   2.537
 3833SOL     OW12397   1.381   6.201   2.332
 3833SOL    HW112398   1.447   6.147   2.279
 3833SOL    HW212399   1.386   6.297   2.304
 3834SOL     OW12400   2.901   2.670   0.537
 3834SOL    HW112401   2.986   2.720   0.553
 3834SOL    HW212402   2.897   2.639   0.442
 3835SOL     OW12403   3.148   4.869   3.209
 3835SOL    HW112404   3.164   4.896   3.114
 3835SOL    HW212405   3.051   4.850   3.222
 3836SOL     OW12406   1.524   2.663   6.381
 3836SOL    HW112407   1.564   2.706   6.300
 3836SOL    HW212408   1.592   2.660   6.454
 3837SOL     OW12409   3.533   4.740   6.469
 3837SOL    HW112410   3.474   4.672   6.511
 3837SOL    HW212411   3.575   4.703   6.386
 3838SOL     OW12412   0.098   3.360   5.082
 3838SOL    HW112413   0.126   3.455   5.091
 3838SOL    HW212414   0.163   3.301   5.130
 3839SOL     OW12415   0.714   6.271   6.973
 3839SOL    HW112416   0.762   6.359   6.983
 3839SOL    HW212417   0.638   6.267   0.013
 3840SOL     OW12418   3.579   2.026   3.092
 3840SOL    HW112419   3.487   1.986   3.089
 3840SOL    HW212420   3.613   2.037   2.998
 3841SOL     OW12421   1.699   3.037   3.879
 3841SOL    HW112422   1.761   2.989   3.942
 3841SOL    HW212423   1.693   3.133   3.906
 3842SOL     OW12424   1.254   4.984   6.897
 3842SOL    HW112425   1.232   5.029   6.810
 3842SOL    HW212426   1.247   4.885   6.886
 3843SOL     OW12427   6.711   5.293   6.912
 3843SOL    HW112428   6.804   5.264   6.891
 3843SOL    HW212429   6.689   5.267   7.006
 3844SOL     OW12430   3.062   4.351   5.624
 3844SOL    HW112431   3.055   4.293   5.543
 3844SOL    HW212432   2.981   4.338   5.681
 3845SOL     OW12433   3.364   3.736   4.800
 3845SOL    HW112434   3.299   3.782   4.861
 3845SOL    HW212435   3.415   3.667   4.851
 3846SOL     OW12436   6.761   4.256   4.864
 3846SOL    HW112437   6.687   4.317   4.835
 3846SOL    HW212438   6.794   4.205   4.785
 3847SOL     OW12439   1.310   6.619   0.958
 3847SOL    HW112440   1.322   6.657   0.866
 3847SOL    HW212441   1.296   6.694   1.023
 3848SOL     OW12442   2.788   6.256   2.684
 3848SOL    HW112443   2.851   6.332   2.667
 3848SOL    HW212444   2.823   6.201   2.760
 3849SOL     OW12445   2.549   1.441   4.638
 3849SOL    HW112446   2.517   1.497   4.715
 3849SOL    HW212447   2.643   1.412   4.655
 3850SOL     OW12448   1.746   3.273   1.811
 3850SOL    HW112449   1.833   3.317   1.836
 3850SOL    HW212450   1.718   3.211   1.884
 3851SOL     OW12451   2.609   2.931   0.294
 3851SOL    HW112452   2.514   2.903   0.308
 3851SOL    HW212453   2.667   2.886   0.362
 3852SOL     OW12454   4.068   0.628   5.421
 3852SOL    HW112455   3.980   0.649   5.379
 3852SOL    HW212456   4.139   0.686   5.380
 3853SOL     OW12457   0.301   3.299   2.182
 3853SOL    HW112458   0.383   3.321   2.235
 3853SOL    HW212459   0.220   3.309   2.240
 3854SOL     OW12460   1.015   4.051   4.125
 3854SOL    HW112461   0.988   4.082   4.216
 3854SOL    HW212462   1.040   4.130   4.069
 3855SOL     OW12463   0.097   2.185   4.894
 3855SOL    HW112464   0.196   2.187   4.876
 3855SOL    HW212465   0.072   2.094   4.929
 3856SOL     OW12466   1.009   6.326   6.018
 3856SOL    HW112467   1.010   6.356   6.113
 3856SOL    HW212468   1.097   6.283   5.995
 3857SOL     OW12469   0.165   0.279   6.702
 3857SOL    HW112470   0.145   0.304   6.797
 3857SOL    HW212471   0.241   0.335   6.669
 3858SOL     OW12472   4.171   5.019   6.587
 3858SOL    HW112473   4.222   4.936   6.608
 3858SOL    HW212474   4.144   5.064   6.672
 3859SOL     OW12475   6.867   2.408   2.707
 3859SOL    HW112476   6.883   2.506   2.707
 3859SOL    HW212477   6.845   2.378   2.800
 3860SOL     OW12478   2.381   6.350   5.192
 3860SOL    HW112479   2.292   6.393   5.204
 3860SOL    HW212480   2.370   6.250   5.195
 3861SOL     OW12481   3.490   3.716   0.274
 3861SOL    HW112482   3.451   3.759   0.192
 3861SOL    HW212483   3.501   3.784   0.346
 3862SOL     OW12484   0.552   6.302   5.522
 3862SOL    HW112485   0.625   6.243   5.557
 3862SOL    HW212486   0.483   6.245   5.477
 3863SOL     OW12487   2.381   3.195   0.487
 3863SOL    HW112488   2.428   3.135   0.552
 3863SOL    HW212489   2.442   3.268   0.457
 3864SOL     OW12490   3.425   1.797   1.776
 3864SOL    HW112491   3.467   1.763   1.861
 3864SOL    HW212492   3.477   1.876   1.743
 3865SOL     OW12493   4.417   0.883   2.166
 3865SOL    HW112494   4.394   0.961   2.109
 3865SOL    HW212495   4.376   0.800   2.127
 3866SOL     OW12496   4.635   6.181   6.294
 3866SOL    HW112497   4.669   6.268   6.330
 3866SOL    HW212498   4.712   6.127   6.260
 3867SOL     OW12499   2.088   5.181   2.758
 3867SOL    HW112500   1.998   5.225   2.761
 3867SOL    HW212501   2.158   5.247   2.784
 3868SOL     OW12502   2.634   5.058   2.716
 3868SOL    HW112503   2.689   5.024   2.792
 3868SOL    HW212504   2.562   5.118   2.751
 3869SOL     OW12505   1.339   1.248   3.464
 3869SOL    HW112506   1.325   1.339   3.501
 3869SOL    HW212507   1.315   1.180   3.533
 3870SOL     OW12508   4.015   3.572   0.368
 3870SOL    HW112509   4.080   3.526   0.428
 3870SOL    HW212510   3.955   3.631   0.423
 3871SOL     OW12511   2.828   0.822   4.685
 3871SOL    HW112512   2.789   0.754   4.623
 3871SOL    HW212513   2.754   0.876   4.726
 3872SOL     OW12514   4.835   3.876   0.319
 3872SOL    HW112515   4.900   3.840   0.251
 3872SOL    HW212516   4.831   3.814   0.397
 3873SOL     OW12517   6.182   4.953   2.022
 3873SOL    HW112518   6.129   5.032   1.990
 3873SOL    HW212519   6.120   4.882   2.053
 3874SOL     OW12520   5.479   6.518   5.702
 3874SOL    HW112521   5.383   6.534   5.679
 3874SOL    HW212522   5.500   6.561   5.790
 3875SOL     OW12523   3.122   3.172   0.796
 3875SOL    HW112524   3.053   3.120   0.846
 3875SOL    HW212525   3.212   3.129   0.809
 3876SOL     OW12526   5.410   3.971   3.050
 3876SOL    HW112527   5.310   3.978   3.045
 3876SOL    HW212528   5.435   3.879   3.082
 3877SOL     OW12529   4.576   2.242   2.082
 3877SOL    HW112530   4.576   2.317   2.016
 3877SOL    HW212531   4.660   2.189   2.072
 3878SOL     OW12532   6.081   5.420   5.306
 3878SOL    HW112533   6.014   5.439   5.233
 3878SOL    HW212534   6.156   5.365   5.269
 3879SOL     OW12535   2.072   6.655   0.622
 3879SOL    HW112536   2.086   6.729   0.688
 3879SOL    HW212537   2.009   6.587   0.661
 3880SOL     OW12538   5.659   1.968   4.608
 3880SOL    HW112539   5.638   1.870   4.605
 3880SOL    HW212540   5.756   1.980   4.628
 3881SOL     OW12541   6.922   6.375   5.824
 3881SOL    HW112542   6.949   6.462   5.865
 3881SOL    HW212543   7.003   6.326   5.794
 3882SOL     OW12544   6.847   5.924   6.980
 3882SOL    HW112545   6.808   5.843   7.024
 3882SOL    HW212546   6.899   5.977   0.023
 3883SOL     OW12547   4.086   1.963   0.447
 3883SOL    HW112548   4.042   1.918   0.370
 3883SOL    HW212549   4.022   2.026   0.491
 3884SOL     OW12550   2.866   6.183   6.161
 3884SOL    HW112551   2.927   6.193   6.240
 3884SOL    HW212552   2.917   6.142   6.085
 3885SOL     OW12553   0.827   1.083   4.150
 3885SOL    HW112554   0.925   1.080   4.170
 3885SOL    HW212555   0.775   1.065   4.233
 3886SOL     OW12556   6.905   6.100   4.540
 3886SOL    HW112557   6.805   6.094   4.541
 3886SOL    HW212558   6.933   6.184   4.494
 3887SOL     OW12559   0.677   3.179   5.118
 3887SOL    HW112560   0.719   3.269   5.108
 3887SOL    HW212561   0.743   3.115   5.158
 3888SOL     OW12562   4.589   2.201   3.393
 3888SOL    HW112563   4.617   2.122   3.448
 3888SOL    HW212564   4.585   2.174   3.296
 3889SOL     OW12565   6.317   5.545   0.749
 3889SOL    HW112566   6.299   5.638   0.781
 3889SOL    HW212567   6.415   5.528   0.748
 3890SOL     OW12568   5.995   2.951   3.610
 3890SOL    HW112569   6.003   2.883   3.683
 3890SOL    HW212570   6.080   2.955   3.558
 3891SOL     OW12571   3.782   4.350   6.240
 3891SOL    HW112572   3.807   4.418   6.171
 3891SOL    HW212573   3.790   4.259   6.201
 3892SOL     OW12574   5.097   5.914   4.373
 3892SOL    HW112575   5.050   5.966   4.302
 3892SOL    HW212576   5.033   5.848   4.413
 3893SOL     OW12577   2.863   5.799   5.057
 3893SOL    HW112578   2.784   5.769   5.111
 3893SOL    HW212579   2.889   5.728   4.993
 3894SOL     OW12580   5.529   5.886   6.069
 3894SOL    HW112581   5.433   5.867   6.052
 3894SOL    HW212582   5.575   5.909   5.983
 3895SOL     OW12583   1.463   1.988   4.651
 3895SOL    HW112584   1.528   1.916   4.627
 3895SOL    HW212585   1.371   1.961   4.623
 3896SOL     OW12586   6.244   2.892   1.014
 3896SOL    HW112587   6.205   2.814   1.063
 3896SOL    HW212588   6.299   2.947   1.077
 3897SOL     OW12589   2.310   0.943   2.926
 3897SOL    HW112590   2.381   0.975   2.988
 3897SOL    HW212591   2.220   0.955   2.969
 3898SOL     OW12592   3.371   3.747   2.707
 3898SOL    HW112593   3.391   3.697   2.791
 3898SOL    HW212594   3.390   3.844   2.720
 3899SOL     OW12595   4.541   1.095   6.211
 3899SOL    HW112596   4.474   1.166   6.188
 3899SOL    HW212597   4.580   1.057   6.128
 3900SOL     OW12598   1.098   2.577   4.114
 3900SOL    HW112599   1.097   2.613   4.208
 3900SOL    HW212600   1.149   2.639   4.055
 3901SOL     OW12601   4.094   6.564   4.395
 3901SOL    HW112602   4.087   6.467   4.418
 3901SOL    HW212603   4.097   6.618   4.479
 3902SOL     OW12604   2.883   4.837   3.207
 3902SOL    HW112605   2.815   4.830   3.280
 3902SOL    HW212606   2.840   4.817   3.120
 3903SOL     OW12607   2.504   4.004   6.252
 3903SOL    HW112608   2.415   4.045   6.233
 3903SOL    HW212609   2.534   4.031   6.344
 3904SOL     OW12610   2.718   6.367   0.761
 3904SOL    HW112611   2.646   6.399   0.823
 3904SOL    HW212612   2.717   6.267   0.757
 3905SOL     OW12613   4.178   6.463   5.227
 3905SOL    HW112614   4.263   6.432   5.185
 3905SOL    HW212615   4.171   6.424   5.319
 3906SOL     OW12616   6.800   5.969   3.866
 3906SOL    HW112617   6.791   5.915   3.782
 3906SOL    HW212618   6.735   6.045   3.864
 3907SOL     OW12619   1.544   0.664   5.011
 3907SOL    HW112620   1.519   0.661   5.108
 3907SOL    HW212621   1.525   0.755   4.975
 3908SOL     OW12622   2.415   1.932   4.545
 3908SOL    HW112623   2.507   1.933   4.504
 3908SOL    HW212624   2.367   1.849   4.517
 3909SOL     OW12625   6.589   3.188   2.801
 3909SOL    HW112626   6.503   3.221   2.840
 3909SOL    HW212627   6.651   3.266   2.788
 3910SOL     OW12628   1.520   2.258   0.155
 3910SOL    HW112629   1.609   2.236   0.114
 3910SOL    HW212630   1.506   2.200   0.236
 3911SOL     OW12631   6.588   0.904   2.806
 3911SOL    HW112632   6.627   0.888   2.897
 3911SOL    HW212633   6.638   0.977   2.761
 3912SOL     OW12634   4.861   4.392   0.938
 3912SOL    HW112635   4.765   4.379   0.915
 3912SOL    HW212636   4.883   4.340   1.020
 3913SOL     OW12637   4.181   4.609   0.695
 3913SOL    HW112638   4.247   4.684   0.708
 3913SOL    HW212639   4.099   4.645   0.650
 3914SOL     OW12640   0.495   0.877   0.235
 3914SOL    HW112641   0.584   0.886   0.189
 3914SOL    HW212642   0.423   0.911   0.175
 3915SOL     OW12643   5.152   6.845   4.832
 3915SOL    HW112644   5.248   6.822   4.817
 3915SOL    HW212645   5.094   6.773   4.794
 3916SOL     OW12646   1.770   2.703   2.217
 3916SOL    HW112647   1.862   2.742   2.217
 3916SOL    HW212648   1.773   2.611   2.178
 3917SOL     OW12649   3.380   5.446   1.853
 3917SOL    HW112650   3.287   5.469   1.882
 3917SOL    HW212651   3.438   5.527   1.860
 3918SOL     OW12652   3.715   6.355   0.136
 3918SOL    HW112653   3.638   6.302   0.100
 3918SOL    HW212654   3.799   6.302   0.128
 3919SOL     OW12655   5.155   4.310   3.745
 3919SOL    HW112656   5.209   4.356   3.674
 3919SOL    HW212657   5.163   4.211   3.735
 3920SOL     OW12658   4.103   0.275   5.509
 3920SOL    HW112659   4.037   0.311   5.444
 3920SOL    HW212660   4.072   0.295   5.602
 3921SOL     OW12661   1.395   3.979   5.469
 3921SOL    HW112662   1.396   3.880   5.478
 3921SOL    HW212663   1.399   4.004   5.372
 3922SOL     OW12664   5.495   1.424   3.974
 3922SOL    HW112665   5.458   1.510   4.010
 3922SOL    HW212666   5.420   1.370   3.936
 3923SOL     OW12667   5.798   0.914   1.488
 3923SOL    HW112668   5.785   0.967   1.572
 3923SOL    HW212669   5.807   0.976   1.410
 3924SOL     OW12670   5.461   4.864   4.033
 3924SOL    HW112671   5.421   4.774   4.017
 3924SOL    HW212672   5.440   4.894   4.126
 3925SOL     OW12673   3.785   4.501   1.616
 3925SOL    HW112674   3.772   4.591   1.657
 3925SOL    HW212675   3.767   4.506   1.518
 3926SOL     OW12676   0.576   5.893   5.179
 3926SOL    HW112677   0.637   5.929   5.249
 3926SOL    HW212678   0.527   5.814   5.214
 3927SOL     OW12679   6.002   6.155   5.186
 3927SOL    HW112680   5.910   6.115   5.185
 3927SOL    HW212681   6.056   6.115   5.112
 3928SOL     OW12682   4.320   5.390   2.264
 3928SOL    HW112683   4.325   5.488   2.279
 3928SOL    HW212684   4.401   5.345   2.303
 3929SOL     OW12685   1.791   0.837   5.161
 3929SOL    HW112686   1.787   0.843   5.061
 3929SOL    HW212687   1.872   0.887   5.194
 3930SOL     OW12688   2.003   5.822   4.696
 3930SOL    HW112689   1.915   5.864   4.718
 3930SOL    HW212690   1.987   5.729   4.663
 3931SOL     OW12691   0.091   2.053   0.441
 3931SOL    HW112692   0.158   2.064   0.514
 3931SOL    HW212693   0.046   2.141   0.424
 3932SOL     OW12694   1.742   4.654   2.981
 3932SOL    HW112695   1.823   4.677   3.036
 3932SOL    HW212696   1.722   4.557   2.991
 3933SOL     OW12697   1.306   0.157   1.623
 3933SOL    HW112698   1.351   0.139   1.535
 3933SOL    HW212699   1.280   0.254   1.627
 3934SOL     OW12700   1.123   6.689   1.740
 3934SOL    HW112701   1.169   6.659   1.823
 3934SOL    HW212702   1.177   6.761   1.696
 3935SOL     OW12703   6.752   1.205   4.854
 3935SOL    HW112704   6.764   1.113   4.890
 3935SOL    HW212705   6.688   1.202   4.777
 3936SOL     OW12706   6.387   4.738   4.207
 3936SOL    HW112707   6.470   4.725   4.262
 3936SOL    HW212708   6.352   4.831   4.221
 3937SOL     OW12709   1.541   6.693   6.788
 3937SOL    HW112710   1.511   6.622   6.852
 3937SOL    HW212711   1.614   6.747   6.830
 3938SOL     OW12712   1.231   4.643   6.853
 3938SOL    HW112713   1.203   4.563   6.800
 3938SOL    HW212714   1.263   4.613   6.943
 3939SOL     OW12715   2.143   5.824   4.461
 3939SOL    HW112716   2.110   5.833   4.555
 3939SOL    HW212717   2.074   5.776   4.406
 3940SOL     OW12718   2.282   5.949   6.915
 3940SOL    HW112719   2.346   5.909   6.980
 3940SOL    HW212720   2.328   5.966   6.828
 3941SOL     OW12721   5.417   4.788   3.184
 3941SOL    HW112722   5.464   4.702   3.162
 3941SOL    HW212723   5.427   4.807   3.282
 3942SOL     OW12724   0.898   6.877   0.256
 3942SOL    HW112725   0.973   6.815   0.281
 3942SOL    HW212726   0.818   6.858   0.313
 3943SOL     OW12727   0.459   4.597   0.366
 3943SOL    HW112728   0.372   4.621   0.407
 3943SOL    HW212729   0.447   4.515   0.309
 3944SOL     OW12730   5.581   2.876   0.679
 3944SOL    HW112731   5.560   2.909   0.771
 3944SOL    HW212732   5.542   2.784   0.667
 3945SOL     OW12733   0.533   0.752   2.958
 3945SOL    HW112734   0.627   0.785   2.971
 3945SOL    HW212735   0.528   0.699   2.873
 3946SOL     OW12736   4.964   0.813   0.807
 3946SOL    HW112737   4.875   0.791   0.847
 3946SOL    HW212738   5.029   0.740   0.826
 3947SOL     OW12739   5.170   0.106   0.782
 3947SOL    HW112740   5.255   0.054   0.785
 3947SOL    HW212741   5.165   0.157   0.697
 3948SOL     OW12742   1.860   1.541   4.176
 3948SOL    HW112743   1.882   1.639   4.180
 3948SOL    HW212744   1.771   1.529   4.131
 3949SOL     OW12745   6.131   6.795   2.367
 3949SOL    HW112746   6.052   6.817   2.310
 3949SOL    HW212747   6.101   6.779   2.461
 3950SOL     OW12748   2.416   4.609   1.829
 3950SOL    HW112749   2.375   4.519   1.845
 3950SOL    HW212750   2.378   4.648   1.745
 3951SOL     OW12751   0.047   2.757   2.977
 3951SOL    HW112752   0.102   2.679   2.946
 3951SOL    HW212753   0.108   2.831   3.007
 3952SOL     OW12754   5.869   5.487   6.850
 3952SOL    HW112755   5.969   5.493   6.847
 3952SOL    HW212756   5.831   5.579   6.852
 3953SOL     OW12757   3.146   2.999   4.889
 3953SOL    HW112758   3.091   3.082   4.893
 3953SOL    HW212759   3.092   2.925   4.849
 3954SOL     OW12760   0.822   4.809   6.281
 3954SOL    HW112761   0.870   4.723   6.300
 3954SOL    HW212762   0.888   4.884   6.280
 3955SOL     OW12763   6.041   3.172   0.402
 3955SOL    HW112764   6.066   3.079   0.374
 3955SOL    HW212765   6.120   3.232   0.396
 3956SOL     OW12766   6.957   3.149   4.769
 3956SOL    HW112767   6.941   3.232   4.716
 3956SOL    HW212768   6.904   3.153   4.854
 3957SOL     OW12769   1.636   2.754   1.904
 3957SOL    HW112770   1.615   2.775   1.808
 3957SOL    HW212771   1.707   2.683   1.908
 3958SOL     OW12772   5.175   5.392   1.006
 3958SOL    HW112773   5.209   5.303   1.038
 3958SOL    HW212774   5.093   5.417   1.057
 3959SOL     OW12775   2.618   4.827   0.735
 3959SOL    HW112776   2.622   4.756   0.664
 3959SOL    HW212777   2.695   4.890   0.723
 3960SOL     OW12778   5.838   3.487   1.161
 3960SOL    HW112779   5.888   3.436   1.230
 3960SOL    HW212780   5.797   3.569   1.202
 3961SOL     OW12781   0.034   1.230   1.866
 3961SOL    HW112782   6.975   1.252   1.816
 3961SOL    HW212783   0.015   1.160   1.935
 3962SOL     OW12784   0.332   6.710   0.041
 3962SOL    HW112785   0.289   6.621   0.030
 3962SOL    HW212786   0.301   6.772   6.993
 3963SOL     OW12787   6.501   2.778   4.972
 3963SOL    HW112788   6.476   2.864   4.928
 3963SOL    HW212789   6.451   2.769   5.059
 3964SOL     OW12790   5.849   5.429   6.563
 3964SOL    HW112791   5.925   5.483   6.598
 3964SOL    HW212792   5.794   5.396   6.640
 3965SOL     OW12793   2.169   5.284   1.774
 3965SOL    HW112794   2.113   5.202   1.766
 3965SOL    HW212795   2.183   5.325   1.684
 3966SOL     OW12796   6.763   4.447   5.596
 3966SOL    HW112797   6.703   4.481   5.523
 3966SOL    HW212798   6.836   4.513   5.611
 3967SOL     OW12799   2.913   0.369   0.798
 3967SOL    HW112800   2.892   0.280   0.758
 3967SOL    HW212801   2.984   0.414   0.743
 3968SOL     OW12802   4.654   2.631   0.665
 3968SOL    HW112803   4.656   2.560   0.735
 3968SOL    HW212804   4.733   2.691   0.675
 3969SOL     OW12805   6.316   6.578   1.502
 3969SOL    HW112806   6.409   6.586   1.538
 3969SOL    HW212807   6.260   6.652   1.539
 3970SOL     OW12808   6.030   3.950   3.641
 3970SOL    HW112809   5.952   3.965   3.702
 3970SOL    HW212810   6.101   3.899   3.690
 3971SOL     OW12811   6.970   5.828   4.364
 3971SOL    HW112812   0.034   5.792   4.334
 3971SOL    HW212813   6.984   5.913   4.414
 3972SOL     OW12814   0.722   0.706   6.402
 3972SOL    HW112815   0.729   0.779   6.334
 3972SOL    HW212816   0.642   0.722   6.460
 3973SOL     OW12817   4.006   3.126   1.608
 3973SOL    HW112818   4.055   3.193   1.664
 3973SOL    HW212819   3.996   3.160   1.515
 3974SOL     OW12820   5.255   0.942   6.773
 3974SOL    HW112821   5.339   0.984   6.808
 3974SOL    HW212822   5.200   0.908   6.849
 3975SOL     OW12823   0.115   6.430   3.682
 3975SOL    HW112824   0.175   6.466   3.610
 3975SOL    HW212825   0.027   6.404   3.642
 3976SOL     OW12826   0.890   3.025   5.212
 3976SOL    HW112827   0.930   3.036   5.302
 3976SOL    HW212828   0.951   2.970   5.155
 3977SOL     OW12829   2.223   4.766   6.063
 3977SOL    HW112830   2.274   4.834   6.116
 3977SOL    HW212831   2.252   4.674   6.091
 3978SOL     OW12832   4.342   3.208   6.331
 3978SOL    HW112833   4.339   3.267   6.412
 3978SOL    HW212834   4.363   3.114   6.360
 3979SOL     OW12835   6.938   5.537   2.832
 3979SOL    HW112836   6.879   5.542   2.752
 3979SOL    HW212837   6.904   5.599   2.903
 3980SOL     OW12838   5.407   4.250   3.930
 3980SOL    HW112839   5.412   4.293   4.020
 3980SOL    HW212840   5.349   4.305   3.870
 3981SOL     OW12841   6.979   1.114   0.055
 3981SOL    HW112842   0.005   1.196   0.026
 3981SOL    HW212843   6.892   1.109   0.006
 3982SOL     OW12844   2.137   2.973   3.659
 3982SOL    HW112845   2.149   3.062   3.704
 3982SOL    HW212846   2.049   2.934   3.685
 3983SOL     OW12847   2.762   1.337   3.247
 3983SOL    HW112848   2.754   1.266   3.177
 3983SOL    HW212849   2.677   1.340   3.300
 3984SOL     OW12850   1.373   6.059   2.683
 3984SOL    HW112851   1.283   6.085   2.649
 3984SOL    HW212852   1.398   5.969   2.648
 3985SOL     OW12853   1.269   2.593   0.900
 3985SOL    HW112854   1.329   2.516   0.881
 3985SOL    HW212855   1.259   2.650   0.818
 3986SOL     OW12856   0.746   0.891   3.298
 3986SOL    HW112857   0.802   0.964   3.259
 3986SOL    HW212858   0.801   0.835   3.360
 3987SOL     OW12859   1.489   4.463   5.561
 3987SOL    HW112860   1.585   4.445   5.536
 3987SOL    HW212861   1.445   4.512   5.486
 3988SOL     OW12862   5.138   5.780   2.210
 3988SOL    HW112863   5.149   5.708   2.141
 3988SOL    HW212864   5.084   5.744   2.286
 3989SOL     OW12865   4.484   0.815   6.304
 3989SOL    HW112866   4.509   0.901   6.259
 3989SOL    HW212867   4.496   0.825   6.402
 3990SOL     OW12868   6.411   6.296   4.048
 3990SOL    HW112869   6.483   6.365   4.039
 3990SOL    HW212870   6.338   6.333   4.105
 3991SOL     OW12871   0.435   2.081   4.077
 3991SOL    HW112872   0.441   2.090   3.977
 3991SOL    HW212873   0.345   2.043   4.101
 3992SOL     OW12874   6.099   3.789   5.781
 3992SOL    HW112875   6.105   3.696   5.745
 3992SOL    HW212876   6.109   3.855   5.706
 3993SOL     OW12877   1.964   0.668   4.619
 3993SOL    HW112878   1.965   0.600   4.693
 3993SOL    HW212879   1.870   0.694   4.599
 3994SOL     OW12880   3.152   2.125   3.692
 3994SOL    HW112881   3.168   2.034   3.730
 3994SOL    HW212882   3.125   2.118   3.596
 3995SOL     OW12883   1.898   3.806   2.154
 3995SOL    HW112884   1.869   3.839   2.063
 3995SOL    HW212885   1.987   3.762   2.146
 3996SOL     OW12886   0.332   5.308   5.352
 3996SOL    HW112887   0.279   5.285   5.270
 3996SOL    HW212888   0.421   5.263   5.348
 3997SOL     OW12889   6.041   2.921   4.949
 3997SOL    HW112890   6.068   2.996   5.009
 3997SOL    HW212891   6.014   2.842   5.005
 3998SOL     OW12892   4.430   2.472   2.816
 3998SOL    HW112893   4.520   2.468   2.773
 3998SOL    HW212894   4.438   2.513   2.907
 3999SOL     OW12895   4.493   3.488   1.029
 3999SOL    HW112896   4.442   3.418   1.079
 3999SOL    HW212897   4.567   3.523   1.087
 4000SOL     OW12898   2.699   4.650   2.516
 4000SOL    HW112899   2.635   4.725   2.531
 4000SOL    HW212900   2.734   4.654   2.422
 4001SOL     OW12901   0.781   5.570   3.897
 4001SOL    HW112902   0.758   5.660   3.935
 4001SOL    HW212903   0.787   5.577   3.797
 4002SOL     OW12904   3.873   4.089   4.967
 4002SOL    HW112905   3.905   4.184   4.968
 4002SOL    HW212906   3.907   4.041   5.048
 4003SOL     OW12907   3.116   1.976   4.397
 4003SOL    HW112908   3.179   1.963   4.321
 4003SOL    HW212909   3.059   2.056   4.379
 4004SOL     OW12910   2.135   3.613   4.871
 4004SOL    HW112911   2.183   3.694   4.836
 4004SOL    HW212912   2.117   3.625   4.969
 4005SOL     OW12913   5.515   2.016   1.174
 4005SOL    HW112914   5.548   2.107   1.147
 4005SOL    HW212915   5.584   1.947   1.150
 4006SOL     OW12916   6.873   6.047   2.038
 4006SOL    HW112917   6.928   6.040   1.954
 4006SOL    HW212918   6.917   5.995   2.111
 4007SOL     OW12919   0.829   1.514   1.253
 4007SOL    HW112920   0.833   1.614   1.263
 4007SOL    HW212921   0.860   1.471   1.338
 4008SOL     OW12922   4.100   0.629   1.493
 4008SOL    HW112923   4.157   0.632   1.411
 4008SOL    HW212924   4.027   0.696   1.486
 4009SOL     OW12925   3.561   2.529   1.425
 4009SOL    HW112926   3.573   2.497   1.520
 4009SOL    HW212927   3.557   2.628   1.424
 4010SOL     OW12928   1.065   5.248   0.854
 4010SOL    HW112929   1.123   5.218   0.929
 4010SOL    HW212930   1.117   5.245   0.768
 4011SOL     OW12931   5.913   6.928   6.984
 4011SOL    HW112932   5.969   6.853   6.947
 4011SOL    HW212933   5.888   6.907   0.054
 4012SOL     OW12934   5.833   4.522   1.824
 4012SOL    HW112935   5.770   4.581   1.774
 4012SOL    HW212936   5.865   4.570   1.906
 4013SOL     OW12937   6.856   2.149   6.740
 4013SOL    HW112938   6.820   2.147   6.833
 4013SOL    HW212939   6.847   2.242   6.703
 4014SOL     OW12940   3.777   6.060   2.942
 4014SOL    HW112941   3.787   6.047   3.041
 4014SOL    HW212942   3.867   6.060   2.899
 4015SOL     OW12943   3.219   6.282   4.854
 4015SOL    HW112944   3.311   6.303   4.886
 4015SOL    HW212945   3.208   6.316   4.761
 4016SOL     OW12946   4.436   5.014   4.225
 4016SOL    HW112947   4.365   5.083   4.241
 4016SOL    HW212948   4.415   4.964   4.141
 4017SOL     OW12949   1.996   5.818   5.843
 4017SOL    HW112950   1.916   5.787   5.896
 4017SOL    HW212951   2.079   5.806   5.898
 4018SOL     OW12952   5.311   5.679   0.011
 4018SOL    HW112953   5.334   5.754   6.974
 4018SOL    HW212954   5.219   5.646   7.016
 4019SOL     OW12955   0.833   2.106   3.081
 4019SOL    HW112956   0.826   2.028   3.019
 4019SOL    HW212957   0.907   2.166   3.050
 4020SOL     OW12958   6.894   5.991   4.781
 4020SOL    HW112959   6.892   6.058   4.707
 4020SOL    HW212960   6.956   6.021   4.853
 4021SOL     OW12961   4.654   5.810   5.786
 4021SOL    HW112962   4.666   5.829   5.689
 4021SOL    HW212963   4.562   5.775   5.802
 4022SOL     OW12964   4.005   0.125   1.598
 4022SOL    HW112965   4.010   0.214   1.643
 4022SOL    HW212966   3.939   0.129   1.523
 4023SOL     OW12967   0.933   2.015   3.640
 4023SOL    HW112968   0.902   2.110   3.634
 4023SOL    HW212969   0.874   1.958   3.582
 4024SOL     OW12970   0.831   6.750   6.544
 4024SOL    HW112971   0.866   6.752   6.451
 4024SOL    HW212972   0.735   6.722   6.543
 4025SOL     OW12973   1.124   4.620   4.672
 4025SOL    HW112974   1.154   4.714   4.684
 4025SOL    HW212975   1.027   4.618   4.648
 4026SOL     OW12976   0.733   6.442   4.363
 4026SOL    HW112977   0.689   6.391   4.436
 4026SOL    HW212978   0.795   6.382   4.312
 4027SOL     OW12979   3.202   5.686   4.761
 4027SOL    HW112980   3.260   5.660   4.839
 4027SOL    HW212981   3.212   5.619   4.688
 4028SOL     OW12982   4.474   1.933   4.758
 4028SOL    HW112983   4.573   1.919   4.750
 4028SOL    HW212984   4.427   1.873   4.693
 4029SOL     OW12985   2.154   6.690   1.156
 4029SOL    HW112986   2.209   6.760   1.202
 4029SOL    HW212987   2.091   6.649   1.222
 4030SOL     OW12988   0.604   1.207   1.847
 4030SOL    HW112989   0.596   1.122   1.794
 4030SOL    HW212990   0.634   1.186   1.940
 4031SOL     OW12991   6.511   6.080   1.013
 4031SOL    HW112992   6.420   6.061   0.978
 4031SOL    HW212993   6.552   6.155   0.962
 4032SOL     OW12994   4.804   2.034   2.031
 4032SOL    HW112995   4.890   2.074   2.063
 4032SOL    HW212996   4.814   2.007   1.935
 4033SOL     OW12997   1.174   3.873   2.992
 4033SOL    HW112998   1.111   3.830   2.927
 4033SOL    HW212999   1.264   3.828   2.986
 4034SOL     OW13000   2.713   2.050   4.150
 4034SOL    HW113001   2.729   2.132   4.204
 4034SOL    HW213002   2.645   2.070   4.079
 4035SOL     OW13003   3.192   2.423   1.389
 4035SOL    HW113004   3.273   2.372   1.420
 4035SOL    HW213005   3.116   2.404   1.450
 4036SOL     OW13006   4.512   6.958   3.371
 4036SOL    HW113007   4.481   7.021   3.443
 4036SOL    HW213008   4.527   7.009   3.286
 4037SOL     OW13009   1.819   0.792   5.580
 4037SOL    HW113010   1.864   0.781   5.668
 4037SOL    HW213011   1.885   0.828   5.513
 4038SOL     OW13012   4.235   4.959   5.561
 4038SOL    HW113013   4.297   4.971   5.483
 4038SOL    HW213014   4.140   4.959   5.528
 4039SOL     OW13015   5.959   4.381   2.207
 4039SOL    HW113016   6.024   4.394   2.132
 4039SOL    HW213017   5.999   4.319   2.276
 4040SOL     OW13018   2.559   6.615   5.248
 4040SOL    HW113019   2.531   6.691   5.190
 4040SOL    HW213020   2.543   6.529   5.201
 4041SOL     OW13021   1.686   5.984   1.293
 4041SOL    HW113022   1.728   5.938   1.371
 4041SOL    HW213023   1.675   6.081   1.313
 4042SOL     OW13024   1.527   1.763   4.249
 4042SOL    HW113025   1.461   1.836   4.271
 4042SOL    HW213026   1.609   1.775   4.305
 4043SOL     OW13027   3.266   2.717   5.989
 4043SOL    HW113028   3.238   2.632   5.944
 4043SOL    HW213029   3.255   2.793   5.925
 4044SOL     OW13030   4.691   4.185   3.435
 4044SOL    HW113031   4.649   4.177   3.344
 4044SOL    HW213032   4.747   4.268   3.438
 4045SOL     OW13033   4.395   1.467   5.093
 4045SOL    HW113034   4.355   1.508   5.011
 4045SOL    HW213035   4.366   1.518   5.174
 4046SOL     OW13036   5.034   1.059   4.208
 4046SOL    HW113037   4.946   1.098   4.236
 4046SOL    HW213038   5.096   1.132   4.182
 4047SOL     OW13039   2.971   2.548   6.415
 4047SOL    HW113040   3.036   2.624   6.407
 4047SOL    HW213041   2.963   2.522   6.511
 4048SOL     OW13042   4.719   2.376   3.541
 4048SOL    HW113043   4.644   2.319   3.508
 4048SOL    HW213044   4.763   2.331   3.618
 4049SOL     OW13045   3.939   3.969   2.629
 4049SOL    HW113046   3.979   3.914   2.702
 4049SOL    HW213047   3.844   3.990   2.651
 4050SOL     OW13048   0.322   4.799   2.871
 4050SOL    HW113049   0.227   4.782   2.847
 4050SOL    HW213050   0.382   4.761   2.801
 4051SOL     OW13051   5.952   0.367   3.945
 4051SOL    HW113052   5.901   0.337   4.025
 4051SOL    HW213053   6.039   0.407   3.974
 4052SOL     OW13054   4.365   1.028   4.657
 4052SOL    HW113055   4.461   1.033   4.685
 4052SOL    HW213056   4.349   0.944   4.605
 4053SOL     OW13057   0.871   4.625   3.003
 4053SOL    HW113058   0.815   4.591   3.078
 4053SOL    HW213059   0.827   4.603   2.916
 4054SOL     OW13060   5.411   3.747   1.663
 4054SOL    HW113061   5.426   3.698   1.578
 4054SOL    HW213062   5.417   3.683   1.740
 4055SOL     OW13063   6.859   4.415   6.943
 4055SOL    HW113064   6.776   4.460   6.912
 4055SOL    HW213065   6.837   4.348   7.014
 4056SOL     OW13066   4.716   4.188   0.034
 4056SOL    HW113067   4.709   4.271   0.090
 4056SOL    HW213068   4.691   4.109   0.090
 4057SOL     OW13069   0.030   4.761   5.942
 4057SOL    HW113070   0.016   4.850   5.898
 4057SOL    HW213071   6.998   4.756   6.025
 4058SOL     OW13072   3.166   1.090   4.089
 4058SOL    HW113073   3.249   1.034   4.091
 4058SOL    HW213074   3.191   1.186   4.099
 4059SOL     OW13075   1.631   1.440   3.509
 4059SOL    HW113076   1.633   1.536   3.481
 4059SOL    HW213077   1.564   1.428   3.582
 4060SOL     OW13078   0.219   6.708   4.052
 4060SOL    HW113079   0.200   6.700   3.954
 4060SOL    HW213080   0.220   6.617   4.093
 4061SOL     OW13081   1.544   4.154   2.642
 4061SOL    HW113082   1.486   4.132   2.720
 4061SOL    HW213083   1.591   4.072   2.611
 4062SOL     OW13084   2.646   4.036   0.399
 4062SOL    HW113085   2.714   3.979   0.445
 4062SOL    HW213086   2.635   4.122   0.449
 4063SOL     OW13087   3.657   0.916   1.040
 4063SOL    HW113088   3.749   0.887   1.067
 4063SOL    HW213089   3.602   0.933   1.122
 4064SOL     OW13090   2.488   6.732   4.800
 4064SOL    HW113091   2.546   6.657   4.832
 4064SOL    HW213092   2.428   6.699   4.727
 4065SOL     OW13093   2.141   1.332   1.466
 4065SOL    HW113094   2.115   1.304   1.558
 4065SOL    HW213095   2.081   1.287   1.399
 4066SOL     OW13096   0.652   4.072   4.773
 4066SOL    HW113097   0.687   3.980   4.788
 4066SOL    HW213098   0.563   4.082   4.819
 4067SOL     OW13099   6.026   4.411   1.393
 4067SOL    HW113100   6.090   4.379   1.462
 4067SOL    HW213101   5.934   4.417   1.432
 4068SOL     OW13102   2.343   2.676   5.934
 4068SOL    HW113103   2.333   2.601   6.000
 4068SOL    HW213104   2.292   2.755   5.967
 4069SOL     OW13105   4.054   0.187   6.163
 4069SOL    HW113106   4.004   0.211   6.247
 4069SOL    HW213107   3.989   0.172   6.089
 4070SOL     OW13108   1.797   3.939   4.158
 4070SOL    HW113109   1.706   3.900   4.173
 4070SOL    HW213110   1.824   3.926   4.063
 4071SOL     OW13111   1.058   0.411   5.469
 4071SOL    HW113112   1.138   0.421   5.528
 4071SOL    HW213113   1.087   0.419   5.373
 4072SOL     OW13114   2.891   6.508   2.583
 4072SOL    HW113115   2.888   6.584   2.647
 4072SOL    HW213116   2.809   6.509   2.525
 4073SOL     OW13117   4.715   5.439   6.889
 4073SOL    HW113118   4.781   5.510   6.865
 4073SOL    HW213119   4.715   5.369   6.817
 4074SOL     OW13120   1.705   5.634   2.174
 4074SOL    HW113121   1.630   5.591   2.223
 4074SOL    HW213122   1.790   5.621   2.225
 4075SOL     OW13123   5.376   0.561   6.820
 4075SOL    HW113124   5.456   0.501   6.821
 4075SOL    HW213125   5.368   0.605   6.731
 4076SOL     OW13126   2.380   5.555   3.566
 4076SOL    HW113127   2.452   5.606   3.614
 4076SOL    HW213128   2.421   5.494   3.498
 4077SOL     OW13129   2.412   2.006   1.638
 4077SOL    HW113130   2.363   1.955   1.567
 4077SOL    HW213131   2.506   1.972   1.644
 4078SOL     OW13132   4.460   4.968   2.020
 4078SOL    HW113133   4.554   4.959   2.053
 4078SOL    HW213134   4.437   5.065   2.009
 4079SOL     OW13135   0.864   2.288   4.064
 4079SOL    HW113136   0.930   2.348   4.020
 4079SOL    HW213137   0.883   2.282   4.162
 4080SOL     OW13138   6.076   2.348   4.530
 4080SOL    HW113139   5.985   2.311   4.549
 4080SOL    HW213140   6.077   2.386   4.437
 4081SOL     OW13141   6.332   3.513   2.340
 4081SOL    HW113142   6.417   3.496   2.390
 4081SOL    HW213143   6.276   3.431   2.340
 4082SOL     OW13144   0.524   3.888   0.939
 4082SOL    HW113145   0.563   3.946   0.867
 4082SOL    HW213146   0.446   3.934   0.980
 4083SOL     OW13147   6.773   3.354   5.459
 4083SOL    HW113148   6.713   3.279   5.487
 4083SOL    HW213149   6.774   3.424   5.530
 4084SOL     OW13150   4.922   0.792   4.194
 4084SOL    HW113151   4.969   0.708   4.220
 4084SOL    HW213152   4.983   0.870   4.207
 4085SOL     OW13153   2.912   5.251   6.965
 4085SOL    HW113154   2.942   5.227   0.033
 4085SOL    HW213155   2.929   5.349   6.949
 4086SOL     OW13156   0.241   2.121   1.555
 4086SOL    HW113157   0.212   2.204   1.507
 4086SOL    HW213158   0.273   2.053   1.490
 4087SOL     OW13159   1.176   0.954   3.319
 4087SOL    HW113160   1.130   1.041   3.302
 4087SOL    HW213161   1.184   0.939   3.417
 4088SOL     OW13162   0.243   2.776   6.391
 4088SOL    HW113163   0.326   2.814   6.432
 4088SOL    HW213164   0.242   2.677   6.405
 4089SOL     OW13165   0.442   1.589   5.477
 4089SOL    HW113166   0.415   1.529   5.402
 4089SOL    HW213167   0.531   1.629   5.458
 4090SOL     OW13168   3.343   5.282   6.645
 4090SOL    HW113169   3.334   5.195   6.693
 4090SOL    HW213170   3.292   5.278   6.559
 4091SOL     OW13171   4.300   6.367   1.238
 4091SOL    HW113172   4.235   6.443   1.232
 4091SOL    HW213173   4.280   6.300   1.167
 4092SOL     OW13174   1.245   1.297   3.862
 4092SOL    HW113175   1.268   1.233   3.789
 4092SOL    HW213176   1.151   1.329   3.850
 4093SOL     OW13177   4.475   6.861   4.149
 4093SOL    HW113178   4.534   6.936   4.178
 4093SOL    HW213179   4.508   6.823   4.063
 4094SOL     OW13180   3.106   3.180   6.426
 4094SOL    HW113181   3.157   3.192   6.341
 4094SOL    HW213182   3.154   3.225   6.501
 4095SOL     OW13183   1.689   3.803   5.897
 4095SOL    HW113184   1.749   3.876   5.929
 4095SOL    HW213185   1.695   3.725   5.959
 4096SOL     OW13186   4.597   4.696   1.508
 4096SOL    HW113187   4.668   4.700   1.579
 4096SOL    HW213188   4.586   4.602   1.477
 4097SOL     OW13189   3.450   3.867   3.244
 4097SOL    HW113190   3.449   3.784   3.188
 4097SOL    HW213191   3.526   3.925   3.215
 4098SOL     OW13192   1.369   3.174   2.420
 4098SOL    HW113193   1.391   3.128   2.506
 4098SOL    HW213194   1.397   3.117   2.343
 4099SOL     OW13195   2.156   6.355   1.550
 4099SOL    HW113196   2.083   6.288   1.566
 4099SOL    HW213197   2.208   6.368   1.635
 4100SOL     OW13198   3.597   0.040   3.002
 4100SOL    HW113199   3.638   6.987   3.050
 4100SOL    HW213200   3.573   0.111   3.068
 4101SOL     OW13201   4.846   1.770   0.116
 4101SOL    HW113202   4.851   1.858   0.069
 4101SOL    HW213203   4.752   1.752   0.144
 4102SOL     OW13204   4.687   1.591   5.891
 4102SOL    HW113205   4.726   1.520   5.832
 4102SOL    HW213206   4.634   1.655   5.835
 4103SOL     OW13207   6.844   6.853   2.216
 4103SOL    HW113208   6.922   6.791   2.230
 4103SOL    HW213209   6.827   6.863   2.118
 4104SOL     OW13210   2.210   4.047   2.353
 4104SOL    HW113211   2.280   4.105   2.394
 4104SOL    HW213212   2.184   3.975   2.417
 4105SOL     OW13213   6.248   4.893   0.599
 4105SOL    HW113214   6.264   4.984   0.637
 4105SOL    HW213215   6.322   4.832   0.628
 4106SOL     OW13216   0.378   3.498   4.355
 4106SOL    HW113217   0.347   3.538   4.269
 4106SOL    HW213218   0.299   3.479   4.414
 4107SOL     OW13219   6.864   0.496   0.819
 4107SOL    HW113220   6.956   0.515   0.785
 4107SOL    HW213221   6.863   0.499   0.919
 4108SOL     OW13222   6.279   2.217   4.974
 4108SOL    HW113223   6.367   2.189   4.935
 4108SOL    HW213224   6.247   2.299   4.927
 4109SOL     OW13225   2.251   6.461   3.712
 4109SOL    HW113226   2.309   6.390   3.752
 4109SOL    HW213227   2.192   6.500   3.782
 4110SOL     OW13228   4.918   3.306   5.087
 4110SOL    HW113229   4.930   3.339   4.994
 4110SOL    HW213230   4.854   3.367   5.136
 4111SOL     OW13231   3.769   3.256   6.495
 4111SOL    HW113232   3.760   3.185   6.565
 4111SOL    HW213233   3.710   3.235   6.418
 4112SOL     OW13234   3.926   0.987   5.942
 4112SOL    HW113235   3.892   1.022   6.029
 4112SOL    HW213236   3.877   1.031   5.866
 4113SOL     OW13237   3.710   5.288   4.055
 4113SOL    HW113238   3.753   5.238   3.980
 4113SOL    HW213239   3.728   5.386   4.044
 4114SOL     OW13240   3.552   1.508   3.399
 4114SOL    HW113241   3.639   1.502   3.350
 4114SOL    HW213242   3.482   1.545   3.339
 4115SOL     OW13243   5.119   3.671   3.211
 4115SOL    HW113244   5.181   3.705   3.281
 4115SOL    HW213245   5.166   3.667   3.123
 4116SOL     OW13246   2.702   1.415   1.482
 4116SOL    HW113247   2.742   1.503   1.456
 4116SOL    HW213248   2.745   1.342   1.430
 4117SOL     OW13249   1.418   6.104   1.906
 4117SOL    HW113250   1.376   6.043   1.838
 4117SOL    HW213251   1.502   6.144   1.868
 4118SOL     OW13252   1.797   0.603   6.013
 4118SOL    HW113253   1.858   0.653   6.075
 4118SOL    HW213254   1.845   0.585   5.927
 4119SOL     OW13255   5.049   1.456   3.364
 4119SOL    HW113256   5.079   1.403   3.443
 4119SOL    HW213257   5.091   1.419   3.281
 4120SOL     OW13258   5.648   0.762   2.219
 4120SOL    HW113259   5.640   0.730   2.124
 4120SOL    HW213260   5.558   0.791   2.252
 4121SOL     OW13261   5.530   2.257   3.720
 4121SOL    HW113262   5.489   2.285   3.807
 4121SOL    HW213263   5.520   2.158   3.709
 4122SOL     OW13264   2.372   4.992   0.007
 4122SOL    HW113265   2.464   5.028   7.023
 4122SOL    HW213266   2.306   5.061   7.000
 4123SOL     OW13267   4.016   3.664   5.392
 4123SOL    HW113268   4.077   3.662   5.313
 4123SOL    HW213269   3.925   3.696   5.364
 4124SOL     OW13270   4.735   6.160   3.064
 4124SOL    HW113271   4.647   6.208   3.067
 4124SOL    HW213272   4.806   6.221   3.028
 4125SOL     OW13273   4.751   1.862   1.487
 4125SOL    HW113274   4.654   1.851   1.462
 4125SOL    HW213275   4.773   1.798   1.561
 4126SOL     OW13276   1.854   3.906   4.815
 4126SOL    HW113277   1.863   3.960   4.899
 4126SOL    HW213278   1.932   3.924   4.756
 4127SOL     OW13279   5.021   4.767   4.092
 4127SOL    HW113280   5.056   4.808   4.008
 4127SOL    HW213281   5.058   4.815   4.172
 4128SOL     OW13282   0.121   1.865   1.891
 4128SOL    HW113283   0.173   1.783   1.912
 4128SOL    HW213284   0.177   1.928   1.837
 4129SOL     OW13285   0.175   2.953   0.290
 4129SOL    HW113286   0.080   2.923   0.281
 4129SOL    HW213287   0.226   2.887   0.345
 4130SOL     OW13288   6.636   1.704   1.237
 4130SOL    HW113289   6.592   1.773   1.295
 4130SOL    HW213290   6.652   1.742   1.146
 4131SOL     OW13291   6.901   3.598   3.473
 4131SOL    HW113292   6.839   3.676   3.462
 4131SOL    HW213293   6.858   3.530   3.532
 4132SOL     OW13294   4.437   1.593   4.426
 4132SOL    HW113295   4.458   1.569   4.521
 4132SOL    HW213296   4.520   1.627   4.381
 4133SOL     OW13297   2.653   2.782   0.533
 4133SOL    HW113298   2.740   2.744   0.563
 4133SOL    HW213299   2.619   2.730   0.455
 4134SOL     OW13300   2.431   1.107   6.975
 4134SOL    HW113301   2.477   1.039   0.007
 4134SOL    HW213302   2.499   1.159   6.923
 4135SOL     OW13303   1.700   0.296   0.755
 4135SOL    HW113304   1.723   0.379   0.806
 4135SOL    HW213305   1.775   0.230   0.764
 4136SOL     OW13306   1.317   1.775   3.382
 4136SOL    HW113307   1.256   1.835   3.434
 4136SOL    HW213308   1.356   1.826   3.305
 4137SOL     OW13309   3.919   3.021   4.899
 4137SOL    HW113310   3.956   2.949   4.840
 4137SOL    HW213311   3.982   3.098   4.901
 4138SOL     OW13312   5.002   5.336   1.373
 4138SOL    HW113313   4.935   5.267   1.347
 4138SOL    HW213314   5.091   5.292   1.388
 4139SOL     OW13315   2.777   1.670   6.909
 4139SOL    HW113316   2.786   1.742   6.978
 4139SOL    HW213317   2.863   1.663   6.859
 4140SOL     OW13318   4.789   2.561   4.674
 4140SOL    HW113319   4.721   2.628   4.643
 4140SOL    HW213320   4.793   2.485   4.609
 4141SOL     OW13321   5.218   6.367   1.165
 4141SOL    HW113322   5.273   6.301   1.215
 4141SOL    HW213323   5.278   6.430   1.116
 4142SOL     OW13324   6.137   3.118   1.504
 4142SOL    HW113325   6.057   3.161   1.546
 4142SOL    HW213326   6.113   3.026   1.473
 4143SOL     OW13327   1.982   2.544   1.695
 4143SOL    HW113328   2.023   2.564   1.607
 4143SOL    HW213329   1.977   2.628   1.750
 4144SOL     OW13330   4.147   1.037   2.496
 4144SOL    HW113331   4.184   0.951   2.462
 4144SOL    HW213332   4.135   1.101   2.421
 4145SOL     OW13333   2.750   0.130   3.605
 4145SOL    HW113334   2.760   0.073   3.687
 4145SOL    HW213335   2.669   0.101   3.554
 4146SOL     OW13336   5.019   4.852   0.565
 4146SOL    HW113337   5.084   4.877   0.638
 4146SOL    HW213338   5.061   4.868   0.476
 4147SOL     OW13339   2.573   1.815   5.819
 4147SOL    HW113340   2.647   1.875   5.786
 4147SOL    HW213341   2.489   1.868   5.829
 4148SOL     OW13342   6.979   6.484   2.252
 4148SOL    HW113343   6.993   6.557   2.185
 4148SOL    HW213344   0.027   6.489   2.322
 4149SOL     OW13345   4.753   4.170   2.181
 4149SOL    HW113346   4.664   4.185   2.136
 4149SOL    HW213347   4.746   4.196   2.277
 4150SOL     OW13348   3.321   0.335   4.881
 4150SOL    HW113349   3.267   0.418   4.868
 4150SOL    HW213350   3.280   0.280   4.955
 4151SOL     OW13351   0.490   5.699   0.065
 4151SOL    HW113352   0.446   5.633   0.127
 4151SOL    HW213353   0.558   5.652   0.009
 4152SOL     OW13354   3.711   4.317   0.932
 4152SOL    HW113355   3.723   4.366   0.846
 4152SOL    HW213356   3.631   4.256   0.924
 4153SOL     OW13357   6.199   5.989   6.358
 4153SOL    HW113358   6.176   6.065   6.419
 4153SOL    HW213359   6.117   5.937   6.338
 4154SOL     OW13360   4.502   2.420   4.666
 4154SOL    HW113361   4.431   2.413   4.736
 4154SOL    HW213362   4.580   2.362   4.692
 4155SOL     OW13363   1.791   2.915   0.496
 4155SOL    HW113364   1.878   2.931   0.450
 4155SOL    HW213365   1.788   2.821   0.529
 4156SOL     OW13366   6.406   1.306   5.575
 4156SOL    HW113367   6.349   1.261   5.506
 4156SOL    HW213368   6.347   1.345   5.647
 4157SOL     OW13369   3.621   0.974   3.899
 4157SOL    HW113370   3.719   0.990   3.895
 4157SOL    HW213371   3.598   0.894   3.842
 4158SOL     OW13372   0.629   0.207   3.319
 4158SOL    HW113373   0.552   0.269   3.336
 4158SOL    HW213374   0.668   0.227   3.229
 4159SOL     OW13375   0.562   4.849   5.612
 4159SOL    HW113376   0.588   4.772   5.553
 4159SOL    HW213377   0.641   4.909   5.625
 4160SOL     OW13378   6.483   0.850   1.508
 4160SOL    HW113379   6.545   0.913   1.554
 4160SOL    HW213380   6.509   0.756   1.531
 4161SOL     OW13381   6.606   0.971   1.832
 4161SOL    HW113382   6.680   1.028   1.868
 4161SOL    HW213383   6.565   1.015   1.752
 4162SOL     OW13384   0.947   6.857   4.952
 4162SOL    HW113385   0.934   6.772   4.901
 4162SOL    HW213386   1.025   6.907   4.914
 4163SOL     OW13387   0.171   1.813   5.223
 4163SOL    HW113388   0.212   1.731   5.184
 4163SOL    HW213389   0.142   1.874   5.149
 4164SOL     OW13390   2.483   6.657   5.768
 4164SOL    HW113391   2.503   6.652   5.670
 4164SOL    HW213392   2.392   6.619   5.786
 4165SOL     OW13393   1.350   6.327   1.398
 4165SOL    HW113394   1.396   6.266   1.462
 4165SOL    HW213395   1.339   6.280   1.310
 4166SOL     OW13396   6.329   1.879   2.600
 4166SOL    HW113397   6.395   1.849   2.531
 4166SOL    HW213398   6.252   1.814   2.602
 4167SOL     OW13399   1.744   2.655   1.357
 4167SOL    HW113400   1.758   2.563   1.319
 4167SOL    HW213401   1.766   2.723   1.288
 4168SOL     OW13402   2.388   6.283   0.650
 4168SOL    HW113403   2.401   6.192   0.611
 4168SOL    HW213404   2.374   6.275   0.749
 4169SOL     OW13405   6.265   3.690   6.515
 4169SOL    HW113406   6.264   3.598   6.555
 4169SOL    HW213407   6.291   3.684   6.419
 4170SOL     OW13408   3.160   0.943   5.532
 4170SOL    HW113409   3.203   0.882   5.598
 4170SOL    HW213410   3.067   0.911   5.512
 4171SOL     OW13411   6.332   3.015   1.693
 4171SOL    HW113412   6.419   3.040   1.650
 4171SOL    HW213413   6.257   3.052   1.638
 4172SOL     OW13414   3.073   0.584   1.260
 4172SOL    HW113415   3.011   0.512   1.294
 4172SOL    HW213416   3.110   0.635   1.338
 4173SOL     OW13417   4.236   3.928   5.656
 4173SOL    HW113418   4.302   3.990   5.698
 4173SOL    HW213419   4.143   3.961   5.675
 4174SOL     OW13420   4.694   1.029   3.621
 4174SOL    HW113421   4.730   0.936   3.627
 4174SOL    HW213422   4.679   1.065   3.713
 4175SOL     OW13423   2.281   1.451   2.400
 4175SOL    HW113424   2.322   1.425   2.487
 4175SOL    HW213425   2.209   1.519   2.416
 4176SOL     OW13426   5.786   4.494   3.306
 4176SOL    HW113427   5.819   4.537   3.222
 4176SOL    HW213428   5.769   4.565   3.375
 4177SOL     OW13429   0.164   5.924   2.739
 4177SOL    HW113430   0.065   5.909   2.735
 4177SOL    HW213431   0.203   5.864   2.809
 4178SOL     OW13432   4.329   2.693   5.366
 4178SOL    HW113433   4.397   2.620   5.373
 4178SOL    HW213434   4.255   2.664   5.307
 4179SOL     OW13435   0.318   1.588   6.958
 4179SOL    HW113436   0.407   1.621   6.990
 4179SOL    HW213437   0.259   1.666   6.938
 4180SOL     OW13438   5.592   4.151   1.567
 4180SOL    HW113439   5.496   4.177   1.557
 4180SOL    HW213440   5.650   4.232   1.563
 4181SOL     OW13441   6.301   1.157   6.970
 4181SOL    HW113442   6.274   1.098   6.895
 4181SOL    HW213443   6.272   1.251   6.951
 4182SOL     OW13444   5.928   0.887   3.904
 4182SOL    HW113445   6.013   0.836   3.896
 4182SOL    HW213446   5.947   0.985   3.889
 4183SOL     OW13447   0.963   0.500   1.770
 4183SOL    HW113448   0.949   0.549   1.856
 4183SOL    HW213449   0.999   0.409   1.789
 4184SOL     OW13450   4.324   4.622   5.998
 4184SOL    HW113451   4.277   4.566   5.930
 4184SOL    HW213452   4.378   4.562   6.058
 4185SOL     OW13453   0.010   0.910   4.705
 4185SOL    HW113454   0.063   0.826   4.718
 4185SOL    HW213455   6.938   0.887   4.687
 4186SOL     OW13456   3.198   4.105   1.788
 4186SOL    HW113457   3.217   4.010   1.761
 4186SOL    HW213458   3.177   4.159   1.706
 4187SOL     OW13459   4.649   5.341   5.585
 4187SOL    HW113460   4.586   5.361   5.510
 4187SOL    HW213461   4.618   5.388   5.668
 4188SOL     OW13462   5.604   5.652   2.735
 4188SOL    HW113463   5.614   5.578   2.668
 4188SOL    HW213464   5.624   5.617   2.826
 4189SOL     OW13465   1.159   3.019   3.119
 4189SOL    HW113466   1.068   2.989   3.091
 4189SOL    HW213467   1.221   3.014   3.040
 4190SOL     OW13468   2.323   6.678   1.825
 4190SOL    HW113469   2.282   6.757   1.780
 4190SOL    HW213470   2.417   6.665   1.792
 4191SOL     OW13471   0.178   2.178   3.829
 4191SOL    HW113472   0.241   2.251   3.854
 4191SOL    HW213473   0.228   2.093   3.817
 4192SOL     OW13474   5.890   6.330   4.093
 4192SOL    HW113475   5.909   6.264   4.165
 4192SOL    HW213476   5.792   6.348   4.088
 4193SOL     OW13477   1.253   6.707   3.949
 4193SOL    HW113478   1.250   6.647   4.029
 4193SOL    HW213479   1.346   6.741   3.937
 4194SOL     OW13480   4.929   0.042   3.153
 4194SOL    HW113481   5.018   0.014   3.187
 4194SOL    HW213482   4.941   0.119   3.090
 4195SOL     OW13483   4.530   0.473   3.279
 4195SOL    HW113484   4.519   0.405   3.351
 4195SOL    HW213485   4.441   0.497   3.242
 4196SOL     OW13486   5.024   2.810   2.920
 4196SOL    HW113487   4.930   2.796   2.889
 4196SOL    HW213488   5.085   2.747   2.871
 4197SOL     OW13489   5.686   4.566   4.758
 4197SOL    HW113490   5.733   4.501   4.698
 4197SOL    HW213491   5.748   4.597   4.829
 4198SOL     OW13492   6.320   3.524   5.937
 4198SOL    HW113493   6.369   3.597   5.889
 4198SOL    HW213494   6.347   3.435   5.899
 4199SOL     OW13495   3.177   4.460   6.081
 4199SOL    HW113496   3.195   4.362   6.073
 4199SOL    HW213497   3.168   4.500   5.990
 4200SOL     OW13498   2.928   0.567   5.724
 4200SOL    HW113499   2.924   0.657   5.766
 4200SOL    HW213500   2.839   0.544   5.685
 4201SOL     OW13501   6.276   0.423   5.089
 4201SOL    HW113502   6.264   0.394   5.184
 4201SOL    HW213503   6.188   0.448   5.050
 4202SOL     OW13504   5.683   3.180   5.044
 4202SOL    HW113505   5.759   3.225   5.092
 4202SOL    HW213506   5.597   3.216   5.078
 4203SOL     OW13507   3.484   5.543   4.598
 4203SOL    HW113508   3.512   5.557   4.693
 4203SOL    HW213509   3.541   5.472   4.556
 4204SOL     OW13510   1.455   4.430   0.333
 4204SOL    HW113511   1.364   4.409   0.297
 4204SOL    HW213512   1.508   4.478   0.264
 4205SOL     OW13513   2.182   6.392   3.280
 4205SOL    HW113514   2.153   6.413   3.373
 4205SOL    HW213515   2.122   6.438   3.215
 4206SOL     OW13516   4.788   6.575   3.788
 4206SOL    HW113517   4.872   6.626   3.805
 4206SOL    HW213518   4.781   6.554   3.691
 4207SOL     OW13519   1.646   6.309   0.033
 4207SOL    HW113520   1.697   6.238   7.009
 4207SOL    HW213521   1.697   6.395   0.028
 4208SOL     OW13522   0.868   1.879   1.986
 4208SOL    HW113523   0.888   1.783   2.007
 4208SOL    HW213524   0.919   1.907   1.905
 4209SOL     OW13525   2.687   0.377   5.780
 4209SOL    HW113526   2.680   0.278   5.784
 4209SOL    HW213527   2.663   0.417   5.869
 4210SOL     OW13528   3.711   3.365   0.562
 4210SOL    HW113529   3.674   3.448   0.603
 4210SOL    HW213530   3.810   3.363   0.575
 4211SOL     OW13531   6.324   3.287   3.941
 4211SOL    HW113532   6.337   3.190   3.960
 4211SOL    HW213533   6.396   3.318   3.878
 4212SOL     OW13534   6.328   6.832   2.013
 4212SOL    HW113535   6.379   6.861   2.095
 4212SOL    HW213536   6.386   6.844   1.933
 4213SOL     OW13537   0.836   0.167   0.744
 4213SOL    HW113538   0.907   0.169   0.674
 4213SOL    HW213539   0.755   0.216   0.712
 4214SOL     OW13540   3.014   5.398   3.552
 4214SOL    HW113541   3.076   5.416   3.628
 4214SOL    HW213542   2.928   5.446   3.566
 4215SOL     OW13543   1.488   5.992   6.762
 4215SOL    HW113544   1.419   5.920   6.757
 4215SOL    HW213545   1.579   5.950   6.767
 4216SOL     OW13546   2.374   2.720   5.178
 4216SOL    HW113547   2.329   2.809   5.170
 4216SOL    HW213548   2.473   2.734   5.179
 4217SOL     OW13549   6.404   0.756   4.927
 4217SOL    HW113550   6.462   0.689   4.972
 4217SOL    HW213551   6.318   0.766   4.978
 4218SOL     OW13552   3.274   5.234   2.778
 4218SOL    HW113553   3.214   5.249   2.856
 4218SOL    HW213554   3.224   5.252   2.693
 4219SOL     OW13555   5.130   0.523   2.823
 4219SOL    HW113556   5.129   0.508   2.724
 4219SOL    HW213557   5.205   0.469   2.863
 4220SOL     OW13558   0.469   4.442   3.064
 4220SOL    HW113559   0.507   4.365   3.013
 4220SOL    HW213560   0.380   4.467   3.025
 4221SOL     OW13561   5.228   6.357   5.956
 4221SOL    HW113562   5.326   6.360   5.938
 4221SOL    HW213563   5.194   6.448   5.976
 4222SOL     OW13564   2.306   2.947   0.119
 4222SOL    HW113565   2.356   3.000   0.050
 4222SOL    HW213566   2.340   2.853   0.119
 4223SOL     OW13567   3.679   4.027   2.686
 4223SOL    HW113568   3.597   4.066   2.644
 4223SOL    HW213569   3.668   4.024   2.785
 4224SOL     OW13570   3.369   2.128   5.129
 4224SOL    HW113571   3.303   2.202   5.115
 4224SOL    HW213572   3.320   2.041   5.141
 4225SOL     OW13573   4.819   6.671   4.577
 4225SOL    HW113574   4.865   6.640   4.660
 4225SOL    HW213575   4.881   6.727   4.522
 4226SOL     OW13576   2.324   1.915   2.067
 4226SOL    HW113577   2.353   1.860   2.146
 4226SOL    HW213578   2.402   1.965   2.030
 4227SOL     OW13579   5.577   3.749   0.537
 4227SOL    HW113580   5.525   3.834   0.547
 4227SOL    HW213581   5.561   3.711   0.446
 4228SOL     OW13582   4.398   5.375   3.060
 4228SOL    HW113583   4.438   5.456   3.016
 4228SOL    HW213584   4.439   5.293   3.021
 4229SOL     OW13585   4.464   4.923   4.616
 4229SOL    HW113586   4.526   4.865   4.669
 4229SOL    HW213587   4.410   4.866   4.555
 4230SOL     OW13588   1.776   1.266   5.290
 4230SOL    HW113589   1.696   1.219   5.328
 4230SOL    HW213590   1.748   1.321   5.212
 4231SOL     OW13591   3.867   6.673   6.562
 4231SOL    HW113592   3.786   6.674   6.620
 4231SOL    HW213593   3.949   6.682   6.619
 4232SOL     OW13594   1.359   4.050   1.371
 4232SOL    HW113595   1.372   4.089   1.280
 4232SOL    HW213596   1.336   3.953   1.364
 4233SOL     OW13597   4.918   5.392   1.099
 4233SOL    HW113598   4.919   5.411   1.198
 4233SOL    HW213599   4.846   5.326   1.079
 4234SOL     OW13600   3.867   3.518   6.105
 4234SOL    HW113601   3.885   3.423   6.128
 4234SOL    HW213602   3.769   3.534   6.101
 4235SOL     OW13603   0.652   4.144   4.503
 4235SOL    HW113604   0.666   4.123   4.600
 4235SOL    HW213605   0.684   4.068   4.447
 4236SOL     OW13606   0.965   3.528   4.491
 4236SOL    HW113607   0.956   3.454   4.424
 4236SOL    HW213608   0.884   3.586   4.489
 4237SOL     OW13609   5.022   3.453   5.346
 4237SOL    HW113610   5.031   3.486   5.253
 4237SOL    HW213611   5.098   3.390   5.366
 4238SOL     OW13612   4.839   4.614   5.024
 4238SOL    HW113613   4.921   4.557   5.025
 4238SOL    HW213614   4.839   4.674   5.104
 4239SOL     OW13615   5.191   4.831   5.280
 4239SOL    HW113616   5.256   4.897   5.241
 4239SOL    HW213617   5.134   4.878   5.347
 4240SOL     OW13618   2.376   4.443   6.390
 4240SOL    HW113619   2.335   4.430   6.301
 4240SOL    HW213620   2.440   4.520   6.386
 4241SOL     OW13621   3.244   2.179   0.407
 4241SOL    HW113622   3.258   2.106   0.340
 4241SOL    HW213623   3.332   2.212   0.439
 4242SOL     OW13624   2.776   0.383   1.955
 4242SOL    HW113625   2.749   0.415   1.864
 4242SOL    HW213626   2.799   0.461   2.013
 4243SOL     OW13627   1.841   1.980   1.996
 4243SOL    HW113628   1.922   1.927   2.022
 4243SOL    HW213629   1.834   2.060   2.055
 4244SOL     OW13630   2.557   0.133   0.939
 4244SOL    HW113631   2.462   0.114   0.966
 4244SOL    HW213632   2.593   0.055   0.889
 4245SOL     OW13633   0.576   1.452   1.156
 4245SOL    HW113634   0.668   1.480   1.185
 4245SOL    HW213635   0.508   1.499   1.213
 4246SOL     OW13636   3.389   2.113   3.369
 4246SOL    HW113637   3.448   2.187   3.334
 4246SOL    HW213638   3.438   2.063   3.441
 4247SOL     OW13639   2.686   5.174   6.483
 4247SOL    HW113640   2.771   5.163   6.535
 4247SOL    HW213641   2.608   5.163   6.544
 4248SOL     OW13642   2.617   6.838   2.118
 4248SOL    HW113643   2.517   6.845   2.114
 4248SOL    HW213644   2.650   6.879   2.203
 4249SOL     OW13645   6.267   1.193   5.344
 4249SOL    HW113646   6.314   1.105   5.337
 4249SOL    HW213647   6.281   1.246   5.261
 4250SOL     OW13648   0.766   5.315   4.426
 4250SOL    HW113649   0.778   5.312   4.525
 4250SOL    HW213650   0.675   5.350   4.404
 4251SOL     OW13651   4.628   1.947   5.165
 4251SOL    HW113652   4.684   1.868   5.192
 4251SOL    HW213653   4.688   2.019   5.128
 4252SOL     OW13654   0.417   6.897   6.461
 4252SOL    HW113655   0.418   6.865   6.366
 4252SOL    HW213656   0.436   6.821   6.522
 4253SOL     OW13657   3.674   0.286   2.675
 4253SOL    HW113658   3.632   0.198   2.697
 4253SOL    HW213659   3.702   0.285   2.579
 4254SOL     OW13660   1.069   0.710   4.824
 4254SOL    HW113661   1.013   0.719   4.742
 4254SOL    HW213662   1.035   0.771   4.896
 4255SOL     OW13663   1.462   3.010   4.495
 4255SOL    HW113664   1.541   3.058   4.534
 4255SOL    HW213665   1.381   3.069   4.503
 4256SOL     OW13666   6.103   5.686   1.115
 4256SOL    HW113667   6.106   5.643   1.205
 4256SOL    HW213668   6.048   5.769   1.120
 4257SOL     OW13669   0.117   1.143   2.488
 4257SOL    HW113670   0.042   1.201   2.522
 4257SOL    HW213671   0.106   1.050   2.522
 4258SOL     OW13672   2.527   6.489   0.914
 4258SOL    HW113673   2.533   6.588   0.918
 4258SOL    HW213674   2.430   6.461   0.912
 4259SOL     OW13675   1.354   0.329   6.991
 4259SOL    HW113676   1.368   0.384   6.909
 4259SOL    HW213677   1.339   0.233   6.964
 4260SOL     OW13678   7.004   0.529   5.448
 4260SOL    HW113679   7.018   0.450   5.388
 4260SOL    HW213680   0.046   0.527   5.523
 4261SOL     OW13681   1.994   6.548   3.166
 4261SOL    HW113682   1.993   6.610   3.245
 4261SOL    HW213683   1.932   6.583   3.095
 4262SOL     OW13684   1.523   4.077   4.407
 4262SOL    HW113685   1.557   4.025   4.485
 4262SOL    HW213686   1.428   4.104   4.423
 4263SOL     OW13687   3.151   0.967   2.569
 4263SOL    HW113688   3.097   1.044   2.604
 4263SOL    HW213689   3.136   0.959   2.470
 4264SOL     OW13690   4.083   2.317   6.390
 4264SOL    HW113691   4.023   2.369   6.450
 4264SOL    HW213692   4.070   2.219   6.405
 4265SOL     OW13693   3.410   6.204   6.510
 4265SOL    HW113694   3.407   6.284   6.449
 4265SOL    HW213695   3.432   6.122   6.456
 4266SOL     OW13696   1.357   3.638   3.092
 4266SOL    HW113697   1.274   3.592   3.061
 4266SOL    HW213698   1.437   3.588   3.060
 4267SOL     OW13699   1.425   3.502   3.692
 4267SOL    HW113700   1.464   3.509   3.784
 4267SOL    HW213701   1.405   3.593   3.657
 4268SOL     OW13702   1.343   4.590   5.374
 4268SOL    HW113703   1.381   4.682   5.388
 4268SOL    HW213704   1.248   4.597   5.344
 4269SOL     OW13705   2.122   1.836   4.235
 4269SOL    HW113706   2.039   1.824   4.182
 4269SOL    HW213707   2.124   1.929   4.272
 4270SOL     OW13708   4.051   4.208   1.065
 4270SOL    HW113709   4.122   4.215   1.136
 4270SOL    HW213710   3.973   4.157   1.101
 4271SOL     OW13711   6.313   0.264   0.006
 4271SOL    HW113712   6.225   0.270   6.984
 4271SOL    HW213713   6.305   0.205   0.086
 4272SOL     OW13714   6.494   2.084   5.776
 4272SOL    HW113715   6.519   2.173   5.739
 4272SOL    HW213716   6.432   2.038   5.712
 4273SOL     OW13717   3.445   6.254   3.937
 4273SOL    HW113718   3.501   6.254   3.855
 4273SOL    HW213719   3.349   6.265   3.912
 4274SOL     OW13720   6.346   0.496   2.183
 4274SOL    HW113721   6.386   0.528   2.097
 4274SOL    HW213722   6.325   0.398   2.175
 4275SOL     OW13723   5.605   1.700   4.216
 4275SOL    HW113724   5.547   1.669   4.291
 4275SOL    HW213725   5.699   1.711   4.249
 4276SOL     OW13726   2.024   0.932   3.041
 4276SOL    HW113727   1.944   0.991   3.034
 4276SOL    HW213728   2.042   0.912   3.138
 4277SOL     OW13729   6.543   4.673   2.995
 4277SOL    HW113730   6.625   4.728   2.979
 4277SOL    HW213731   6.510   4.689   3.088
 4278SOL     OW13732   0.676   6.824   1.536
 4278SOL    HW113733   0.592   6.878   1.537
 4278SOL    HW213734   0.667   6.747   1.598
 4279SOL     OW13735   1.363   3.500   2.795
 4279SOL    HW113736   1.394   3.560   2.721
 4279SOL    HW213737   1.441   3.451   2.833
 4280SOL     OW13738   2.837   6.682   6.103
 4280SOL    HW113739   2.822   6.753   6.034
 4280SOL    HW213740   2.749   6.651   6.138
 4281SOL     OW13741   6.490   6.474   2.754
 4281SOL    HW113742   6.590   6.470   2.746
 4281SOL    HW213743   6.452   6.525   2.677
 4282SOL     OW13744   5.112   4.678   2.448
 4282SOL    HW113745   5.070   4.744   2.386
 4282SOL    HW213746   5.084   4.585   2.421
 4283SOL     OW13747   6.941   1.858   5.388
 4283SOL    HW113748   6.871   1.812   5.443
 4283SOL    HW213749   7.000   1.788   5.346
 4284SOL     OW13750   4.881   6.219   0.121
 4284SOL    HW113751   4.962   6.276   0.106
 4284SOL    HW213752   4.890   6.171   0.209
 4285SOL     OW13753   2.928   1.715   6.218
 4285SOL    HW113754   2.972   1.664   6.144
 4285SOL    HW213755   2.835   1.680   6.232
 4286SOL     OW13756   5.401   6.846   6.672
 4286SOL    HW113757   5.409   6.939   6.708
 4286SOL    HW213758   5.386   6.783   6.748
 4287SOL     OW13759   4.542   7.014   0.726
 4287SOL    HW113760   4.489   0.065   0.688
 4287SOL    HW213761   4.613   0.025   0.786
 4288SOL     OW13762   6.423   6.609   2.517
 4288SOL    HW113763   6.399   6.568   2.428
 4288SOL    HW213764   6.493   6.679   2.503
 4289SOL     OW13765   0.165   4.407   5.860
 4289SOL    HW113766   0.176   4.507   5.865
 4289SOL    HW213767   0.111   4.376   5.938
 4290SOL     OW13768   0.143   0.913   2.831
 4290SOL    HW113769   0.195   0.902   2.916
 4290SOL    HW213770   0.114   1.008   2.822
 4291SOL     OW13771   4.700   4.928   5.580
 4291SOL    HW113772   4.634   4.882   5.638
 4291SOL    HW213773   4.664   4.935   5.487
 4292SOL     OW13774   6.286   0.142   0.258
 4292SOL    HW113775   6.325   0.060   0.300
 4292SOL    HW213776   6.190   0.150   0.283
 4293SOL     OW13777   4.325   2.182   5.954
 4293SOL    HW113778   4.237   2.193   5.907
 4293SOL    HW213779   4.357   2.088   5.943
 4294SOL     OW13780   2.994   1.675   0.220
 4294SOL    HW113781   3.034   1.709   0.134
 4294SOL    HW213782   2.894   1.687   0.217
 4295SOL     OW13783   4.132   6.827   2.594
 4295SOL    HW113784   4.033   6.815   2.595
 4295SOL    HW213785   4.155   6.919   2.625
 4296SOL     OW13786   1.773   5.271   1.782
 4296SOL    HW113787   1.849   5.280   1.718
 4296SOL    HW213788   1.769   5.352   1.840
 4297SOL     OW13789   5.016   4.288   0.278
 4297SOL    HW113790   4.984   4.381   0.293
 4297SOL    HW213791   4.964   4.225   0.335
 4298SOL     OW13792   1.927   6.444   0.739
 4298SOL    HW113793   1.829   6.453   0.755
 4298SOL    HW213794   1.963   6.367   0.791
 4299SOL     OW13795   0.033   3.462   6.916
 4299SOL    HW113796   0.036   3.457   6.816
 4299SOL    HW213797   6.978   3.411   6.949
 4300SOL     OW13798   3.811   0.884   2.205
 4300SOL    HW113799   3.875   0.951   2.166
 4300SOL    HW213800   3.775   0.919   2.291
 4301SOL     OW13801   1.791   6.115   4.639
 4301SOL    HW113802   1.805   6.196   4.695
 4301SOL    HW213803   1.797   6.033   4.697
 4302SOL     OW13804   3.736   4.733   0.107
 4302SOL    HW113805   3.681   4.738   0.024
 4302SOL    HW213806   3.760   4.638   0.126
 4303SOL     OW13807   4.880   5.135   3.511
 4303SOL    HW113808   4.965   5.085   3.494
 4303SOL    HW213809   4.815   5.116   3.437
 4304SOL     OW13810   3.032   4.249   1.492
 4304SOL    HW113811   3.044   4.161   1.447
 4304SOL    HW213812   3.122   4.289   1.511
 4305SOL     OW13813   0.863   6.760   6.028
 4305SOL    HW113814   0.859   6.858   6.008
 4305SOL    HW213815   0.786   6.714   5.986
 4306SOL     OW13816   6.518   3.894   4.778
 4306SOL    HW113817   6.574   3.830   4.726
 4306SOL    HW213818   6.523   3.985   4.736
 4307SOL     OW13819   6.744   1.860   4.201
 4307SOL    HW113820   6.662   1.824   4.157
 4307SOL    HW213821   6.719   1.909   4.284
 4308SOL     OW13822   4.922   5.451   5.989
 4308SOL    HW113823   4.845   5.478   6.048
 4308SOL    HW213824   4.990   5.523   5.988
 4309SOL     OW13825   2.324   1.834   0.615
 4309SOL    HW113826   2.395   1.901   0.640
 4309SOL    HW213827   2.249   1.882   0.569
 4310SOL     OW13828   6.380   1.110   4.815
 4310SOL    HW113829   6.369   1.193   4.761
 4310SOL    HW213830   6.295   1.057   4.814
 4311SOL     OW13831   1.052   6.664   0.768
 4311SOL    HW113832   1.014   6.755   0.751
 4311SOL    HW213833   1.066   6.653   0.866
 4312SOL     OW13834   0.499   3.317   2.671
 4312SOL    HW113835   0.598   3.325   2.659
 4312SOL    HW213836   0.480   3.284   2.764
 4313SOL     OW13837   0.349   3.514   0.793
 4313SOL    HW113838   0.327   3.422   0.760
 4313SOL    HW213839   0.312   3.581   0.729
 4314SOL     OW13840   2.363   2.174   5.658
 4314SOL    HW113841   2.304   2.247   5.623
 4314SOL    HW213842   2.431   2.150   5.589
 4315SOL     OW13843   2.579   2.610   5.331
 4315SOL    HW113844   2.544   2.666   5.406
 4315SOL    HW213845   2.529   2.523   5.328
 4316SOL     OW13846   4.755   4.002   1.306
 4316SOL    HW113847   4.692   3.928   1.283
 4316SOL    HW213848   4.841   3.964   1.340
 4317SOL     OW13849   4.870   0.704   3.918
 4317SOL    HW113850   4.800   0.665   3.978
 4317SOL    HW213851   4.922   0.773   3.968
 4318SOL     OW13852   2.196   5.726   4.005
 4318SOL    HW113853   2.190   5.672   3.922
 4318SOL    HW213854   2.279   5.783   4.002
 4319SOL     OW13855   2.249   4.823   1.329
 4319SOL    HW113856   2.342   4.791   1.348
 4319SOL    HW213857   2.226   4.897   1.393
 4320SOL     OW13858   4.471   1.531   1.787
 4320SOL    HW113859   4.526   1.455   1.822
 4320SOL    HW213860   4.466   1.526   1.688
 4321SOL     OW13861   6.800   6.173   3.588
 4321SOL    HW113862   6.852   6.090   3.568
 4321SOL    HW213863   6.770   6.173   3.683
 4322SOL     OW13864   2.510   2.153   3.950
 4322SOL    HW113865   2.489   2.100   3.868
 4322SOL    HW213866   2.573   2.226   3.927
 4323SOL     OW13867   5.626   3.943   1.820
 4323SOL    HW113868   5.608   4.001   1.899
 4323SOL    HW213869   5.555   3.959   1.751
 4324SOL     OW13870   6.425   3.949   5.357
 4324SOL    HW113871   6.473   3.865   5.330
 4324SOL    HW213872   6.327   3.938   5.343
 4325SOL     OW13873   1.397   0.535   0.528
 4325SOL    HW113874   1.445   0.620   0.545
 4325SOL    HW213875   1.457   0.471   0.480
 4326SOL     OW13876   5.517   2.762   2.062
 4326SOL    HW113877   5.419   2.772   2.080
 4326SOL    HW213878   5.567   2.836   2.107
 4327SOL     OW13879   3.457   6.512   4.018
 4327SOL    HW113880   3.440   6.414   4.002
 4327SOL    HW213881   3.555   6.529   4.019
 4328SOL     OW13882   5.932   0.010   1.814
 4328SOL    HW113883   5.855   0.073   1.808
 4328SOL    HW213884   6.003   0.038   1.750
 4329SOL     OW13885   6.535   4.074   0.321
 4329SOL    HW113886   6.450   4.087   0.372
 4329SOL    HW213887   6.577   4.163   0.303
 4330SOL     OW13888   2.974   6.009   5.199
 4330SOL    HW113889   2.924   5.927   5.170
 4330SOL    HW213890   2.925   6.052   5.275
 4331SOL     OW13891   5.937   1.238   3.235
 4331SOL    HW113892   5.862   1.191   3.282
 4331SOL    HW213893   5.917   1.244   3.138
 4332SOL     OW13894   6.832   5.996   1.628
 4332SOL    HW113895   6.758   6.025   1.568
 4332SOL    HW213896   6.902   6.067   1.631
 4333SOL     OW13897   3.339   3.205   5.924
 4333SOL    HW113898   3.355   3.118   5.876
 4333SOL    HW213899   3.306   3.273   5.858
 4334SOL     OW13900   0.774   1.611   3.717
 4334SOL    HW113901   0.791   1.670   3.796
 4334SOL    HW213902   0.685   1.566   3.727
 4335SOL     OW13903   2.281   2.588   1.714
 4335SOL    HW113904   2.342   2.663   1.741
 4335SOL    HW213905   2.329   2.501   1.723
 4336SOL     OW13906   2.624   5.763   5.200
 4336SOL    HW113907   2.549   5.798   5.144
 4336SOL    HW213908   2.626   5.663   5.193
 4337SOL     OW13909   6.874   4.517   4.277
 4337SOL    HW113910   6.925   4.440   4.315
 4337SOL    HW213911   6.918   4.602   4.303
 4338SOL     OW13912   3.491   3.325   5.642
 4338SOL    HW113913   3.475   3.351   5.547
 4338SOL    HW213914   3.517   3.229   5.647
 4339SOL     OW13915   3.729   3.636   5.279
 4339SOL    HW113916   3.676   3.683   5.350
 4339SOL    HW213917   3.749   3.542   5.309
 4340SOL     OW13918   0.148   4.332   0.373
 4340SOL    HW113919   0.093   4.261   0.328
 4340SOL    HW213920   0.236   4.339   0.328
 4341SOL     OW13921   6.134   6.723   1.722
 4341SOL    HW113922   6.156   6.796   1.786
 4341SOL    HW213923   6.089   6.648   1.772
 4342SOL     OW13924   5.059   3.650   2.239
 4342SOL    HW113925   5.044   3.603   2.327
 4342SOL    HW213926   5.008   3.603   2.167
 4343SOL     OW13927   5.036   6.955   6.186
 4343SOL    HW113928   4.967   6.910   6.244
 4343SOL    HW213929   5.054   0.023   6.221
 4344SOL     OW13930   1.420   4.246   2.320
 4344SOL    HW113931   1.381   4.331   2.354
 4344SOL    HW213932   1.519   4.245   2.338
 4345SOL     OW13933   4.081   3.462   2.277
 4345SOL    HW113934   4.055   3.382   2.332
 4345SOL    HW213935   4.076   3.544   2.333
 4346SOL     OW13936   1.367   3.175   2.112
 4346SOL    HW113937   1.355   3.273   2.097
 4346SOL    HW213938   1.414   3.134   2.033
 4347SOL     OW13939   5.984   5.928   1.049
 4347SOL    HW113940   5.940   5.937   0.960
 4347SOL    HW213941   5.915   5.930   1.121
 4348SOL     OW13942   6.614   4.433   6.010
 4348SOL    HW113943   6.692   4.469   5.959
 4348SOL    HW213944   6.637   4.342   6.046
 4349SOL     OW13945   0.679   3.628   3.819
 4349SOL    HW113946   0.687   3.595   3.913
 4349SOL    HW213947   0.696   3.726   3.817
 4350SOL     OW13948   5.189   0.082   4.454
 4350SOL    HW113949   5.123   0.068   4.528
 4350SOL    HW213950   5.157   0.036   4.371
 4351SOL     OW13951   0.318   6.366   1.050
 4351SOL    HW113952   0.334   6.267   1.046
 4351SOL    HW213953   0.251   6.392   0.981
 4352SOL     OW13954   4.022   4.375   1.335
 4352SOL    HW113955   4.079   4.421   1.403
 4352SOL    HW213956   3.996   4.284   1.370
 4353SOL     OW13957   2.203   3.467   0.121
 4353SOL    HW113958   2.247   3.382   0.150
 4353SOL    HW213959   2.195   3.468   0.021
 4354SOL     OW13960   6.090   4.682   2.920
 4354SOL    HW113961   6.081   4.631   2.835
 4354SOL    HW213962   6.040   4.768   2.914
 4355SOL     OW13963   1.962   5.387   4.008
 4355SOL    HW113964   1.948   5.476   3.964
 4355SOL    HW213965   1.888   5.325   3.983
 4356SOL     OW13966   5.776   1.533   5.867
 4356SOL    HW113967   5.847   1.517   5.936
 4356SOL    HW213968   5.751   1.446   5.825
 4357SOL     OW13969   5.308   5.673   2.972
 4357SOL    HW113970   5.321   5.660   2.874
 4357SOL    HW213971   5.212   5.656   2.995
 4358SOL     OW13972   3.724   0.559   1.533
 4358SOL    HW113973   3.710   0.642   1.478
 4358SOL    HW213974   3.636   0.525   1.565
 4359SOL     OW13975   3.263   3.870   1.692
 4359SOL    HW113976   3.322   3.838   1.766
 4359SOL    HW213977   3.208   3.794   1.657
 4360SOL     OW13978   2.520   6.674   3.562
 4360SOL    HW113979   2.535   6.576   3.546
 4360SOL    HW213980   2.608   6.721   3.565
 4361SOL     OW13981   1.966   0.502   6.603
 4361SOL    HW113982   2.006   0.547   6.524
 4361SOL    HW213983   1.874   0.539   6.620
 4362SOL     OW13984   5.969   5.296   2.310
 4362SOL    HW113985   5.946   5.342   2.396
 4362SOL    HW213986   6.056   5.248   2.321
 4363SOL     OW13987   4.494   0.253   2.557
 4363SOL    HW113988   4.537   0.294   2.638
 4363SOL    HW213989   4.549   0.272   2.476
 4364SOL     OW13990   3.531   3.298   2.984
 4364SOL    HW113991   3.432   3.304   2.977
 4364SOL    HW213992   3.572   3.350   2.909
 4365SOL     OW13993   2.149   1.077   0.705
 4365SOL    HW113994   2.097   1.032   0.778
 4365SOL    HW213995   2.142   1.176   0.715
 4366SOL     OW13996   4.696   5.620   4.769
 4366SOL    HW113997   4.793   5.619   4.744
 4366SOL    HW213998   4.673   5.534   4.815
 4367SOL     OW13999   1.823   6.935   1.645
 4367SOL    HW114000   1.745   6.998   1.643
 4367SOL    HW214001   1.821   6.882   1.730
 4368SOL     OW14002   5.135   5.517   4.285
 4368SOL    HW114003   5.060   5.552   4.342
 4368SOL    HW214004   5.103   5.437   4.234
 4369SOL     OW14005   6.746   4.076   4.422
 4369SOL    HW114006   6.775   4.018   4.498
 4369SOL    HW214007   6.674   4.029   4.371
 4370SOL     OW14008   5.328   4.350   1.281
 4370SOL    HW114009   5.382   4.287   1.225
 4370SOL    HW214010   5.325   4.318   1.375
 4371SOL     OW14011   3.234   0.659   3.608
 4371SOL    HW114012   3.217   0.621   3.698
 4371SOL    HW214013   3.195   0.600   3.538
 4372SOL     OW14014   2.333   4.246   5.941
 4372SOL    HW114015   2.400   4.240   5.868
 4372SOL    HW214016   2.271   4.323   5.925
 4373SOL     OW14017   4.383   0.255   0.623
 4373SOL    HW114018   4.359   0.348   0.650
 4373SOL    HW214019   4.314   0.191   0.656
 4374SOL     OW14020   1.911   6.450   0.302
 4374SOL    HW114021   1.886   6.386   0.375
 4374SOL    HW214022   1.906   6.544   0.337
 4375SOL     OW14023   4.527   0.367   5.375
 4375SOL    HW114024   4.510   0.291   5.312
 4375SOL    HW214025   4.443   0.389   5.425
 4376SOL     OW14026   2.587   4.752   0.273
 4376SOL    HW114027   2.642   4.760   0.190
 4376SOL    HW214028   2.507   4.695   0.255
 4377SOL     OW14029   5.619   6.230   0.334
 4377SOL    HW114030   5.546   6.214   0.400
 4377SOL    HW214031   5.698   6.268   0.380
 4378SOL     OW14032   2.939   5.188   1.578
 4378SOL    HW114033   2.922   5.101   1.624
 4378SOL    HW214034   2.970   5.171   1.485
 4379SOL     OW14035   5.995   6.242   0.639
 4379SOL    HW114036   6.093   6.219   0.642
 4379SOL    HW214037   5.981   6.331   0.682
 4380SOL     OW14038   1.769   6.126   5.098
 4380SOL    HW114039   1.783   6.223   5.120
 4380SOL    HW214040   1.673   6.110   5.077
 4381SOL     OW14041   3.234   6.320   4.573
 4381SOL    HW114042   3.328   6.289   4.587
 4381SOL    HW214043   3.220   6.342   4.477
 4382SOL     OW14044   5.874   3.645   3.684
 4382SOL    HW114045   5.781   3.613   3.666
 4382SOL    HW214046   5.870   3.725   3.744
 4383SOL     OW14047   1.658   0.220   6.713
 4383SOL    HW114048   1.670   0.313   6.679
 4383SOL    HW214049   1.677   0.155   6.639
 4384SOL     OW14050   3.713   6.562   1.671
 4384SOL    HW114051   3.696   6.519   1.582
 4384SOL    HW214052   3.668   6.651   1.675
 4385SOL     OW14053   5.913   2.249   4.227
 4385SOL    HW114054   5.892   2.343   4.203
 4385SOL    HW214055   5.829   2.203   4.257
 4386SOL     OW14056   1.683   5.281   0.314
 4386SOL    HW114057   1.685   5.182   0.325
 4386SOL    HW214058   1.724   5.305   0.226
 4387SOL     OW14059   6.198   2.568   0.477
 4387SOL    HW114060   6.159   2.519   0.556
 4387SOL    HW214061   6.215   2.503   0.403
 4388SOL     OW14062   4.327   0.504   5.502
 4388SOL    HW114063   4.228   0.499   5.490
 4388SOL    HW214064   4.349   0.582   5.561
 4389SOL     OW14065   0.993   2.992   2.483
 4389SOL    HW114066   0.968   3.036   2.397
 4389SOL    HW214067   0.968   3.052   2.559
 4390SOL     OW14068   5.064   4.189   1.197
 4390SOL    HW114069   5.140   4.245   1.163
 4390SOL    HW214070   5.054   4.108   1.139
 4391SOL     OW14071   0.625   5.693   1.357
 4391SOL    HW114072   0.614   5.650   1.447
 4391SOL    HW214073   0.643   5.791   1.369
 4392SOL     OW14074   5.158   5.469   4.611
 4392SOL    HW114075   5.223   5.394   4.595
 4392SOL    HW214076   5.065   5.432   4.616
 4393SOL     OW14077   4.706   6.807   2.540
 4393SOL    HW114078   4.659   6.888   2.505
 4393SOL    HW214079   4.801   6.808   2.509
 4394SOL     OW14080   4.624   1.212   2.867
 4394SOL    HW114081   4.698   1.237   2.804
 4394SOL    HW214082   4.654   1.137   2.925
 4395SOL     OW14083   4.962   2.644   0.720
 4395SOL    HW114084   4.970   2.603   0.810
 4395SOL    HW214085   4.964   2.572   0.650
 4396SOL     OW14086   1.544   0.853   2.275
 4396SOL    HW114087   1.608   0.927   2.293
 4396SOL    HW214088   1.460   0.868   2.327
 4397SOL     OW14089   3.706   2.106   6.895
 4397SOL    HW114090   3.711   2.021   6.841
 4397SOL    HW214091   3.764   2.175   6.853
 4398SOL     OW14092   0.510   5.009   4.574
 4398SOL    HW114093   0.424   4.962   4.593
 4398SOL    HW214094   0.523   5.082   4.642
 4399SOL     OW14095   2.753   0.666   1.699
 4399SOL    HW114096   2.724   0.737   1.635
 4399SOL    HW214097   2.809   0.707   1.772
 4400SOL     OW14098   3.355   4.881   2.826
 4400SOL    HW114099   3.256   4.871   2.818
 4400SOL    HW214100   3.388   4.939   2.752
 4401SOL     OW14101   4.556   6.501   4.578
 4401SOL    HW114102   4.631   6.567   4.571
 4401SOL    HW214103   4.590   6.409   4.563
 4402SOL     OW14104   6.879   6.661   1.101
 4402SOL    HW114105   6.939   6.721   1.048
 4402SOL    HW214106   6.882   6.688   1.197
 4403SOL     OW14107   6.326   1.543   3.422
 4403SOL    HW114108   6.297   1.480   3.350
 4403SOL    HW214109   6.413   1.512   3.460
 4404SOL     OW14110   1.489   3.629   2.593
 4404SOL    HW114111   1.576   3.584   2.610
 4404SOL    HW214112   1.449   3.595   2.508
 4405SOL     OW14113   3.286   4.309   6.334
 4405SOL    HW114114   3.378   4.315   6.372
 4405SOL    HW214115   3.242   4.225   6.366
 4406SOL     OW14116   6.160   2.547   2.675
 4406SOL    HW114117   6.106   2.631   2.667
 4406SOL    HW214118   6.155   2.496   2.590
 4407SOL     OW14119   1.025   0.635   0.350
 4407SOL    HW114120   1.049   0.653   0.445
 4407SOL    HW214121   0.942   0.580   0.347
 4408SOL     OW14122   4.923   6.167   1.241
 4408SOL    HW114123   4.997   6.234   1.243
 4408SOL    HW214124   4.890   6.156   1.147
 4409SOL     OW14125   3.513   1.633   2.833
 4409SOL    HW114126   3.542   1.720   2.793
 4409SOL    HW214127   3.593   1.583   2.867
 4410SOL     OW14128   1.939   6.160   0.734
 4410SOL    HW114129   1.894   6.071   0.727
 4410SOL    HW214130   2.021   6.160   0.677
 4411SOL     OW14131   3.628   2.968   2.073
 4411SOL    HW114132   3.601   3.063   2.084
 4411SOL    HW214133   3.716   2.953   2.117
 4412SOL     OW14134   3.597   1.172   6.442
 4412SOL    HW114135   3.513   1.122   6.423
 4412SOL    HW214136   3.671   1.135   6.385
 4413SOL     OW14137   3.744   5.883   4.000
 4413SOL    HW114138   3.734   5.979   4.026
 4413SOL    HW214139   3.657   5.849   3.963
 4414SOL     OW14140   3.297   4.736   1.744
 4414SOL    HW114141   3.383   4.719   1.793
 4414SOL    HW214142   3.254   4.649   1.723
 4415SOL     OW14143   4.900   0.875   1.791
 4415SOL    HW114144   4.855   0.803   1.844
 4415SOL    HW214145   4.831   0.926   1.739
 4416SOL     OW14146   2.868   2.331   4.658
 4416SOL    HW114147   2.852   2.408   4.720
 4416SOL    HW214148   2.938   2.271   4.696
 4417SOL     OW14149   5.348   0.408   1.497
 4417SOL    HW114150   5.417   0.479   1.508
 4417SOL    HW214151   5.262   0.449   1.468
 4418SOL     OW14152   4.321   0.322   2.964
 4418SOL    HW114153   4.327   0.368   2.875
 4418SOL    HW214154   4.279   0.233   2.953
 4419SOL     OW14155   6.637   5.554   6.536
 4419SOL    HW114156   6.722   5.591   6.497
 4419SOL    HW214157   6.564   5.621   6.525
 4420SOL     OW14158   5.483   1.196   0.729
 4420SOL    HW114159   5.444   1.261   0.795
 4420SOL    HW214160   5.444   1.213   0.639
 4421SOL     OW14161   0.547   1.749   3.211
 4421SOL    HW114162   0.539   1.681   3.284
 4421SOL    HW214163   0.631   1.734   3.160
 4422SOL     OW14164   1.664   4.058   5.570
 4422SOL    HW114165   1.694   3.969   5.603
 4422SOL    HW214166   1.564   4.060   5.567
 4423SOL     OW14167   6.869   2.149   5.989
 4423SOL    HW114168   6.845   2.057   6.020
 4423SOL    HW214169   6.878   2.150   5.889
 4424SOL     OW14170   2.014   5.136   3.158
 4424SOL    HW114171   2.113   5.119   3.159
 4424SOL    HW214172   1.966   5.054   3.190
 4425SOL     OW14173   5.409   4.278   2.637
 4425SOL    HW114174   5.483   4.253   2.699
 4425SOL    HW214175   5.430   4.245   2.545
 4426SOL     OW14176   0.166   6.496   7.024
 4426SOL    HW114177   0.071   6.527   0.001
 4426SOL    HW214178   0.169   6.399   0.026
 4427SOL     OW14179   0.305   5.114   4.033
 4427SOL    HW114180   0.365   5.130   4.111
 4427SOL    HW214181   0.360   5.080   3.956
 4428SOL     OW14182   1.916   7.019   2.554
 4428SOL    HW114183   1.887   0.005   2.649
 4428SOL    HW214184   1.847   0.034   2.494
 4429SOL     OW14185   2.593   0.162   1.668
 4429SOL    HW114186   2.659   0.233   1.694
 4429SOL    HW214187   2.515   0.204   1.622
 4430SOL     OW14188   1.914   0.336   1.831
 4430SOL    HW114189   1.832   0.387   1.807
 4430SOL    HW214190   1.995   0.384   1.798
 4431SOL     OW14191   1.739   2.146   2.797
 4431SOL    HW114192   1.808   2.110   2.733
 4431SOL    HW214193   1.671   2.199   2.746
 4432SOL     OW14194   3.632   4.170   4.701
 4432SOL    HW114195   3.705   4.237   4.718
 4432SOL    HW214196   3.629   4.149   4.603
 4433SOL     OW14197   6.827   0.252   1.437
 4433SOL    HW114198   6.864   0.278   1.348
 4433SOL    HW214199   6.778   0.165   1.429
 4434SOL     OW14200   5.585   1.904   5.635
 4434SOL    HW114201   5.498   1.857   5.648
 4434SOL    HW214202   5.659   1.837   5.627
 4435SOL     OW14203   3.466   2.923   1.853
 4435SOL    HW114204   3.546   2.957   1.802
 4435SOL    HW214205   3.495   2.895   1.945
 4436SOL     OW14206   5.816   6.938   0.241
 4436SOL    HW114207   5.807   6.875   0.319
 4436SOL    HW214208   5.727   6.980   0.224
 4437SOL     OW14209   2.685   6.866   5.696
 4437SOL    HW114210   2.687   6.942   5.632
 4437SOL    HW214211   2.599   6.817   5.688
 4438SOL     OW14212   3.821   2.755   6.756
 4438SOL    HW114213   3.833   2.750   6.657
 4438SOL    HW214214   3.862   2.841   6.790
 4439SOL     OW14215   1.310   4.912   2.765
 4439SOL    HW114216   1.334   5.008   2.748
 4439SOL    HW214217   1.382   4.869   2.820
 4440SOL     OW14218   6.472   1.060   0.356
 4440SOL    HW114219   6.401   1.031   0.419
 4440SOL    HW214220   6.536   1.121   0.404
 4441SOL     OW14221   6.273   1.170   3.971
 4441SOL    HW114222   6.179   1.144   3.949
 4441SOL    HW214223   6.273   1.258   4.018
 4442SOL     OW14224   2.023   5.946   2.243
 4442SOL    HW114225   1.954   5.953   2.316
 4442SOL    HW214226   2.094   6.015   2.259
 4443SOL     OW14227   1.843   1.030   1.313
 4443SOL    HW114228   1.880   0.964   1.379
 4443SOL    HW214229   1.909   1.103   1.298
 4444SOL     OW14230   5.031   1.974   2.869
 4444SOL    HW114231   4.963   1.901   2.864
 4444SOL    HW214232   5.066   1.994   2.778
 4445SOL     OW14233   1.399   2.077   5.976
 4445SOL    HW114234   1.404   2.173   5.947
 4445SOL    HW214235   1.403   2.018   5.895
 4446SOL     OW14236   6.780   5.364   4.515
 4446SOL    HW114237   6.755   5.333   4.423
 4446SOL    HW214238   6.783   5.464   4.517
 4447SOL     OW14239   4.928   3.865   5.013
 4447SOL    HW114240   4.893   3.774   5.035
 4447SOL    HW214241   4.852   3.927   4.996
 4448SOL     OW14242   2.671   3.649   6.764
 4448SOL    HW114243   2.623   3.563   6.748
 4448SOL    HW214244   2.628   3.721   6.711
 4449SOL     OW14245   0.098   1.702   5.746
 4449SOL    HW114246   0.092   1.765   5.824
 4449SOL    HW214247   0.162   1.740   5.678
 4450SOL     OW14248   4.038   3.151   3.040
 4450SOL    HW114249   4.049   3.053   3.052
 4450SOL    HW214250   3.962   3.169   2.978
 4451SOL     OW14251   0.762   5.358   1.033
 4451SOL    HW114252   0.694   5.412   1.083
 4451SOL    HW214253   0.734   5.350   0.937
 4452SOL     OW14254   1.229   3.915   6.647
 4452SOL    HW114255   1.200   3.914   6.551
 4452SOL    HW214256   1.155   3.878   6.704
 4453SOL     OW14257   5.471   0.972   0.954
 4453SOL    HW114258   5.490   1.037   0.880
 4453SOL    HW214259   5.387   0.998   1.001
 4454SOL     OW14260   6.025   3.327   1.812
 4454SOL    HW114261   5.954   3.383   1.854
 4454SOL    HW214262   6.093   3.301   1.880
 4455SOL     OW14263   5.070   2.747   2.487
 4455SOL    HW114264   5.067   2.780   2.393
 4455SOL    HW214265   5.123   2.810   2.543
 4456SOL     OW14266   6.929   5.923   2.681
 4456SOL    HW114267   6.907   5.929   2.778
 4456SOL    HW214268   6.883   5.997   2.632
 4457SOL     OW14269   5.311   2.486   6.331
 4457SOL    HW114270   5.349   2.577   6.342
 4457SOL    HW214271   5.351   2.441   6.251
 4458SOL     OW14272   4.473   1.868   1.298
 4458SOL    HW114273   4.384   1.900   1.265
 4458SOL    HW214274   4.470   1.861   1.398
 4459SOL     OW14275   6.119   5.356   6.179
 4459SOL    HW114276   6.091   5.335   6.086
 4459SOL    HW214277   6.094   5.280   6.239
 4460SOL     OW14278   1.924   0.158   0.367
 4460SOL    HW114279   2.002   0.108   0.329
 4460SOL    HW214280   1.957   0.225   0.434
 4461SOL     OW14281   2.036   0.400   3.203
 4461SOL    HW114282   1.955   0.343   3.196
 4461SOL    HW214283   2.093   0.388   3.122
 4462SOL     OW14284   0.378   2.929   1.445
 4462SOL    HW114285   0.425   2.942   1.357
 4462SOL    HW214286   0.280   2.940   1.432
 4463SOL     OW14287   0.812   3.960   6.808
 4463SOL    HW114288   0.866   3.877   6.794
 4463SOL    HW214289   0.840   4.029   6.741
 4464SOL     OW14290   6.611   2.908   0.644
 4464SOL    HW114291   6.540   2.865   0.587
 4464SOL    HW214292   6.568   2.958   0.718
 4465SOL     OW14293   6.083   5.009   1.428
 4465SOL    HW114294   6.161   4.975   1.479
 4465SOL    HW214295   6.100   4.999   1.330
 4466SOL     OW14296   6.799   3.220   3.938
 4466SOL    HW114297   6.861   3.238   3.862
 4466SOL    HW214298   6.809   3.124   3.966
 4467SOL     OW14299   1.327   0.622   4.479
 4467SOL    HW114300   1.325   0.654   4.385
 4467SOL    HW214301   1.378   0.535   4.484
 4468SOL     OW14302   1.064   1.157   0.634
 4468SOL    HW114303   1.044   1.086   0.702
 4468SOL    HW214304   1.127   1.120   0.565
 4469SOL     OW14305   4.844   6.652   0.260
 4469SOL    HW114306   4.904   6.609   0.328
 4469SOL    HW214307   4.876   6.630   0.168
 4470SOL     OW14308   4.771   4.300   1.272
 4470SOL    HW114309   4.684   4.350   1.267
 4470SOL    HW214310   4.753   4.203   1.288
 4471SOL     OW14311   6.173   2.090   1.854
 4471SOL    HW114312   6.081   2.101   1.817
 4471SOL    HW214313   6.171   2.104   1.953
 4472SOL     OW14314   2.194   5.393   1.471
 4472SOL    HW114315   2.135   5.368   1.394
 4472SOL    HW214316   2.257   5.465   1.442
 4473SOL     OW14317   5.832   0.920   0.606
 4473SOL    HW114318   5.915   0.920   0.550
 4473SOL    HW214319   5.834   0.996   0.670
 4474SOL     OW14320   6.608   1.720   5.469
 4474SOL    HW114321   6.514   1.751   5.479
 4474SOL    HW214322   6.635   1.725   5.373
 4475SOL     OW14323   1.508   3.039   0.454
 4475SOL    HW114324   1.554   2.987   0.526
 4475SOL    HW214325   1.446   3.106   0.495
 4476SOL     OW14326   3.745   6.817   2.624
 4476SOL    HW114327   3.742   6.767   2.710
 4476SOL    HW214328   3.678   6.891   2.625
 4477SOL     OW14329   1.777   1.866   0.842
 4477SOL    HW114330   1.861   1.886   0.892
 4477SOL    HW214331   1.708   1.830   0.904
 4478SOL     OW14332   1.168   4.675   0.885
 4478SOL    HW114333   1.165   4.609   0.961
 4478SOL    HW214334   1.258   4.674   0.843
 4479SOL     OW14335   1.301   5.546   6.141
 4479SOL    HW114336   1.232   5.560   6.071
 4479SOL    HW214337   1.369   5.618   6.136
 4480SOL     OW14338   7.022   3.077   3.126
 4480SOL    HW114339   6.928   3.045   3.119
 4480SOL    HW214340   0.009   3.128   3.211
 4481SOL     OW14341   0.962   0.588   4.127
 4481SOL    HW114342   0.986   0.492   4.136
 4481SOL    HW214343   0.979   0.619   4.033
 4482SOL     OW14344   0.611   4.031   3.228
 4482SOL    HW114345   0.703   4.038   3.190
 4482SOL    HW214346   0.614   3.977   3.313
 4483SOL     OW14347   6.264   4.109   1.213
 4483SOL    HW114348   6.302   4.032   1.162
 4483SOL    HW214349   6.305   4.195   1.181
 4484SOL     OW14350   3.206   4.046   6.381
 4484SOL    HW114351   3.201   4.016   6.477
 4484SOL    HW214352   3.161   3.977   6.323
 4485SOL     OW14353   4.289   6.692   6.045
 4485SOL    HW114354   4.224   6.616   6.033
 4485SOL    HW214355   4.242   6.769   6.087
 4486SOL     OW14356   5.939   3.663   4.411
 4486SOL    HW114357   5.856   3.623   4.449
 4486SOL    HW214358   5.994   3.592   4.368
 4487SOL     OW14359   3.333   2.776   6.299
 4487SOL    HW114360   3.278   2.859   6.309
 4487SOL    HW214361   3.323   2.741   6.206
 4488SOL     OW14362   6.907   2.522   6.888
 4488SOL    HW114363   6.824   2.483   6.848
 4488SOL    HW214364   6.938   2.599   6.831
 4489SOL     OW14365   0.356   1.410   3.551
 4489SOL    HW114366   0.343   1.321   3.594
 4489SOL    HW214367   0.271   1.463   3.558
 4490SOL     OW14368   6.912   2.145   3.818
 4490SOL    HW114369   7.011   2.156   3.814
 4490SOL    HW214370   6.869   2.235   3.825
 4491SOL     OW14371   1.968   4.902   2.265
 4491SOL    HW114372   1.982   4.860   2.355
 4491SOL    HW214373   2.054   4.899   2.213
 4492SOL     OW14374   5.683   3.692   5.381
 4492SOL    HW114375   5.583   3.684   5.385
 4492SOL    HW214376   5.710   3.787   5.397
 4493SOL     OW14377   5.731   4.903   3.683
 4493SOL    HW114378   5.762   4.853   3.764
 4493SOL    HW214379   5.642   4.944   3.702
 4494SOL     OW14380   5.262   2.890   1.838
 4494SOL    HW114381   5.251   2.961   1.769
 4494SOL    HW214382   5.275   2.932   1.928
 4495SOL     OW14383   5.750   4.415   2.402
 4495SOL    HW114384   5.824   4.415   2.334
 4495SOL    HW214385   5.765   4.341   2.467
 4496SOL     OW14386   5.845   3.132   6.242
 4496SOL    HW114387   5.913   3.113   6.313
 4496SOL    HW214388   5.892   3.141   6.154
 4497SOL     OW14389   6.299   0.082   0.747
 4497SOL    HW114390   6.254   0.039   0.825
 4497SOL    HW214391   6.353   0.013   0.698
 4498SOL     OW14392   1.428   4.403   5.999
 4498SOL    HW114393   1.489   4.327   5.975
 4498SOL    HW214394   1.404   4.454   5.917
 4499SOL     OW14395   5.862   3.938   0.672
 4499SOL    HW114396   5.838   3.864   0.735
 4499SOL    HW214397   5.779   3.989   0.648
 4500SOL     OW14398   3.474   4.179   1.855
 4500SOL    HW114399   3.374   4.173   1.849
 4500SOL    HW214400   3.504   4.271   1.830
 4501SOL     OW14401   1.641   5.438   4.967
 4501SOL    HW114402   1.723   5.382   4.975
 4501SOL    HW214403   1.617   5.476   5.057
 4502SOL     OW14404   5.453   2.631   0.428
 4502SOL    HW114405   5.421   2.691   0.501
 4502SOL    HW214406   5.383   2.626   0.356
 4503SOL     OW14407   0.916   3.891   2.720
 4503SOL    HW114408   0.903   3.834   2.639
 4503SOL    HW214409   0.849   3.865   2.790
 4504SOL     OW14410   4.152   1.868   4.342
 4504SOL    HW114411   4.077   1.932   4.331
 4504SOL    HW214412   4.160   1.811   4.260
 4505SOL     OW14413   2.462   5.415   0.253
 4505SOL    HW114414   2.372   5.435   0.291
 4505SOL    HW214415   2.517   5.498   0.255
 4506SOL     OW14416   3.404   6.298   5.941
 4506SOL    HW114417   3.454   6.375   5.979
 4506SOL    HW214418   3.468   6.224   5.919
 4507SOL     OW14419   6.178   3.820   2.770
 4507SOL    HW114420   6.101   3.833   2.708
 4507SOL    HW214421   6.261   3.801   2.717
 4508SOL     OW14422   1.970   4.404   1.178
 4508SOL    HW114423   1.888   4.405   1.121
 4508SOL    HW214424   1.976   4.316   1.226
 4509SOL     OW14425   0.883   2.879   3.672
 4509SOL    HW114426   0.817   2.847   3.740
 4509SOL    HW214427   0.932   2.958   3.707
 4510SOL     OW14428   2.823   0.233   6.435
 4510SOL    HW114429   2.724   0.223   6.437
 4510SOL    HW214430   2.851   0.309   6.493
 4511SOL     OW14431   0.213   2.771   6.932
 4511SOL    HW114432   0.265   2.802   7.012
 4511SOL    HW214433   0.245   2.681   6.903
 4512SOL     OW14434   2.139   3.565   0.371
 4512SOL    HW114435   2.230   3.602   0.386
 4512SOL    HW214436   2.140   3.505   0.290
 4513SOL     OW14437   6.154   1.679   2.482
 4513SOL    HW114438   6.189   1.648   2.393
 4513SOL    HW214439   6.157   1.603   2.547
 4514SOL     OW14440   2.031   0.089   4.497
 4514SOL    HW114441   2.015   0.051   4.406
 4514SOL    HW214442   2.026   0.189   4.493
 4515SOL     OW14443   0.217   4.460   0.635
 4515SOL    HW114444   0.176   4.406   0.708
 4515SOL    HW214445   0.186   4.426   0.546
 4516SOL     OW14446   0.519   6.757   3.848
 4516SOL    HW114447   0.440   6.810   3.818
 4516SOL    HW214448   0.489   6.666   3.877
 4517SOL     OW14449   3.070   0.644   0.238
 4517SOL    HW114450   3.082   0.629   0.140
 4517SOL    HW214451   3.046   0.740   0.255
 4518SOL     OW14452   1.054   0.799   3.583
 4518SOL    HW114453   0.968   0.805   3.633
 4518SOL    HW214454   1.129   0.827   3.643
 4519SOL     OW14455   7.013   2.223   4.123
 4519SOL    HW114456   0.045   2.286   4.069
 4519SOL    HW214457   6.986   2.145   4.067
 4520SOL     OW14458   6.901   3.856   2.742
 4520SOL    HW114459   6.824   3.877   2.802
 4520SOL    HW214460   6.983   3.901   2.777
 4521SOL     OW14461   5.292   1.436   6.473
 4521SOL    HW114462   5.234   1.389   6.539
 4521SOL    HW214463   5.261   1.530   6.461
 4522SOL     OW14464   5.451   6.792   3.846
 4522SOL    HW114465   5.432   6.828   3.937
 4522SOL    HW214466   5.444   6.867   3.779
 4523SOL     OW14467   4.932   2.060   5.548
 4523SOL    HW114468   4.907   2.157   5.537
 4523SOL    HW214469   4.850   2.007   5.568
 4524SOL     OW14470   5.771   1.498   5.440
 4524SOL    HW114471   5.673   1.510   5.452
 4524SOL    HW214472   5.799   1.536   5.352
 4525SOL     OW14473   0.232   1.122   4.122
 4525SOL    HW114474   0.134   1.134   4.139
 4525SOL    HW214475   0.264   1.191   4.058
 4526SOL     OW14476   2.541   1.896   0.912
 4526SOL    HW114477   2.489   1.812   0.928
 4526SOL    HW214478   2.527   1.927   0.818
 4527SOL     OW14479   4.739   6.763   3.412
 4527SOL    HW114480   4.659   6.820   3.392
 4527SOL    HW214481   4.807   6.817   3.462
 4528SOL     OW14482   4.190   0.478   6.490
 4528SOL    HW114483   4.289   0.488   6.491
 4528SOL    HW214484   4.166   0.384   6.518
 4529SOL     OW14485   2.898   7.018   4.214
 4529SOL    HW114486   2.978   7.023   4.273
 4529SOL    HW214487   2.815   0.008   4.269
 4530SOL     OW14488   6.627   2.195   4.088
 4530SOL    HW114489   6.571   2.231   4.013
 4530SOL    HW214490   6.618   2.095   4.090
 4531SOL     OW14491   6.995   4.142   3.621
 4531SOL    HW114492   0.007   4.056   3.656
 4531SOL    HW214493   6.984   4.135   3.522
 4532SOL     OW14494   0.340   2.179   0.605
 4532SOL    HW114495   0.326   2.278   0.601
 4532SOL    HW214496   0.380   2.147   0.519
 4533SOL     OW14497   3.525   6.032   2.296
 4533SOL    HW114498   3.537   5.933   2.289
 4533SOL    HW214499   3.571   6.076   2.219
 4534SOL     OW14500   6.602   4.152   6.223
 4534SOL    HW114501   6.504   4.144   6.205
 4534SOL    HW214502   6.617   4.211   6.302
 4535SOL     OW14503   4.696   2.276   2.635
 4535SOL    HW114504   4.626   2.331   2.590
 4535SOL    HW214505   4.778   2.272   2.578
 4536SOL     OW14506   6.767   0.164   3.544
 4536SOL    HW114507   6.728   0.072   3.549
 4536SOL    HW214508   6.774   0.203   3.636
 4537SOL     OW14509   5.167   3.203   5.420
 4537SOL    HW114510   5.152   3.124   5.360
 4537SOL    HW214511   5.186   3.172   5.513
 4538SOL     OW14512   3.512   2.041   1.537
 4538SOL    HW114513   3.494   2.087   1.624
 4538SOL    HW214514   3.610   2.022   1.529
 4539SOL     OW14515   2.522   3.793   0.993
 4539SOL    HW114516   2.535   3.799   1.092
 4539SOL    HW214517   2.610   3.805   0.946
 4540SOL     OW14518   3.915   3.269   4.370
 4540SOL    HW114519   3.904   3.366   4.393
 4540SOL    HW214520   3.890   3.213   4.449
 4541SOL     OW14521   6.219   0.870   1.428
 4541SOL    HW114522   6.181   0.861   1.520
 4541SOL    HW214523   6.319   0.871   1.434
 4542SOL     OW14524   5.386   6.461   3.530
 4542SOL    HW114525   5.457   6.528   3.547
 4542SOL    HW214526   5.426   6.378   3.491
 4543SOL     OW14527   5.137   2.398   2.718
 4543SOL    HW114528   5.204   2.333   2.681
 4543SOL    HW214529   5.071   2.348   2.773
 4544SOL     OW14530   5.412   4.760   0.249
 4544SOL    HW114531   5.470   4.700   0.303
 4544SOL    HW214532   5.397   4.846   0.298
 4545SOL     OW14533   4.636   3.451   0.621
 4545SOL    HW114534   4.550   3.493   0.650
 4545SOL    HW214535   4.622   3.403   0.534
 4546SOL     OW14536   0.851   5.990   0.314
 4546SOL    HW114537   0.847   6.009   0.412
 4546SOL    HW214538   0.907   5.908   0.299
 4547SOL     OW14539   4.610   1.344   2.573
 4547SOL    HW114540   4.517   1.325   2.603
 4547SOL    HW214541   4.645   1.265   2.521
 4548SOL     OW14542   0.802   3.181   4.587
 4548SOL    HW114543   0.796   3.281   4.597
 4548SOL    HW214544   0.797   3.138   4.677
 4549SOL     OW14545   5.944   1.454   2.783
 4549SOL    HW114546   5.914   1.387   2.850
 4549SOL    HW214547   5.895   1.540   2.796
 4550SOL     OW14548   2.162   5.336   5.253
 4550SOL    HW114549   2.092   5.345   5.323
 4550SOL    HW214550   2.128   5.278   5.179
 4551SOL     OW14551   6.216   3.347   0.645
 4551SOL    HW114552   6.160   3.410   0.699
 4551SOL    HW214553   6.203   3.254   0.679
 4552SOL     OW14554   0.035   3.861   5.004
 4552SOL    HW114555   6.977   3.848   5.060
 4552SOL    HW214556   0.060   3.957   5.003
 4553SOL     OW14557   5.498   5.420   6.847
 4553SOL    HW114558   5.529   5.494   6.906
 4553SOL    HW214559   5.438   5.457   6.776
 4554SOL     OW14560   6.830   6.102   4.178
 4554SOL    HW114561   6.817   6.095   4.079
 4554SOL    HW214562   6.822   6.011   4.220
 4555SOL     OW14563   3.825   2.805   0.189
 4555SOL    HW114564   3.906   2.863   0.198
 4555SOL    HW214565   3.742   2.861   0.195
 4556SOL     OW14566   3.926   0.659   4.866
 4556SOL    HW114567   3.973   0.578   4.901
 4556SOL    HW214568   3.950   0.672   4.770
 4557SOL     OW14569   5.112   0.840   3.979
 4557SOL    HW114570   5.184   0.865   4.045
 4557SOL    HW214571   5.120   0.744   3.955
 4558SOL     OW14572   0.112   3.725   6.612
 4558SOL    HW114573   0.017   3.756   6.618
 4558SOL    HW214574   0.116   3.626   6.626
 4559SOL     OW14575   1.789   6.449   1.584
 4559SOL    HW114576   1.828   6.520   1.643
 4559SOL    HW214577   1.724   6.395   1.637
 4560SOL     OW14578   5.731   2.402   3.577
 4560SOL    HW114579   5.716   2.387   3.479
 4560SOL    HW214580   5.660   2.354   3.629
 4561SOL     OW14581   2.485   6.162   6.730
 4561SOL    HW114582   2.537   6.182   6.813
 4561SOL    HW214583   2.496   6.065   6.706
 4562SOL     OW14584   3.336   4.272   5.728
 4562SOL    HW114585   3.259   4.277   5.665
 4562SOL    HW214586   3.325   4.342   5.799
 4563SOL     OW14587   5.541   3.038   6.624
 4563SOL    HW114588   5.458   3.073   6.581
 4563SOL    HW214589   5.519   2.955   6.676
 4564SOL     OW14590   6.723   5.208   0.171
 4564SOL    HW114591   6.784   5.231   0.246
 4564SOL    HW214592   6.699   5.111   0.175
 4565SOL     OW14593   3.751   0.996   4.406
 4565SOL    HW114594   3.695   0.983   4.324
 4565SOL    HW214595   3.709   0.948   4.483
 4566SOL     OW14596   1.863   0.292   1.042
 4566SOL    HW114597   1.883   0.225   1.113
 4566SOL    HW214598   1.817   0.371   1.083
 4567SOL     OW14599   5.641   2.501   0.626
 4567SOL    HW114600   5.566   2.552   0.584
 4567SOL    HW214601   5.629   2.502   0.726
 4568SOL     OW14602   4.196   4.680   3.924
 4568SOL    HW114603   4.132   4.738   3.875
 4568SOL    HW214604   4.241   4.733   3.997
 4569SOL     OW14605   2.056   1.647   3.897
 4569SOL    HW114606   2.069   1.662   3.995
 4569SOL    HW214607   2.003   1.722   3.859
 4570SOL     OW14608   5.390   5.799   5.113
 4570SOL    HW114609   5.408   5.874   5.176
 4570SOL    HW214610   5.331   5.831   5.039
 4571SOL     OW14611   3.842   3.005   3.996
 4571SOL    HW114612   3.890   3.069   3.936
 4571SOL    HW214613   3.827   3.047   4.085
 4572SOL     OW14614   2.802   5.568   0.991
 4572SOL    HW114615   2.877   5.503   1.009
 4572SOL    HW214616   2.835   5.641   0.932
 4573SOL     OW14617   4.904   0.035   1.555
 4573SOL    HW114618   4.893   6.985   1.489
 4573SOL    HW214619   4.957   0.109   1.514
 4574SOL     OW14620   0.121   4.944   2.253
 4574SOL    HW114621   0.203   4.887   2.258
 4574SOL    HW214622   0.144   5.039   2.272
 4575SOL     OW14623   6.259   5.754   1.518
 4575SOL    HW114624   6.220   5.757   1.609
 4575SOL    HW214625   6.343   5.700   1.519
 4576SOL     OW14626   3.629   6.214   4.368
 4576SOL    HW114627   3.644   6.155   4.289
 4576SOL    HW214628   3.564   6.286   4.345
 4577SOL     OW14629   2.450   4.650   3.549
 4577SOL    HW114630   2.511   4.662   3.470
 4577SOL    HW214631   2.449   4.553   3.576
 4578SOL     OW14632   5.761   6.406   3.749
 4578SOL    HW114633   5.846   6.355   3.765
 4578SOL    HW214634   5.777   6.475   3.679
 4579SOL     OW14635   4.318   1.799   2.998
 4579SOL    HW114636   4.262   1.864   3.049
 4579SOL    HW214637   4.305   1.813   2.900
 4580SOL     OW14638   0.564   4.710   6.937
 4580SOL    HW114639   0.531   4.744   0.001
 4580SOL    HW214640   0.658   4.741   6.923
 4581SOL     OW14641   3.173   5.489   4.250
 4581SOL    HW114642   3.190   5.395   4.278
 4581SOL    HW214643   3.102   5.490   4.179
 4582SOL     OW14644   4.930   6.374   3.059
 4582SOL    HW114645   5.029   6.389   3.066
 4582SOL    HW214646   4.882   6.447   3.108
 4583SOL     OW14647   3.720   6.835   5.302
 4583SOL    HW114648   3.734   6.841   5.203
 4583SOL    HW214649   3.649   6.767   5.321
 4584SOL     OW14650   6.738   5.039   5.803
 4584SOL    HW114651   6.746   5.138   5.792
 4584SOL    HW214652   6.648   5.017   5.841
 4585SOL     OW14653   2.996   6.607   2.161
 4585SOL    HW114654   3.002   6.701   2.194
 4585SOL    HW214655   3.038   6.545   2.228
 4586SOL     OW14656   1.926   6.178   1.536
 4586SOL    HW114657   1.902   6.135   1.623
 4586SOL    HW214658   1.861   6.251   1.516
 4587SOL     OW14659   3.368   4.796   1.203
 4587SOL    HW114660   3.338   4.793   1.298
 4587SOL    HW214661   3.352   4.708   1.160
 4588SOL     OW14662   3.309   3.933   4.625
 4588SOL    HW114663   3.372   3.934   4.546
 4588SOL    HW214664   3.327   3.852   4.681
 4589SOL     OW14665   2.077   2.097   3.467
 4589SOL    HW114666   2.103   2.192   3.449
 4589SOL    HW214667   2.123   2.037   3.402
 4590SOL     OW14668   4.579   6.236   2.670
 4590SOL    HW114669   4.582   6.150   2.720
 4590SOL    HW214670   4.627   6.307   2.723
 4591SOL     OW14671   4.586   5.884   4.820
 4591SOL    HW114672   4.616   5.794   4.787
 4591SOL    HW214673   4.509   5.916   4.764
 4592SOL     OW14674   3.147   2.517   5.798
 4592SOL    HW114675   3.166   2.430   5.754
 4592SOL    HW214676   3.208   2.588   5.760
 4593SOL     OW14677   4.917   5.245   1.672
 4593SOL    HW114678   4.912   5.268   1.575
 4593SOL    HW214679   4.825   5.236   1.709
 4594SOL     OW14680   4.063   2.227   2.285
 4594SOL    HW114681   3.965   2.208   2.283
 4594SOL    HW214682   4.081   2.313   2.238
 4595SOL     OW14683   4.200   3.096   5.475
 4595SOL    HW114684   4.144   3.167   5.518
 4595SOL    HW214685   4.295   3.128   5.468
 4596SOL     OW14686   4.422   0.907   2.436
 4596SOL    HW114687   4.411   0.841   2.361
 4596SOL    HW214688   4.503   0.963   2.419
 4597SOL     OW14689   6.969   3.561   6.437
 4597SOL    HW114690   7.018   3.645   6.460
 4597SOL    HW214691   6.872   3.574   6.455
 4598SOL     OW14692   2.808   3.970   6.859
 4598SOL    HW114693   2.734   3.999   6.919
 4598SOL    HW214694   2.890   3.951   6.914
 4599SOL     OW14695   3.174   4.638   0.747
 4599SOL    HW114696   3.173   4.722   0.691
 4599SOL    HW214697   3.222   4.566   0.697
 4600SOL     OW14698   2.413   3.563   0.863
 4600SOL    HW114699   2.316   3.579   0.842
 4600SOL    HW214700   2.445   3.635   0.925
 4601SOL     OW14701   1.791   5.257   3.056
 4601SOL    HW114702   1.886   5.232   3.075
 4601SOL    HW214703   1.747   5.287   3.141
 4602SOL     OW14704   1.691   0.172   1.630
 4602SOL    HW114705   1.680   0.186   1.531
 4602SOL    HW214706   1.676   0.258   1.678
 4603SOL     OW14707   2.749   1.646   1.283
 4603SOL    HW114708   2.705   1.584   1.218
 4603SOL    HW214709   2.833   1.683   1.242
 4604SOL     OW14710   1.225   6.875   3.137
 4604SOL    HW114711   1.197   6.968   3.160
 4604SOL    HW214712   1.186   6.812   3.204
 4605SOL     OW14713   5.167   6.709   5.668
 4605SOL    HW114714   5.221   6.778   5.716
 4605SOL    HW214715   5.164   6.730   5.570
 4606SOL     OW14716   5.855   6.541   4.760
 4606SOL    HW114717   5.819   6.633   4.745
 4606SOL    HW214718   5.862   6.493   4.673
 4607SOL     OW14719   3.012   3.332   0.575
 4607SOL    HW114720   2.944   3.259   0.588
 4607SOL    HW214721   3.075   3.333   0.652
 4608SOL     OW14722   1.668   3.330   5.912
 4608SOL    HW114723   1.587   3.286   5.951
 4608SOL    HW214724   1.740   3.261   5.897
 4609SOL     OW14725   3.477   0.025   0.446
 4609SOL    HW114726   3.515   6.957   0.447
 4609SOL    HW214727   3.552   0.091   0.456
 4610SOL     OW14728   6.378   3.829   0.494
 4610SOL    HW114729   6.300   3.789   0.446
 4610SOL    HW214730   6.461   3.778   0.471
 4611SOL     OW14731   1.662   4.822   6.106
 4611SOL    HW114732   1.625   4.896   6.162
 4611SOL    HW214733   1.756   4.844   6.080
 4612SOL     OW14734   1.696   0.623   6.323
 4612SOL    HW114735   1.656   0.692   6.383
 4612SOL    HW214736   1.648   0.623   6.236
 4613SOL     OW14737   4.083   5.042   1.468
 4613SOL    HW114738   4.041   5.020   1.556
 4613SOL    HW214739   4.177   5.072   1.482
 4614SOL     OW14740   1.933   4.158   0.808
 4614SOL    HW114741   1.868   4.233   0.822
 4614SOL    HW214742   2.020   4.195   0.777
 4615SOL     OW14743   6.090   3.082   6.391
 4615SOL    HW114744   6.048   2.993   6.408
 4615SOL    HW214745   6.102   3.130   6.478
 4616SOL     OW14746   5.331   0.705   6.599
 4616SOL    HW114747   5.275   0.755   6.665
 4616SOL    HW214748   5.310   0.736   6.506
 4617SOL     OW14749   0.496   4.186   1.856
 4617SOL    HW114750   0.583   4.141   1.878
 4617SOL    HW214751   0.464   4.236   1.937
 4618SOL     OW14752   1.338   2.910   6.030
 4618SOL    HW114753   1.358   2.871   5.940
 4618SOL    HW214754   1.423   2.929   6.078
 4619SOL     OW14755   3.893   1.012   3.887
 4619SOL    HW114756   3.971   0.981   3.941
 4619SOL    HW214757   3.922   1.029   3.792
 4620SOL     OW14758   1.700   6.079   0.325
 4620SOL    HW114759   1.643   6.128   0.392
 4620SOL    HW214760   1.727   6.141   0.252
 4621SOL     OW14761   6.730   0.990   6.968
 4621SOL    HW114762   6.661   1.054   6.933
 4621SOL    HW214763   6.692   0.898   6.971
 4622SOL     OW14764   1.757   4.703   0.532
 4622SOL    HW114765   1.816   4.635   0.489
 4622SOL    HW214766   1.809   4.751   0.603
 4623SOL     OW14767   6.059   3.363   3.833
 4623SOL    HW114768   6.041   3.416   3.916
 4623SOL    HW214769   6.152   3.384   3.801
 4624SOL     OW14770   4.485   6.474   5.706
 4624SOL    HW114771   4.505   6.572   5.701
 4624SOL    HW214772   4.458   6.450   5.799
 4625SOL     OW14773   1.175   4.178   6.333
 4625SOL    HW114774   1.225   4.147   6.252
 4625SOL    HW214775   1.086   4.134   6.336
 4626SOL     OW14776   6.885   4.730   2.320
 4626SOL    HW114777   6.803   4.680   2.347
 4626SOL    HW214778   6.924   4.688   2.239
 4627SOL     OW14779   2.201   6.764   4.357
 4627SOL    HW114780   2.155   6.681   4.327
 4627SOL    HW214781   2.245   6.808   4.278
 4628SOL     OW14782   6.575   2.335   1.756
 4628SOL    HW114783   6.594   2.354   1.852
 4628SOL    HW214784   6.645   2.379   1.699
 4629SOL     OW14785   4.532   5.277   3.758
 4629SOL    HW114786   4.488   5.236   3.838
 4629SOL    HW214787   4.629   5.254   3.758
 4630SOL     OW14788   2.920   6.164   2.919
 4630SOL    HW114789   2.879   6.131   3.004
 4630SOL    HW214790   2.995   6.227   2.940
 4631SOL     OW14791   1.792   0.594   2.602
 4631SOL    HW114792   1.886   0.626   2.591
 4631SOL    HW214793   1.777   0.565   2.696
 4632SOL     OW14794   5.715   6.405   4.528
 4632SOL    HW114795   5.674   6.377   4.615
 4632SOL    HW214796   5.673   6.353   4.454
 4633SOL     OW14797   5.006   3.224   6.050
 4633SOL    HW114798   5.057   3.254   5.969
 4633SOL    HW214799   5.024   3.286   6.126
 4634SOL     OW14800   2.930   3.670   0.462
 4634SOL    HW114801   2.885   3.583   0.448
 4634SOL    HW214802   2.986   3.665   0.545
 4635SOL     OW14803   4.661   3.063   1.453
 4635SOL    HW114804   4.692   3.018   1.537
 4635SOL    HW214805   4.615   3.149   1.476
 4636SOL     OW14806   1.059   5.098   2.005
 4636SOL    HW114807   1.080   5.126   1.911
 4636SOL    HW214808   1.119   5.023   2.031
 4637SOL     OW14809   0.518   0.823   5.404
 4637SOL    HW114810   0.610   0.792   5.379
 4637SOL    HW214811   0.455   0.746   5.400
 4638SOL     OW14812   4.512   5.059   5.760
 4638SOL    HW114813   4.482   4.970   5.794
 4638SOL    HW214814   4.433   5.118   5.746
 4639SOL     OW14815   6.643   2.432   5.294
 4639SOL    HW114816   6.615   2.375   5.217
 4639SOL    HW214817   6.633   2.528   5.270
 4640SOL     OW14818   0.219   5.762   3.006
 4640SOL    HW114819   0.124   5.733   2.991
 4640SOL    HW214820   0.229   5.796   3.100
 4641SOL     OW14821   2.245   3.863   5.348
 4641SOL    HW114822   2.166   3.924   5.343
 4641SOL    HW214823   2.319   3.898   5.291
 4642SOL     OW14824   5.875   5.241   4.657
 4642SOL    HW114825   5.931   5.310   4.612
 4642SOL    HW214826   5.853   5.168   4.592
 4643SOL     OW14827   4.560   3.850   1.185
 4643SOL    HW114828   4.582   3.754   1.166
 4643SOL    HW214829   4.536   3.896   1.100
 4644SOL     OW14830   3.282   5.247   5.500
 4644SOL    HW114831   3.318   5.155   5.485
 4644SOL    HW214832   3.234   5.278   5.418
 4645SOL     OW14833   1.834   6.305   4.863
 4645SOL    HW114834   1.909   6.350   4.912
 4645SOL    HW214835   1.747   6.343   4.894
 4646SOL     OW14836   3.442   1.405   0.905
 4646SOL    HW114837   3.486   1.320   0.934
 4646SOL    HW214838   3.344   1.388   0.892
 4647SOL     OW14839   6.300   0.678   5.501
 4647SOL    HW114840   6.366   0.751   5.514
 4647SOL    HW214841   6.234   0.679   5.577
 4648SOL     OW14842   2.507   6.410   3.291
 4648SOL    HW114843   2.580   6.450   3.234
 4648SOL    HW214844   2.424   6.400   3.236
 4649SOL     OW14845   5.853   5.119   5.946
 4649SOL    HW114846   5.879   5.075   5.860
 4649SOL    HW214847   5.754   5.135   5.946
 4650SOL     OW14848   6.463   4.785   1.747
 4650SOL    HW114849   6.557   4.815   1.730
 4650SOL    HW214850   6.437   4.811   1.840
 4651SOL     OW14851   6.073   1.297   1.315
 4651SOL    HW114852   6.102   1.384   1.276
 4651SOL    HW214853   6.097   1.294   1.412
 4652SOL     OW14854   0.412   6.474   5.686
 4652SOL    HW114855   0.465   6.548   5.644
 4652SOL    HW214856   0.460   6.387   5.674
 4653SOL     OW14857   1.792   4.931   0.086
 4653SOL    HW114858   1.884   4.892   0.082
 4653SOL    HW214859   1.724   4.858   0.083
 4654SOL     OW14860   1.925   1.616   0.611
 4654SOL    HW114861   2.021   1.590   0.617
 4654SOL    HW214862   1.867   1.537   0.632
 4655SOL     OW14863   0.463   5.280   4.470
 4655SOL    HW114864   0.374   5.285   4.516
 4655SOL    HW214865   0.503   5.190   4.486
 4656SOL     OW14866   2.662   0.510   2.689
 4656SOL    HW114867   2.580   0.486   2.638
 4656SOL    HW214868   2.664   0.609   2.704
 4657SOL     OW14869   6.673   1.263   5.643
 4657SOL    HW114870   6.580   1.297   5.629
 4657SOL    HW214871   6.685   1.177   5.594
 4658SOL     OW14872   5.335   0.171   3.963
 4658SOL    HW114873   5.366   0.214   3.878
 4658SOL    HW214874   5.236   0.165   3.963
 4659SOL     OW14875   2.067   3.173   3.848
 4659SOL    HW114876   1.979   3.221   3.849
 4659SOL    HW214877   2.093   3.151   3.942
 4660SOL     OW14878   6.657   1.454   5.008
 4660SOL    HW114879   6.663   1.465   5.107
 4660SOL    HW214880   6.676   1.359   4.984
 4661SOL     OW14881   3.238   3.266   3.882
 4661SOL    HW114882   3.247   3.223   3.972
 4661SOL    HW214883   3.260   3.200   3.811
 4662SOL     OW14884   6.249   6.621   4.671
 4662SOL    HW114885   6.302   6.677   4.607
 4662SOL    HW214886   6.300   6.611   4.756
 4663SOL     OW14887   0.721   1.992   2.488
 4663SOL    HW114888   0.758   1.925   2.553
 4663SOL    HW214889   0.721   2.082   2.531
 4664SOL     OW14890   3.422   5.150   0.391
 4664SOL    HW114891   3.335   5.165   0.344
 4664SOL    HW214892   3.413   5.177   0.487
 4665SOL     OW14893   5.985   0.858   6.311
 4665SOL    HW114894   5.888   0.848   6.287
 4665SOL    HW214895   5.997   0.844   6.409
 4666SOL     OW14896   1.690   0.999   0.859
 4666SOL    HW114897   1.668   1.082   0.911
 4666SOL    HW214898   1.789   0.991   0.848
 4667SOL     OW14899   0.278   6.091   4.032
 4667SOL    HW114900   0.305   6.022   4.099
 4667SOL    HW214901   0.359   6.140   3.999
 4668SOL     OW14902   5.742   1.200   5.128
 4668SOL    HW114903   5.815   1.198   5.060
 4668SOL    HW214904   5.781   1.213   5.219
 4669SOL     OW14905   1.979   1.973   2.335
 4669SOL    HW114906   1.913   2.030   2.286
 4669SOL    HW214907   2.039   1.927   2.269
 4670SOL     OW14908   2.637   1.952   4.403
 4670SOL    HW114909   2.616   1.975   4.309
 4670SOL    HW214910   2.710   1.884   4.405
 4671SOL     OW14911   6.328   2.289   2.510
 4671SOL    HW114912   6.405   2.347   2.539
 4671SOL    HW214913   6.358   2.194   2.504
 4672SOL     OW14914   2.912   2.267   5.199
 4672SOL    HW114915   2.854   2.340   5.163
 4672SOL    HW214916   3.008   2.286   5.179
 4673SOL     OW14917   5.271   0.627   2.191
 4673SOL    HW114918   5.273   0.530   2.169
 4673SOL    HW214919   5.270   0.680   2.106
 4674SOL     OW14920   4.349   6.881   5.555
 4674SOL    HW114921   4.347   6.936   5.638
 4674SOL    HW214922   4.333   6.939   5.475
 4675SOL     OW14923   0.891   4.102   5.881
 4675SOL    HW114924   0.948   4.034   5.927
 4675SOL    HW214925   0.919   4.194   5.911
 4676SOL     OW14926   1.401   4.417   3.842
 4676SOL    HW114927   1.388   4.516   3.846
 4676SOL    HW214928   1.431   4.391   3.750
 4677SOL     OW14929   1.256   3.449   0.686
 4677SOL    HW114930   1.241   3.545   0.709
 4677SOL    HW214931   1.353   3.427   0.696
 4678SOL     OW14932   1.439   2.132   1.211
 4678SOL    HW114933   1.368   2.200   1.189
 4678SOL    HW214934   1.402   2.040   1.197
 4679SOL     OW14935   4.459   0.323   2.049
 4679SOL    HW114936   4.438   0.227   2.064
 4679SOL    HW214937   4.502   0.334   1.960
 4680SOL     OW14938   3.074   1.089   6.786
 4680SOL    HW114939   3.160   1.135   6.810
 4680SOL    HW214940   3.031   1.137   6.710
 4681SOL     OW14941   5.094   5.292   2.098
 4681SOL    HW114942   5.178   5.250   2.131
 4681SOL    HW214943   5.089   5.285   1.999
 4682SOL     OW14944   3.587   3.265   6.271
 4682SOL    HW114945   3.548   3.356   6.271
 4682SOL    HW214946   3.606   3.236   6.177
 4683SOL     OW14947   6.945   3.999   4.133
 4683SOL    HW114948   0.015   3.983   4.103
 4683SOL    HW214949   6.942   4.082   4.190
 4684SOL     OW14950   5.188   0.537   5.660
 4684SOL    HW114951   5.231   0.468   5.601
 4684SOL    HW214952   5.099   0.504   5.691
 4685SOL     OW14953   3.002   3.702   4.087
 4685SOL    HW114954   2.967   3.632   4.026
 4685SOL    HW214955   2.939   3.715   4.163
 4686SOL     OW14956   1.460   6.966   6.331
 4686SOL    HW114957   1.451   6.957   6.431
 4686SOL    HW214958   1.494   0.033   6.309
 4687SOL     OW14959   1.193   7.017   2.411
 4687SOL    HW114960   1.184   6.922   2.442
 4687SOL    HW214961   1.256   0.041   2.472
 4688SOL     OW14962   5.139   2.726   4.427
 4688SOL    HW114963   5.177   2.794   4.364
 4688SOL    HW214964   5.163   2.750   4.520
 4689SOL     OW14965   6.903   1.173   1.371
 4689SOL    HW114966   6.978   1.229   1.405
 4689SOL    HW214967   6.939   1.098   1.315
 4690SOL     OW14968   3.411   2.281   1.439
 4690SOL    HW114969   3.476   2.354   1.418
 4690SOL    HW214970   3.460   2.205   1.482
 4691SOL     OW14971   6.347   2.878   1.927
 4691SOL    HW114972   6.331   2.949   1.858
 4691SOL    HW214973   6.314   2.790   1.894
 4692SOL     OW14974   6.148   2.601   3.122
 4692SOL    HW114975   6.232   2.585   3.069
 4692SOL    HW214976   6.072   2.616   3.060
 4693SOL     OW14977   6.795   0.339   3.803
 4693SOL    HW114978   6.810   0.339   3.902
 4693SOL    HW214979   6.697   0.344   3.784
 4694SOL     OW14980   1.935   6.792   5.716
 4694SOL    HW114981   1.899   6.722   5.778
 4694SOL    HW214982   2.008   6.752   5.660
 4695SOL     OW14983   1.728   4.598   1.953
 4695SOL    HW114984   1.703   4.662   2.026
 4695SOL    HW214985   1.767   4.516   1.993
 4696SOL     OW14986   2.211   6.104   6.108
 4696SOL    HW114987   2.161   6.053   6.039
 4696SOL    HW214988   2.255   6.184   6.067
 4697SOL     OW14989   4.513   5.930   1.654
 4697SOL    HW114990   4.541   5.983   1.734
 4697SOL    HW214991   4.433   5.971   1.612
 4698SOL     OW14992   5.544   1.707   4.645
 4698SOL    HW114993   5.455   1.736   4.680
 4698SOL    HW214994   5.531   1.658   4.559
 4699SOL     OW14995   0.772   1.499   2.605
 4699SOL    HW114996   0.806   1.417   2.650
 4699SOL    HW214997   0.784   1.491   2.507
 4700SOL     OW14998   6.654   2.067   3.770
 4700SOL    HW114999   6.752   2.083   3.784
 4700SOL    HW215000   6.622   2.123   3.694
 4701SOL     OW15001   2.519   2.764   1.780
 4701SOL    HW115002   2.582   2.686   1.785
 4701SOL    HW215003   2.563   2.839   1.732
 4702SOL     OW15004   6.291   5.021   1.212
 4702SOL    HW115005   6.330   5.009   1.303
 4702SOL    HW215006   6.311   5.113   1.179
 4703SOL     OW15007   6.780   4.988   4.298
 4703SOL    HW115008   6.801   4.890   4.293
 4703SOL    HW215009   6.848   5.034   4.354
 4704SOL     OW15010   1.561   5.044   4.441
 4704SOL    HW115011   1.566   5.036   4.342
 4704SOL    HW215012   1.581   4.955   4.483
 4705SOL     OW15013   2.886   2.332   1.245
 4705SOL    HW115014   2.910   2.270   1.170
 4705SOL    HW215015   2.938   2.308   1.326
 4706SOL     OW15016   2.059   1.597   1.067
 4706SOL    HW115017   1.966   1.593   1.031
 4706SOL    HW215018   2.091   1.504   1.089
 4707SOL     OW15019   2.053   5.722   2.081
 4707SOL    HW115020   2.041   5.810   2.128
 4707SOL    HW215021   1.988   5.656   2.118
 4708SOL     OW15022   2.004   2.869   6.690
 4708SOL    HW115023   1.963   2.831   6.773
 4708SOL    HW215024   2.076   2.808   6.658
 4709SOL     OW15025   6.252   3.501   4.936
 4709SOL    HW115026   6.257   3.467   4.842
 4709SOL    HW215027   6.164   3.546   4.951
 4710SOL     OW15028   6.139   4.885   5.269
 4710SOL    HW115029   6.083   4.882   5.352
 4710SOL    HW215030   6.105   4.958   5.209
 4711SOL     OW15031   4.883   4.159   2.764
 4711SOL    HW115032   4.888   4.104   2.681
 4711SOL    HW215033   4.916   4.106   2.842
 4712SOL     OW15034   4.350   4.884   5.900
 4712SOL    HW115035   4.293   4.965   5.915
 4712SOL    HW215036   4.308   4.805   5.946
 4713SOL     OW15037   5.673   4.712   1.725
 4713SOL    HW115038   5.633   4.670   1.644
 4713SOL    HW215039   5.752   4.768   1.698
 4714SOL     OW15040   4.854   2.364   5.842
 4714SOL    HW115041   4.886   2.288   5.899
 4714SOL    HW215042   4.788   2.418   5.894
 4715SOL     OW15043   0.199   1.462   1.755
 4715SOL    HW115044   0.128   1.399   1.786
 4715SOL    HW215045   0.279   1.410   1.724
 4716SOL     OW15046   3.860   4.407   5.271
 4716SOL    HW115047   3.877   4.365   5.360
 4716SOL    HW215048   3.792   4.352   5.221
 4717SOL     OW15049   1.595   4.571   6.208
 4717SOL    HW115050   1.612   4.655   6.157
 4717SOL    HW215051   1.514   4.525   6.172
 4718SOL     OW15052   4.893   3.574   2.441
 4718SOL    HW115053   4.806   3.597   2.399
 4718SOL    HW215054   4.908   3.475   2.435
 4719SOL     OW15055   5.744   3.896   3.765
 4719SOL    HW115056   5.655   3.862   3.796
 4719SOL    HW215057   5.730   3.960   3.689
 4720SOL     OW15058   1.002   1.759   6.169
 4720SOL    HW115059   0.997   1.809   6.083
 4720SOL    HW215060   0.913   1.718   6.189
 4721SOL     OW15061   0.359   2.642   2.939
 4721SOL    HW115062   0.341   2.574   2.868
 4721SOL    HW215063   0.383   2.729   2.896
 4722SOL     OW15064   1.821   5.017   5.727
 4722SOL    HW115065   1.836   5.006   5.629
 4722SOL    HW215066   1.868   5.099   5.759
 4723SOL     OW15067   3.485   4.535   6.046
 4723SOL    HW115068   3.524   4.618   6.086
 4723SOL    HW215069   3.441   4.481   6.117
 4724SOL     OW15070   0.615   0.523   4.467
 4724SOL    HW115071   0.639   0.426   4.477
 4724SOL    HW215072   0.618   0.547   4.370
 4725SOL     OW15073   5.643   5.403   1.363
 4725SOL    HW115074   5.601   5.336   1.424
 4725SOL    HW215075   5.643   5.493   1.407
 4726SOL     OW15076   2.217   2.900   5.966
 4726SOL    HW115077   2.121   2.879   5.945
 4726SOL    HW215078   2.252   2.966   5.899
 4727SOL     OW15079   6.270   5.270   1.734
 4727SOL    HW115080   6.200   5.226   1.790
 4727SOL    HW215081   6.361   5.247   1.770
 4728SOL     OW15082   4.446   0.946   3.528
 4728SOL    HW115083   4.377   1.018   3.535
 4728SOL    HW215084   4.537   0.985   3.544
 4729SOL     OW15085   0.584   1.099   2.993
 4729SOL    HW115086   0.547   1.011   2.962
 4729SOL    HW215087   0.683   1.099   2.981
 4730SOL     OW15088   2.864   0.945   3.127
 4730SOL    HW115089   2.936   0.878   3.107
 4730SOL    HW215090   2.839   0.938   3.224
 4731SOL     OW15091   3.795   6.805   2.360
 4731SOL    HW115092   3.778   6.789   2.457
 4731SOL    HW215093   3.709   6.793   2.309
 4732SOL     OW15094   0.253   4.926   4.240
 4732SOL    HW115095   0.231   4.995   4.172
 4732SOL    HW215096   0.274   4.970   4.327
 4733SOL     OW15097   2.145   3.824   3.335
 4733SOL    HW115098   2.152   3.798   3.239
 4733SOL    HW215099   2.125   3.742   3.390
 4734SOL     OW15100   4.640   4.544   6.478
 4734SOL    HW115101   4.587   4.463   6.451
 4734SOL    HW215102   4.599   4.625   6.437
 4735SOL     OW15103   0.140   1.004   5.443
 4735SOL    HW115104   0.217   1.007   5.506
 4735SOL    HW215105   0.170   1.032   5.352
 4736SOL     OW15106   6.223   0.168   4.726
 4736SOL    HW115107   6.171   0.158   4.810
 4736SOL    HW215108   6.212   0.260   4.690
 4737SOL     OW15109   2.126   5.206   0.286
 4737SOL    HW115110   2.093   5.112   0.299
 4737SOL    HW215111   2.121   5.256   0.372
 4738SOL     OW15112   0.225   5.842   3.655
 4738SOL    HW115113   0.197   5.934   3.682
 4738SOL    HW215114   0.157   5.775   3.686
 4739SOL     OW15115   5.801   3.584   3.098
 4739SOL    HW115116   5.883   3.540   3.134
 4739SOL    HW215117   5.757   3.638   3.170
 4740SOL     OW15118   1.653   6.547   0.764
 4740SOL    HW115119   1.703   6.633   0.748
 4740SOL    HW215120   1.662   6.520   0.860
 4741SOL     OW15121   5.994   4.813   2.189
 4741SOL    HW115122   6.079   4.794   2.239
 4741SOL    HW215123   5.917   4.774   2.239
 4742SOL     OW15124   2.297   5.663   2.005
 4742SOL    HW115125   2.199   5.674   2.024
 4742SOL    HW215126   2.327   5.573   2.038
 4743SOL     OW15127   2.790   3.432   0.432
 4743SOL    HW115128   2.823   3.415   0.340
 4743SOL    HW215129   2.843   3.377   0.497
 4744SOL     OW15130   3.174   1.706   5.794
 4744SOL    HW115131   3.122   1.661   5.867
 4744SOL    HW215132   3.135   1.681   5.706
 4745SOL     OW15133   4.329   6.028   4.306
 4745SOL    HW115134   4.271   5.957   4.347
 4745SOL    HW215135   4.371   5.993   4.222
 4746SOL     OW15136   5.640   1.477   0.609
 4746SOL    HW115137   5.731   1.471   0.649
 4746SOL    HW215138   5.574   1.501   0.681
 4747SOL     OW15139   1.077   2.824   2.110
 4747SOL    HW115140   1.174   2.833   2.135
 4747SOL    HW215141   1.051   2.727   2.113
 4748SOL     OW15142   1.971   6.686   0.395
 4748SOL    HW115143   2.013   6.764   0.349
 4748SOL    HW215144   2.018   6.668   0.481
 4749SOL     OW15145   3.595   1.344   0.006
 4749SOL    HW115146   3.548   1.372   0.090
 4749SOL    HW215147   3.636   1.254   0.020
 4750SOL     OW15148   1.011   2.149   4.793
 4750SOL    HW115149   0.949   2.131   4.869
 4750SOL    HW215150   1.055   2.238   4.805
 4751SOL     OW15151   1.621   3.769   6.575
 4751SOL    HW115152   1.650   3.800   6.485
 4751SOL    HW215153   1.617   3.847   6.637
 4752SOL     OW15154   1.411   5.840   0.963
 4752SOL    HW115155   1.464   5.779   0.903
 4752SOL    HW215156   1.322   5.798   0.982
 4753SOL     OW15157   0.144   1.082   6.542
 4753SOL    HW115158   0.050   1.074   6.575
 4753SOL    HW215159   0.147   1.061   6.444
 4754SOL     OW15160   1.539   0.858   6.748
 4754SOL    HW115161   1.534   0.775   6.803
 4754SOL    HW215162   1.461   0.917   6.769
 4755SOL     OW15163   3.015   6.836   3.194
 4755SOL    HW115164   3.005   6.935   3.185
 4755SOL    HW215165   2.947   6.801   3.258
 4756SOL     OW15166   5.672   2.208   1.040
 4756SOL    HW115167   5.766   2.229   1.068
 4756SOL    HW215168   5.650   2.261   0.958
 4757SOL     OW15169   2.407   2.861   0.883
 4757SOL    HW115170   2.502   2.872   0.913
 4757SOL    HW215171   2.346   2.911   0.944
 4758SOL     OW15172   6.307   4.158   6.193
 4758SOL    HW115173   6.295   4.219   6.272
 4758SOL    HW215174   6.275   4.204   6.111
 4759SOL     OW15175   6.920   3.972   6.838
 4759SOL    HW115176   6.968   3.898   6.885
 4759SOL    HW215177   6.979   4.053   6.834
 4760SOL     OW15178   0.630   2.954   0.219
 4760SOL    HW115179   0.714   2.902   0.206
 4760SOL    HW215180   0.632   3.036   0.161
 4761SOL     OW15181   2.873   6.202   6.677
 4761SOL    HW115182   2.881   6.301   6.688
 4761SOL    HW215183   2.812   6.165   6.746
 4762SOL     OW15184   3.250   0.518   2.921
 4762SOL    HW115185   3.232   0.425   2.891
 4762SOL    HW215186   3.239   0.581   2.844
 4763SOL     OW15187   4.952   4.879   4.828
 4763SOL    HW115188   5.009   4.854   4.906
 4763SOL    HW215189   5.003   4.941   4.768
 4764SOL     OW15190   3.444   3.797   3.873
 4764SOL    HW115191   3.400   3.729   3.932
 4764SOL    HW215192   3.407   3.888   3.894
 4765SOL     OW15193   6.268   5.604   6.306
 4765SOL    HW115194   6.234   5.634   6.396
 4765SOL    HW215195   6.207   5.535   6.269
 4766SOL     OW15196   3.325   1.614   3.217
 4766SOL    HW115197   3.293   1.634   3.124
 4766SOL    HW215198   3.278   1.676   3.282
 4767SOL     OW15199   4.529   0.847   6.578
 4767SOL    HW115200   4.452   0.909   6.566
 4767SOL    HW215201   4.606   0.896   6.620
 4768SOL     OW15202   2.150   0.557   5.634
 4768SOL    HW115203   2.143   0.472   5.686
 4768SOL    HW215204   2.129   0.539   5.538
 4769SOL     OW15205   4.559   0.704   1.876
 4769SOL    HW115206   4.497   0.665   1.808
 4769SOL    HW215207   4.564   0.803   1.864
 4770SOL     OW15208   2.789   1.583   3.783
 4770SOL    HW115209   2.838   1.669   3.773
 4770SOL    HW215210   2.847   1.508   3.753
 4771SOL     OW15211   4.165   4.843   6.170
 4771SOL    HW115212   4.193   4.811   6.260
 4771SOL    HW215213   4.187   4.940   6.160
 4772SOL     OW15214   3.586   2.619   6.763
 4772SOL    HW115215   3.670   2.673   6.757
 4772SOL    HW215216   3.593   2.555   6.839
 4773SOL     OW15217   6.936   4.770   4.401
 4773SOL    HW115218   0.006   4.778   4.367
 4773SOL    HW215219   6.935   4.781   4.500
 4774SOL     OW15220   2.137   4.227   0.091
 4774SOL    HW115221   2.169   4.140   0.129
 4774SOL    HW215222   2.068   4.266   0.151
 4775SOL     OW15223   1.974   2.983   2.592
 4775SOL    HW115224   2.022   3.007   2.509
 4775SOL    HW215225   1.939   2.889   2.584
 4776SOL     OW15226   4.400   5.354   1.390
 4776SOL    HW115227   4.326   5.364   1.324
 4776SOL    HW215228   4.401   5.433   1.452
 4777SOL     OW15229   1.740   3.919   1.665
 4777SOL    HW115230   1.684   3.873   1.596
 4777SOL    HW215231   1.824   3.868   1.679
 4778SOL     OW15232   5.552   3.199   2.814
 4778SOL    HW115233   5.507   3.289   2.809
 4778SOL    HW215234   5.636   3.207   2.868
 4779SOL     OW15235   5.783   1.421   2.540
 4779SOL    HW115236   5.843   1.382   2.610
 4779SOL    HW215237   5.728   1.494   2.580
 4780SOL     OW15238   1.521   1.544   5.350
 4780SOL    HW115239   1.458   1.600   5.405
 4780SOL    HW215240   1.505   1.447   5.370
 4781SOL     OW15241   2.888   5.736   2.819
 4781SOL    HW115242   2.823   5.785   2.877
 4781SOL    HW215243   2.887   5.639   2.842
 4782SOL     OW15244   6.089   6.208   6.796
 4782SOL    HW115245   6.142   6.290   6.817
 4782SOL    HW215246   6.146   6.127   6.806
 4783SOL     OW15247   5.427   4.396   3.311
 4783SOL    HW115248   5.463   4.444   3.231
 4783SOL    HW215249   5.492   4.403   3.387
 4784SOL     OW15250   5.198   4.311   4.706
 4784SOL    HW115251   5.216   4.214   4.688
 4784SOL    HW215252   5.152   4.352   4.627
 4785SOL     OW15253   5.678   5.795   0.522
 4785SOL    HW115254   5.728   5.852   0.457
 4785SOL    HW215255   5.583   5.825   0.528
 4786SOL     OW15256   1.372   4.399   3.099
 4786SOL    HW115257   1.315   4.343   3.160
 4786SOL    HW215258   1.411   4.475   3.151
 4787SOL     OW15259   4.094   2.075   2.693
 4787SOL    HW115260   3.995   2.091   2.688
 4787SOL    HW215261   4.135   2.144   2.752
 4788SOL     OW15262   2.457   0.494   4.680
 4788SOL    HW115263   2.437   0.494   4.582
 4788SOL    HW215264   2.542   0.543   4.696
 4789SOL     OW15265   4.946   5.919   6.754
 4789SOL    HW115266   4.944   5.916   6.854
 4789SOL    HW215267   4.886   5.992   6.722
 4790SOL     OW15268   5.656   6.907   6.889
 4790SOL    HW115269   5.631   6.995   6.847
 4790SOL    HW215270   5.731   6.921   6.954
 4791SOL     OW15271   4.470   2.430   3.091
 4791SOL    HW115272   4.528   2.506   3.062
 4791SOL    HW215273   4.377   2.464   3.108
 4792SOL     OW15274   3.314   3.291   0.387
 4792SOL    HW115275   3.232   3.239   0.363
 4792SOL    HW215276   3.395   3.238   0.361
 4793SOL     OW15277   0.710   0.909   0.093
 4793SOL    HW115278   0.728   0.986   0.032
 4793SOL    HW215279   0.793   0.885   0.142
 4794SOL     OW15280   5.539   1.000   1.853
 4794SOL    HW115281   5.511   1.096   1.858
 4794SOL    HW215282   5.536   0.970   1.758
 4795SOL     OW15283   6.132   2.517   4.297
 4795SOL    HW115284   6.217   2.471   4.270
 4795SOL    HW215285   6.063   2.506   4.226
 4796SOL     OW15286   4.820   3.654   0.492
 4796SOL    HW115287   4.871   3.582   0.446
 4796SOL    HW215288   4.722   3.635   0.487
 4797SOL     OW15289   1.517   5.973   5.039
 4797SOL    HW115290   1.544   5.922   5.120
 4797SOL    HW215291   1.452   6.045   5.064
 4798SOL     OW15292   0.245   5.700   6.114
 4798SOL    HW115293   0.271   5.656   6.200
 4798SOL    HW215294   0.229   5.798   6.130
 4799SOL     OW15295   5.160   1.302   4.315
 4799SOL    HW115296   5.173   1.368   4.388
 4799SOL    HW215297   5.093   1.337   4.249
 4800SOL     OW15298   1.131   3.023   4.016
 4800SOL    HW115299   1.053   3.082   4.035
 4800SOL    HW215300   1.196   3.027   4.092
 4801SOL     OW15301   0.099   1.890   0.724
 4801SOL    HW115302   0.088   1.989   0.714
 4801SOL    HW215303   0.187   1.871   0.768
 4802SOL     OW15304   1.996   0.085   1.748
 4802SOL    HW115305   1.945   0.008   1.709
 4802SOL    HW215306   1.937   0.167   1.749
 4803SOL     OW15307   0.915   6.978   0.920
 4803SOL    HW115308   0.877   0.019   0.854
 4803SOL    HW215309   0.841   6.923   0.959
 4804SOL     OW15310   4.293   5.145   0.237
 4804SOL    HW115311   4.371   5.173   0.181
 4804SOL    HW215312   4.212   5.198   0.211
 4805SOL     OW15313   0.038   6.747   1.861
 4805SOL    HW115314   0.075   6.823   1.808
 4805SOL    HW215315   7.021   6.680   1.800
 4806SOL     OW15316   0.325   1.919   3.806
 4806SOL    HW115317   0.402   1.865   3.839
 4806SOL    HW215318   0.314   1.904   3.707
 4807SOL     OW15319   0.815   0.138   3.124
 4807SOL    HW115320   0.890   0.158   3.188
 4807SOL    HW215321   0.851   0.088   3.046
 4808SOL     OW15322   6.908   1.768   0.810
 4808SOL    HW115323   6.861   1.738   0.727
 4808SOL    HW215324   6.993   1.813   0.785
 4809SOL     OW15325   4.795   6.713   0.697
 4809SOL    HW115326   4.706   6.748   0.729
 4809SOL    HW215327   4.865   6.782   0.713
 4810SOL     OW15328   2.424   6.504   6.330
 4810SOL    HW115329   2.422   6.434   6.401
 4810SOL    HW215330   2.477   6.471   6.252
 4811SOL     OW15331   5.046   4.238   4.218
 4811SOL    HW115332   5.008   4.186   4.142
 4811SOL    HW215333   5.120   4.186   4.261
 4812SOL     OW15334   6.531   5.206   3.528
 4812SOL    HW115335   6.609   5.172   3.477
 4812SOL    HW215336   6.449   5.154   3.504
 4813SOL     OW15337   5.696   3.329   2.558
 4813SOL    HW115338   5.738   3.362   2.473
 4813SOL    HW215339   5.637   3.251   2.538
 4814SOL     OW15340   0.380   2.882   1.730
 4814SOL    HW115341   0.389   2.871   1.631
 4814SOL    HW215342   0.335   2.969   1.750
 4815SOL     OW15343   4.797   0.776   3.659
 4815SOL    HW115344   4.778   0.702   3.595
 4815SOL    HW215345   4.801   0.739   3.752
 4816SOL     OW15346   6.055   4.276   4.361
 4816SOL    HW115347   6.088   4.356   4.311
 4816SOL    HW215348   6.027   4.205   4.296
 4817SOL     OW15349   5.979   1.742   6.614
 4817SOL    HW115350   5.889   1.770   6.649
 4817SOL    HW215351   5.984   1.764   6.517
 4818SOL     OW15352   6.878   6.423   3.532
 4818SOL    HW115353   6.828   6.344   3.567
 4818SOL    HW215354   6.827   6.465   3.458
 4819SOL     OW15355   1.263   3.053   1.247
 4819SOL    HW115356   1.346   3.101   1.275
 4819SOL    HW215357   1.277   2.954   1.255
 4820SOL     OW15358   6.318   3.328   1.961
 4820SOL    HW115359   6.344   3.287   2.048
 4820SOL    HW215360   6.319   3.427   1.969
 4821SOL     OW15361   0.251   5.472   3.820
 4821SOL    HW115362   0.311   5.446   3.744
 4821SOL    HW215363   0.302   5.532   3.882
 4822SOL     OW15364   2.790   5.201   4.423
 4822SOL    HW115365   2.884   5.235   4.414
 4822SOL    HW215366   2.726   5.268   4.385
 4823SOL     OW15367   1.445   2.099   0.373
 4823SOL    HW115368   1.509   2.041   0.423
 4823SOL    HW215369   1.389   2.150   0.439
 4824SOL     OW15370   6.347   2.459   6.936
 4824SOL    HW115371   6.290   2.450   6.854
 4824SOL    HW215372   6.344   2.373   6.987
 4825SOL     OW15373   1.388   5.868   3.418
 4825SOL    HW115374   1.355   5.866   3.512
 4825SOL    HW215375   1.310   5.868   3.355
 4826SOL     OW15376   4.587   6.671   0.404
 4826SOL    HW115377   4.676   6.649   0.366
 4826SOL    HW215378   4.586   6.767   0.434
 4827SOL     OW15379   5.581   1.079   2.204
 4827SOL    HW115380   5.509   1.018   2.239
 4827SOL    HW215381   5.550   1.121   2.118
 4828SOL     OW15382   4.900   1.179   5.978
 4828SOL    HW115383   4.913   1.243   6.054
 4828SOL    HW215384   4.804   1.153   5.972
 4829SOL     OW15385   4.767   5.897   5.037
 4829SOL    HW115386   4.749   5.880   5.134
 4829SOL    HW215387   4.682   5.886   4.985
 4830SOL     OW15388   1.819   6.143   3.226
 4830SOL    HW115389   1.732   6.111   3.262
 4830SOL    HW215390   1.804   6.194   3.141
 4831SOL     OW15391   2.831   4.462   5.949
 4831SOL    HW115392   2.808   4.375   5.906
 4831SOL    HW215393   2.926   4.486   5.926
 4832SOL     OW15394   3.935   2.990   3.723
 4832SOL    HW115395   4.005   3.047   3.767
 4832SOL    HW215396   3.887   2.937   3.792
 4833SOL     OW15397   5.726   2.310   5.245
 4833SOL    HW115398   5.762   2.345   5.159
 4833SOL    HW215399   5.802   2.275   5.301
 4834SOL     OW15400   0.860   4.763   0.972
 4834SOL    HW115401   0.933   4.729   1.031
 4834SOL    HW215402   0.782   4.792   1.029
 4835SOL     OW15403   0.490   3.506   6.064
 4835SOL    HW115404   0.417   3.507   5.996
 4835SOL    HW215405   0.509   3.412   6.091
 4836SOL     OW15406   4.406   1.009   5.704
 4836SOL    HW115407   4.334   1.077   5.695
 4836SOL    HW215408   4.391   0.935   5.639
 4837SOL     OW15409   1.340   3.739   4.572
 4837SOL    HW115410   1.422   3.796   4.565
 4837SOL    HW215411   1.321   3.720   4.669
 4838SOL     OW15412   1.776   4.410   6.063
 4838SOL    HW115413   1.809   4.469   5.989
 4838SOL    HW215414   1.706   4.458   6.114
 4839SOL     OW15415   2.391   0.931   1.762
 4839SOL    HW115416   2.403   0.917   1.860
 4839SOL    HW215417   2.458   0.998   1.730
 4840SOL     OW15418   5.036   2.118   3.445
 4840SOL    HW115419   5.088   2.044   3.488
 4840SOL    HW215420   5.026   2.100   3.348
 4841SOL     OW15421   2.806   5.311   2.968
 4841SOL    HW115422   2.796   5.343   3.062
 4841SOL    HW215423   2.784   5.214   2.963
 4842SOL     OW15424   4.322   5.014   3.305
 4842SOL    HW115425   4.233   4.967   3.301
 4842SOL    HW215426   4.326   5.083   3.233
 4843SOL     OW15427   6.006   2.633   7.006
 4843SOL    HW115428   6.065   2.701   0.023
 4843SOL    HW215429   5.911   2.649   0.010
 4844SOL     OW15430   0.926   4.660   6.564
 4844SOL    HW115431   0.829   4.681   6.562
 4844SOL    HW215432   0.939   4.561   6.556
 4845SOL     OW15433   5.854   4.384   5.066
 4845SOL    HW115434   5.756   4.388   5.050
 4845SOL    HW215435   5.884   4.471   5.106
 4846SOL     OW15436   6.400   3.785   4.446
 4846SOL    HW115437   6.456   3.723   4.500
 4846SOL    HW215438   6.312   3.798   4.492
 4847SOL     OW15439   2.546   0.012   6.647
 4847SOL    HW115440   2.541   6.988   6.734
 4847SOL    HW215441   2.544   6.970   6.572
 4848SOL     OW15442   4.716   1.898   3.253
 4848SOL    HW115443   4.643   1.831   3.244
 4848SOL    HW215444   4.725   1.926   3.349
 4849SOL     OW15445   1.458   5.644   1.852
 4849SOL    HW115446   1.451   5.683   1.760
 4849SOL    HW215447   1.395   5.568   1.861
 4850SOL     OW15448   3.450   0.496   2.218
 4850SOL    HW115449   3.474   0.399   2.218
 4850SOL    HW215450   3.505   0.544   2.286
 4851SOL     OW15451   4.663   4.895   6.564
 4851SOL    HW115452   4.728   4.892   6.488
 4851SOL    HW215453   4.712   4.881   6.650
 4852SOL     OW15454   4.449   4.137   5.725
 4852SOL    HW115455   4.494   4.180   5.647
 4852SOL    HW215456   4.510   4.070   5.767
 4853SOL     OW15457   4.288   0.406   2.718
 4853SOL    HW115458   4.302   0.503   2.700
 4853SOL    HW215459   4.340   0.352   2.651
 4854SOL     OW15460   3.923   6.530   1.995
 4854SOL    HW115461   4.009   6.481   1.979
 4854SOL    HW215462   3.909   6.598   1.923
 4855SOL     OW15463   4.634   4.835   5.229
 4855SOL    HW115464   4.732   4.814   5.228
 4855SOL    HW215465   4.582   4.753   5.207
 4856SOL     OW15466   0.755   2.448   2.394
 4856SOL    HW115467   0.845   2.491   2.397
 4856SOL    HW215468   0.695   2.491   2.462
 4857SOL     OW15469   2.742   1.607   5.926
 4857SOL    HW115470   2.669   1.667   5.893
 4857SOL    HW215471   2.701   1.522   5.961
 4858SOL     OW15472   2.583   5.149   5.291
 4858SOL    HW115473   2.603   5.141   5.388
 4858SOL    HW215474   2.526   5.230   5.275
 4859SOL     OW15475   6.893   5.523   3.265
 4859SOL    HW115476   6.812   5.473   3.234
 4859SOL    HW215477   6.923   5.485   3.353
 4860SOL     OW15478   3.988   5.101   1.059
 4860SOL    HW115479   3.932   5.019   1.045
 4860SOL    HW215480   4.073   5.092   1.007
 4861SOL     OW15481   5.286   4.932   4.562
 4861SOL    HW115482   5.371   4.879   4.558
 4861SOL    HW215483   5.307   5.030   4.556
 4862SOL     OW15484   1.722   5.487   4.144
 4862SOL    HW115485   1.648   5.536   4.189
 4862SOL    HW215486   1.697   5.470   4.048
 4863SOL     OW15487   5.712   1.468   1.963
 4863SOL    HW115488   5.664   1.554   1.976
 4863SOL    HW215489   5.809   1.486   1.946
 4864SOL     OW15490   2.930   3.218   1.965
 4864SOL    HW115491   2.898   3.306   2.001
 4864SOL    HW215492   2.982   3.170   2.036
 4865SOL     OW15493   3.691   6.954   5.067
 4865SOL    HW115494   3.626   6.996   5.003
 4865SOL    HW215495   3.725   6.869   5.028
 4866SOL     OW15496   1.384   4.880   1.827
 4866SOL    HW115497   1.483   4.891   1.839
 4866SOL    HW215498   1.343   4.968   1.804
 4867SOL     OW15499   5.754   4.499   6.055
 4867SOL    HW115500   5.804   4.466   6.135
 4867SOL    HW215501   5.667   4.450   6.047
 4868SOL     OW15502   2.263   5.885   1.474
 4868SOL    HW115503   2.286   5.958   1.539
 4868SOL    HW215504   2.246   5.800   1.523
 4869SOL     OW15505   0.557   1.814   1.470
 4869SOL    HW115506   0.480   1.873   1.447
 4869SOL    HW215507   0.626   1.867   1.518
 4870SOL     OW15508   5.881   1.477   1.594
 4870SOL    HW115509   5.823   1.398   1.574
 4870SOL    HW215510   5.888   1.489   1.693
 4871SOL     OW15511   1.690   2.165   5.386
 4871SOL    HW115512   1.714   2.258   5.412
 4871SOL    HW215513   1.591   2.154   5.390
 4872SOL     OW15514   2.297   2.773   2.480
 4872SOL    HW115515   2.308   2.817   2.570
 4872SOL    HW215516   2.326   2.678   2.486
 4873SOL     OW15517   1.282   6.021   5.923
 4873SOL    HW115518   1.291   6.115   5.957
 4873SOL    HW215519   1.367   5.994   5.879
 4874SOL     OW15520   6.004   1.893   4.544
 4874SOL    HW115521   6.061   1.915   4.465
 4874SOL    HW215522   6.015   1.963   4.614
 4875SOL     OW15523   6.837   3.146   0.678
 4875SOL    HW115524   6.858   3.084   0.602
 4875SOL    HW215525   6.918   3.203   0.697
 4876SOL     OW15526   6.840   1.316   6.892
 4876SOL    HW115527   6.783   1.303   6.812
 4876SOL    HW215528   6.935   1.331   6.863
 4877SOL     OW15529   4.320   2.059   1.903
 4877SOL    HW115530   4.225   2.028   1.901
 4877SOL    HW215531   4.328   2.139   1.963
 4878SOL     OW15532   1.202   2.819   2.440
 4878SOL    HW115533   1.121   2.875   2.460
 4878SOL    HW215534   1.264   2.871   2.382
 4879SOL     OW15535   3.416   6.164   3.260
 4879SOL    HW115536   3.416   6.171   3.161
 4879SOL    HW215537   3.343   6.103   3.290
 4880SOL     OW15538   0.067   2.166   6.158
 4880SOL    HW115539   7.021   2.177   6.088
 4880SOL    HW215540   0.034   2.103   6.228
 4881SOL     OW15541   3.140   6.311   5.974
 4881SOL    HW115542   3.114   6.387   6.034
 4881SOL    HW215543   3.240   6.304   5.971
 4882SOL     OW15544   5.732   6.322   6.265
 4882SOL    HW115545   5.744   6.229   6.231
 4882SOL    HW215546   5.635   6.345   6.265
 4883SOL     OW15547   6.237   5.802   0.421
 4883SOL    HW115548   6.167   5.819   0.352
 4883SOL    HW215549   6.195   5.763   0.503
 4884SOL     OW15550   4.631   6.278   2.033
 4884SOL    HW115551   4.543   6.231   2.026
 4884SOL    HW215552   4.626   6.364   1.981
 4885SOL     OW15553   1.323   0.237   1.877
 4885SOL    HW115554   1.383   0.317   1.878
 4885SOL    HW215555   1.335   0.187   1.791
 4886SOL     OW15556   6.381   1.279   5.911
 4886SOL    HW115557   6.310   1.327   5.859
 4886SOL    HW215558   6.416   1.339   5.983
 4887SOL     OW15559   0.101   2.593   5.678
 4887SOL    HW115560   0.074   2.640   5.594
 4887SOL    HW215561   0.181   2.536   5.661
 4888SOL     OW15562   4.408   5.996   1.264
 4888SOL    HW115563   4.371   5.925   1.204
 4888SOL    HW215564   4.386   6.086   1.226
 4889SOL     OW15565   1.255   3.354   6.335
 4889SOL    HW115566   1.326   3.411   6.294
 4889SOL    HW215567   1.269   3.258   6.309
 4890SOL     OW15568   6.870   0.480   4.561
 4890SOL    HW115569   6.861   0.546   4.636
 4890SOL    HW215570   6.787   0.481   4.506
 4891SOL     OW15571   0.653   4.889   0.525
 4891SOL    HW115572   0.724   4.826   0.493
 4891SOL    HW215573   0.613   4.852   0.609
 4892SOL     OW15574   1.879   5.642   1.656
 4892SOL    HW115575   1.905   5.585   1.578
 4892SOL    HW215576   1.826   5.587   1.721
 4893SOL     OW15577   6.779   4.264   6.448
 4893SOL    HW115578   6.877   4.281   6.448
 4893SOL    HW215579   6.737   4.308   6.527
 4894SOL     OW15580   0.021   6.875   3.616
 4894SOL    HW115581   0.076   6.915   3.689
 4894SOL    HW215582   0.014   6.940   3.541
 4895SOL     OW15583   6.467   3.969   6.513
 4895SOL    HW115584   6.563   3.975   6.538
 4895SOL    HW215585   6.427   3.888   6.557
 4896SOL     OW15586   4.561   0.883   5.057
 4896SOL    HW115587   4.604   0.943   5.125
 4896SOL    HW215588   4.531   0.799   5.100
 4897SOL     OW15589   2.542   5.651   0.372
 4897SOL    HW115590   2.602   5.654   0.452
 4897SOL    HW215591   2.448   5.668   0.400
 4898SOL     OW15592   4.917   2.973   4.483
 4898SOL    HW115593   5.013   2.949   4.498
 4898SOL    HW215594   4.910   3.025   4.397
 4899SOL     OW15595   0.184   3.444   4.577
 4899SOL    HW115596   0.201   3.353   4.614
 4899SOL    HW215597   0.164   3.508   4.651
 4900SOL     OW15598   0.279   6.545   6.340
 4900SOL    HW115599   0.353   6.598   6.297
 4900SOL    HW215600   0.223   6.504   6.268
 4901SOL     OW15601   6.404   6.429   3.050
 4901SOL    HW115602   6.411   6.434   2.951
 4901SOL    HW215603   6.462   6.500   3.091
 4902SOL     OW15604   3.189   5.515   0.375
 4902SOL    HW115605   3.180   5.542   0.471
 4902SOL    HW215606   3.263   5.448   0.366
 4903SOL     OW15607   5.812   4.589   6.757
 4903SOL    HW115608   5.881   4.559   6.691
 4903SOL    HW215609   5.801   4.688   6.750
 4904SOL     OW15610   2.955   0.780   3.686
 4904SOL    HW115611   3.019   0.808   3.615
 4904SOL    HW215612   2.970   0.834   3.769
 4905SOL     OW15613   5.948   4.069   3.378
 4905SOL    HW115614   5.982   4.025   3.461
 4905SOL    HW215615   5.924   4.164   3.398
 4906SOL     OW15616   4.939   0.376   1.962
 4906SOL    HW115617   4.867   0.396   1.896
 4906SOL    HW215618   4.933   0.280   1.990
 4907SOL     OW15619   3.000   2.467   0.961
 4907SOL    HW115620   3.074   2.437   1.021
 4907SOL    HW215621   2.939   2.390   0.943
 4908SOL     OW15622   5.517   4.379   6.009
 4908SOL    HW115623   5.513   4.280   5.992
 4908SOL    HW215624   5.503   4.428   5.923
 4909SOL     OW15625   6.319   6.782   5.216
 4909SOL    HW115626   6.291   6.853   5.281
 4909SOL    HW215627   6.238   6.735   5.181
 4910SOL     OW15628   5.772   0.167   5.654
 4910SOL    HW115629   5.782   0.252   5.706
 4910SOL    HW215630   5.677   0.157   5.625
 4911SOL     OW15631   6.734   4.003   6.582
 4911SOL    HW115632   6.753   4.079   6.519
 4911SOL    HW215633   6.782   4.018   6.668
 4912SOL     OW15634   1.879   2.949   1.999
 4912SOL    HW115635   1.967   2.997   1.992
 4912SOL    HW215636   1.805   3.017   2.004
 4913SOL     OW15637   2.805   3.470   2.019
 4913SOL    HW115638   2.705   3.467   2.019
 4913SOL    HW215639   2.836   3.560   1.988
 4914SOL     OW15640   1.379   0.112   2.548
 4914SOL    HW115641   1.468   0.113   2.502
 4914SOL    HW215642   1.384   0.166   2.632
 4915SOL     OW15643   3.834   6.095   3.704
 4915SOL    HW115644   3.884   6.125   3.785
 4915SOL    HW215645   3.736   6.110   3.718
 4916SOL     OW15646   1.657   1.741   1.934
 4916SOL    HW115647   1.620   1.775   2.021
 4916SOL    HW215648   1.693   1.819   1.881
 4917SOL     OW15649   0.732   5.614   6.406
 4917SOL    HW115650   0.706   5.613   6.309
 4917SOL    HW215651   0.818   5.565   6.418
 4918SOL     OW15652   2.147   6.536   3.944
 4918SOL    HW115653   2.240   6.565   3.967
 4918SOL    HW215654   2.083   6.611   3.960
 4919SOL     OW15655   2.268   3.042   1.404
 4919SOL    HW115656   2.204   3.009   1.334
 4919SOL    HW215657   2.360   3.011   1.381
 4920SOL     OW15658   3.565   2.173   6.128
 4920SOL    HW115659   3.543   2.097   6.190
 4920SOL    HW215660   3.487   2.190   6.067
 4921SOL     OW15661   6.607   4.448   2.005
 4921SOL    HW115662   6.644   4.539   1.990
 4921SOL    HW215663   6.523   4.437   1.952
 4922SOL     OW15664   1.206   3.541   5.730
 4922SOL    HW115665   1.189   3.639   5.731
 4922SOL    HW215666   1.303   3.523   5.747
 4923SOL     OW15667   3.609   2.420   6.941
 4923SOL    HW115668   3.561   2.339   6.907
 4923SOL    HW215669   3.695   2.393   6.983
 4924SOL     OW15670   0.458   3.056   4.467
 4924SOL    HW115671   0.529   3.002   4.512
 4924SOL    HW215672   0.474   3.153   4.484
 4925SOL     OW15673   4.860   5.134   4.986
 4925SOL    HW115674   4.919   5.203   5.029
 4925SOL    HW215675   4.910   5.088   4.913
 4926SOL     OW15676   4.247   3.486   0.555
 4926SOL    HW115677   4.277   3.492   0.651
 4926SOL    HW215678   4.299   3.551   0.500
 4927SOL     OW15679   2.895   3.626   2.270
 4927SOL    HW115680   2.865   3.596   2.179
 4927SOL    HW215681   2.860   3.564   2.340
 4928SOL     OW15682   6.829   1.885   6.036
 4928SOL    HW115683   6.816   1.831   5.953
 4928SOL    HW215684   6.742   1.896   6.083
 4929SOL     OW15685   1.061   4.477   4.232
 4929SOL    HW115686   1.030   4.572   4.224
 4929SOL    HW215687   1.134   4.471   4.300
 4930SOL     OW15688   0.676   3.767   0.117
 4930SOL    HW115689   0.596   3.783   0.175
 4930SOL    HW215690   0.759   3.794   0.167
 4931SOL     OW15691   5.373   6.555   1.001
 4931SOL    HW115692   5.426   6.539   0.918
 4931SOL    HW215693   5.435   6.558   1.080
 4932SOL     OW15694   3.146   2.042   0.834
 4932SOL    HW115695   3.086   2.081   0.763
 4932SOL    HW215696   3.154   1.943   0.819
 4933SOL     OW15697   2.153   6.957   4.836
 4933SOL    HW115698   2.187   6.939   4.744
 4933SOL    HW215699   2.220   7.011   4.887
 4934SOL     OW15700   2.083   6.411   6.040
 4934SOL    HW115701   2.091   6.462   6.125
 4934SOL    HW215702   2.173   6.376   6.013
 4935SOL     OW15703   1.428   3.271   0.937
 4935SOL    HW115704   1.341   3.228   0.960
 4935SOL    HW215705   1.489   3.203   0.897
 4936SOL     OW15706   6.633   4.243   1.506
 4936SOL    HW115707   6.722   4.209   1.539
 4936SOL    HW215708   6.626   4.341   1.526
 4937SOL     OW15709   0.596   3.998   5.494
 4937SOL    HW115710   0.608   3.977   5.591
 4937SOL    HW215711   0.673   4.053   5.463
 4938SOL     OW15712   3.219   3.923   0.947
 4938SOL    HW115713   3.238   3.871   0.863
 4938SOL    HW215714   3.121   3.920   0.966
 4939SOL     OW15715   1.070   1.785   1.544
 4939SOL    HW115716   1.134   1.859   1.523
 4939SOL    HW215717   1.116   1.717   1.601
 4940SOL     OW15718   1.819   1.647   4.938
 4940SOL    HW115719   1.882   1.571   4.926
 4940SOL    HW215720   1.725   1.614   4.933
 4941SOL     OW15721   3.330   2.204   5.948
 4941SOL    HW115722   3.253   2.167   5.999
 4941SOL    HW215723   3.298   2.239   5.860
 4942SOL     OW15724   0.330   0.757   2.388
 4942SOL    HW115725   0.379   0.692   2.446
 4942SOL    HW215726   0.352   0.850   2.417
 4943SOL     OW15727   4.928   2.463   6.618
 4943SOL    HW115728   4.937   2.558   6.648
 4943SOL    HW215729   5.012   2.435   6.571
 4944SOL     OW15730   0.664   4.492   0.506
 4944SOL    HW115731   0.705   4.539   0.584
 4944SOL    HW215732   0.631   4.559   0.440
 4945SOL     OW15733   2.647   0.769   6.591
 4945SOL    HW115734   2.580   0.701   6.561
 4945SOL    HW215735   2.693   0.736   6.673
 4946SOL     OW15736   2.082   6.000   0.136
 4946SOL    HW115737   2.130   5.949   0.208
 4946SOL    HW215738   2.143   6.010   0.057
 4947SOL     OW15739   1.214   0.677   1.438
 4947SOL    HW115740   1.137   0.661   1.499
 4947SOL    HW215741   1.297   0.689   1.492
 4948SOL     OW15742   1.621   3.472   2.197
 4948SOL    HW115743   1.659   3.564   2.210
 4948SOL    HW215744   1.597   3.459   2.100
 4949SOL     OW15745   6.235   5.058   6.802
 4949SOL    HW115746   6.331   5.075   6.825
 4949SOL    HW215747   6.231   5.004   6.718
 4950SOL     OW15748   4.007   3.608   5.842
 4950SOL    HW115749   3.967   3.579   5.929
 4950SOL    HW215750   4.080   3.674   5.859
 4951SOL     OW15751   4.528   5.400   3.521
 4951SOL    HW115752   4.526   5.351   3.607
 4951SOL    HW215753   4.444   5.381   3.469
 4952SOL     OW15754   0.908   0.621   6.703
 4952SOL    HW115755   0.975   0.650   6.633
 4952SOL    HW215756   0.834   0.570   6.659
 4953SOL     OW15757   0.907   1.294   6.274
 4953SOL    HW115758   0.935   1.199   6.284
 4953SOL    HW215759   0.811   1.304   6.301
 4954SOL     OW15760   3.779   3.728   5.778
 4954SOL    HW115761   3.758   3.781   5.860
 4954SOL    HW215762   3.855   3.666   5.797
 4955SOL     OW15763   3.960   6.215   0.101
 4955SOL    HW115764   3.983   6.143   0.034
 4955SOL    HW215765   4.038   6.230   0.161
 4956SOL     OW15766   2.303   0.383   3.815
 4956SOL    HW115767   2.276   0.288   3.827
 4956SOL    HW215768   2.377   0.406   3.879
 4957SOL     OW15769   5.858   5.514   0.129
 4957SOL    HW115770   5.943   5.482   0.087
 4957SOL    HW215771   5.781   5.492   0.070
 4958SOL     OW15772   3.180   5.080   0.739
 4958SOL    HW115773   3.131   5.166   0.726
 4958SOL    HW215774   3.171   5.051   0.835
 4959SOL     OW15775   2.028   1.382   2.619
 4959SOL    HW115776   1.971   1.463   2.634
 4959SOL    HW215777   2.122   1.411   2.603
 4960SOL     OW15778   5.441   3.951   4.735
 4960SOL    HW115779   5.343   3.955   4.716
 4960SOL    HW215780   5.456   3.909   4.824
 4961SOL     OW15781   4.011   3.086   2.319
 4961SOL    HW115782   3.937   3.148   2.344
 4961SOL    HW215783   4.057   3.054   2.402
 4962SOL     OW15784   1.943   2.559   0.745
 4962SOL    HW115785   1.941   2.569   0.646
 4962SOL    HW215786   2.038   2.567   0.777
 4963SOL     OW15787   0.345   3.946   6.673
 4963SOL    HW115788   0.437   3.925   6.705
 4963SOL    HW215789   0.290   3.862   6.674
 4964SOL     OW15790   1.243   5.422   3.745
 4964SOL    HW115791   1.215   5.333   3.707
 4964SOL    HW215792   1.163   5.469   3.782
 4965SOL     OW15793   2.460   0.238   2.954
 4965SOL    HW115794   2.465   0.187   2.868
 4965SOL    HW215795   2.540   0.216   3.010
 4966SOL     OW15796   3.864   6.734   5.596
 4966SOL    HW115797   3.781   6.679   5.588
 4966SOL    HW215798   3.870   6.798   5.520
 4967SOL     OW15799   4.756   4.667   3.209
 4967SOL    HW115800   4.759   4.718   3.123
 4967SOL    HW215801   4.819   4.589   3.203
 4968SOL     OW15802   6.458   2.648   3.232
 4968SOL    HW115803   6.430   2.554   3.254
 4968SOL    HW215804   6.418   2.711   3.298
 4969SOL     OW15805   1.289   5.675   4.380
 4969SOL    HW115806   1.219   5.693   4.449
 4969SOL    HW215807   1.257   5.706   4.291
 4970SOL     OW15808   2.317   0.862   0.944
 4970SOL    HW115809   2.256   0.808   1.001
 4970SOL    HW215810   2.333   0.815   0.857
 4971SOL     OW15811   0.253   6.215   2.006
 4971SOL    HW115812   0.339   6.246   1.965
 4971SOL    HW215813   0.263   6.211   2.106
 4972SOL     OW15814   0.277   3.467   1.061
 4972SOL    HW115815   0.287   3.369   1.072
 4972SOL    HW215816   0.298   3.493   0.966
 4973SOL     OW15817   5.372   2.297   7.005
 4973SOL    HW115818   5.346   2.391   0.003
 4973SOL    HW215819   5.352   2.237   0.058
 4974SOL     OW15820   3.313   0.596   5.200
 4974SOL    HW115821   3.313   0.581   5.299
 4974SOL    HW215822   3.230   0.646   5.174
 4975SOL     OW15823   5.979   4.112   0.928
 4975SOL    HW115824   5.991   4.131   1.026
 4975SOL    HW215825   5.925   4.185   0.887
 4976SOL     OW15826   1.328   0.304   4.028
 4976SOL    HW115827   1.316   0.235   4.100
 4976SOL    HW215828   1.245   0.359   4.021
 4977SOL     OW15829   0.990   3.470   4.797
 4977SOL    HW115830   0.994   3.484   4.698
 4977SOL    HW215831   0.989   3.559   4.842
 4978SOL     OW15832   6.317   5.366   4.544
 4978SOL    HW115833   6.348   5.448   4.496
 4978SOL    HW215834   6.324   5.287   4.482
 4979SOL     OW15835   3.521   6.542   6.038
 4979SOL    HW115836   3.613   6.566   6.007
 4979SOL    HW215837   3.461   6.621   6.029
 4980SOL     OW15838   5.638   3.133   4.012
 4980SOL    HW115839   5.655   3.210   3.951
 4980SOL    HW215840   5.539   3.116   4.017
 4981SOL     OW15841   3.158   6.826   2.917
 4981SOL    HW115842   3.115   6.834   3.007
 4981SOL    HW215843   3.108   6.882   2.852
 4982SOL     OW15844   3.778   1.782   4.838
 4982SOL    HW115845   3.761   1.811   4.933
 4982SOL    HW215846   3.783   1.863   4.779
 4983SOL     OW15847   5.294   3.680   2.937
 4983SOL    HW115848   5.265   3.755   2.878
 4983SOL    HW215849   5.365   3.713   3.000
 4984SOL     OW15850   5.060   3.568   5.113
 4984SOL    HW115851   5.082   3.664   5.127
 4984SOL    HW215852   4.972   3.560   5.067
 4985SOL     OW15853   4.996   6.860   2.551
 4985SOL    HW115854   5.028   6.793   2.484
 4985SOL    HW215855   5.056   6.939   2.551
 4986SOL     OW15856   1.290   5.606   1.202
 4986SOL    HW115857   1.390   5.602   1.206
 4986SOL    HW215858   1.259   5.579   1.111
 4987SOL     OW15859   2.205   3.953   2.095
 4987SOL    HW115860   2.200   3.854   2.107
 4987SOL    HW215861   2.233   3.995   2.182
 4988SOL     OW15862   6.399   5.095   4.061
 4988SOL    HW115863   6.496   5.071   4.066
 4988SOL    HW215864   6.378   5.130   3.970
 4989SOL     OW15865   6.893   0.283   4.055
 4989SOL    HW115866   6.962   0.306   4.124
 4989SOL    HW215867   6.892   0.184   4.041
 4990SOL     OW15868   4.794   1.985   5.953
 4990SOL    HW115869   4.819   2.081   5.937
 4990SOL    HW215870   4.743   1.978   6.038
 4991SOL     OW15871   2.418   5.376   5.322
 4991SOL    HW115872   2.412   5.387   5.421
 4991SOL    HW215873   2.326   5.362   5.285
 4992SOL     OW15874   2.800   2.742   5.316
 4992SOL    HW115875   2.876   2.677   5.314
 4992SOL    HW215876   2.713   2.692   5.313
 4993SOL     OW15877   2.168   5.182   3.661
 4993SOL    HW115878   2.144   5.274   3.630
 4993SOL    HW215879   2.268   5.175   3.669
 4994SOL     OW15880   3.069   4.861   5.776
 4994SOL    HW115881   3.118   4.830   5.694
 4994SOL    HW215882   3.124   4.932   5.821
 4995SOL     OW15883   0.615   2.235   5.960
 4995SOL    HW115884   0.585   2.145   5.991
 4995SOL    HW215885   0.539   2.300   5.966
 4996SOL     OW15886   0.185   0.707   4.764
 4996SOL    HW115887   0.276   0.730   4.797
 4996SOL    HW215888   0.143   0.639   4.824
 4997SOL     OW15889   3.868   1.633   0.838
 4997SOL    HW115890   3.908   1.553   0.883
 4997SOL    HW215891   3.936   1.677   0.781
 4998SOL     OW15892   0.975   3.649   3.232
 4998SOL    HW115893   1.013   3.579   3.292
 4998SOL    HW215894   0.950   3.729   3.287
 4999SOL     OW15895   6.985   2.886   3.479
 4999SOL    HW115896   0.023   2.814   3.449
 4999SOL    HW215897   6.892   2.865   3.448
 5000SOL     OW15898   2.825   6.714   2.770
 5000SOL    HW115899   2.815   6.789   2.704
 5000SOL    HW215900   2.803   6.747   2.861
 5001SOL     OW15901   0.108   6.024   3.114
 5001SOL    HW115902   0.129   6.120   3.093
 5001SOL    HW215903   0.049   6.021   3.195
 5002SOL     OW15904   1.046   5.522   3.932
 5002SOL    HW115905   1.073   5.530   4.028
 5002SOL    HW215906   0.946   5.517   3.926
 5003SOL     OW15907   3.860   1.462   1.185
 5003SOL    HW115908   3.834   1.367   1.204
 5003SOL    HW215909   3.872   1.511   1.272
 5004SOL     OW15910   4.279   6.401   0.317
 5004SOL    HW115911   4.198   6.370   0.366
 5004SOL    HW215912   4.359   6.351   0.348
 5005SOL     OW15913   4.277   3.206   0.949
 5005SOL    HW115914   4.310   3.241   1.037
 5005SOL    HW215915   4.221   3.276   0.904
 5006SOL     OW15916   4.515   0.939   2.709
 5006SOL    HW115917   4.598   0.989   2.686
 5006SOL    HW215918   4.456   0.934   2.628
 5007SOL     OW15919   6.656   5.369   2.966
 5007SOL    HW115920   6.640   5.467   2.977
 5007SOL    HW215921   6.643   5.343   2.871
 5008SOL     OW15922   4.418   0.204   3.975
 5008SOL    HW115923   4.326   0.207   3.935
 5008SOL    HW215924   4.439   0.292   4.016
 5009SOL     OW15925   0.872   1.639   6.622
 5009SOL    HW115926   0.829   1.729   6.631
 5009SOL    HW215927   0.967   1.650   6.592
 5010SOL     OW15928   5.278   4.604   1.022
 5010SOL    HW115929   5.221   4.574   1.098
 5010SOL    HW215930   5.374   4.606   1.051
 5011SOL     OW15931   1.757   1.959   5.179
 5011SOL    HW115932   1.794   2.000   5.095
 5011SOL    HW215933   1.750   2.029   5.250
 5012SOL     OW15934   5.806   3.011   5.522
 5012SOL    HW115935   5.870   3.084   5.499
 5012SOL    HW215936   5.713   3.041   5.500
 5013SOL     OW15937   5.907   5.777   5.318
 5013SOL    HW115938   5.871   5.703   5.374
 5013SOL    HW215939   5.913   5.747   5.223
 5014SOL     OW15940   5.844   3.181   0.602
 5014SOL    HW115941   5.869   3.239   0.525
 5014SOL    HW215942   5.812   3.092   0.569
 5015SOL     OW15943   6.348   5.370   4.160
 5015SOL    HW115944   6.405   5.441   4.120
 5015SOL    HW215945   6.382   5.280   4.133
 5016SOL     OW15946   1.094   2.010   6.424
 5016SOL    HW115947   1.064   1.921   6.459
 5016SOL    HW215948   1.105   2.005   6.325
 5017SOL     OW15949   0.945   2.976   1.928
 5017SOL    HW115950   1.029   2.947   1.974
 5017SOL    HW215951   0.913   2.902   1.869
 5018SOL     OW15952   0.564   0.637   0.386
 5018SOL    HW115953   0.539   0.655   0.482
 5018SOL    HW215954   0.572   0.724   0.338
 5019SOL     OW15955   2.024   4.222   3.662
 5019SOL    HW115956   2.124   4.223   3.669
 5019SOL    HW215957   1.986   4.296   3.717
 5020SOL     OW15958   1.498   6.858   3.063
 5020SOL    HW115959   1.529   6.929   3.000
 5020SOL    HW215960   1.404   6.877   3.090
 5021SOL     OW15961   2.308   0.508   1.501
 5021SOL    HW115962   2.372   0.554   1.562
 5021SOL    HW215963   2.292   0.565   1.420
 5022SOL     OW15964   0.251   3.133   1.749
 5022SOL    HW115965   0.278   3.186   1.829
 5022SOL    HW215966   0.250   3.192   1.668
 5023SOL     OW15967   0.792   2.489   3.088
 5023SOL    HW115968   0.826   2.462   3.178
 5023SOL    HW215969   0.833   2.431   3.018
 5024SOL     OW15970   4.333   4.036   6.888
 5024SOL    HW115971   4.263   4.079   6.830
 5024SOL    HW215972   4.303   4.038   6.983
 5025SOL     OW15973   5.152   2.464   4.411
 5025SOL    HW115974   5.146   2.564   4.415
 5025SOL    HW215975   5.148   2.427   4.504
 5026SOL     OW15976   5.268   5.844   4.825
 5026SOL    HW115977   5.292   5.821   4.731
 5026SOL    HW215978   5.171   5.870   4.829
 5027SOL     OW15979   5.593   6.192   1.196
 5027SOL    HW115980   5.497   6.198   1.224
 5027SOL    HW215981   5.650   6.175   1.277
 5028SOL     OW15982   6.882   2.074   2.321
 5028SOL    HW115983   6.976   2.041   2.334
 5028SOL    HW215984   6.855   2.130   2.399
 5029SOL     OW15985   5.905   2.629   2.970
 5029SOL    HW115986   5.867   2.653   2.880
 5029SOL    HW215987   5.849   2.558   3.012
 5030SOL     OW15988   0.711   3.105   0.880
 5030SOL    HW115989   0.804   3.075   0.860
 5030SOL    HW215990   0.684   3.071   0.971
 5031SOL     OW15991   6.424   0.283   6.502
 5031SOL    HW115992   6.358   0.219   6.462
 5031SOL    HW215993   6.504   0.232   6.534
 5032SOL     OW15994   2.502   4.859   6.665
 5032SOL    HW115995   2.591   4.820   6.640
 5032SOL    HW215996   2.462   4.806   6.740
 5033SOL     OW15997   2.002   6.773   4.002
 5033SOL    HW115998   1.907   6.799   4.017
 5033SOL    HW215999   2.058   6.856   3.995
 5034SOL     OW16000   4.395   6.054   3.606
 5034SOL    HW116001   4.408   5.962   3.644
 5034SOL    HW216002   4.337   6.107   3.667
 5035SOL     OW16003   1.698   3.632   4.161
 5035SOL    HW116004   1.632   3.645   4.235
 5035SOL    HW216005   1.776   3.579   4.195
 5036SOL     OW16006   1.133   3.057   4.735
 5036SOL    HW116007   1.153   3.129   4.801
 5036SOL    HW216008   1.120   3.096   4.644
 5037SOL     OW16009   5.534   4.674   1.169
 5037SOL    HW116010   5.493   4.676   1.260
 5037SOL    HW216011   5.534   4.766   1.130
 5038SOL     OW16012   3.188   3.597   4.559
 5038SOL    HW116013   3.199   3.680   4.505
 5038SOL    HW216014   3.239   3.605   4.644
 5039SOL     OW16015   0.226   3.263   6.471
 5039SOL    HW116016   0.325   3.259   6.483
 5039SOL    HW216017   0.181   3.219   6.548
 5040SOL     OW16018   0.769   1.625   4.854
 5040SOL    HW116019   0.752   1.563   4.778
 5040SOL    HW216020   0.683   1.650   4.898
 5041SOL     OW16021   6.644   2.359   1.324
 5041SOL    HW116022   6.636   2.429   1.394
 5041SOL    HW216023   6.736   2.360   1.286
 5042SOL     OW16024   1.031   1.461   5.424
 5042SOL    HW116025   0.943   1.442   5.467
 5042SOL    HW216026   1.017   1.479   5.326
 5043SOL     OW16027   3.016   0.110   1.805
 5043SOL    HW116028   3.047   0.050   1.878
 5043SOL    HW216029   2.953   0.061   1.745
 5044SOL     OW16030   0.316   6.017   1.037
 5044SOL    HW116031   0.296   6.005   0.939
 5044SOL    HW216032   0.414   6.005   1.053
 5045SOL     OW16033   6.109   2.797   1.668
 5045SOL    HW116034   6.047   2.785   1.590
 5045SOL    HW216035   6.179   2.865   1.645
 5046SOL     OW16036   4.013   2.954   1.865
 5046SOL    HW116037   4.031   3.052   1.858
 5046SOL    HW216038   3.963   2.935   1.950
 5047SOL     OW16039   2.307   4.154   3.663
 5047SOL    HW116040   2.366   4.234   3.677
 5047SOL    HW216041   2.277   4.120   3.752
 5048SOL     OW16042   2.091   0.048   6.046
 5048SOL    HW116043   2.004   0.094   6.069
 5048SOL    HW216044   2.152   0.054   6.125
 5049SOL     OW16045   3.748   1.885   6.710
 5049SOL    HW116046   3.805   1.930   6.642
 5049SOL    HW216047   3.721   1.795   6.676
 5050SOL     OW16048   1.232   0.592   1.167
 5050SOL    HW116049   1.324   0.608   1.131
 5050SOL    HW216050   1.231   0.613   1.265
 5051SOL     OW16051   4.192   4.213   0.827
 5051SOL    HW116052   4.128   4.217   0.904
 5051SOL    HW216053   4.286   4.210   0.861
 5052SOL     OW16054   1.942   3.521   4.219
 5052SOL    HW116055   1.999   3.467   4.156
 5052SOL    HW216056   1.896   3.460   4.283
 5053SOL     OW16057   6.632   0.797   0.679
 5053SOL    HW116058   6.679   0.745   0.608
 5053SOL    HW216059   6.569   0.738   0.728
 5054SOL     OW16060   4.149   5.431   3.067
 5054SOL    HW116061   4.244   5.400   3.059
 5054SOL    HW216062   4.137   5.514   3.013
 5055SOL     OW16063   6.396   4.423   5.687
 5055SOL    HW116064   6.383   4.324   5.692
 5055SOL    HW216065   6.390   4.463   5.778
 5056SOL     OW16066   6.434   4.817   3.495
 5056SOL    HW116067   6.441   4.751   3.420
 5056SOL    HW216068   6.482   4.780   3.575
 5057SOL     OW16069   6.587   6.384   2.173
 5057SOL    HW116070   6.681   6.402   2.142
 5057SOL    HW216071   6.590   6.341   2.264
 5058SOL     OW16072   3.232   5.740   5.712
 5058SOL    HW116073   3.236   5.827   5.761
 5058SOL    HW216074   3.181   5.673   5.765
 5059SOL     OW16075   6.608   6.814   2.517
 5059SOL    HW116076   6.611   6.846   2.612
 5059SOL    HW216077   6.693   6.837   2.470
 5060SOL     OW16078   6.857   3.089   6.930
 5060SOL    HW116079   6.861   3.033   6.848
 5060SOL    HW216080   6.916   3.050   7.001
 5061SOL     OW16081   5.433   3.289   0.758
 5061SOL    HW116082   5.431   3.384   0.727
 5061SOL    HW216083   5.424   3.286   0.858
 5062SOL     OW16084   6.522   0.458   0.052
 5062SOL    HW116085   6.457   0.386   0.031
 5062SOL    HW216086   6.481   0.547   0.031
 5063SOL     OW16087   0.964   6.539   2.641
 5063SOL    HW116088   1.009   6.482   2.711
 5063SOL    HW216089   0.956   6.486   2.557
 5064SOL     OW16090   5.340   4.347   0.052
 5064SOL    HW116091   5.356   4.424   7.015
 5064SOL    HW216092   5.314   4.266   7.023
 5065SOL     OW16093   2.512   6.938   6.018
 5065SOL    HW116094   2.493   6.863   6.081
 5065SOL    HW216095   2.541   7.019   6.069
 5066SOL     OW16096   4.846   4.543   0.450
 5066SOL    HW116097   4.808   4.626   0.408
 5066SOL    HW216098   4.858   4.558   0.548
 5067SOL     OW16099   5.300   0.804   6.305
 5067SOL    HW116100   5.374   0.843   6.250
 5067SOL    HW216101   5.261   0.725   6.258
 5068SOL     OW16102   2.964   5.035   1.132
 5068SOL    HW116103   2.961   4.951   1.187
 5068SOL    HW216104   2.881   5.088   1.148
 5069SOL     OW16105   0.195   5.384   3.160
 5069SOL    HW116106   0.157   5.316   3.223
 5069SOL    HW216107   0.254   5.447   3.210
 5070SOL     OW16108   5.454   2.284   3.258
 5070SOL    HW116109   5.476   2.187   3.245
 5070SOL    HW216110   5.398   2.316   3.181
 5071SOL     OW16111   4.802   0.740   1.316
 5071SOL    HW116112   4.772   0.743   1.411
 5071SOL    HW216113   4.811   0.645   1.287
 5072SOL     OW16114   0.398   3.943   2.135
 5072SOL    HW116115   0.310   3.974   2.099
 5072SOL    HW216116   0.449   3.895   2.064
 5073SOL     OW16117   4.182   2.307   3.247
 5073SOL    HW116118   4.199   2.373   3.319
 5073SOL    HW216119   4.241   2.227   3.260
 5074SOL     OW16120   3.973   3.944   5.195
 5074SOL    HW116121   3.996   3.849   5.173
 5074SOL    HW216122   4.031   3.976   5.270
 5075SOL     OW16123   6.537   0.186   4.479
 5075SOL    HW116124   6.608   0.228   4.423
 5075SOL    HW216125   6.493   0.112   4.428
 5076SOL     OW16126   5.428   0.637   0.596
 5076SOL    HW116127   5.495   0.565   0.576
 5076SOL    HW216128   5.442   0.713   0.532
 5077SOL     OW16129   0.213   1.586   2.537
 5077SOL    HW116130   0.254   1.624   2.453
 5077SOL    HW216131   0.247   1.637   2.616
 5078SOL     OW16132   0.098   1.900   4.331
 5078SOL    HW116133   0.048   1.815   4.348
 5078SOL    HW216134   0.113   1.911   4.233
 5079SOL     OW16135   5.068   5.184   4.717
 5079SOL    HW116136   5.124   5.230   4.785
 5079SOL    HW216137   4.993   5.245   4.689
 5080SOL     OW16138   4.957   0.498   5.793
 5080SOL    HW116139   5.005   0.489   5.880
 5080SOL    HW216140   4.862   0.468   5.804
 5081SOL     OW16141   3.459   3.257   3.556
 5081SOL    HW116142   3.544   3.270   3.504
 5081SOL    HW216143   3.462   3.169   3.604
 5082SOL     OW16144   0.960   2.121   5.146
 5082SOL    HW116145   0.893   2.085   5.081
 5082SOL    HW216146   1.043   2.066   5.142
 5083SOL     OW16147   1.202   3.788   2.422
 5083SOL    HW116148   1.176   3.716   2.487
 5083SOL    HW216149   1.204   3.875   2.470
 5084SOL     OW16150   1.917   5.638   2.379
 5084SOL    HW116151   1.976   5.574   2.428
 5084SOL    HW216152   1.924   5.729   2.421
 5085SOL     OW16153   6.388   3.646   0.721
 5085SOL    HW116154   6.310   3.583   0.728
 5085SOL    HW216155   6.365   3.720   0.658
 5086SOL     OW16156   6.411   5.090   4.657
 5086SOL    HW116157   6.492   5.046   4.619
 5086SOL    HW216158   6.351   5.120   4.582
 5087SOL     OW16159   5.214   5.129   5.945
 5087SOL    HW116160   5.186   5.106   5.852
 5087SOL    HW216161   5.136   5.116   6.007
 5088SOL     OW16162   5.827   1.112   6.568
 5088SOL    HW116163   5.875   1.161   6.496
 5088SOL    HW216164   5.729   1.118   6.553
 5089SOL     OW16165   5.562   2.872   4.076
 5089SOL    HW116166   5.600   2.965   4.079
 5089SOL    HW216167   5.522   2.850   4.165
 5090SOL     OW16168   0.889   4.498   0.084
 5090SOL    HW116169   0.933   4.583   0.055
 5090SOL    HW216170   0.894   4.492   0.184
 5091SOL     OW16171   0.758   6.210   3.835
 5091SOL    HW116172   0.798   6.276   3.898
 5091SOL    HW216173   0.817   6.200   3.755
 5092SOL     OW16174   3.376   3.045   0.881
 5092SOL    HW116175   3.440   3.074   0.809
 5092SOL    HW216176   3.360   2.947   0.875
 5093SOL     OW16177   0.928   1.233   2.296
 5093SOL    HW116178   0.860   1.306   2.289
 5093SOL    HW216179   0.930   1.198   2.390
 5094SOL     OW16180   1.094   0.055   6.298
 5094SOL    HW116181   1.125   7.019   6.225
 5094SOL    HW216182   1.133   0.147   6.285
 5095SOL     OW16183   3.272   6.534   5.268
 5095SOL    HW116184   3.247   6.483   5.350
 5095SOL    HW216185   3.232   6.490   5.188
 5096SOL     OW16186   3.214   6.028   1.951
 5096SOL    HW116187   3.156   5.952   1.980
 5096SOL    HW216188   3.250   6.076   2.031
 5097SOL     OW16189   0.609   2.449   6.759
 5097SOL    HW116190   0.660   2.412   6.837
 5097SOL    HW216191   0.657   2.427   6.674
 5098SOL     OW16192   1.444   2.260   3.062
 5098SOL    HW116193   1.541   2.282   3.075
 5098SOL    HW216194   1.388   2.319   3.119
 5099SOL     OW16195   0.789   1.305   3.985
 5099SOL    HW116196   0.813   1.232   4.049
 5099SOL    HW216197   0.718   1.273   3.922
 5100SOL     OW16198   4.987   4.822   5.555
 5100SOL    HW116199   4.900   4.863   5.584
 5100SOL    HW216200   4.973   4.724   5.536
 5101SOL     OW16201   5.430   6.192   0.530
 5101SOL    HW116202   5.416   6.171   0.627
 5101SOL    HW216203   5.348   6.237   0.494
 5102SOL     OW16204   3.765   6.336   4.067
 5102SOL    HW116205   3.739   6.432   4.068
 5102SOL    HW216206   3.862   6.328   4.043
 5103SOL     OW16207   1.345   2.068   3.553
 5103SOL    HW116208   1.319   2.021   3.637
 5103SOL    HW216209   1.442   2.094   3.558
 5104SOL     OW16210   0.942   0.470   0.615
 5104SOL    HW116211   0.892   0.488   0.530
 5104SOL    HW216212   0.999   0.389   0.604
 5105SOL     OW16213   1.763   2.906   0.128
 5105SOL    HW116214   1.732   3.001   0.124
 5105SOL    HW216215   1.859   2.901   0.099
 5106SOL     OW16216   1.938   6.922   2.022
 5106SOL    HW116217   1.892   6.967   2.098
 5106SOL    HW216218   2.003   6.985   1.980
 5107SOL     OW16219   1.705   7.006   5.916
 5107SOL    HW116220   1.643   0.059   5.908
 5107SOL    HW216221   1.791   0.003   5.871
 5108SOL     OW16222   3.734   3.888   4.592
 5108SOL    HW116223   3.705   3.913   4.684
 5108SOL    HW216224   3.826   3.924   4.575
 5109SOL     OW16225   0.276   2.186   2.250
 5109SOL    HW116226   0.276   2.281   2.219
 5109SOL    HW216227   0.365   2.164   2.291
 5110SOL     OW16228   1.613   5.397   5.717
 5110SOL    HW116229   1.632   5.334   5.642
 5110SOL    HW216230   1.688   5.462   5.727
 5111SOL     OW16231   1.196   0.858   6.243
 5111SOL    HW116232   1.255   0.817   6.173
 5111SOL    HW216233   1.253   0.891   6.319
 5112SOL     OW16234   0.272   7.013   3.260
 5112SOL    HW116235   0.286   6.945   3.332
 5112SOL    HW216236   0.361   0.026   3.232
 5113SOL     OW16237   0.266   1.280   6.296
 5113SOL    HW116238   0.202   1.334   6.241
 5113SOL    HW216239   0.230   1.187   6.307
 5114SOL     OW16240   5.003   5.308   6.315
 5114SOL    HW116241   4.985   5.257   6.231
 5114SOL    HW216242   4.920   5.312   6.371
 5115SOL     OW16243   2.615   3.913   5.377
 5115SOL    HW116244   2.630   3.815   5.364
 5115SOL    HW216245   2.557   3.947   5.302
 5116SOL     OW16246   6.627   3.572   1.533
 5116SOL    HW116247   6.575   3.650   1.498
 5116SOL    HW216248   6.569   3.518   1.595
 5117SOL     OW16249   2.277   5.635   2.322
 5117SOL    HW116250   2.307   5.646   2.228
 5117SOL    HW216251   2.197   5.576   2.325
 5118SOL     OW16252   4.298   0.029   1.271
 5118SOL    HW116253   4.334   7.015   1.356
 5118SOL    HW216254   4.198   0.030   1.275
 5119SOL     OW16255   6.435   0.709   2.603
 5119SOL    HW116256   6.502   0.770   2.645
 5119SOL    HW216257   6.396   0.649   2.672
 5120SOL     OW16258   3.895   1.345   0.859
 5120SOL    HW116259   3.877   1.324   0.763
 5120SOL    HW216260   3.818   1.316   0.916
 5121SOL     OW16261   0.431   4.012   4.192
 5121SOL    HW116262   0.500   4.061   4.140
 5121SOL    HW216263   0.368   3.967   4.129
 5122SOL     OW16264   2.841   5.674   2.560
 5122SOL    HW116265   2.837   5.685   2.659
 5122SOL    HW216266   2.773   5.734   2.517
 5123SOL     OW16267   6.353   3.235   2.219
 5123SOL    HW116268   6.270   3.179   2.216
 5123SOL    HW216269   6.389   3.236   2.312
 5124SOL     OW16270   3.436   6.806   0.088
 5124SOL    HW116271   3.514   6.838   0.143
 5124SOL    HW216272   3.355   6.861   0.111
 5125SOL     OW16273   0.707   2.014   6.438
 5125SOL    HW116274   0.640   2.084   6.462
 5125SOL    HW216275   0.747   2.034   6.349
 5126SOL     OW16276   4.343   1.661   0.398
 5126SOL    HW116277   4.388   1.595   0.338
 5126SOL    HW216278   4.249   1.675   0.367
 5127SOL     OW16279   4.940   3.732   5.982
 5127SOL    HW116280   5.032   3.713   5.949
 5127SOL    HW216281   4.888   3.779   5.911
 5128SOL     OW16282   0.534   0.151   0.098
 5128SOL    HW116283   0.470   0.106   0.161
 5128SOL    HW216284   0.587   0.082   0.049
 5129SOL     OW16285   4.558   2.547   3.938
 5129SOL    HW116286   4.548   2.567   4.035
 5129SOL    HW216287   4.527   2.453   3.920
 5130SOL     OW16288   2.029   6.735   4.876
 5130SOL    HW116289   2.061   6.678   4.800
 5130SOL    HW216290   2.070   6.826   4.868
 5131SOL     OW16291   3.088   4.873   2.914
 5131SOL    HW116292   3.042   4.808   2.854
 5131SOL    HW216293   3.045   4.963   2.905
 5132SOL     OW16294   3.320   1.797   6.034
 5132SOL    HW116295   3.280   1.877   6.079
 5132SOL    HW216296   3.285   1.791   5.940
 5133SOL     OW16297   3.461   4.004   6.347
 5133SOL    HW116298   3.371   4.048   6.346
 5133SOL    HW216299   3.523   4.059   6.403
 5134SOL     OW16300   6.250   6.081   0.982
 5134SOL    HW116301   6.255   6.180   0.998
 5134SOL    HW216302   6.191   6.039   1.051
 5135SOL     OW16303   0.719   2.941   2.084
 5135SOL    HW116304   0.815   2.957   2.062
 5135SOL    HW216305   0.663   2.957   2.002
 5136SOL     OW16306   6.862   0.154   4.829
 5136SOL    HW116307   6.954   0.144   4.865
 5136SOL    HW216308   6.820   0.064   4.818
 5137SOL     OW16309   5.046   0.800   3.675
 5137SOL    HW116310   5.089   0.877   3.626
 5137SOL    HW216311   4.947   0.804   3.662
 5138SOL     OW16312   3.596   3.314   2.633
 5138SOL    HW116313   3.543   3.368   2.568
 5138SOL    HW216314   3.547   3.229   2.653
 5139SOL     OW16315   5.239   1.146   4.682
 5139SOL    HW116316   5.157   1.201   4.695
 5139SOL    HW216317   5.252   1.086   4.761
 5140SOL     OW16318   2.481   3.610   5.795
 5140SOL    HW116319   2.572   3.598   5.755
 5140SOL    HW216320   2.412   3.587   5.726
 5141SOL     OW16321   0.892   2.991   1.525
 5141SOL    HW116322   0.899   3.082   1.566
 5141SOL    HW216323   0.821   2.939   1.571
 5142SOL     OW16324   6.790   6.475   2.780
 5142SOL    HW116325   6.840   6.389   2.782
 5142SOL    HW216326   6.813   6.529   2.861
 5143SOL     OW16327   6.233   6.016   2.635
 5143SOL    HW116328   6.157   6.058   2.684
 5143SOL    HW216329   6.285   6.086   2.587
 5144SOL     OW16330   1.450   2.752   5.202
 5144SOL    HW116331   1.437   2.709   5.113
 5144SOL    HW216332   1.547   2.751   5.225
 5145SOL     OW16333   1.326   4.758   6.434
 5145SOL    HW116334   1.247   4.806   6.471
 5145SOL    HW216335   1.329   4.770   6.335
 5146SOL     OW16336   5.213   5.947   6.609
 5146SOL    HW116337   5.255   6.038   6.611
 5146SOL    HW216338   5.119   5.953   6.642
 5147SOL     OW16339   4.182   1.573   3.134
 5147SOL    HW116340   4.233   1.493   3.166
 5147SOL    HW216341   4.246   1.642   3.101
 5148SOL     OW16342   6.268   1.301   0.554
 5148SOL    HW116343   6.205   1.238   0.599
 5148SOL    HW216344   6.353   1.307   0.606
 5149SOL     OW16345   2.766   6.810   3.580
 5149SOL    HW116346   2.788   6.849   3.490
 5149SOL    HW216347   2.799   6.870   3.652
 5150SOL     OW16348   0.050   0.826   4.195
 5150SOL    HW116349   0.133   0.772   4.208
 5150SOL    HW216350   0.064   0.892   4.122
 5151SOL     OW16351   5.108   4.751   1.926
 5151SOL    HW116352   5.104   4.651   1.930
 5151SOL    HW216353   5.194   4.782   1.967
 5152SOL     OW16354   2.379   1.280   0.326
 5152SOL    HW116355   2.377   1.239   0.417
 5152SOL    HW216356   2.300   1.249   0.273
 5153SOL     OW16357   2.125   2.218   6.873
 5153SOL    HW116358   2.033   2.193   6.841
 5153SOL    HW216359   2.123   2.235   6.972
 5154SOL     OW16360   0.855   3.078   7.017
 5154SOL    HW116361   0.929   3.012   7.016
 5154SOL    HW216362   0.841   3.113   6.924
 5155SOL     OW16363   1.495   0.730   0.225
 5155SOL    HW116364   1.446   0.656   0.178
 5155SOL    HW216365   1.591   0.704   0.236
 5156SOL     OW16366   5.340   3.978   5.550
 5156SOL    HW116367   5.280   4.042   5.599
 5156SOL    HW216368   5.352   4.008   5.456
 5157SOL     OW16369   3.741   1.135   2.037
 5157SOL    HW116370   3.652   1.159   2.076
 5157SOL    HW216371   3.765   1.202   1.967
 5158SOL     OW16372   1.408   3.437   2.377
 5158SOL    HW116373   1.398   3.344   2.412
 5158SOL    HW216374   1.484   3.440   2.312
 5159SOL     OW16375   6.387   2.742   5.931
 5159SOL    HW116376   6.327   2.676   5.976
 5159SOL    HW216377   6.401   2.820   5.991
 5160SOL     OW16378   6.462   0.925   3.132
 5160SOL    HW116379   6.429   0.836   3.103
 5160SOL    HW216380   6.458   0.933   3.231
 5161SOL     OW16381   1.361   1.829   6.491
 5161SOL    HW116382   1.359   1.730   6.474
 5161SOL    HW216383   1.301   1.875   6.426
 5162SOL     OW16384   0.096   0.532   5.711
 5162SOL    HW116385   0.177   0.591   5.717
 5162SOL    HW216386   0.079   0.490   5.800
 5163SOL     OW16387   3.353   1.158   1.378
 5163SOL    HW116388   3.375   1.185   1.471
 5163SOL    HW216389   3.270   1.205   1.348
 5164SOL     OW16390   2.419   2.666   0.169
 5164SOL    HW116391   2.346   2.610   0.129
 5164SOL    HW216392   2.387   2.707   0.254
 5165SOL     OW16393   0.953   5.296   5.312
 5165SOL    HW116394   1.039   5.312   5.265
 5165SOL    HW216395   0.901   5.381   5.317
 5166SOL     OW16396   6.369   5.991   5.611
 5166SOL    HW116397   6.271   5.992   5.633
 5166SOL    HW216398   6.381   5.997   5.512
 5167SOL     OW16399   6.262   3.096   5.888
 5167SOL    HW116400   6.305   3.044   5.814
 5167SOL    HW216401   6.303   3.069   5.975
 5168SOL     OW16402   5.099   1.045   3.555
 5168SOL    HW116403   5.176   1.073   3.498
 5168SOL    HW216404   5.031   1.119   3.558
 5169SOL     OW16405   5.099   6.128   4.825
 5169SOL    HW116406   5.056   6.164   4.742
 5169SOL    HW216407   5.179   6.183   4.847
 5170SOL     OW16408   2.514   3.002   6.439
 5170SOL    HW116409   2.474   3.089   6.412
 5170SOL    HW216410   2.593   2.982   6.381
 5171SOL     OW16411   1.813   6.614   5.899
 5171SOL    HW116412   1.864   6.661   5.971
 5171SOL    HW216413   1.748   6.550   5.940
 5172SOL     OW16414   4.882   5.328   5.760
 5172SOL    HW116415   4.974   5.322   5.722
 5172SOL    HW216416   4.885   5.371   5.850
 5173SOL     OW16417   4.633   6.393   3.928
 5173SOL    HW116418   4.557   6.446   3.965
 5173SOL    HW216419   4.699   6.455   3.885
 5174SOL     OW16420   0.670   5.974   3.583
 5174SOL    HW116421   0.627   6.005   3.499
 5174SOL    HW216422   0.605   5.916   3.634
 5175SOL     OW16423   2.963   2.026   6.012
 5175SOL    HW116424   3.023   1.988   6.082
 5175SOL    HW216425   2.922   2.111   6.045
 5176SOL     OW16426   5.832   6.851   6.233
 5176SOL    HW116427   5.870   6.761   6.254
 5176SOL    HW216428   5.749   6.866   6.286
 5177SOL     OW16429   5.284   5.146   1.066
 5177SOL    HW116430   5.217   5.122   0.996
 5177SOL    HW216431   5.375   5.113   1.039
 5178SOL     OW16432   0.975   4.100   1.024
 5178SOL    HW116433   0.912   4.106   0.946
 5178SOL    HW216434   0.923   4.112   1.109
 5179SOL     OW16435   3.985   5.097   2.750
 5179SOL    HW116436   3.971   5.084   2.652
 5179SOL    HW216437   3.896   5.108   2.794
 5180SOL     OW16438   2.693   5.342   2.074
 5180SOL    HW116439   2.749   5.324   2.155
 5180SOL    HW216440   2.753   5.363   1.996
 5181SOL     OW16441   6.372   1.837   5.594
 5181SOL    HW116442   6.304   1.861   5.663
 5181SOL    HW216443   6.326   1.801   5.513
 5182SOL     OW16444   2.362   6.028   2.315
 5182SOL    HW116445   2.289   6.072   2.264
 5182SOL    HW216446   2.400   5.953   2.261
 5183SOL     OW16447   5.537   1.689   3.227
 5183SOL    HW116448   5.571   1.653   3.140
 5183SOL    HW216449   5.498   1.614   3.281
 5184SOL     OW16450   2.874   1.593   1.999
 5184SOL    HW116451   2.949   1.597   2.066
 5184SOL    HW216452   2.885   1.667   1.933
 5185SOL     OW16453   6.594   0.611   1.565
 5185SOL    HW116454   6.502   0.585   1.591
 5185SOL    HW216455   6.657   0.536   1.584
 5186SOL     OW16456   5.787   2.320   6.523
 5186SOL    HW116457   5.688   2.311   6.534
 5186SOL    HW216458   5.820   2.246   6.464
 5187SOL     OW16459   1.337   4.824   5.162
 5187SOL    HW116460   1.361   4.738   5.117
 5187SOL    HW216461   1.391   4.834   5.246
 5188SOL     OW16462   0.435   0.494   1.703
 5188SOL    HW116463   0.375   0.553   1.649
 5188SOL    HW216464   0.523   0.539   1.716
 5189SOL     OW16465   5.343   6.304   6.380
 5189SOL    HW116466   5.369   6.214   6.346
 5189SOL    HW216467   5.343   6.303   6.480
 5190SOL     OW16468   1.227   5.292   0.640
 5190SOL    HW116469   1.176   5.235   0.575
 5190SOL    HW216470   1.322   5.299   0.610
 5191SOL     OW16471   3.281   3.911   1.273
 5191SOL    HW116472   3.247   3.917   1.179
 5191SOL    HW216473   3.304   4.003   1.306
 5192SOL     OW16474   0.746   4.566   2.777
 5192SOL    HW116475   0.660   4.613   2.754
 5192SOL    HW216476   0.744   4.473   2.742
 5193SOL     OW16477   3.655   0.216   4.349
 5193SOL    HW116478   3.698   0.171   4.270
 5193SOL    HW216479   3.725   0.265   4.401
 5194SOL     OW16480   4.145   1.520   5.628
 5194SOL    HW116481   4.067   1.569   5.668
 5194SOL    HW216482   4.111   1.445   5.571
 5195SOL     OW16483   2.172   1.146   4.950
 5195SOL    HW116484   2.226   1.221   4.913
 5195SOL    HW216485   2.216   1.059   4.927
 5196SOL     OW16486   6.047   6.209   2.741
 5196SOL    HW116487   5.998   6.293   2.714
 5196SOL    HW216488   6.143   6.230   2.756
 5197SOL     OW16489   2.133   4.057   5.756
 5197SOL    HW116490   2.218   4.096   5.794
 5197SOL    HW216491   2.084   4.128   5.706
 5198SOL     OW16492   6.591   5.881   3.689
 5198SOL    HW116493   6.667   5.837   3.641
 5198SOL    HW216494   6.516   5.895   3.625
 5199SOL     OW16495   0.576   5.161   1.368
 5199SOL    HW116496   0.619   5.198   1.286
 5199SOL    HW216497   0.490   5.210   1.385
 5200SOL     OW16498   0.081   4.283   5.494
 5200SOL    HW116499   0.060   4.207   5.557
 5200SOL    HW216500   0.178   4.281   5.473
 5201SOL     OW16501   0.979   5.592   4.769
 5201SOL    HW116502   1.019   5.676   4.734
 5201SOL    HW216503   1.051   5.525   4.785
 5202SOL     OW16504   0.124   4.934   1.966
 5202SOL    HW116505   0.167   5.012   1.920
 5202SOL    HW216506   0.134   4.944   2.065
 5203SOL     OW16507   6.856   3.281   6.659
 5203SOL    HW116508   6.784   3.325   6.605
 5203SOL    HW216509   6.824   3.192   6.691
 5204SOL     OW16510   5.462   5.499   6.278
 5204SOL    HW116511   5.496   5.407   6.295
 5204SOL    HW216512   5.373   5.494   6.232
 5205SOL     OW16513   2.417   6.010   0.540
 5205SOL    HW116514   2.484   5.951   0.583
 5205SOL    HW216515   2.397   5.976   0.448
 5206SOL     OW16516   0.407   4.722   4.770
 5206SOL    HW116517   0.329   4.671   4.808
 5206SOL    HW216518   0.490   4.668   4.781
 5207SOL     OW16519   1.421   6.501   2.547
 5207SOL    HW116520   1.494   6.463   2.490
 5207SOL    HW216521   1.421   6.600   2.539
 5208SOL     OW16522   4.659   2.069   0.178
 5208SOL    HW116523   4.738   2.062   0.117
 5208SOL    HW216524   4.583   2.113   0.129
 5209SOL     OW16525   6.453   5.429   3.310
 5209SOL    HW116526   6.519   5.380   3.254
 5209SOL    HW216527   6.450   5.389   3.401
 5210SOL     OW16528   4.975   3.313   3.457
 5210SOL    HW116529   4.941   3.357   3.373
 5210SOL    HW216530   5.062   3.268   3.437
 5211SOL     OW16531   2.934   4.048   1.731
 5211SOL    HW116532   2.997   4.048   1.808
 5211SOL    HW216533   2.895   4.139   1.718
 5212SOL     OW16534   0.735   6.932   6.305
 5212SOL    HW116535   0.786   7.003   6.355
 5212SOL    HW216536   0.799   6.868   6.262
 5213SOL     OW16537   4.879   1.653   6.616
 5213SOL    HW116538   4.926   1.737   6.645
 5213SOL    HW216539   4.784   1.656   6.648
 5214SOL     OW16540   5.035   2.185   0.051
 5214SOL    HW116541   5.108   2.129   0.089
 5214SOL    HW216542   5.056   2.206   6.980
 5215SOL     OW16543   6.050   5.415   4.529
 5215SOL    HW116544   6.059   5.480   4.453
 5215SOL    HW216545   6.140   5.379   4.552
 5216SOL     OW16546   3.325   6.273   1.414
 5216SOL    HW116547   3.304   6.275   1.316
 5216SOL    HW216548   3.306   6.182   1.451
 5217SOL     OW16549   3.001   5.504   4.053
 5217SOL    HW116550   2.927   5.570   4.058
 5217SOL    HW216551   2.980   5.435   3.984
 5218SOL     OW16552   0.864   0.422   3.842
 5218SOL    HW116553   0.893   0.467   3.757
 5218SOL    HW216554   0.764   0.424   3.848
 5219SOL     OW16555   3.007   6.662   1.283
 5219SOL    HW116556   3.061   6.681   1.201
 5219SOL    HW216557   2.915   6.699   1.272
 5220SOL     OW16558   0.785   6.221   2.233
 5220SOL    HW116559   0.754   6.309   2.198
 5220SOL    HW216560   0.855   6.184   2.172
 5221SOL     OW16561   4.680   0.257   0.414
 5221SOL    HW116562   4.719   0.188   0.352
 5221SOL    HW216563   4.589   0.283   0.383
 5222SOL     OW16564   6.628   5.666   2.428
 5222SOL    HW116565   6.552   5.625   2.378
 5222SOL    HW216566   6.595   5.743   2.483
 5223SOL     OW16567   4.336   6.826   1.435
 5223SOL    HW116568   4.237   6.814   1.442
 5223SOL    HW216569   4.378   6.810   1.525
 5224SOL     OW16570   5.573   0.570   3.734
 5224SOL    HW116571   5.633   0.648   3.720
 5224SOL    HW216572   5.478   0.596   3.716
 5225SOL     OW16573   0.322   6.728   5.696
 5225SOL    HW116574   0.362   6.655   5.752
 5225SOL    HW216575   0.266   6.687   5.624
 5226SOL     OW16576   2.440   0.869   3.663
 5226SOL    HW116577   2.527   0.881   3.710
 5226SOL    HW216578   2.365   0.900   3.722
 5227SOL     OW16579   5.733   3.847   4.394
 5227SOL    HW116580   5.710   3.887   4.483
 5227SOL    HW216581   5.822   3.800   4.402
 5228SOL     OW16582   4.906   6.772   2.091
 5228SOL    HW116583   4.903   6.695   2.154
 5228SOL    HW216584   5.002   6.795   2.071
 5229SOL     OW16585   0.748   3.886   3.861
 5229SOL    HW116586   0.789   3.866   3.950
 5229SOL    HW216587   0.745   3.986   3.847
 5230SOL     OW16588   0.481   1.287   6.597
 5230SOL    HW116589   0.444   1.220   6.661
 5230SOL    HW216590   0.406   1.333   6.550
 5231SOL     OW16591   2.971   3.807   3.142
 5231SOL    HW116592   3.003   3.809   3.237
 5231SOL    HW216593   2.887   3.860   3.134
 5232SOL     OW16594   5.524   2.976   4.354
 5232SOL    HW116595   5.620   3.001   4.360
 5232SOL    HW216596   5.467   3.057   4.368
 5233SOL     OW16597   0.869   6.930   2.456
 5233SOL    HW116598   0.926   6.926   2.538
 5233SOL    HW216599   0.805   7.006   2.463
 5234SOL     OW16600   3.465   4.138   1.475
 5234SOL    HW116601   3.525   4.058   1.470
 5234SOL    HW216602   3.518   4.221   1.462
 5235SOL     OW16603   0.810   1.584   1.753
 5235SOL    HW116604   0.741   1.657   1.755
 5235SOL    HW216605   0.899   1.621   1.780
 5236SOL     OW16606   6.103   2.895   0.358
 5236SOL    HW116607   6.022   2.837   0.363
 5236SOL    HW216608   6.167   2.869   0.430
 5237SOL     OW16609   1.446   1.928   2.402
 5237SOL    HW116610   1.460   1.844   2.350
 5237SOL    HW216611   1.515   1.996   2.373
 5238SOL     OW16612   1.894   3.566   1.480
 5238SOL    HW116613   1.799   3.585   1.503
 5238SOL    HW216614   1.954   3.621   1.538
 5239SOL     OW16615   2.911   3.476   5.382
 5239SOL    HW116616   2.941   3.567   5.410
 5239SOL    HW216617   2.966   3.407   5.429
 5240SOL     OW16618   3.761   1.871   3.744
 5240SOL    HW116619   3.853   1.884   3.708
 5240SOL    HW216620   3.725   1.783   3.713
 5241SOL     OW16621   4.760   5.806   5.281
 5241SOL    HW116622   4.704   5.809   5.364
 5241SOL    HW216623   4.855   5.789   5.306
 5242SOL     OW16624   3.307   0.792   5.693
 5242SOL    HW116625   3.314   0.732   5.772
 5242SOL    HW216626   3.385   0.854   5.691
 5243SOL     OW16627   1.746   3.855   0.189
 5243SOL    HW116628   1.751   3.840   0.287
 5243SOL    HW216629   1.833   3.894   0.156
 5244SOL     OW16630   6.108   3.149   6.651
 5244SOL    HW116631   6.165   3.110   6.724
 5244SOL    HW216632   6.102   3.248   6.664
 5245SOL     OW16633   4.659   4.376   5.952
 5245SOL    HW116634   4.701   4.301   6.004
 5245SOL    HW216635   4.566   4.349   5.926
 5246SOL     OW16636   1.237   3.322   3.634
 5246SOL    HW116637   1.278   3.253   3.574
 5246SOL    HW216638   1.308   3.384   3.667
 5247SOL     OW16639   0.528   4.201   0.009
 5247SOL    HW116640   0.587   4.281   7.024
 5247SOL    HW216641   0.475   4.188   6.949
 5248SOL     OW16642   4.758   1.261   0.419
 5248SOL    HW116643   4.824   1.268   0.344
 5248SOL    HW216644   4.762   1.170   0.459
 5249SOL     OW16645   0.617   5.198   0.122
 5249SOL    HW116646   0.590   5.142   0.200
 5249SOL    HW216647   0.596   5.149   0.037
 5250SOL     OW16648   1.257   1.602   5.549
 5250SOL    HW116649   1.231   1.696   5.524
 5250SOL    HW216650   1.197   1.537   5.502
 5251SOL     OW16651   0.832   2.350   1.511
 5251SOL    HW116652   0.869   2.441   1.533
 5251SOL    HW216653   0.753   2.360   1.452
 5252SOL     OW16654   5.341   5.530   1.498
 5252SOL    HW116655   5.408   5.604   1.491
 5252SOL    HW216656   5.297   5.516   1.409
 5253SOL     OW16657   6.090   3.159   4.052
 5253SOL    HW116658   6.093   3.245   4.002
 5253SOL    HW216659   6.148   3.092   4.005
 5254SOL     OW16660   5.335   0.530   4.788
 5254SOL    HW116661   5.372   0.477   4.712
 5254SOL    HW216662   5.236   0.539   4.778
 5255SOL     OW16663   2.343   6.082   2.608
 5255SOL    HW116664   2.341   6.053   2.513
 5255SOL    HW216665   2.332   6.003   2.668
 5256SOL     OW16666   4.985   6.262   2.128
 5256SOL    HW116667   5.044   6.181   2.134
 5256SOL    HW216668   4.961   6.293   2.220
 5257SOL     OW16669   2.420   1.610   2.639
 5257SOL    HW116670   2.456   1.634   2.729
 5257SOL    HW216671   2.406   1.694   2.586
 5258SOL     OW16672   5.466   1.992   1.637
 5258SOL    HW116673   5.439   1.896   1.629
 5258SOL    HW216674   5.444   2.040   1.552
 5259SOL     OW16675   5.905   5.210   1.504
 5259SOL    HW116676   5.960   5.131   1.475
 5259SOL    HW216677   5.966   5.284   1.532
 5260SOL     OW16678   5.300   3.022   2.069
 5260SOL    HW116679   5.377   3.083   2.051
 5260SOL    HW216680   5.313   2.977   2.157
 5261SOL     OW16681   2.271   2.805   4.877
 5261SOL    HW116682   2.306   2.877   4.938
 5261SOL    HW216683   2.347   2.747   4.847
 5262SOL     OW16684   1.295   0.442   1.616
 5262SOL    HW116685   1.204   0.447   1.574
 5262SOL    HW216686   1.364   0.467   1.548
 5263SOL     OW16687   1.460   6.927   6.597
 5263SOL    HW116688   1.383   6.962   6.650
 5263SOL    HW216689   1.499   6.847   6.643
 5264SOL     OW16690   1.225   0.561   0.749
 5264SOL    HW116691   1.203   0.463   0.751
 5264SOL    HW216692   1.301   0.575   0.685
 5265SOL     OW16693   5.136   5.059   3.919
 5265SOL    HW116694   5.172   5.112   3.996
 5265SOL    HW216695   5.174   4.967   3.921
 5266SOL     OW16696   1.435   6.600   1.302
 5266SOL    HW116697   1.366   6.530   1.284
 5266SOL    HW216698   1.397   6.669   1.365
 5267SOL     OW16699   3.794   3.611   4.699
 5267SOL    HW116700   3.851   3.566   4.768
 5267SOL    HW216701   3.791   3.709   4.717
 5268SOL     OW16702   5.900   4.718   6.336
 5268SOL    HW116703   5.951   4.746   6.255
 5268SOL    HW216704   5.882   4.620   6.331
 5269SOL     OW16705   2.946   5.394   5.307
 5269SOL    HW116706   3.028   5.449   5.322
 5269SOL    HW216707   2.901   5.375   5.394
 5270SOL     OW16708   0.061   1.456   2.724
 5270SOL    HW116709   0.110   1.510   2.655
 5270SOL    HW216710   6.989   1.448   2.698
 5271SOL     OW16711   5.531   3.832   4.977
 5271SOL    HW116712   5.576   3.743   4.976
 5271SOL    HW216713   5.468   3.837   5.054
 5272SOL     OW16714   2.230   2.619   3.719
 5272SOL    HW116715   2.286   2.626   3.637
 5272SOL    HW216716   2.133   2.623   3.694
 5273SOL     OW16717   6.921   1.242   5.706
 5273SOL    HW116718   6.822   1.244   5.690
 5273SOL    HW216719   6.946   1.316   5.768
 5274SOL     OW16720   0.505   5.128   4.799
 5274SOL    HW116721   0.434   5.081   4.850
 5274SOL    HW216722   0.515   5.222   4.833
 5275SOL     OW16723   2.496   6.656   0.071
 5275SOL    HW116724   2.474   6.739   0.021
 5275SOL    HW216725   2.412   6.608   0.096
 5276SOL     OW16726   0.025   0.859   0.159
 5276SOL    HW116727   0.079   0.915   0.097
 5276SOL    HW216728   0.079   0.779   0.186
 5277SOL     OW16729   0.831   0.806   1.322
 5277SOL    HW116730   0.891   0.752   1.382
 5277SOL    HW216731   0.743   0.820   1.367
 5278SOL     OW16732   6.668   4.669   6.390
 5278SOL    HW116733   6.744   4.614   6.353
 5278SOL    HW216734   6.702   4.760   6.415
 5279SOL     OW16735   2.507   6.107   0.243
 5279SOL    HW116736   2.437   6.172   0.274
 5279SOL    HW216737   2.580   6.102   0.311
 5280SOL     OW16738   4.858   6.460   5.943
 5280SOL    HW116739   4.817   6.471   6.033
 5280SOL    HW216740   4.806   6.392   5.891
 5281SOL     OW16741   2.098   6.358   4.916
 5281SOL    HW116742   2.119   6.393   5.008
 5281SOL    HW216743   2.132   6.264   4.908
 5282SOL     OW16744   6.744   5.783   1.266
 5282SOL    HW116745   6.840   5.796   1.240
 5282SOL    HW216746   6.688   5.775   1.184
 5283SOL     OW16747   1.630   0.201   4.236
 5283SOL    HW116748   1.594   0.261   4.307
 5283SOL    HW216749   1.727   0.220   4.222
 5284SOL     OW16750   4.907   3.188   2.129
 5284SOL    HW116751   4.982   3.193   2.063
 5284SOL    HW216752   4.840   3.120   2.098
 5285SOL     OW16753   2.256   1.425   3.961
 5285SOL    HW116754   2.317   1.362   3.913
 5285SOL    HW216755   2.193   1.467   3.896
 5286SOL     OW16756   0.622   2.788   1.528
 5286SOL    HW116757   0.559   2.864   1.514
 5286SOL    HW216758   0.597   2.740   1.612
 5287SOL     OW16759   0.423   5.579   2.306
 5287SOL    HW116760   0.507   5.609   2.351
 5287SOL    HW216761   0.426   5.480   2.291
 5288SOL     OW16762   4.231   0.796   1.654
 5288SOL    HW116763   4.190   0.887   1.659
 5288SOL    HW216764   4.184   0.742   1.584
 5289SOL     OW16765   1.941   5.290   6.453
 5289SOL    HW116766   1.849   5.304   6.492
 5289SOL    HW216767   1.969   5.195   6.467
 5290SOL     OW16768   1.737   2.742   5.282
 5290SOL    HW116769   1.810   2.805   5.309
 5290SOL    HW216770   1.733   2.665   5.346
 5291SOL     OW16771   2.882   5.969   4.657
 5291SOL    HW116772   2.925   5.885   4.624
 5291SOL    HW216773   2.926   5.998   4.742
 5292SOL     OW16774   0.708   4.405   4.555
 5292SOL    HW116775   0.690   4.402   4.654
 5292SOL    HW216776   0.703   4.313   4.517
 5293SOL     OW16777   2.246   0.423   3.536
 5293SOL    HW116778   2.276   0.430   3.631
 5293SOL    HW216779   2.321   0.451   3.476
 5294SOL     OW16780   5.128   0.252   4.808
 5294SOL    HW116781   5.109   0.343   4.772
 5294SOL    HW216782   5.066   0.186   4.766
 5295SOL     OW16783   2.163   0.336   1.211
 5295SOL    HW116784   2.239   0.275   1.233
 5295SOL    HW216785   2.192   0.404   1.144
 5296SOL     OW16786   4.451   5.130   2.352
 5296SOL    HW116787   4.525   5.072   2.387
 5296SOL    HW216788   4.427   5.100   2.260
 5297SOL     OW16789   3.735   5.042   5.925
 5297SOL    HW116790   3.745   5.098   5.843
 5297SOL    HW216791   3.701   4.952   5.901
 5298SOL     OW16792   3.577   1.048   0.135
 5298SOL    HW116793   3.602   0.978   0.068
 5298SOL    HW216794   3.480   1.038   0.159
 5299SOL     OW16795   1.417   0.347   1.090
 5299SOL    HW116796   1.411   0.364   1.189
 5299SOL    HW216797   1.436   0.433   1.043
 5300SOL     OW16798   2.941   4.934   0.086
 5300SOL    HW116799   2.894   4.848   0.067
 5300SOL    HW216800   2.876   5.009   0.082
 5301SOL     OW16801   6.515   0.075   5.923
 5301SOL    HW116802   6.529   0.059   6.021
 5301SOL    HW216803   6.420   0.055   5.900
 5302SOL     OW16804   4.974   5.384   3.566
 5302SOL    HW116805   4.898   5.441   3.597
 5302SOL    HW216806   4.938   5.299   3.526
 5303SOL     OW16807   1.513   6.560   5.293
 5303SOL    HW116808   1.561   6.476   5.318
 5303SOL    HW216809   1.496   6.614   5.376
 5304SOL     OW16810   0.247   0.261   3.557
 5304SOL    HW116811   0.186   0.199   3.508
 5304SOL    HW216812   0.312   0.208   3.611
 5305SOL     OW16813   6.429   5.256   4.888
 5305SOL    HW116814   6.375   5.327   4.843
 5305SOL    HW216815   6.425   5.171   4.834
 5306SOL     OW16816   0.769   1.884   6.657
 5306SOL    HW116817   0.751   1.948   6.582
 5306SOL    HW216818   0.835   1.925   6.720
 5307SOL     OW16819   0.782   1.141   1.637
 5307SOL    HW116820   0.806   1.209   1.567
 5307SOL    HW216821   0.795   1.181   1.728
 5308SOL     OW16822   2.055   4.353   2.795
 5308SOL    HW116823   2.004   4.377   2.878
 5308SOL    HW216824   1.992   4.318   2.726
 5309SOL     OW16825   5.702   6.268   3.100
 5309SOL    HW116826   5.657   6.190   3.057
 5309SOL    HW216827   5.720   6.248   3.196
 5310SOL     OW16828   6.044   1.640   3.232
 5310SOL    HW116829   6.094   1.719   3.267
 5310SOL    HW216830   5.956   1.670   3.196
 5311SOL     OW16831   5.919   0.238   0.610
 5311SOL    HW116832   5.986   0.254   0.683
 5311SOL    HW216833   5.836   0.199   0.649
 5312SOL     OW16834   5.545   6.584   1.187
 5312SOL    HW116835   5.598   6.546   1.263
 5312SOL    HW216836   5.554   6.683   1.186
 5313SOL     OW16837   1.318   6.454   5.768
 5313SOL    HW116838   1.410   6.464   5.731
 5313SOL    HW216839   1.255   6.424   5.696
 5314SOL     OW16840   5.522   1.832   2.329
 5314SOL    HW116841   5.483   1.777   2.403
 5314SOL    HW216842   5.510   1.929   2.351
 5315SOL     OW16843   4.202   2.137   3.626
 5315SOL    HW116844   4.267   2.181   3.564
 5315SOL    HW216845   4.116   2.121   3.579
 5316SOL     OW16846   0.275   2.963   5.075
 5316SOL    HW116847   0.272   3.027   4.998
 5316SOL    HW216848   0.185   2.959   5.119
 5317SOL     OW16849   5.459   3.039   1.477
 5317SOL    HW116850   5.386   3.095   1.517
 5317SOL    HW216851   5.512   2.997   1.550
 5318SOL     OW16852   6.825   4.598   5.918
 5318SOL    HW116853   6.753   4.612   5.849
 5318SOL    HW216854   6.894   4.670   5.908
 5319SOL     OW16855   4.314   5.839   2.647
 5319SOL    HW116856   4.275   5.828   2.739
 5319SOL    HW216857   4.246   5.881   2.587
 5320SOL     OW16858   4.654   5.798   0.251
 5320SOL    HW116859   4.681   5.825   0.158
 5320SOL    HW216860   4.640   5.699   0.253
 5321SOL     OW16861   1.438   4.358   5.207
 5321SOL    HW116862   1.410   4.450   5.234
 5321SOL    HW216863   1.497   4.318   5.278
 5322SOL     OW16864   4.380   6.146   1.808
 5322SOL    HW116865   4.405   6.131   1.903
 5322SOL    HW216866   4.284   6.173   1.802
 5323SOL     OW16867   3.813   0.287   6.029
 5323SOL    HW116868   3.738   0.343   5.994
 5323SOL    HW216869   3.775   0.211   6.082
 5324SOL     OW16870   1.153   1.223   1.895
 5324SOL    HW116871   1.164   1.150   1.963
 5324SOL    HW216872   1.058   1.252   1.893
 5325SOL     OW16873   2.256   3.029   4.324
 5325SOL    HW116874   2.223   2.939   4.352
 5325SOL    HW216875   2.301   3.074   4.402
 5326SOL     OW16876   6.592   0.070   1.212
 5326SOL    HW116877   6.575   0.112   1.122
 5326SOL    HW216878   6.585   6.995   1.204
 5327SOL     OW16879   0.417   2.456   5.920
 5327SOL    HW116880   0.499   2.511   5.905
 5327SOL    HW216881   0.370   2.440   5.833
 5328SOL     OW16882   3.606   5.272   0.858
 5328SOL    HW116883   3.646   5.331   0.928
 5328SOL    HW216884   3.672   5.200   0.834
 5329SOL     OW16885   2.790   5.954   6.592
 5329SOL    HW116886   2.822   6.047   6.604
 5329SOL    HW216887   2.866   5.890   6.605
 5330SOL     OW16888   2.567   5.557   1.121
 5330SOL    HW116889   2.586   5.604   1.207
 5330SOL    HW216890   2.648   5.562   1.062
 5331SOL     OW16891   6.344   1.850   6.661
 5331SOL    HW116892   6.326   1.767   6.607
 5331SOL    HW216893   6.336   1.930   6.602
 5332SOL     OW16894   1.123   4.628   2.532
 5332SOL    HW116895   1.136   4.696   2.603
 5332SOL    HW216896   1.165   4.660   2.447
 5333SOL     OW16897   1.075   6.401   4.596
 5333SOL    HW116898   1.151   6.346   4.559
 5333SOL    HW216899   0.994   6.344   4.605
 5334SOL     OW16900   3.178   6.796   5.600
 5334SOL    HW116901   3.162   6.844   5.514
 5334SOL    HW216902   3.159   6.698   5.587
 5335SOL     OW16903   6.350   6.420   0.845
 5335SOL    HW116904   6.416   6.362   0.893
 5335SOL    HW216905   6.331   6.502   0.899
 5336SOL     OW16906   0.951   3.762   1.270
 5336SOL    HW116907   0.922   3.793   1.179
 5336SOL    HW216908   0.922   3.668   1.283
 5337SOL     OW16909   5.436   5.042   1.526
 5337SOL    HW116910   5.403   5.043   1.620
 5337SOL    HW216911   5.526   4.998   1.522
 5338SOL     OW16912   5.322   2.830   0.890
 5338SOL    HW116913   5.280   2.780   0.965
 5338SOL    HW216914   5.399   2.883   0.924
 5339SOL     OW16915   6.595   0.256   2.159
 5339SOL    HW116916   6.654   0.194   2.108
 5339SOL    HW216917   6.499   0.235   2.139
 5340SOL     OW16918   4.937   2.411   0.175
 5340SOL    HW116919   4.854   2.450   0.135
 5340SOL    HW216920   4.959   2.326   0.126
 5341SOL     OW16921   4.471   0.220   0.955
 5341SOL    HW116922   4.540   0.252   0.890
 5341SOL    HW216923   4.452   0.292   1.022
 5342SOL     OW16924   2.265   0.278   5.849
 5342SOL    HW116925   2.280   0.277   5.948
 5342SOL    HW216926   2.267   0.372   5.816
 5343SOL     OW16927   3.437   4.188   0.848
 5343SOL    HW116928   3.354   4.234   0.818
 5343SOL    HW216929   3.427   4.089   0.836
 5344SOL     OW16930   2.144   2.576   2.724
 5344SOL    HW116931   2.151   2.637   2.645
 5344SOL    HW216932   2.132   2.630   2.807
 5345SOL     OW16933   4.791   0.256   3.413
 5345SOL    HW116934   4.778   0.164   3.375
 5345SOL    HW216935   4.854   0.251   3.491
 5346SOL     OW16936   3.140   0.561   3.861
 5346SOL    HW116937   3.116   0.580   3.957
 5346SOL    HW216938   3.071   0.499   3.822
 5347SOL     OW16939   6.747   1.170   1.969
 5347SOL    HW116940   6.730   1.267   1.951
 5347SOL    HW216941   6.699   1.143   2.052
 5348SOL     OW16942   6.742   1.885   0.124
 5348SOL    HW116943   6.746   1.967   0.067
 5348SOL    HW216944   6.819   1.825   0.102
 5349SOL     OW16945   5.451   0.706   0.871
 5349SOL    HW116946   5.456   0.690   0.772
 5349SOL    HW216947   5.464   0.803   0.890
 5350SOL     OW16948   2.684   0.476   6.790
 5350SOL    HW116949   2.736   0.452   6.709
 5350SOL    HW216950   2.741   0.466   6.871
 5351SOL     OW16951   4.892   1.363   2.502
 5351SOL    HW116952   4.947   1.416   2.438
 5351SOL    HW216953   4.811   1.328   2.454
 5352SOL     OW16954   3.528   0.761   3.729
 5352SOL    HW116955   3.429   0.768   3.719
 5352SOL    HW216956   3.571   0.760   3.639
 5353SOL     OW16957   6.355   0.271   6.149
 5353SOL    HW116958   6.437   0.271   6.207
 5353SOL    HW216959   6.322   0.178   6.138
 5354SOL     OW16960   1.083   3.268   1.276
 5354SOL    HW116961   1.027   3.264   1.193
 5354SOL    HW216962   1.131   3.181   1.288
 5355SOL     OW16963   4.518   1.293   5.683
 5355SOL    HW116964   4.472   1.364   5.735
 5355SOL    HW216965   4.505   1.205   5.729
 5356SOL     OW16966   6.742   3.252   1.497
 5356SOL    HW116967   6.745   3.333   1.438
 5356SOL    HW216968   6.824   3.250   1.555
 5357SOL     OW16969   4.284   5.750   0.223
 5357SOL    HW116970   4.315   5.768   0.129
 5357SOL    HW216971   4.245   5.833   0.262
 5358SOL     OW16972   5.341   4.218   1.561
 5358SOL    HW116973   5.280   4.145   1.531
 5358SOL    HW216974   5.287   4.293   1.599
 5359SOL     OW16975   3.286   0.590   5.489
 5359SOL    HW116976   3.306   0.670   5.546
 5359SOL    HW216977   3.215   0.535   5.533
 5360SOL     OW16978   4.339   2.065   0.218
 5360SOL    HW116979   4.344   1.996   0.290
 5360SOL    HW216980   4.340   2.020   0.129
 5361SOL     OW16981   0.766   0.985   6.497
 5361SOL    HW116982   0.787   0.932   6.580
 5361SOL    HW216983   0.852   1.014   6.454
 5362SOL     OW16984   4.253   5.915   3.936
 5362SOL    HW116985   4.345   5.890   3.904
 5362SOL    HW216986   4.245   6.015   3.939
 5363SOL     OW16987   1.045   5.915   4.966
 5363SOL    HW116988   1.000   5.850   5.026
 5363SOL    HW216989   1.138   5.883   4.946
 5364SOL     OW16990   1.163   5.676   6.351
 5364SOL    HW116991   1.194   5.652   6.259
 5364SOL    HW216992   1.120   5.766   6.349
 5365SOL     OW16993   4.086   2.379   5.833
 5365SOL    HW116994   4.123   2.436   5.907
 5365SOL    HW216995   4.019   2.432   5.781
 5366SOL     OW16996   3.888   3.806   6.110
 5366SOL    HW116997   3.901   3.707   6.111
 5366SOL    HW216998   3.807   3.829   6.056
 5367SOL     OW16999   0.443   4.508   0.864
 5367SOL    HW117000   0.429   4.575   0.791
 5367SOL    HW217001   0.430   4.551   0.953
 5368SOL     OW17002   0.850   6.818   3.602
 5368SOL    HW117003   0.837   6.912   3.635
 5368SOL    HW217004   0.791   6.803   3.523
 5369SOL     OW17005   1.802   3.566   2.513
 5369SOL    HW117006   1.838   3.619   2.590
 5369SOL    HW217007   1.783   3.627   2.437
 5370SOL     OW17008   3.560   2.781   1.560
 5370SOL    HW117009   3.630   2.799   1.629
 5370SOL    HW217010   3.471   2.770   1.605
 5371SOL     OW17011   2.219   4.256   5.068
 5371SOL    HW117012   2.270   4.239   5.152
 5371SOL    HW217013   2.251   4.195   4.996
 5372SOL     OW17014   3.532   6.459   2.644
 5372SOL    HW117015   3.450   6.457   2.701
 5372SOL    HW217016   3.586   6.377   2.660
 5373SOL     OW17017   2.500   5.001   3.851
 5373SOL    HW117018   2.464   5.092   3.833
 5373SOL    HW217019   2.454   4.935   3.791
 5374SOL     OW17020   3.036   2.218   0.592
 5374SOL    HW117021   3.042   2.310   0.632
 5374SOL    HW217022   3.114   2.204   0.530
 5375SOL     OW17023   1.379   4.191   4.719
 5375SOL    HW117024   1.347   4.163   4.628
 5375SOL    HW217025   1.442   4.268   4.710
 5376SOL     OW17026   3.002   4.905   6.159
 5376SOL    HW117027   3.078   4.965   6.134
 5376SOL    HW217028   2.915   4.954   6.148
 5377SOL     OW17029   0.700   2.043   1.572
 5377SOL    HW117030   0.663   2.115   1.513
 5377SOL    HW217031   0.664   2.054   1.665
 5378SOL     OW17032   4.847   0.392   6.638
 5378SOL    HW117033   4.776   0.378   6.706
 5378SOL    HW217034   4.932   0.422   6.682
 5379SOL     OW17035   0.350   0.015   0.239
 5379SOL    HW117036   0.282   6.967   0.223
 5379SOL    HW217037   0.355   0.035   0.336
 5380SOL     OW17038   2.312   1.354   4.891
 5380SOL    HW117039   2.359   1.418   4.831
 5380SOL    HW217040   2.227   1.395   4.923
 5381SOL     OW17041   6.070   3.703   1.823
 5381SOL    HW117042   6.048   3.644   1.900
 5381SOL    HW217043   6.012   3.785   1.825
 5382SOL     OW17044   1.960   6.567   1.325
 5382SOL    HW117045   1.862   6.586   1.329
 5382SOL    HW217046   1.975   6.472   1.297
 5383SOL     OW17047   2.470   2.295   4.740
 5383SOL    HW117048   2.397   2.233   4.710
 5383SOL    HW217049   2.528   2.319   4.662
 5384SOL     OW17050   5.289   6.282   4.911
 5384SOL    HW117051   5.388   6.299   4.917
 5384SOL    HW217052   5.248   6.348   4.848
 5385SOL     OW17053   3.424   4.133   2.127
 5385SOL    HW117054   3.430   4.132   2.028
 5385SOL    HW217055   3.451   4.222   2.162
 5386SOL     OW17056   5.573   6.591   5.954
 5386SOL    HW117057   5.582   6.689   5.968
 5386SOL    HW217058   5.545   6.548   6.040
 5387SOL     OW17059   4.345   4.800   0.811
 5387SOL    HW117060   4.320   4.804   0.908
 5387SOL    HW217061   4.359   4.893   0.776
 5388SOL     OW17062   5.766   6.242   3.343
 5388SOL    HW117063   5.791   6.339   3.351
 5388SOL    HW217064   5.815   6.190   3.414
 5389SOL     OW17065   5.977   3.408   1.367
 5389SOL    HW117066   6.069   3.408   1.329
 5389SOL    HW217067   5.970   3.339   1.439
 5390SOL     OW17068   6.506   4.907   6.778
 5390SOL    HW117069   6.521   4.976   6.707
 5390SOL    HW217070   6.561   4.826   6.758
 5391SOL     OW17071   3.445   4.463   0.178
 5391SOL    HW117072   3.360   4.454   0.126
 5391SOL    HW217073   3.431   4.524   0.256
 5392SOL     OW17074   0.630   2.859   3.375
 5392SOL    HW117075   0.707   2.803   3.407
 5392SOL    HW217076   0.588   2.815   3.296
 5393SOL     OW17077   6.685   6.741   6.499
 5393SOL    HW117078   6.630   6.675   6.447
 5393SOL    HW217079   6.624   6.802   6.550
 5394SOL     OW17080   2.052   3.744   6.238
 5394SOL    HW117081   2.149   3.765   6.233
 5394SOL    HW217082   2.022   3.704   6.151
 5395SOL     OW17083   4.824   0.479   1.302
 5395SOL    HW117084   4.876   0.473   1.388
 5395SOL    HW217085   4.731   0.447   1.318
 5396SOL     OW17086   4.655   2.029   1.006
 5396SOL    HW117087   4.570   2.081   1.010
 5396SOL    HW217088   4.647   1.946   1.061
 5397SOL     OW17089   1.129   2.326   1.457
 5397SOL    HW117090   1.157   2.389   1.529
 5397SOL    HW217091   1.167   2.235   1.475
 5398SOL     OW17092   3.021   3.852   2.422
 5398SOL    HW117093   2.970   3.798   2.354
 5398SOL    HW217094   3.011   3.809   2.512
 5399SOL     OW17095   0.328   5.276   0.120
 5399SOL    HW117096   0.427   5.268   0.131
 5399SOL    HW217097   0.304   5.268   0.023
 5400SOL     OW17098   2.520   3.834   6.599
 5400SOL    HW117099   2.457   3.759   6.578
 5400SOL    HW217100   2.492   3.878   6.684
 5401SOL     OW17101   6.141   1.765   0.795
 5401SOL    HW117102   6.204   1.833   0.757
 5401SOL    HW217103   6.193   1.698   0.849
 5402SOL     OW17104   1.122   5.850   1.989
 5402SOL    HW117105   1.074   5.772   2.030
 5402SOL    HW217106   1.133   5.835   1.891
 5403SOL     OW17107   6.678   2.520   6.222
 5403SOL    HW117108   6.703   2.563   6.309
 5403SOL    HW217109   6.761   2.506   6.167
 5404SOL     OW17110   0.636   2.607   2.865
 5404SOL    HW117111   0.707   2.570   2.925
 5404SOL    HW217112   0.547   2.596   2.909
 5405SOL     OW17113   6.121   4.269   5.177
 5405SOL    HW117114   6.190   4.316   5.232
 5405SOL    HW217115   6.032   4.312   5.190
 5406SOL     OW17116   1.824   0.013   2.806
 5406SOL    HW117117   1.775   0.094   2.839
 5406SOL    HW217118   1.889   7.007   2.875
 5407SOL     OW17119   3.948   3.238   6.221
 5407SOL    HW117120   4.005   3.225   6.140
 5407SOL    HW217121   3.982   3.181   6.295
 5408SOL     OW17122   4.170   0.826   6.897
 5408SOL    HW117123   4.103   0.838   6.823
 5408SOL    HW217124   4.122   0.817   6.984
 5409SOL     OW17125   4.513   0.625   1.493
 5409SOL    HW117126   4.506   0.722   1.518
 5409SOL    HW217127   4.504   0.568   1.575
 5410SOL     OW17128   1.610   2.850   2.984
 5410SOL    HW117129   1.690   2.901   2.950
 5410SOL    HW217130   1.638   2.758   3.011
 5411SOL     OW17131   2.683   4.661   4.796
 5411SOL    HW117132   2.706   4.758   4.798
 5411SOL    HW217133   2.716   4.617   4.879
 5412SOL     OW17134   6.580   1.771   2.425
 5412SOL    HW117135   6.604   1.737   2.334
 5412SOL    HW217136   6.560   1.694   2.485
 5413SOL     OW17137   1.390   6.844   2.228
 5413SOL    HW117138   1.318   6.782   2.196
 5413SOL    HW217139   1.383   6.931   2.180
 5414SOL     OW17140   4.270   0.363   6.003
 5414SOL    HW117141   4.285   0.266   6.021
 5414SOL    HW217142   4.188   0.394   6.051
 5415SOL     OW17143   6.330   3.289   2.898
 5415SOL    HW117144   6.279   3.370   2.926
 5415SOL    HW217145   6.280   3.241   2.826
 5416SOL     OW17146   4.068   5.015   4.350
 5416SOL    HW117147   3.980   5.055   4.324
 5416SOL    HW217148   4.057   4.965   4.436
 5417SOL     OW17149   3.097   6.514   5.772
 5417SOL    HW117150   3.029   6.580   5.804
 5417SOL    HW217151   3.093   6.432   5.829
 5418SOL     OW17152   3.500   1.338   3.602
 5418SOL    HW117153   3.594   1.306   3.614
 5418SOL    HW217154   3.492   1.386   3.515
 5419SOL     OW17155   3.199   4.467   0.045
 5419SOL    HW117156   3.167   4.489   0.137
 5419SOL    HW217157   3.129   4.413   7.022
 5420SOL     OW17158   1.338   2.386   2.822
 5420SOL    HW117159   1.415   2.402   2.760
 5420SOL    HW217160   1.367   2.321   2.893
 5421SOL     OW17161   2.475   2.972   0.632
 5421SOL    HW117162   2.419   2.940   0.709
 5421SOL    HW217163   2.550   2.908   0.616
 5422SOL     OW17164   0.560   3.234   0.403
 5422SOL    HW117165   0.469   3.193   0.397
 5422SOL    HW217166   0.612   3.213   0.320
 5423SOL     OW17167   3.793   3.054   6.095
 5423SOL    HW117168   3.704   3.087   6.064
 5423SOL    HW217169   3.833   3.121   6.159
 5424SOL     OW17170   5.571   3.273   5.496
 5424SOL    HW117171   5.610   3.252   5.586
 5424SOL    HW217172   5.538   3.189   5.453
 5425SOL     OW17173   5.316   1.752   4.766
 5425SOL    HW117174   5.255   1.674   4.780
 5425SOL    HW217175   5.273   1.817   4.704
 5426SOL     OW17176   0.460   6.829   4.963
 5426SOL    HW117177   0.389   6.899   4.961
 5426SOL    HW217178   0.529   6.849   4.893
 5427SOL     OW17179   3.752   6.818   0.421
 5427SOL    HW117180   3.776   6.721   0.421
 5427SOL    HW217181   3.827   6.871   0.460
 5428SOL     OW17182   1.761   0.690   0.315
 5428SOL    HW117183   1.840   0.745   0.342
 5428SOL    HW217184   1.777   0.594   0.337
 5429SOL     OW17185   1.349   2.361   5.974
 5429SOL    HW117186   1.288   2.440   5.984
 5429SOL    HW217187   1.375   2.351   5.878
 5430SOL     OW17188   2.171   2.670   5.377
 5430SOL    HW117189   2.099   2.632   5.319
 5430SOL    HW217190   2.251   2.690   5.320
 5431SOL     OW17191   3.401   5.675   4.223
 5431SOL    HW117192   3.324   5.612   4.230
 5431SOL    HW217193   3.486   5.622   4.213
 5432SOL     OW17194   6.120   4.597   1.167
 5432SOL    HW117195   6.077   4.541   1.238
 5432SOL    HW217196   6.066   4.681   1.154
 5433SOL     OW17197   1.519   1.707   3.551
 5433SOL    HW117198   1.441   1.726   3.491
 5433SOL    HW217199   1.486   1.659   3.633
 5434SOL     OW17200   2.357   6.292   5.687
 5434SOL    HW117201   2.418   6.359   5.645
 5434SOL    HW217202   2.283   6.270   5.624
 5435SOL     OW17203   4.783   1.342   2.148
 5435SOL    HW117204   4.715   1.377   2.213
 5435SOL    HW217205   4.823   1.417   2.097
 5436SOL     OW17206   5.143   3.989   3.000
 5436SOL    HW117207   5.087   4.034   3.070
 5436SOL    HW217208   5.084   3.955   2.927
 5437SOL     OW17209   3.856   4.906   6.233
 5437SOL    HW117210   3.872   4.853   6.149
 5437SOL    HW217211   3.923   4.979   6.239
 5438SOL     OW17212   6.300   0.986   0.600
 5438SOL    HW117213   6.348   0.940   0.675
 5438SOL    HW217214   6.218   1.031   0.636
 5439SOL     OW17215   1.687   2.261   0.596
 5439SOL    HW117216   1.665   2.165   0.611
 5439SOL    HW217217   1.607   2.308   0.559
 5440SOL     OW17218   2.305   0.524   1.062
 5440SOL    HW117219   2.282   0.591   1.133
 5440SOL    HW217220   2.403   0.532   1.041
 5441SOL     OW17221   3.768   1.960   5.037
 5441SOL    HW117222   3.857   1.986   5.001
 5441SOL    HW217223   3.759   1.994   5.131
 5442SOL     OW17224   3.816   1.311   1.850
 5442SOL    HW117225   3.876   1.316   1.770
 5442SOL    HW217226   3.767   1.397   1.861
 5443SOL     OW17227   1.091   6.395   5.585
 5443SOL    HW117228   1.018   6.413   5.652
 5443SOL    HW217229   1.083   6.460   5.510
 5444SOL     OW17230   0.481   0.220   3.673
 5444SOL    HW117231   0.505   0.279   3.596
 5444SOL    HW217232   0.478   0.274   3.757
 5445SOL     OW17233   5.974   3.577   2.090
 5445SOL    HW117234   5.957   3.491   2.139
 5445SOL    HW217235   6.047   3.627   2.136
 5446SOL     OW17236   6.373   6.508   5.907
 5446SOL    HW117237   6.336   6.586   5.958
 5446SOL    HW217238   6.351   6.518   5.810
 5447SOL     OW17239   3.426   2.716   1.144
 5447SOL    HW117240   3.475   2.785   1.196
 5447SOL    HW217241   3.340   2.694   1.190
 5448SOL     OW17242   5.256   1.696   6.590
 5448SOL    HW117243   5.285   1.715   6.684
 5448SOL    HW217244   5.192   1.766   6.559
 5449SOL     OW17245   6.990   2.766   6.781
 5449SOL    HW117246   0.054   2.767   6.828
 5449SOL    HW217247   7.001   2.802   6.689
 5450SOL     OW17248   2.285   6.309   0.907
 5450SOL    HW117249   2.240   6.398   0.901
 5450SOL    HW217250   2.240   6.254   0.977
 5451SOL     OW17251   2.826   0.410   2.457
 5451SOL    HW117252   2.841   0.504   2.426
 5451SOL    HW217253   2.770   0.411   2.539
 5452SOL     OW17254   2.654   3.989   6.015
 5452SOL    HW117255   2.710   4.072   6.021
 5452SOL    HW217256   2.604   3.976   6.100
 5453SOL     OW17257   0.175   5.339   5.576
 5453SOL    HW117258   0.232   5.340   5.494
 5453SOL    HW217259   0.143   5.431   5.596
 5454SOL     OW17260   0.650   4.010   5.786
 5454SOL    HW117261   0.690   3.919   5.778
 5454SOL    HW217262   0.720   4.075   5.814
 5455SOL     OW17263   6.221   1.972   0.970
 5455SOL    HW117264   6.211   1.908   0.894
 5455SOL    HW217265   6.254   2.060   0.935
 5456SOL     OW17266   3.839   0.100   1.380
 5456SOL    HW117267   3.900   0.036   1.334
 5456SOL    HW217268   3.744   0.075   1.361
 5457SOL     OW17269   6.393   3.448   1.195
 5457SOL    HW117270   6.346   3.400   1.269
 5457SOL    HW217271   6.348   3.537   1.180
 5458SOL     OW17272   1.557   4.132   6.205
 5458SOL    HW117273   1.458   4.135   6.219
 5458SOL    HW217274   1.579   4.167   6.114
 5459SOL     OW17275   1.963   4.188   6.171
 5459SOL    HW117276   1.942   4.105   6.119
 5459SOL    HW217277   1.883   4.249   6.169
 5460SOL     OW17278   3.924   0.343   4.426
 5460SOL    HW117279   3.934   0.416   4.494
 5460SOL    HW217280   3.963   0.372   4.339
 5461SOL     OW17281   3.767   6.684   4.761
 5461SOL    HW117282   3.751   6.725   4.671
 5461SOL    HW217283   3.834   6.611   4.753
 5462SOL     OW17284   7.006   1.050   2.053
 5462SOL    HW117285   7.018   0.957   2.085
 5462SOL    HW217286   6.908   1.070   2.044
 5463SOL     OW17287   6.770   3.136   0.937
 5463SOL    HW117288   6.789   3.128   0.839
 5463SOL    HW217289   6.674   3.163   0.950
 5464SOL     OW17290   1.631   6.297   4.465
 5464SOL    HW117291   1.689   6.304   4.384
 5464SOL    HW217292   1.684   6.263   4.542
 5465SOL     OW17293   2.596   5.703   6.894
 5465SOL    HW117294   2.590   5.762   6.814
 5465SOL    HW217295   2.568   5.754   6.975
 5466SOL     OW17296   4.974   6.701   4.110
 5466SOL    HW117297   4.910   6.777   4.113
 5466SOL    HW217298   4.956   6.639   4.186
 5467SOL     OW17299   6.451   1.467   1.616
 5467SOL    HW117300   6.399   1.398   1.667
 5467SOL    HW217301   6.545   1.434   1.604
 5468SOL     OW17302   4.558   1.329   6.698
 5468SOL    HW117303   4.610   1.314   6.782
 5468SOL    HW217304   4.555   1.245   6.644
 5469SOL     OW17305   4.473   4.595   1.116
 5469SOL    HW117306   4.392   4.625   1.167
 5469SOL    HW217307   4.546   4.662   1.128
 5470SOL     OW17308   0.395   4.678   3.675
 5470SOL    HW117309   0.347   4.715   3.754
 5470SOL    HW217310   0.337   4.608   3.632
 5471SOL     OW17311   6.612   3.811   2.090
 5471SOL    HW117312   6.543   3.871   2.130
 5471SOL    HW217313   6.679   3.866   2.040
 5472SOL     OW17314   3.664   5.432   5.583
 5472SOL    HW117315   3.710   5.438   5.495
 5472SOL    HW217316   3.702   5.500   5.645
 5473SOL     OW17317   2.151   4.396   3.880
 5473SOL    HW117318   2.053   4.396   3.861
 5473SOL    HW217319   2.166   4.383   3.978
 5474SOL     OW17320   0.853   6.266   2.912
 5474SOL    HW117321   0.782   6.305   2.970
 5474SOL    HW217322   0.936   6.321   2.919
 5475SOL     OW17323   3.278   1.994   1.318
 5475SOL    HW117324   3.338   2.044   1.380
 5475SOL    HW217325   3.184   2.029   1.326
 5476SOL     OW17326   2.362   3.158   6.696
 5476SOL    HW117327   2.265   3.135   6.709
 5476SOL    HW217328   2.386   3.151   6.599
 5477SOL     OW17329   2.123   2.390   2.314
 5477SOL    HW117330   2.211   2.403   2.270
 5477SOL    HW217331   2.131   2.320   2.386
 5478SOL     OW17332   0.375   5.465   5.062
 5478SOL    HW117333   0.303   5.399   5.082
 5478SOL    HW217334   0.352   5.553   5.105
 5479SOL     OW17335   4.144   6.685   5.632
 5479SOL    HW117336   4.056   6.721   5.601
 5479SOL    HW217337   4.217   6.746   5.600
 5480SOL     OW17338   0.143   2.225   5.863
 5480SOL    HW117339   0.178   2.187   5.948
 5480SOL    HW217340   0.182   2.175   5.786
 5481SOL     OW17341   4.538   6.611   2.986
 5481SOL    HW117342   4.553   6.639   2.891
 5481SOL    HW217343   4.441   6.619   3.008
 5482SOL     OW17344   1.561   6.037   2.205
 5482SOL    HW117345   1.558   5.972   2.280
 5482SOL    HW217346   1.521   5.996   2.123
 5483SOL     OW17347   0.919   2.442   6.472
 5483SOL    HW117348   0.950   2.518   6.529
 5483SOL    HW217349   0.950   2.457   6.378
 5484SOL     OW17350   4.997   0.170   5.159
 5484SOL    HW117351   5.076   0.197   5.104
 5484SOL    HW217352   5.028   0.129   5.245
 5485SOL     OW17353   3.379   0.603   4.703
 5485SOL    HW117354   3.346   0.647   4.619
 5485SOL    HW217355   3.315   0.623   4.777
 5486SOL     OW17356   2.388   5.824   4.321
 5486SOL    HW117357   2.307   5.817   4.381
 5486SOL    HW217358   2.401   5.737   4.274
 5487SOL     OW17359   3.780   5.945   5.182
 5487SOL    HW117360   3.796   5.898   5.095
 5487SOL    HW217361   3.796   5.882   5.258
 5488SOL     OW17362   4.828   2.004   6.441
 5488SOL    HW117363   4.783   2.042   6.521
 5488SOL    HW217364   4.926   2.019   6.446
 5489SOL     OW17365   6.786   2.413   3.929
 5489SOL    HW117366   6.711   2.469   3.894
 5489SOL    HW217367   6.766   2.386   4.024
 5490SOL     OW17368   0.758   5.010   1.980
 5490SOL    HW117369   0.826   5.065   2.028
 5490SOL    HW217370   0.732   4.932   2.037
 5491SOL     OW17371   7.004   3.921   0.803
 5491SOL    HW117372   6.989   3.916   0.704
 5491SOL    HW217373   6.950   3.995   0.842
 5492SOL     OW17374   0.934   1.983   0.199
 5492SOL    HW117375   1.006   2.031   0.147
 5492SOL    HW217376   0.971   1.898   0.236
 5493SOL     OW17377   4.275   3.674   5.984
 5493SOL    HW117378   4.301   3.627   6.068
 5493SOL    HW217379   4.297   3.618   5.905
 5494SOL     OW17380   5.940   2.064   4.737
 5494SOL    HW117381   5.995   2.059   4.821
 5494SOL    HW217382   5.903   2.156   4.727
 5495SOL     OW17383   5.968   1.081   0.266
 5495SOL    HW117384   6.034   1.007   0.250
 5495SOL    HW217385   5.952   1.092   0.364
 5496SOL     OW17386   4.113   6.461   6.089
 5496SOL    HW117387   4.144   6.366   6.094
 5496SOL    HW217388   4.024   6.469   6.134
 5497SOL     OW17389   0.925   0.280   6.186
 5497SOL    HW117390   0.934   0.271   6.285
 5497SOL    HW217391   0.956   0.371   6.158
 5498SOL     OW17392   0.003   5.731   2.013
 5498SOL    HW117393   0.078   5.666   1.998
 5498SOL    HW217394   0.036   5.809   2.066
 5499SOL     OW17395   2.124   6.994   3.402
 5499SOL    HW117396   2.131   6.972   3.499
 5499SOL    HW217397   2.100   0.066   3.391
 5500SOL     OW17398   0.843   6.204   1.509
 5500SOL    HW117399   0.796   6.226   1.424
 5500SOL    HW217400   0.942   6.219   1.498
 5501SOL     OW17401   5.193   3.544   0.746
 5501SOL    HW117402   5.188   3.445   0.730
 5501SOL    HW217403   5.100   3.582   0.746
 5502SOL     OW17404   4.607   3.507   0.322
 5502SOL    HW117405   4.664   3.526   0.242
 5502SOL    HW217406   4.557   3.422   0.309
 5503SOL     OW17407   5.773   2.843   1.193
 5503SOL    HW117408   5.796   2.939   1.210
 5503SOL    HW217409   5.705   2.837   1.120
 5504SOL     OW17410   3.288   2.400   6.961
 5504SOL    HW117411   3.307   2.351   6.876
 5504SOL    HW217412   3.198   2.443   6.955
 5505SOL     OW17413   2.643   5.378   2.463
 5505SOL    HW117414   2.688   5.289   2.467
 5505SOL    HW217415   2.658   5.427   2.549
 5506SOL     OW17416   6.524   2.878   6.659
 5506SOL    HW117417   6.441   2.832   6.691
 5506SOL    HW217418   6.538   2.859   6.562
 5507SOL     OW17419   4.307   6.143   6.609
 5507SOL    HW117420   4.244   6.066   6.596
 5507SOL    HW217421   4.258   6.219   6.651
 5508SOL     OW17422   6.753   2.654   6.471
 5508SOL    HW117423   6.818   2.594   6.517
 5508SOL    HW217424   6.802   2.722   6.417
 5509SOL     OW17425   5.961   4.246   0.398
 5509SOL    HW117426   5.873   4.285   0.425
 5509SOL    HW217427   5.972   4.155   0.439
 5510SOL     OW17428   5.476   6.394   6.725
 5510SOL    HW117429   5.478   6.347   6.813
 5510SOL    HW217430   5.566   6.389   6.682
 5511SOL     OW17431   1.019   2.772   6.082
 5511SOL    HW117432   0.992   2.800   5.990
 5511SOL    HW217433   1.026   2.853   6.141
 5512SOL     OW17434   3.287   0.037   2.085
 5512SOL    HW117435   3.343   0.087   2.018
 5512SOL    HW217436   3.335   6.977   2.111
 5513SOL     OW17437   4.058   4.751   6.420
 5513SOL    HW117438   4.116   4.814   6.472
 5513SOL    HW217439   3.982   4.802   6.379
 5514SOL     OW17440   3.946   1.765   6.922
 5514SOL    HW117441   3.908   1.684   6.966
 5514SOL    HW217442   3.881   1.800   6.855
 5515SOL     OW17443   3.445   5.026   2.569
 5515SOL    HW117444   3.382   4.987   2.501
 5515SOL    HW217445   3.398   5.099   2.619
 5516SOL     OW17446   1.004   3.139   5.801
 5516SOL    HW117447   1.011   3.042   5.823
 5516SOL    HW217448   0.908   3.163   5.783
 5517SOL     OW17449   1.139   2.108   4.478
 5517SOL    HW117450   1.165   2.023   4.524
 5517SOL    HW217451   1.213   2.175   4.488
 5518SOL     OW17452   4.005   4.062   5.708
 5518SOL    HW117453   3.906   4.070   5.711
 5518SOL    HW217454   4.046   4.153   5.704
 5519SOL     OW17455   5.338   2.705   5.645
 5519SOL    HW117456   5.275   2.758   5.702
 5519SOL    HW217457   5.372   2.627   5.697
 5520SOL     OW17458   4.665   5.653   1.558
 5520SOL    HW117459   4.650   5.752   1.561
 5520SOL    HW217460   4.759   5.635   1.531
 5521SOL     OW17461   4.892   0.105   2.067
 5521SOL    HW117462   4.939   0.023   2.100
 5521SOL    HW217463   4.863   0.091   1.972
 5522SOL     OW17464   5.100   6.265   6.802
 5522SOL    HW117465   5.012   6.240   6.762
 5522SOL    HW217466   5.101   6.239   6.899
 5523SOL     OW17467   5.502   1.703   0.391
 5523SOL    HW117468   5.538   1.614   0.417
 5523SOL    HW217469   5.528   1.771   0.459
 5524SOL     OW17470   1.891   2.003   2.607
 5524SOL    HW117471   1.917   1.976   2.514
 5524SOL    HW217472   1.957   1.966   2.672
 5525SOL     OW17473   6.440   1.053   0.911
 5525SOL    HW117474   6.405   0.968   0.870
 5525SOL    HW217475   6.476   1.033   1.002
 5526SOL     OW17476   4.794   4.132   3.969
 5526SOL    HW117477   4.813   4.037   3.994
 5526SOL    HW217478   4.789   4.140   3.870
 5527SOL     OW17479   6.442   0.174   2.867
 5527SOL    HW117480   6.351   0.197   2.901
 5527SOL    HW217481   6.438   0.156   2.769
 5528SOL     OW17482   2.146   1.364   0.180
 5528SOL    HW117483   2.171   1.391   0.087
 5528SOL    HW217484   2.047   1.370   0.191
 5529SOL     OW17485   3.526   0.572   1.929
 5529SOL    HW117486   3.477   0.559   2.014
 5529SOL    HW217487   3.548   0.669   1.918
 5530SOL     OW17488   1.076   1.783   1.098
 5530SOL    HW117489   1.004   1.820   1.156
 5530SOL    HW217490   1.056   1.687   1.076
 5531SOL     OW17491   0.956   4.289   6.943
 5531SOL    HW117492   0.942   4.365   7.006
 5531SOL    HW217493   0.892   4.215   6.965
 5532SOL     OW17494   0.312   4.738   6.053
 5532SOL    HW117495   0.216   4.739   6.023
 5532SOL    HW217496   0.324   4.669   6.124
 5533SOL     OW17497   3.424   1.112   3.719
 5533SOL    HW117498   3.437   1.210   3.707
 5533SOL    HW217499   3.492   1.077   3.784
 5534SOL     OW17500   1.465   0.309   4.427
 5534SOL    HW117501   1.500   0.298   4.520
 5534SOL    HW217502   1.365   0.319   4.430
 5535SOL     OW17503   0.908   1.689   2.379
 5535SOL    HW117504   1.006   1.684   2.398
 5535SOL    HW217505   0.861   1.726   2.460
 5536SOL     OW17506   4.717   0.516   4.762
 5536SOL    HW117507   4.696   0.492   4.856
 5536SOL    HW217508   4.753   0.610   4.758
 5537SOL     OW17509   2.601   2.223   2.583
 5537SOL    HW117510   2.604   2.277   2.668
 5537SOL    HW217511   2.677   2.159   2.582
 5538SOL     OW17512   3.523   5.718   3.906
 5538SOL    HW117513   3.426   5.697   3.898
 5538SOL    HW217514   3.574   5.665   3.839
 5539SOL     OW17515   2.551   3.824   0.241
 5539SOL    HW117516   2.559   3.887   0.318
 5539SOL    HW217517   2.463   3.837   0.195
 5540SOL     OW17518   3.898   5.616   1.478
 5540SOL    HW117519   3.799   5.609   1.489
 5540SOL    HW217520   3.924   5.581   1.388
 5541SOL     OW17521   4.440   0.571   6.593
 5541SOL    HW117522   4.462   0.668   6.592
 5541SOL    HW217523   4.506   0.521   6.538
 5542SOL     OW17524   5.489   3.730   6.889
 5542SOL    HW117525   5.551   3.808   6.898
 5542SOL    HW217526   5.405   3.759   6.843
 5543SOL     OW17527   0.718   2.877   5.038
 5543SOL    HW117528   0.773   2.802   5.001
 5543SOL    HW217529   0.771   2.925   5.108
 5544SOL     OW17530   5.299   6.700   0.354
 5544SOL    HW117531   5.263   6.731   0.266
 5544SOL    HW217532   5.389   6.657   0.341
 5545SOL     OW17533   2.592   2.399   2.043
 5545SOL    HW117534   2.692   2.404   2.050
 5545SOL    HW217535   2.564   2.423   1.950
 5546SOL     OW17536   3.071   5.766   4.521
 5546SOL    HW117537   3.128   5.819   4.457
 5546SOL    HW217538   3.119   5.755   4.608
 5547SOL     OW17539   2.936   5.130   3.736
 5547SOL    HW117540   3.015   5.123   3.797
 5547SOL    HW217541   2.925   5.045   3.684
 5548SOL     OW17542   6.620   1.488   4.272
 5548SOL    HW117543   6.628   1.526   4.365
 5548SOL    HW217544   6.711   1.478   4.233
 5549SOL     OW17545   3.709   5.077   5.426
 5549SOL    HW117546   3.687   5.015   5.351
 5549SOL    HW217547   3.694   5.172   5.396
 5550SOL     OW17548   3.167   6.200   2.386
 5550SOL    HW117549   3.094   6.135   2.411
 5550SOL    HW217550   3.222   6.161   2.313
 5551SOL     OW17551   0.624   1.260   2.422
 5551SOL    HW117552   0.664   1.329   2.362
 5551SOL    HW217553   0.539   1.294   2.460
 5552SOL     OW17554   2.247   2.830   1.935
 5552SOL    HW117555   2.339   2.840   1.897
 5552SOL    HW217556   2.247   2.760   2.007
 5553SOL     OW17557   4.569   6.725   6.293
 5553SOL    HW117558   4.510   6.710   6.372
 5553SOL    HW217559   4.535   6.803   6.240
 5554SOL     OW17560   3.169   0.257   5.851
 5554SOL    HW117561   3.256   0.226   5.814
 5554SOL    HW217562   3.186   0.312   5.933
 5555SOL     OW17563   1.395   5.936   1.416
 5555SOL    HW117564   1.316   5.934   1.355
 5555SOL    HW217565   1.479   5.944   1.363
 5556SOL     OW17566   0.072   1.190   5.029
 5556SOL    HW117567   7.002   1.186   5.060
 5556SOL    HW217568   0.094   1.284   5.002
 5557SOL     OW17569   3.450   0.880   2.463
 5557SOL    HW117570   3.418   0.922   2.548
 5557SOL    HW217571   3.393   0.801   2.442
 5558SOL     OW17572   5.553   2.814   6.793
 5558SOL    HW117573   5.590   2.779   6.879
 5558SOL    HW217574   5.520   2.738   6.738
 5559SOL     OW17575   3.671   1.188   0.922
 5559SOL    HW117576   3.614   1.172   0.842
 5559SOL    HW217577   3.674   1.105   0.978
 5560SOL     OW17578   0.246   2.249   4.621
 5560SOL    HW117579   0.285   2.340   4.604
 5560SOL    HW217580   0.183   2.226   4.547
 5561SOL     OW17581   1.358   4.771   2.505
 5561SOL    HW117582   1.366   4.824   2.589
 5561SOL    HW217583   1.431   4.703   2.502
 5562SOL     OW17584   4.501   2.679   0.277
 5562SOL    HW117585   4.572   2.748   0.269
 5562SOL    HW217586   4.535   2.592   0.241
 5563SOL     OW17587   3.858   4.467   1.124
 5563SOL    HW117588   3.825   4.402   1.055
 5563SOL    HW217589   3.926   4.421   1.182
 5564SOL     OW17590   6.317   0.914   2.465
 5564SOL    HW117591   6.383   0.850   2.503
 5564SOL    HW217592   6.246   0.933   2.532
 5565SOL     OW17593   1.974   2.813   5.919
 5565SOL    HW117594   1.876   2.825   5.933
 5565SOL    HW217595   1.991   2.726   5.873
 5566SOL     OW17596   2.218   4.227   0.762
 5566SOL    HW117597   2.257   4.292   0.827
 5566SOL    HW217598   2.267   4.140   0.769
 5567SOL     OW17599   1.224   5.834   3.160
 5567SOL    HW117600   1.189   5.784   3.081
 5567SOL    HW217601   1.232   5.931   3.138
 5568SOL     OW17602   4.168   2.772   6.649
 5568SOL    HW117603   4.117   2.768   6.564
 5568SOL    HW217604   4.144   2.856   6.698
 5569SOL     OW17605   4.340   1.268   6.132
 5569SOL    HW117606   4.301   1.211   6.059
 5569SOL    HW217607   4.384   1.348   6.092
 5570SOL     OW17608   1.737   1.680   5.545
 5570SOL    HW117609   1.670   1.686   5.471
 5570SOL    HW217610   1.830   1.679   5.507
 5571SOL     OW17611   0.379   4.471   6.793
 5571SOL    HW117612   0.357   4.374   6.799
 5571SOL    HW217613   0.478   4.483   6.801
 5572SOL     OW17614   1.132   3.701   5.356
 5572SOL    HW117615   1.137   3.611   5.313
 5572SOL    HW217616   1.168   3.696   5.449
 5573SOL     OW17617   6.862   3.759   6.587
 5573SOL    HW117618   6.810   3.702   6.650
 5573SOL    HW217619   6.817   3.847   6.576
 5574SOL     OW17620   2.372   6.338   4.838
 5574SOL    HW117621   2.292   6.383   4.879
 5574SOL    HW217622   2.430   6.301   4.911
 5575SOL     OW17623   0.971   1.301   2.665
 5575SOL    HW117624   0.998   1.229   2.602
 5575SOL    HW217625   1.053   1.341   2.707
 5576SOL     OW17626   5.222   6.897   6.489
 5576SOL    HW117627   5.169   6.968   6.535
 5576SOL    HW217628   5.316   6.897   6.523
 5577SOL     OW17629   1.355   5.105   5.051
 5577SOL    HW117630   1.449   5.076   5.034
 5577SOL    HW217631   1.299   5.025   5.076
 5578SOL     OW17632   4.307   1.845   6.368
 5578SOL    HW117633   4.361   1.825   6.287
 5578SOL    HW217634   4.217   1.879   6.341
 5579SOL     OW17635   4.726   4.927   2.129
 5579SOL    HW117636   4.814   4.941   2.083
 5579SOL    HW217637   4.733   4.848   2.190
 5580SOL     OW17638   6.455   1.382   2.253
 5580SOL    HW117639   6.370   1.341   2.285
 5580SOL    HW217640   6.454   1.384   2.153
 5581SOL     OW17641   3.534   3.148   0.670
 5581SOL    HW117642   3.489   3.116   0.587
 5581SOL    HW217643   3.605   3.215   0.646
 5582SOL     OW17644   2.910   3.843   5.265
 5582SOL    HW117645   2.903   3.894   5.180
 5582SOL    HW217646   2.826   3.790   5.280
 5583SOL     OW17647   4.203   1.142   6.336
 5583SOL    HW117648   4.251   1.166   6.252
 5583SOL    HW217649   4.172   1.225   6.382
 5584SOL     OW17650   4.994   3.553   4.548
 5584SOL    HW117651   5.024   3.514   4.635
 5584SOL    HW217652   4.969   3.480   4.485
 5585SOL     OW17653   0.146   0.824   3.720
 5585SOL    HW117654   0.059   0.781   3.743
 5585SOL    HW217655   0.168   0.807   3.624
 5586SOL     OW17656   1.626   0.894   0.051
 5586SOL    HW117657   1.573   0.862   0.129
 5586SOL    HW217658   1.617   0.994   0.043
 5587SOL     OW17659   3.861   0.067   3.297
 5587SOL    HW117660   3.923   0.074   3.375
 5587SOL    HW217661   3.914   0.060   3.212
 5588SOL     OW17662   4.636   5.505   0.282
 5588SOL    HW117663   4.593   5.481   0.369
 5588SOL    HW217664   4.566   5.512   0.211
 5589SOL     OW17665   1.268   2.565   6.388
 5589SOL    HW117666   1.362   2.592   6.368
 5589SOL    HW217667   1.251   2.474   6.352
 5590SOL     OW17668   5.908   0.349   3.681
 5590SOL    HW117669   5.958   0.424   3.638
 5590SOL    HW217670   5.900   0.366   3.779
 5591SOL     OW17671   5.164   1.375   6.007
 5591SOL    HW117672   5.229   1.358   6.081
 5591SOL    HW217673   5.118   1.462   6.023
 5592SOL     OW17674   0.856   3.262   2.584
 5592SOL    HW117675   0.885   3.336   2.523
 5592SOL    HW217676   0.830   3.300   2.673
 5593SOL     OW17677   2.537   3.396   5.398
 5593SOL    HW117678   2.605   3.326   5.376
 5593SOL    HW217679   2.445   3.359   5.387
 5594SOL     OW17680   2.930   1.147   5.798
 5594SOL    HW117681   2.985   1.222   5.836
 5594SOL    HW217682   2.879   1.180   5.719
 5595SOL     OW17683   6.830   3.653   1.083
 5595SOL    HW117684   6.764   3.600   1.136
 5595SOL    HW217685   6.798   3.662   0.989
 5596SOL     OW17686   5.184   3.746   3.952
 5596SOL    HW117687   5.119   3.718   3.881
 5596SOL    HW217688   5.217   3.839   3.932
 5597SOL     OW17689   0.638   2.128   6.823
 5597SOL    HW117690   0.675   2.039   6.850
 5597SOL    HW217691   0.668   2.197   6.889
 5598SOL     OW17692   6.634   0.243   3.039
 5598SOL    HW117693   6.700   0.168   3.045
 5598SOL    HW217694   6.576   0.230   2.959
 5599SOL     OW17695   4.879   3.104   2.569
 5599SOL    HW117696   4.849   3.177   2.631
 5599SOL    HW217697   4.969   3.071   2.598
 5600SOL     OW17698   2.136   3.218   2.070
 5600SOL    HW117699   2.204   3.178   2.132
 5600SOL    HW217700   2.162   3.313   2.049
 5601SOL     OW17701   5.168   2.708   6.625
 5601SOL    HW117702   5.259   2.678   6.653
 5601SOL    HW217703   5.121   2.748   6.703
 5602SOL     OW17704   5.368   1.113   3.085
 5602SOL    HW117705   5.395   1.018   3.069
 5602SOL    HW217706   5.307   1.144   3.012
 5603SOL     OW17707   3.675   1.422   6.379
 5603SOL    HW117708   3.728   1.397   6.298
 5603SOL    HW217709   3.631   1.340   6.417
 5604SOL     OW17710   1.854   4.003   3.893
 5604SOL    HW117711   1.806   3.981   3.808
 5604SOL    HW217712   1.952   3.996   3.879
 5605SOL     OW17713   3.121   6.738   4.402
 5605SOL    HW117714   3.211   6.747   4.360
 5605SOL    HW217715   3.085   6.828   4.425
 5606SOL     OW17716   4.161   4.558   1.003
 5606SOL    HW117717   4.094   4.485   1.016
 5606SOL    HW217718   4.160   4.586   0.907
 5607SOL     OW17719   1.375   2.000   1.621
 5607SOL    HW117720   1.315   1.996   1.541
 5607SOL    HW217721   1.435   2.080   1.615
 5608SOL     OW17722   6.710   6.611   3.742
 5608SOL    HW117723   6.800   6.571   3.755
 5608SOL    HW217724   6.648   6.543   3.702
 5609SOL     OW17725   0.464   1.170   0.432
 5609SOL    HW117726   0.424   1.177   0.524
 5609SOL    HW217727   0.519   1.087   0.427
 5610SOL     OW17728   5.122   6.515   6.416
 5610SOL    HW117729   5.199   6.527   6.353
 5610SOL    HW217730   5.041   6.486   6.364
 5611SOL     OW17731   0.218   4.105   1.984
 5611SOL    HW117732   0.141   4.159   2.020
 5611SOL    HW217733   0.185   4.046   1.911
 5612SOL     OW17734   5.321   1.912   1.013
 5612SOL    HW117735   5.289   1.818   1.031
 5612SOL    HW217736   5.364   1.948   1.095
 5613SOL     OW17737   6.905   5.384   5.319
 5613SOL    HW117738   6.901   5.378   5.219
 5613SOL    HW217739   6.815   5.408   5.355
 5614SOL     OW17740   5.817   2.279   4.579
 5614SOL    HW117741   5.770   2.283   4.490
 5614SOL    HW217742   5.782   2.352   4.638
 5615SOL     OW17743   0.781   3.444   2.762
 5615SOL    HW117744   0.794   3.534   2.720
 5615SOL    HW217745   0.801   3.450   2.860
 5616SOL     OW17746   1.569   2.896   2.138
 5616SOL    HW117747   1.633   2.837   2.187
 5616SOL    HW217748   1.568   2.871   2.041
 5617SOL     OW17749   0.555   5.165   5.313
 5617SOL    HW117750   0.617   5.102   5.361
 5617SOL    HW217751   0.547   5.137   5.218
 5618SOL     OW17752   5.321   1.126   3.378
 5618SOL    HW117753   5.404   1.071   3.379
 5618SOL    HW217754   5.309   1.166   3.287
 5619SOL     OW17755   3.762   4.091   3.844
 5619SOL    HW117756   3.833   4.117   3.778
 5619SOL    HW217757   3.804   4.052   3.925
 5620SOL     OW17758   4.919   4.549   5.596
 5620SOL    HW117759   4.843   4.567   5.659
 5620SOL    HW217760   4.971   4.470   5.628
 5621SOL     OW17761   0.466   3.580   0.358
 5621SOL    HW117762   0.477   3.622   0.448
 5621SOL    HW217763   0.500   3.486   0.360
 5622SOL     OW17764   5.302   5.625   4.098
 5622SOL    HW117765   5.237   5.576   4.156
 5622SOL    HW217766   5.305   5.721   4.126
 5623SOL     OW17767   4.659   4.510   3.493
 5623SOL    HW117768   4.621   4.585   3.547
 5623SOL    HW217769   4.599   4.491   3.415
 5624SOL     OW17770   4.908   3.715   4.096
 5624SOL    HW117771   4.879   3.619   4.091
 5624SOL    HW217772   4.912   3.743   4.192
 5625SOL     OW17773   3.846   0.324   6.370
 5625SOL    HW117774   3.756   0.296   6.337
 5625SOL    HW217775   3.840   0.418   6.406
 5626SOL     OW17776   1.614   4.165   5.917
 5626SOL    HW117777   1.572   4.148   5.828
 5626SOL    HW217778   1.704   4.206   5.904
 5627SOL     OW17779   0.467   5.179   0.753
 5627SOL    HW117780   0.557   5.223   0.755
 5627SOL    HW217781   0.429   5.185   0.660
 5628SOL     OW17782   0.947   2.707   6.642
 5628SOL    HW117783   0.850   2.733   6.642
 5628SOL    HW217784   0.977   2.692   6.736
 5629SOL     OW17785   0.764   3.428   5.304
 5629SOL    HW117786   0.784   3.387   5.215
 5629SOL    HW217787   0.848   3.430   5.358
 5630SOL     OW17788   0.741   4.403   6.725
 5630SOL    HW117789   0.748   4.424   6.822
 5630SOL    HW217790   0.786   4.316   6.706
 5631SOL     OW17791   2.649   0.910   3.808
 5631SOL    HW117792   2.596   0.944   3.886
 5631SOL    HW217793   2.716   0.844   3.840
 5632SOL     OW17794   2.979   6.559   6.437
 5632SOL    HW117795   2.891   6.529   6.402
 5632SOL    HW217796   3.052   6.519   6.382
 5633SOL     OW17797   1.876   5.305   5.021
 5633SOL    HW117798   1.955   5.365   5.009
 5633SOL    HW217799   1.897   5.214   4.986
 5634SOL     OW17800   1.986   0.243   1.368
 5634SOL    HW117801   2.057   0.291   1.316
 5634SOL    HW217802   2.018   0.226   1.461
 5635SOL     OW17803   4.353   0.778   3.115
 5635SOL    HW117804   4.310   0.841   3.180
 5635SOL    HW217805   4.327   0.802   3.022
 5636SOL     OW17806   5.075   0.544   4.751
 5636SOL    HW117807   4.987   0.511   4.785
 5636SOL    HW217808   5.072   0.644   4.742
 5637SOL     OW17809   6.045   0.142   5.310
 5637SOL    HW117810   6.026   0.240   5.312
 5637SOL    HW217811   5.961   0.092   5.332
 5638SOL     OW17812   1.444   6.563   0.016
 5638SOL    HW117813   1.539   6.538   0.038
 5638SOL    HW217814   1.388   6.556   0.099
 5639SOL     OW17815   3.777   7.006   1.768
 5639SOL    HW117816   3.844   0.013   1.701
 5639SOL    HW217817   3.707   6.952   1.723
 5640SOL     OW17818   4.701   6.327   4.260
 5640SOL    HW117819   4.742   6.417   4.250
 5640SOL    HW217820   4.631   6.314   4.189
 5641SOL     OW17821   6.565   4.686   3.682
 5641SOL    HW117822   6.519   4.606   3.645
 5641SOL    HW217823   6.588   4.670   3.778
 5642SOL     OW17824   2.194   2.162   6.261
 5642SOL    HW117825   2.249   2.082   6.282
 5642SOL    HW217826   2.182   2.217   6.344
 5643SOL     OW17827   4.992   2.384   3.401
 5643SOL    HW117828   4.896   2.370   3.424
 5643SOL    HW217829   5.038   2.296   3.397
 5644SOL     OW17830   2.725   0.878   5.716
 5644SOL    HW117831   2.755   0.974   5.715
 5644SOL    HW217832   2.779   0.826   5.649
 5645SOL     OW17833   6.572   6.006   4.495
 5645SOL    HW117834   6.576   6.080   4.563
 5645SOL    HW217835   6.563   6.046   4.403
 5646SOL     OW17836   6.737   0.789   2.571
 5646SOL    HW117837   6.781   0.790   2.481
 5646SOL    HW217838   6.770   0.712   2.624
 5647SOL     OW17839   5.759   3.444   6.573
 5647SOL    HW117840   5.722   3.529   6.609
 5647SOL    HW217841   5.830   3.410   6.635
 5648SOL     OW17842   1.856   1.881   4.078
 5648SOL    HW117843   1.888   1.965   4.034
 5648SOL    HW217844   1.772   1.850   4.033
 5649SOL     OW17845   6.814   0.567   4.837
 5649SOL    HW117846   6.765   0.505   4.897
 5649SOL    HW217847   6.812   0.660   4.875
 5650SOL     OW17848   5.978   4.630   5.903
 5650SOL    HW117849   5.882   4.605   5.916
 5650SOL    HW217850   6.036   4.560   5.944
 5651SOL     OW17851   5.705   0.634   3.069
 5651SOL    HW117852   5.749   0.577   3.137
 5651SOL    HW217853   5.724   0.730   3.088
 5652SOL     OW17854   3.811   4.093   6.451
 5652SOL    HW117855   3.774   4.094   6.358
 5652SOL    HW217856   3.911   4.095   6.446
 5653SOL     OW17857   2.220   6.572   5.828
 5653SOL    HW117858   2.233   6.633   5.906
 5653SOL    HW217859   2.141   6.513   5.843
 5654SOL     OW17860   2.754   6.640   0.110
 5654SOL    HW117861   2.788   6.710   0.049
 5654SOL    HW217862   2.654   6.639   0.108
 5655SOL     OW17863   5.913   5.422   2.069
 5655SOL    HW117864   5.930   5.388   2.161
 5655SOL    HW217865   5.816   5.440   2.057
 5656SOL     OW17866   2.787   4.418   6.358
 5656SOL    HW117867   2.791   4.498   6.297
 5656SOL    HW217868   2.826   4.339   6.312
 5657SOL     OW17869   5.147   5.575   2.037
 5657SOL    HW117870   5.218   5.585   1.968
 5657SOL    HW217871   5.129   5.477   2.051
 5658SOL     OW17872   4.394   6.728   6.492
 5658SOL    HW117873   4.374   6.825   6.506
 5658SOL    HW217874   4.308   6.678   6.484
 5659SOL     OW17875   2.848   3.551   2.570
 5659SOL    HW117876   2.894   3.492   2.636
 5659SOL    HW217877   2.880   3.645   2.582
 5660SOL     OW17878   0.740   4.546   1.851
 5660SOL    HW117879   0.745   4.497   1.938
 5660SOL    HW217880   0.814   4.614   1.847
 5661SOL     OW17881   5.967   5.813   4.789
 5661SOL    HW117882   5.977   5.912   4.777
 5661SOL    HW217883   5.873   5.793   4.818
 5662SOL     OW17884   1.630   4.161   4.867
 5662SOL    HW117885   1.556   4.112   4.821
 5662SOL    HW217886   1.655   4.114   4.952
 5663SOL     OW17887   2.434   3.661   0.425
 5663SOL    HW117888   2.473   3.685   0.514
 5663SOL    HW217889   2.474   3.719   0.354
 5664SOL     OW17890   6.607   6.827   1.193
 5664SOL    HW117891   6.601   6.744   1.249
 5664SOL    HW217892   6.573   6.807   1.101
 5665SOL     OW17893   1.317   0.666   5.986
 5665SOL    HW117894   1.297   0.573   5.954
 5665SOL    HW217895   1.310   0.729   5.908
 5666SOL     OW17896   4.939   6.119   6.440
 5666SOL    HW117897   4.924   6.109   6.341
 5666SOL    HW217898   5.030   6.155   6.456
 5667SOL     OW17899   5.050   4.678   3.615
 5667SOL    HW117900   5.085   4.617   3.543
 5667SOL    HW217901   4.973   4.634   3.661
 5668SOL     OW17902   6.492   2.516   6.565
 5668SOL    HW117903   6.405   2.563   6.550
 5668SOL    HW217904   6.567   2.581   6.560
 5669SOL     OW17905   0.736   1.968   5.594
 5669SOL    HW117906   0.735   1.901   5.519
 5669SOL    HW217907   0.647   2.014   5.598
 5670SOL     OW17908   1.310   2.619   2.269
 5670SOL    HW117909   1.257   2.683   2.324
 5670SOL    HW217910   1.306   2.647   2.173
 5671SOL     OW17911   0.356   0.443   6.060
 5671SOL    HW117912   0.450   0.410   6.067
 5671SOL    HW217913   0.338   0.473   5.966
 5672SOL     OW17914   4.186   4.512   5.787
 5672SOL    HW117915   4.129   4.430   5.792
 5672SOL    HW217916   4.230   4.516   5.698
 5673SOL     OW17917   1.943   6.308   1.229
 5673SOL    HW117918   1.979   6.220   1.260
 5673SOL    HW217919   1.918   6.302   1.133
 5674SOL     OW17920   0.557   2.946   0.513
 5674SOL    HW117921   0.616   2.876   0.554
 5674SOL    HW217922   0.581   2.957   0.417
 5675SOL     OW17923   4.026   1.496   5.922
 5675SOL    HW117924   3.967   1.573   5.946
 5675SOL    HW217925   3.975   1.431   5.866
 5676SOL     OW17926   2.383   6.276   2.042
 5676SOL    HW117927   2.305   6.234   2.089
 5676SOL    HW217928   2.466   6.263   2.096
 5677SOL     OW17929   5.831   0.448   3.268
 5677SOL    HW117930   5.781   0.393   3.335
 5677SOL    HW217931   5.921   0.471   3.304
 5678SOL     OW17932   1.333   5.805   2.565
 5678SOL    HW117933   1.305   5.734   2.629
 5678SOL    HW217934   1.271   5.805   2.486
 5679SOL     OW17935   3.980   5.693   5.573
 5679SOL    HW117936   4.012   5.787   5.583
 5679SOL    HW217937   3.926   5.685   5.490
 5680SOL     OW17938   1.178   0.352   6.436
 5680SOL    HW117939   1.217   0.344   6.528
 5680SOL    HW217940   1.107   0.423   6.436
 5681SOL     OW17941   3.281   3.539   0.249
 5681SOL    HW117942   3.268   3.461   0.312
 5681SOL    HW217943   3.374   3.574   0.259
 5682SOL     OW17944   2.270   4.128   4.622
 5682SOL    HW117945   2.228   4.127   4.531
 5682SOL    HW217946   2.366   4.105   4.614
 5683SOL     OW17947   3.355   3.768   5.124
 5683SOL    HW117948   3.291   3.812   5.062
 5683SOL    HW217949   3.304   3.718   5.194
 5684SOL     OW17950   3.440   4.118   2.599
 5684SOL    HW117951   3.355   4.113   2.546
 5684SOL    HW217952   3.423   4.085   2.692
 5685SOL     OW17953   0.179   0.197   1.584
 5685SOL    HW117954   0.132   0.273   1.628
 5685SOL    HW217955   0.278   0.208   1.595
 5686SOL     OW17956   3.676   4.900   6.624
 5686SOL    HW117957   3.625   4.858   6.549
 5686SOL    HW217958   3.694   4.996   6.603
 5687SOL     OW17959   4.796   6.790   5.986
 5687SOL    HW117960   4.696   6.790   5.983
 5687SOL    HW217961   4.827   6.772   6.079
 5688SOL     OW17962   5.337   1.273   2.448
 5688SOL    HW117963   5.278   1.214   2.392
 5688SOL    HW217964   5.280   1.329   2.508
 5689SOL     OW17965   3.814   3.062   5.168
 5689SOL    HW117966   3.885   3.128   5.193
 5689SOL    HW217967   3.827   3.033   5.073
 5690SOL     OW17968   3.534   0.632   3.419
 5690SOL    HW117969   3.474   0.577   3.360
 5690SOL    HW217970   3.508   0.728   3.412
 5691SOL     OW17971   3.191   0.301   4.393
 5691SOL    HW117972   3.290   0.320   4.390
 5691SOL    HW217973   3.168   0.260   4.481
 5692SOL     OW17974   5.768   2.885   0.459
 5692SOL    HW117975   5.722   2.875   0.547
 5692SOL    HW217976   5.828   2.806   0.443
 5693SOL     OW17977   5.447   3.341   1.765
 5693SOL    HW117978   5.414   3.433   1.787
 5693SOL    HW217979   5.506   3.346   1.684
 5694SOL     OW17980   1.992   2.600   5.197
 5694SOL    HW117981   1.915   2.538   5.186
 5694SOL    HW217982   2.028   2.625   5.107
 5695SOL     OW17983   1.851   3.345   3.396
 5695SOL    HW117984   1.871   3.252   3.365
 5695SOL    HW217985   1.935   3.399   3.395
 5696SOL     OW17986   3.238   1.479   6.620
 5696SOL    HW117987   3.300   1.547   6.659
 5696SOL    HW217988   3.284   1.433   6.543
 5697SOL     OW17989   0.042   3.803   1.038
 5697SOL    HW117990   0.037   3.848   0.949
 5697SOL    HW217991   6.982   3.753   1.056
 5698SOL     OW17992   1.845   4.656   4.328
 5698SOL    HW117993   1.919   4.590   4.316
 5698SOL    HW217994   1.767   4.629   4.271
 5699SOL     OW17995   0.831   2.165   5.396
 5699SOL    HW117996   0.817   2.091   5.462
 5699SOL    HW217997   0.903   2.139   5.332
 5700SOL     OW17998   1.523   4.816   4.217
 5700SOL    HW117999   1.589   4.745   4.192
 5700SOL    HW218000   1.540   4.898   4.163
 5701SOL     OW18001   4.960   2.250   2.486
 5701SOL    HW118002   5.002   2.311   2.418
 5701SOL    HW218003   5.028   2.225   2.554
 5702SOL     OW18004   4.093   0.527   6.979
 5702SOL    HW118005   4.174   0.527   6.921
 5702SOL    HW218006   4.090   0.612   0.007
 5703SOL     OW18007   4.898   3.963   2.530
 5703SOL    HW118008   4.923   3.957   2.434
 5703SOL    HW218009   4.815   3.909   2.546
 5704SOL     OW18010   5.443   3.467   3.181
 5704SOL    HW118011   5.530   3.433   3.215
 5704SOL    HW218012   5.387   3.391   3.149
 5705SOL     OW18013   6.700   0.970   4.075
 5705SOL    HW118014   6.729   0.876   4.093
 5705SOL    HW218015   6.600   0.974   4.070
 5706SOL     OW18016   2.045   1.622   5.410
 5706SOL    HW118017   2.034   1.523   5.413
 5706SOL    HW218018   1.979   1.660   5.345
 5707SOL     OW18019   4.263   0.908   1.324
 5707SOL    HW118020   4.267   0.907   1.424
 5707SOL    HW218021   4.353   0.888   1.287
 5708SOL     OW18022   1.109   6.736   0.329
 5708SOL    HW118023   1.091   6.641   0.304
 5708SOL    HW218024   1.206   6.747   0.352
 5709SOL     OW18025   0.570   3.324   0.972
 5709SOL    HW118026   0.613   3.251   0.918
 5709SOL    HW218027   0.571   3.409   0.919
 5710SOL     OW18028   3.325   5.066   6.818
 5710SOL    HW118029   3.254   5.040   6.884
 5710SOL    HW218030   3.376   4.985   6.791
 5711SOL     OW18031   4.839   1.422   4.800
 5711SOL    HW118032   4.886   1.399   4.885
 5711SOL    HW218033   4.788   1.508   4.812
 5712SOL     OW18034   5.187   6.839   6.006
 5712SOL    HW118035   5.129   6.882   6.075
 5712SOL    HW218036   5.149   6.750   5.982
 5713SOL     OW18037   0.347   3.528   2.523
 5713SOL    HW118038   0.289   3.566   2.451
 5713SOL    HW218039   0.318   3.564   2.611
 5714SOL     OW18040   2.579   0.591   1.224
 5714SOL    HW118041   2.487   0.611   1.257
 5714SOL    HW218042   2.573   0.536   1.140
 5715SOL     OW18043   0.629   5.878   4.046
 5715SOL    HW118044   0.681   5.881   3.961
 5715SOL    HW218045   0.601   5.971   4.071
 5716SOL     OW18046   1.396   2.654   4.932
 5716SOL    HW118047   1.374   2.749   4.911
 5716SOL    HW218048   1.462   2.620   4.865
 5717SOL     OW18049   0.190   4.617   5.261
 5717SOL    HW118050   0.117   4.669   5.305
 5717SOL    HW218051   0.202   4.530   5.309
 5718SOL     OW18052   2.923   5.736   6.003
 5718SOL    HW118053   2.962   5.679   6.076
 5718SOL    HW218054   2.880   5.677   5.935
 5719SOL     OW18055   1.802   0.962   6.801
 5719SOL    HW118056   1.827   0.992   6.893
 5719SOL    HW218057   1.714   0.915   6.805
 5720SOL     OW18058   1.941   5.689   4.226
 5720SOL    HW118059   2.025   5.635   4.235
 5720SOL    HW218060   1.867   5.629   4.197
 5721SOL     OW18061   6.353   5.460   6.916
 5721SOL    HW118062   6.395   5.395   6.980
 5721SOL    HW218063   6.418   5.534   6.897
 5722SOL     OW18064   5.274   0.863   4.301
 5722SOL    HW118065   5.290   0.955   4.338
 5722SOL    HW218066   5.331   0.849   4.220
 5723SOL     OW18067   6.515   4.938   1.064
 5723SOL    HW118068   6.441   4.969   1.124
 5723SOL    HW218069   6.538   5.011   1.000
 5724SOL     OW18070   4.755   2.900   6.334
 5724SOL    HW118071   4.692   2.977   6.340
 5724SOL    HW218072   4.821   2.916   6.260
 5725SOL     OW18073   6.260   0.005   5.384
 5725SOL    HW118074   6.185   0.063   5.352
 5725SOL    HW218075   6.310   0.052   5.456
 5726SOL     OW18076   4.162   5.563   5.427
 5726SOL    HW118077   4.142   5.465   5.438
 5726SOL    HW218078   4.100   5.616   5.483
 5727SOL     OW18079   5.155   3.074   3.461
 5727SOL    HW118080   5.055   3.071   3.455
 5727SOL    HW218081   5.189   2.986   3.495
 5728SOL     OW18082   4.037   1.242   5.043
 5728SOL    HW118083   4.098   1.214   4.969
 5728SOL    HW218084   4.006   1.336   5.028
 5729SOL     OW18085   2.471   2.091   3.691
 5729SOL    HW118086   2.485   2.158   3.618
 5729SOL    HW218087   2.381   2.049   3.680
 5730SOL     OW18088   4.099   4.759   0.149
 5730SOL    HW118089   4.045   4.841   0.164
 5730SOL    HW218090   4.061   4.707   0.072
 5731SOL     OW18091   4.429   1.221   5.239
 5731SOL    HW118092   4.406   1.161   5.162
 5731SOL    HW218093   4.466   1.308   5.204
 5732SOL     OW18094   6.671   3.707   4.619
 5732SOL    HW118095   6.640   3.612   4.621
 5732SOL    HW218096   6.770   3.710   4.628
 5733SOL     OW18097   2.240   6.561   0.928
 5733SOL    HW118098   2.209   6.611   1.009
 5733SOL    HW218099   2.259   6.625   0.854
 5734SOL     OW18100   1.793   0.351   5.835
 5734SOL    HW118101   1.804   0.290   5.913
 5734SOL    HW218102   1.699   0.384   5.832
 5735SOL     OW18103   5.238   1.139   1.018
 5735SOL    HW118104   5.161   1.127   0.955
 5735SOL    HW218105   5.215   1.211   1.083
 5736SOL     OW18106   4.196   3.535   6.460
 5736SOL    HW118107   4.247   3.480   6.527
 5736SOL    HW218108   4.098   3.519   6.472
 5737SOL     OW18109   5.583   5.452   2.527
 5737SOL    HW118110   5.533   5.386   2.582
 5737SOL    HW218111   5.565   5.436   2.430
 5738SOL     OW18112   3.452   1.688   1.016
 5738SOL    HW118113   3.451   1.589   1.031
 5738SOL    HW218114   3.544   1.723   1.033
 5739SOL     OW18115   2.056   1.153   6.094
 5739SOL    HW118116   2.107   1.186   6.173
 5739SOL    HW218117   1.959   1.144   6.118
 5740SOL     OW18118   5.497   2.713   2.366
 5740SOL    HW118119   5.560   2.688   2.293
 5740SOL    HW218120   5.464   2.630   2.411
 5741SOL     OW18121   1.130   3.455   4.236
 5741SOL    HW118122   1.224   3.456   4.268
 5741SOL    HW218123   1.072   3.406   4.302
 5742SOL     OW18124   6.505   4.659   2.222
 5742SOL    HW118125   6.445   4.579   2.226
 5742SOL    HW218126   6.469   4.725   2.157
 5743SOL     OW18127   3.383   6.636   6.533
 5743SOL    HW118128   3.443   6.687   6.595
 5743SOL    HW218129   3.438   6.593   6.462
 5744SOL     OW18130   5.340   5.493   3.782
 5744SOL    HW118131   5.375   5.456   3.867
 5744SOL    HW218132   5.260   5.442   3.753
 5745SOL     OW18133   1.815   4.011   2.340
 5745SOL    HW118134   1.843   3.938   2.278
 5745SOL    HW218135   1.768   3.971   2.419
 5746SOL     OW18136   5.310   0.659   3.707
 5746SOL    HW118137   5.238   0.622   3.767
 5746SOL    HW218138   5.270   0.729   3.647
 5747SOL     OW18139   1.363   6.585   1.914
 5747SOL    HW118140   1.454   6.567   1.952
 5747SOL    HW218141   1.331   6.504   1.865
 5748SOL     OW18142   6.437   6.958   0.354
 5748SOL    HW118143   6.413   6.928   0.447
 5748SOL    HW218144   6.507   0.004   0.359
 5749SOL     OW18145   1.924   6.192   6.059
 5749SOL    HW118146   1.950   6.289   6.055
 5749SOL    HW218147   1.952   6.154   6.147
 5750SOL     OW18148   5.806   2.485   4.155
 5750SOL    HW118149   5.808   2.581   4.185
 5750SOL    HW218150   5.743   2.475   4.078
 5751SOL     OW18151   6.705   3.693   4.265
 5751SOL    HW118152   6.701   3.792   4.273
 5751SOL    HW218153   6.768   3.656   4.333
 5752SOL     OW18154   5.867   1.442   6.575
 5752SOL    HW118155   5.881   1.418   6.479
 5752SOL    HW218156   5.928   1.518   6.599
 5753SOL     OW18157   3.911   3.366   4.009
 5753SOL    HW118158   3.969   3.423   4.067
 5753SOL    HW218159   3.967   3.300   3.959
 5754SOL     OW18160   6.250   0.592   1.020
 5754SOL    HW118161   6.310   0.517   1.045
 5754SOL    HW218162   6.171   0.557   0.970
 5755SOL     OW18163   0.717   3.770   6.288
 5755SOL    HW118164   0.786   3.738   6.224
 5755SOL    HW218165   0.741   3.740   6.380
 5756SOL     OW18166   5.869   6.725   1.797
 5756SOL    HW118167   5.810   6.802   1.773
 5756SOL    HW218168   5.935   6.754   1.867
 5757SOL     OW18169   1.396   2.212   4.305
 5757SOL    HW118170   1.346   2.272   4.241
 5757SOL    HW218171   1.492   2.210   4.279
 5758SOL     OW18172   6.182   6.855   2.874
 5758SOL    HW118173   6.158   6.881   2.781
 5758SOL    HW218174   6.103   6.813   2.919
 5759SOL     OW18175   3.302   6.555   3.012
 5759SOL    HW118176   3.315   6.481   2.946
 5759SOL    HW218177   3.268   6.636   2.965
 5760SOL     OW18178   0.511   2.296   0.239
 5760SOL    HW118179   0.577   2.275   0.312
 5760SOL    HW218180   0.477   2.390   0.251
 5761SOL     OW18181   6.623   6.810   4.954
 5761SOL    HW118182   6.674   6.792   5.038
 5761SOL    HW218183   6.549   6.874   4.973
 5762SOL     OW18184   0.815   6.154   5.899
 5762SOL    HW118185   0.843   6.238   5.945
 5762SOL    HW218186   0.716   6.142   5.910
 5763SOL     OW18187   4.880   0.474   6.948
 5763SOL    HW118188   4.831   0.402   6.997
 5763SOL    HW218189   4.816   0.525   6.891
 5764SOL     OW18190   4.039   6.360   4.063
 5764SOL    HW118191   4.070   6.455   4.061
 5764SOL    HW218192   4.075   6.315   4.145
 5765SOL     OW18193   6.525   6.932   2.759
 5765SOL    HW118194   6.485   6.869   2.826
 5765SOL    HW218195   6.545   7.019   2.803
 5766SOL     OW18196   0.906   0.739   4.552
 5766SOL    HW118197   0.904   0.640   4.561
 5766SOL    HW218198   0.909   0.764   4.455
 5767SOL     OW18199   6.115   6.782   0.522
 5767SOL    HW118200   6.078   6.836   0.598
 5767SOL    HW218201   6.150   6.695   0.557
 5768SOL     OW18202   1.554   0.299   4.711
 5768SOL    HW118203   1.607   0.324   4.792
 5768SOL    HW218204   1.542   0.200   4.708
 5769SOL     OW18205   1.182   2.021   6.155
 5769SOL    HW118206   1.251   2.024   6.082
 5769SOL    HW218207   1.164   2.114   6.187
 5770SOL     OW18208   1.138   3.537   2.585
 5770SOL    HW118209   1.123   3.466   2.517
 5770SOL    HW218210   1.215   3.512   2.643
 5771SOL     OW18211   2.825   6.532   3.037
 5771SOL    HW118212   2.784   6.489   2.957
 5771SOL    HW218213   2.794   6.627   3.044
 5772SOL     OW18214   2.536   0.685   3.388
 5772SOL    HW118215   2.593   0.649   3.462
 5772SOL    HW218216   2.508   0.779   3.409
 5773SOL     OW18217   6.221   0.472   4.650
 5773SOL    HW118218   6.136   0.506   4.690
 5773SOL    HW218219   6.228   0.503   4.555
 5774SOL     OW18220   1.108   6.060   3.477
 5774SOL    HW118221   1.042   5.994   3.442
 5774SOL    HW218222   1.179   6.012   3.529
 5775SOL     OW18223   5.690   4.708   2.848
 5775SOL    HW118224   5.624   4.658   2.793
 5775SOL    HW218225   5.751   4.760   2.788
 5776SOL     OW18226   3.944   0.670   4.254
 5776SOL    HW118227   4.041   0.663   4.278
 5776SOL    HW218228   3.911   0.581   4.222
 5777SOL     OW18229   0.736   0.443   1.418
 5777SOL    HW118230   0.704   0.493   1.499
 5777SOL    HW218231   0.771   0.354   1.446
 5778SOL     OW18232   0.293   0.985   0.077
 5778SOL    HW118233   0.319   0.913   0.013
 5778SOL    HW218234   0.318   1.074   0.039
 5779SOL     OW18235   6.159   1.350   0.178
 5779SOL    HW118236   6.084   1.344   0.113
 5779SOL    HW218237   6.210   1.264   0.178
 5780SOL     OW18238   5.502   5.158   4.531
 5780SOL    HW118239   5.458   5.240   4.495
 5780SOL    HW218240   5.489   5.153   4.630
 5781SOL     OW18241   1.366   5.671   5.746
 5781SOL    HW118242   1.292   5.734   5.723
 5781SOL    HW218243   1.445   5.723   5.779
 5782SOL     OW18244   5.321   0.883   1.308
 5782SOL    HW118245   5.408   0.836   1.293
 5782SOL    HW218246   5.335   0.959   1.371
 5783SOL     OW18247   2.354   2.446   6.569
 5783SOL    HW118248   2.429   2.454   6.505
 5783SOL    HW218249   2.387   2.461   6.662
 5784SOL     OW18250   6.769   6.241   0.518
 5784SOL    HW118251   6.814   6.311   0.464
 5784SOL    HW218252   6.760   6.157   0.463
 5785SOL     OW18253   1.655   1.083   2.326
 5785SOL    HW118254   1.696   1.122   2.408
 5785SOL    HW218255   1.722   1.085   2.251
 5786SOL     OW18256   5.576   4.810   2.312
 5786SOL    HW118257   5.519   4.874   2.365
 5786SOL    HW218258   5.531   4.788   2.226
 5787SOL     OW18259   1.954   2.782   6.369
 5787SOL    HW118260   2.018   2.716   6.407
 5787SOL    HW218261   1.989   2.875   6.385
 5788SOL     OW18262   3.077   0.883   3.449
 5788SOL    HW118263   3.143   0.959   3.451
 5788SOL    HW218264   3.125   0.797   3.465
 5789SOL     OW18265   3.422   4.844   5.874
 5789SOL    HW118266   3.395   4.940   5.885
 5789SOL    HW218267   3.348   4.785   5.907
 5790SOL     OW18268   1.665   3.271   4.007
 5790SOL    HW118269   1.580   3.324   4.002
 5790SOL    HW218270   1.738   3.322   3.961
 5791SOL     OW18271   1.036   1.296   3.486
 5791SOL    HW118272   1.017   1.275   3.390
 5791SOL    HW218273   1.016   1.216   3.542
 5792SOL     OW18274   0.529   1.586   3.437
 5792SOL    HW118275   0.479   1.508   3.474
 5792SOL    HW218276   0.547   1.652   3.509
 5793SOL     OW18277   6.225   1.624   5.478
 5793SOL    HW118278   6.310   1.584   5.442
 5793SOL    HW218279   6.152   1.557   5.470
 5794SOL     OW18280   0.351   4.100   6.420
 5794SOL    HW118281   0.295   4.019   6.439
 5794SOL    HW218282   0.428   4.074   6.362
 5795SOL     OW18283   6.624   4.521   6.923
 5795SOL    HW118284   6.549   4.458   6.943
 5795SOL    HW218285   6.605   4.571   6.839
 5796SOL     OW18286   2.889   2.055   0.436
 5796SOL    HW118287   2.910   2.083   0.342
 5796SOL    HW218288   2.950   2.102   0.499
 5797SOL     OW18289   3.251   3.615   5.533
 5797SOL    HW118290   3.236   3.683   5.461
 5797SOL    HW218291   3.329   3.558   5.508
 5798SOL     OW18292   6.597   4.613   3.960
 5798SOL    HW118293   6.593   4.617   4.060
 5798SOL    HW218294   6.624   4.520   3.932
 5799SOL     OW18295   5.461   0.429   4.572
 5799SOL    HW118296   5.456   0.370   4.492
 5799SOL    HW218297   5.474   0.524   4.544
 5800SOL     OW18298   5.676   6.796   6.594
 5800SOL    HW118299   5.623   6.804   6.679
 5800SOL    HW218300   5.724   6.708   6.594
 5801SOL     OW18301   1.494   1.248   2.161
 5801SOL    HW118302   1.532   1.215   2.247
 5801SOL    HW218303   1.569   1.264   2.096
 5802SOL     OW18304   0.132   2.729   4.550
 5802SOL    HW118305   0.086   2.816   4.568
 5802SOL    HW218306   0.198   2.741   4.476
 5803SOL     OW18307   1.358   4.968   1.345
 5803SOL    HW118308   1.275   4.914   1.334
 5803SOL    HW218309   1.345   5.058   1.305
 5804SOL     OW18310   0.106   3.176   6.709
 5804SOL    HW118311   0.133   3.170   6.806
 5804SOL    HW218312   0.017   3.221   6.702
 5805SOL     OW18313   4.751   3.042   6.785
 5805SOL    HW118314   4.713   3.105   6.853
 5805SOL    HW218315   4.810   2.975   6.830
 5806SOL     OW18316   5.856   6.583   6.257
 5806SOL    HW118317   5.941   6.546   6.218
 5806SOL    HW218318   5.784   6.514   6.252
 5807SOL     OW18319   2.553   4.296   1.682
 5807SOL    HW118320   2.506   4.276   1.596
 5807SOL    HW218321   2.652   4.297   1.668
 5808SOL     OW18322   6.564   1.626   3.637
 5808SOL    HW118323   6.606   1.553   3.690
 5808SOL    HW218324   6.483   1.660   3.685
 5809SOL     OW18325   0.991   3.547   4.034
 5809SOL    HW118326   1.015   3.518   3.941
 5809SOL    HW218327   1.062   3.516   4.098
 5810SOL     OW18328   3.249   1.744   2.103
 5810SOL    HW118329   3.333   1.709   2.144
 5810SOL    HW218330   3.175   1.739   2.170
 5811SOL     OW18331   2.635   6.972   1.469
 5811SOL    HW118332   2.636   7.020   1.557
 5811SOL    HW218333   2.655   0.013   1.395
 5812SOL     OW18334   4.233   0.867   4.245
 5812SOL    HW118335   4.320   0.907   4.274
 5812SOL    HW218336   4.159   0.904   4.300
 5813SOL     OW18337   1.803   2.096   4.955
 5813SOL    HW118338   1.740   2.173   4.948
 5813SOL    HW218339   1.771   2.022   4.897
 5814SOL     OW18340   0.708   5.002   1.561
 5814SOL    HW118341   0.644   5.054   1.504
 5814SOL    HW218342   0.658   4.961   1.638
 5815SOL     OW18343   3.989   6.471   4.797
 5815SOL    HW118344   4.073   6.525   4.791
 5815SOL    HW218345   3.972   6.426   4.709
 5816SOL     OW18346   5.326   6.118   0.210
 5816SOL    HW118347   5.292   6.024   0.222
 5816SOL    HW218348   5.421   6.116   0.179
 5817SOL     OW18349   5.892   2.581   6.423
 5817SOL    HW118350   5.861   2.495   6.463
 5817SOL    HW218351   5.950   2.563   6.345
 5818SOL     OW18352   6.125   6.625   5.065
 5818SOL    HW118353   6.108   6.592   4.973
 5818SOL    HW218354   6.083   6.563   5.131
 5819SOL     OW18355   6.807   0.815   1.339
 5819SOL    HW118356   6.850   0.762   1.412
 5819SOL    HW218357   6.843   0.787   1.251
 5820SOL     OW18358   5.201   4.879   1.707
 5820SOL    HW118359   5.176   4.809   1.774
 5820SOL    HW218360   5.119   4.925   1.675
 5821SOL     OW18361   3.032   6.996   2.734
 5821SOL    HW118362   3.075   6.955   2.654
 5821SOL    HW218363   2.934   6.974   2.734
 5822SOL     OW18364   0.474   0.558   2.511
 5822SOL    HW118365   0.421   0.511   2.582
 5822SOL    HW218366   0.485   0.498   2.432
 5823SOL     OW18367   1.503   2.715   3.642
 5823SOL    HW118368   1.587   2.724   3.588
 5823SOL    HW218369   1.452   2.636   3.610
 5824SOL     OW18370   5.062   0.521   3.740
 5824SOL    HW118371   5.048   0.510   3.838
 5824SOL    HW218372   5.059   0.618   3.716
 5825SOL     OW18373   3.178   1.527   1.452
 5825SOL    HW118374   3.114   1.575   1.513
 5825SOL    HW218375   3.235   1.465   1.507
 5826SOL     OW18376   0.441   6.564   3.214
 5826SOL    HW118377   0.430   6.467   3.197
 5826SOL    HW218378   0.363   6.615   3.177
 5827SOL     OW18379   2.091   4.851   5.706
 5827SOL    HW118380   2.047   4.842   5.616
 5827SOL    HW218381   2.021   4.865   5.776
 5828SOL     OW18382   6.425   1.461   1.107
 5828SOL    HW118383   6.523   1.467   1.084
 5828SOL    HW218384   6.398   1.543   1.158
 5829SOL     OW18385   1.925   0.873   1.520
 5829SOL    HW118386   1.850   0.853   1.583
 5829SOL    HW218387   2.008   0.894   1.573
 5830SOL     OW18388   1.157   0.896   5.840
 5830SOL    HW118389   1.166   0.934   5.932
 5830SOL    HW218390   1.118   0.966   5.779
 5831SOL     OW18391   5.780   5.364   2.876
 5831SOL    HW118392   5.738   5.278   2.902
 5831SOL    HW218393   5.863   5.379   2.931
 5832SOL     OW18394   3.826   3.727   4.229
 5832SOL    HW118395   3.744   3.678   4.201
 5832SOL    HW218396   3.803   3.822   4.248
 5833SOL     OW18397   2.999   3.230   4.948
 5833SOL    HW118398   2.950   3.267   4.870
 5833SOL    HW218399   3.056   3.302   4.989
 5834SOL     OW18400   5.553   1.056   6.559
 5834SOL    HW118401   5.607   0.972   6.553
 5834SOL    HW218402   5.463   1.041   6.518
 5835SOL     OW18403   5.368   2.759   3.899
 5835SOL    HW118404   5.397   2.693   3.830
 5835SOL    HW218405   5.448   2.807   3.934
 5836SOL     OW18406   3.425   6.993   3.815
 5836SOL    HW118407   3.410   6.896   3.829
 5836SOL    HW218408   3.386   7.020   3.727
 5837SOL     OW18409   4.084   4.120   6.420
 5837SOL    HW118410   4.168   4.126   6.474
 5837SOL    HW218411   4.090   4.040   6.360
 5838SOL     OW18412   0.219   1.309   5.942
 5838SOL    HW118413   0.313   1.334   5.920
 5838SOL    HW218414   0.181   1.377   6.005
 5839SOL     OW18415   6.677   2.449   2.017
 5839SOL    HW118416   6.614   2.403   2.080
 5839SOL    HW218417   6.654   2.547   2.012
 5840SOL     OW18418   3.142   6.306   0.549
 5840SOL    HW118419   3.168   6.220   0.505
 5840SOL    HW218420   3.155   6.381   0.484
 5841SOL     OW18421   6.420   2.060   3.477
 5841SOL    HW118422   6.446   1.964   3.484
 5841SOL    HW218423   6.497   2.117   3.505
 5842SOL     OW18424   3.601   2.205   0.981
 5842SOL    HW118425   3.685   2.153   0.967
 5842SOL    HW218426   3.618   2.277   1.049
 5843SOL     OW18427   0.338   2.377   1.390
 5843SOL    HW118428   0.373   2.376   1.296
 5843SOL    HW218429   0.414   2.391   1.454
 5844SOL     OW18430   1.701   6.016   6.030
 5844SOL    HW118431   1.758   6.098   6.034
 5844SOL    HW218432   1.688   5.980   6.122
 5845SOL     OW18433   2.032   3.107   4.509
 5845SOL    HW118434   2.104   3.163   4.468
 5845SOL    HW218435   1.975   3.164   4.568
 5846SOL     OW18436   0.313   3.603   6.798
 5846SOL    HW118437   0.366   3.631   6.878
 5846SOL    HW218438   0.216   3.619   6.815
 5847SOL     OW18439   0.953   2.349   4.331
 5847SOL    HW118440   0.964   2.290   4.410
 5847SOL    HW218441   1.043   2.381   4.299
 5848SOL     OW18442   1.068   4.541   3.620
 5848SOL    HW118443   1.164   4.544   3.590
 5848SOL    HW218444   1.035   4.634   3.637
 5849SOL     OW18445   2.369   0.271   6.101
 5849SOL    HW118446   2.416   0.350   6.061
 5849SOL    HW218447   2.436   0.202   6.126
 5850SOL     OW18448   0.579   4.841   3.282
 5850SOL    HW118449   0.622   4.813   3.367
 5850SOL    HW218450   0.516   4.769   3.252
 5851SOL     OW18451   6.579   3.037   1.598
 5851SOL    HW118452   6.606   3.122   1.552
 5851SOL    HW218453   6.653   2.970   1.588
 5852SOL     OW18454   4.020   6.261   2.974
 5852SOL    HW118455   4.001   6.206   3.056
 5852SOL    HW218456   4.111   6.238   2.940
 5853SOL     OW18457   5.115   3.833   5.206
 5853SOL    HW118458   5.063   3.870   5.128
 5853SOL    HW218459   5.071   3.860   5.291
 5854SOL     OW18460   1.562   1.609   6.845
 5854SOL    HW118461   1.533   1.536   6.783
 5854SOL    HW218462   1.625   1.670   6.798
 5855SOL     OW18463   1.852   1.868   4.775
 5855SOL    HW118464   1.945   1.853   4.739
 5855SOL    HW218465   1.838   1.813   4.857
 5856SOL     OW18466   0.999   6.571   3.090
 5856SOL    HW118467   1.078   6.586   3.149
 5856SOL    HW218468   0.922   6.539   3.146
 5857SOL     OW18469   0.786   2.081   4.937
 5857SOL    HW118470   0.782   2.006   4.871
 5857SOL    HW218471   0.693   2.109   4.961
 5858SOL     OW18472   2.808   0.300   3.901
 5858SOL    HW118473   2.811   0.359   3.821
 5858SOL    HW218474   2.901   0.287   3.936
 5859SOL     OW18475   5.910   4.993   1.889
 5859SOL    HW118476   5.888   4.970   1.794
 5859SOL    HW218477   5.832   5.040   1.931
 5860SOL     OW18478   6.690   4.850   0.655
 5860SOL    HW118479   6.730   4.894   0.735
 5860SOL    HW218480   6.762   4.830   0.588
 5861SOL     OW18481   6.007   1.938   4.210
 5861SOL    HW118482   5.973   2.032   4.217
 5861SOL    HW218483   6.105   1.939   4.193
 5862SOL     OW18484   5.742   5.362   4.115
 5862SOL    HW118485   5.824   5.417   4.097
 5862SOL    HW218486   5.696   5.342   4.029
 5863SOL     OW18487   2.451   1.502   0.517
 5863SOL    HW118488   2.476   1.451   0.600
 5863SOL    HW218489   2.431   1.438   0.443
 5864SOL     OW18490   4.619   5.126   0.352
 5864SOL    HW118491   4.657   5.071   0.277
 5864SOL    HW218492   4.532   5.085   0.382
 5865SOL     OW18493   4.496   0.464   3.804
 5865SOL    HW118494   4.594   0.443   3.806
 5865SOL    HW218495   4.459   0.439   3.714
 5866SOL     OW18496   3.457   2.013   6.305
 5866SOL    HW118497   3.447   2.083   6.375
 5866SOL    HW218498   3.508   1.936   6.343
 5867SOL     OW18499   6.805   2.855   1.602
 5867SOL    HW118500   6.857   2.908   1.669
 5867SOL    HW218501   6.796   2.760   1.634
 5868SOL     OW18502   0.417   6.079   5.407
 5868SOL    HW118503   0.401   6.019   5.329
 5868SOL    HW218504   0.368   6.044   5.487
 5869SOL     OW18505   2.456   5.115   4.732
 5869SOL    HW118506   2.382   5.101   4.666
 5869SOL    HW218507   2.544   5.094   4.689
 5870SOL     OW18508   5.293   6.036   4.223
 5870SOL    HW118509   5.282   6.052   4.125
 5870SOL    HW218510   5.214   5.987   4.258
 5871SOL     OW18511   3.433   4.331   1.108
 5871SOL    HW118512   3.409   4.256   1.047
 5871SOL    HW218513   3.407   4.418   1.066
 5872SOL     OW18514   4.132   5.831   3.704
 5872SOL    HW118515   4.193   5.755   3.680
 5872SOL    HW218516   4.155   5.865   3.795
 5873SOL     OW18517   1.974   3.143   1.015
 5873SOL    HW118518   1.979   3.217   1.083
 5873SOL    HW218519   1.902   3.079   1.041
 5874SOL     OW18520   0.671   4.202   6.428
 5874SOL    HW118521   0.629   4.121   6.387
 5874SOL    HW218522   0.600   4.269   6.451
 5875SOL     OW18523   4.019   2.429   1.399
 5875SOL    HW118524   4.001   2.508   1.340
 5875SOL    HW218525   3.962   2.435   1.481
 5876SOL     OW18526   4.153   4.101   5.955
 5876SOL    HW118527   4.076   4.076   5.896
 5876SOL    HW218528   4.225   4.033   5.945
 5877SOL     OW18529   5.393   6.626   3.039
 5877SOL    HW118530   5.363   6.705   2.986
 5877SOL    HW218531   5.394   6.650   3.136
 5878SOL     OW18532   4.867   3.279   2.781
 5878SOL    HW118533   4.960   3.292   2.746
 5878SOL    HW218534   4.859   3.188   2.821
 5879SOL     OW18535   3.181   4.783   5.542
 5879SOL    HW118536   3.185   4.696   5.493
 5879SOL    HW218537   3.197   4.858   5.477
 5880SOL     OW18538   6.076   2.122   0.656
 5880SOL    HW118539   6.082   2.051   0.585
 5880SOL    HW218540   6.141   2.101   0.729
 5881SOL     OW18541   0.993   5.844   3.308
 5881SOL    HW118542   0.909   5.851   3.254
 5881SOL    HW218543   1.072   5.840   3.247
 5882SOL     OW18544   1.519   5.846   5.310
 5882SOL    HW118545   1.432   5.842   5.360
 5882SOL    HW218546   1.580   5.775   5.344
 5883SOL     OW18547   0.207   5.875   0.024
 5883SOL    HW118548   0.302   5.898   0.005
 5883SOL    HW218549   0.182   5.792   6.999
 5884SOL     OW18550   0.984   0.914   1.695
 5884SOL    HW118551   0.985   1.007   1.658
 5884SOL    HW218552   0.919   0.910   1.772
 5885SOL     OW18553   0.120   5.566   1.679
 5885SOL    HW118554   0.118   5.520   1.767
 5885SOL    HW218555   0.101   5.664   1.691
 5886SOL     OW18556   1.708   4.302   3.405
 5886SOL    HW118557   1.667   4.235   3.343
 5886SOL    HW218558   1.805   4.281   3.418
 5887SOL     OW18559   2.147   3.596   0.839
 5887SOL    HW118560   2.089   3.607   0.759
 5887SOL    HW218561   2.103   3.534   0.904
 5888SOL     OW18562   3.068   6.247   1.794
 5888SOL    HW118563   3.108   6.197   1.870
 5888SOL    HW218564   3.032   6.183   1.727
 5889SOL     OW18565   4.555   0.974   1.831
 5889SOL    HW118566   4.625   1.018   1.775
 5889SOL    HW218567   4.466   1.016   1.813
 5890SOL     OW18568   2.290   4.641   3.037
 5890SOL    HW118569   2.200   4.636   2.993
 5890SOL    HW218570   2.310   4.554   3.081
 5891SOL     OW18571   2.496   3.060   6.919
 5891SOL    HW118572   2.448   3.103   6.842
 5891SOL    HW218573   2.583   3.022   6.887
 5892SOL     OW18574   0.551   2.372   1.709
 5892SOL    HW118575   0.608   2.301   1.749
 5892SOL    HW218576   0.597   2.461   1.717
 5893SOL     OW18577   0.208   6.435   1.312
 5893SOL    HW118578   0.268   6.363   1.344
 5893SOL    HW218579   0.223   6.451   1.214
 5894SOL     OW18580   2.843   5.115   6.713
 5894SOL    HW118581   2.895   5.029   6.716
 5894SOL    HW218582   2.843   5.157   6.804
 5895SOL     OW18583   5.920   2.786   4.092
 5895SOL    HW118584   5.918   2.824   4.185
 5895SOL    HW218585   5.832   2.804   4.048
 5896SOL     OW18586   5.335   2.379   0.886
 5896SOL    HW118587   5.384   2.293   0.876
 5896SOL    HW218588   5.278   2.395   0.804
 5897SOL     OW18589   3.310   3.792   0.064
 5897SOL    HW118590   3.244   3.768   0.135
 5897SOL    HW218591   3.288   3.743   7.004
 5898SOL     OW18592   3.959   0.853   6.696
 5898SOL    HW118593   3.896   0.826   6.769
 5898SOL    HW218594   3.937   0.946   6.666
 5899SOL     OW18595   0.522   0.328   0.395
 5899SOL    HW118596   0.604   0.271   0.388
 5899SOL    HW218597   0.526   0.401   0.327
 5900SOL     OW18598   5.430   6.076   2.555
 5900SOL    HW118599   5.515   6.029   2.578
 5900SOL    HW218600   5.422   6.161   2.607
 5901SOL     OW18601   1.656   0.413   4.932
 5901SOL    HW118602   1.634   0.340   4.997
 5901SOL    HW218603   1.586   0.485   4.938
 5902SOL     OW18604   4.543   3.427   5.982
 5902SOL    HW118605   4.505   3.463   5.897
 5902SOL    HW218606   4.633   3.467   5.999
 5903SOL     OW18607   5.578   0.780   5.927
 5903SOL    HW118608   5.534   0.697   5.894
 5903SOL    HW218609   5.674   0.761   5.948
 5904SOL     OW18610   0.292   5.301   2.051
 5904SOL    HW118611   0.203   5.311   2.005
 5904SOL    HW218612   0.279   5.262   2.142
 5905SOL     OW18613   6.194   1.828   4.827
 5905SOL    HW118614   6.122   1.761   4.847
 5905SOL    HW218615   6.201   1.893   4.902
 5906SOL     OW18616   3.936   0.068   4.500
 5906SOL    HW118617   3.953   0.070   4.598
 5906SOL    HW218618   3.929   0.162   4.465
 5907SOL     OW18619   0.750   3.558   5.992
 5907SOL    HW118620   0.810   3.599   6.061
 5907SOL    HW218621   0.661   3.538   6.032
 5908SOL     OW18622   4.658   3.146   6.353
 5908SOL    HW118623   4.621   3.174   6.265
 5908SOL    HW218624   4.663   3.225   6.414
 5909SOL     OW18625   0.041   5.043   3.085
 5909SOL    HW118626   0.110   4.981   3.048
 5909SOL    HW218627   0.021   5.114   3.017
 5910SOL     OW18628   2.017   4.205   2.238
 5910SOL    HW118629   2.103   4.192   2.287
 5910SOL    HW218630   1.952   4.135   2.267
 5911SOL     OW18631   6.780   1.526   5.550
 5911SOL    HW118632   6.727   1.473   5.616
 5911SOL    HW218633   6.725   1.603   5.518
 5912SOL     OW18634   0.283   3.823   6.069
 5912SOL    HW118635   0.335   3.793   6.149
 5912SOL    HW218636   0.324   3.785   5.986
 5913SOL     OW18637   1.641   3.000   4.862
 5913SOL    HW118638   1.668   3.089   4.899
 5913SOL    HW218639   1.695   2.928   4.907
 5914SOL     OW18640   1.005   5.488   0.178
 5914SOL    HW118641   0.930   5.426   0.198
 5914SOL    HW218642   1.066   5.446   0.110
 5915SOL     OW18643   5.666   4.308   4.606
 5915SOL    HW118644   5.727   4.249   4.659
 5915SOL    HW218645   5.695   4.309   4.511
 5916SOL     OW18646   3.547   1.074   6.764
 5916SOL    HW118647   3.556   1.082   6.665
 5916SOL    HW218648   3.476   1.137   6.796
 5917SOL     OW18649   3.776   3.661   1.929
 5917SOL    HW118650   3.705   3.594   1.906
 5917SOL    HW218651   3.770   3.738   1.866
 5918SOL     OW18652   3.219   1.936   4.144
 5918SOL    HW118653   3.287   1.890   4.088
 5918SOL    HW218654   3.139   1.960   4.087
 5919SOL     OW18655   1.713   1.665   5.944
 5919SOL    HW118656   1.708   1.607   5.863
 5919SOL    HW218657   1.661   1.623   6.019
 5920SOL     OW18658   2.320   3.930   6.820
 5920SOL    HW118659   2.264   3.974   6.751
 5920SOL    HW218660   2.379   3.998   6.864
 5921SOL     OW18661   4.077   6.241   4.543
 5921SOL    HW118662   3.994   6.210   4.590
 5921SOL    HW218663   4.153   6.241   4.607
 5922SOL     OW18664   6.813   5.199   2.322
 5922SOL    HW118665   6.866   5.282   2.330
 5922SOL    HW218666   6.830   5.156   2.233
 5923SOL     OW18667   0.966   0.267   3.325
 5923SOL    HW118668   0.968   0.238   3.421
 5923SOL    HW218669   0.899   0.339   3.313
 5924SOL     OW18670   5.725   2.072   4.985
 5924SOL    HW118671   5.740   2.009   5.062
 5924SOL    HW218672   5.783   2.045   4.908
 5925SOL     OW18673   6.627   6.490   0.580
 5925SOL    HW118674   6.622   6.391   0.592
 5925SOL    HW218675   6.599   6.514   0.487
 5926SOL     OW18676   3.278   6.652   2.078
 5926SOL    HW118677   3.328   6.584   2.131
 5926SOL    HW218678   3.179   6.636   2.087
 5927SOL     OW18679   2.203   5.403   0.999
 5927SOL    HW118680   2.141   5.326   1.017
 5927SOL    HW218681   2.215   5.414   0.900
 5928SOL     OW18682   6.612   6.288   0.895
 5928SOL    HW118683   6.665   6.364   0.932
 5928SOL    HW218684   6.668   6.237   0.830
 5929SOL     OW18685   0.165   6.995   5.785
 5929SOL    HW118686   0.198   6.921   5.726
 5929SOL    HW218687   0.101   6.957   5.852
 5930SOL     OW18688   6.517   1.560   4.808
 5930SOL    HW118689   6.443   1.613   4.849
 5930SOL    HW218690   6.563   1.507   4.878
 5931SOL     OW18691   6.164   4.416   0.365
 5931SOL    HW118692   6.227   4.391   0.438
 5931SOL    HW218693   6.081   4.361   0.371
 5932SOL     OW18694   2.489   0.208   0.565
 5932SOL    HW118695   2.494   0.190   0.467
 5932SOL    HW218696   2.422   0.281   0.582
 5933SOL     OW18697   5.517   2.022   3.274
 5933SOL    HW118698   5.553   2.001   3.183
 5933SOL    HW218699   5.592   2.023   3.340
 5934SOL     OW18700   4.166   3.258   1.787
 5934SOL    HW118701   4.171   3.284   1.883
 5934SOL    HW218702   4.243   3.197   1.765
 5935SOL     OW18703   3.822   3.296   2.374
 5935SOL    HW118704   3.763   3.226   2.413
 5935SOL    HW218705   3.768   3.376   2.350
 5936SOL     OW18706   6.278   5.963   0.085
 5936SOL    HW118707   6.197   5.917   0.122
 5936SOL    HW218708   6.300   5.926   7.019
 5937SOL     OW18709   0.793   4.115   0.843
 5937SOL    HW118710   0.759   4.057   0.768
 5937SOL    HW218711   0.745   4.203   0.842
 5938SOL     OW18712   2.744   5.177   1.136
 5938SOL    HW118713   2.739   5.254   1.201
 5938SOL    HW218714   2.667   5.115   1.152
 5939SOL     OW18715   0.609   0.007   2.285
 5939SOL    HW118716   0.648   0.038   2.198
 5939SOL    HW218717   0.656   0.054   2.360
 5940SOL     OW18718   4.237   4.741   2.950
 5940SOL    HW118719   4.220   4.652   2.994
 5940SOL    HW218720   4.192   4.743   2.861
 5941SOL     OW18721   6.544   2.552   4.040
 5941SOL    HW118722   6.462   2.560   3.982
 5941SOL    HW218723   6.543   2.463   4.086
 5942SOL     OW18724   6.941   1.566   4.731
 5942SOL    HW118725   6.970   1.472   4.744
 5942SOL    HW218726   7.010   1.616   4.679
 5943SOL     OW18727   1.886   5.916   1.105
 5943SOL    HW118728   1.938   5.948   1.185
 5943SOL    HW218729   1.791   5.946   1.112
 5944SOL     OW18730   5.315   2.636   3.060
 5944SOL    HW118731   5.259   2.681   2.990
 5944SOL    HW218732   5.279   2.544   3.077
 5945SOL     OW18733   6.500   6.008   5.938
 5945SOL    HW118734   6.417   5.954   5.927
 5945SOL    HW218735   6.577   5.962   5.893
 5946SOL     OW18736   3.993   2.504   5.378
 5946SOL    HW118737   3.984   2.577   5.446
 5946SOL    HW218738   4.057   2.533   5.307
 5947SOL     OW18739   5.872   3.553   2.704
 5947SOL    HW118740   5.970   3.566   2.686
 5947SOL    HW218741   5.835   3.488   2.638
 5948SOL     OW18742   2.830   6.041   3.166
 5948SOL    HW118743   2.832   5.942   3.166
 5948SOL    HW218744   2.787   6.074   3.250
 5949SOL     OW18745   4.874   4.075   3.052
 5949SOL    HW118746   4.836   3.982   3.049
 5949SOL    HW218747   4.867   4.111   3.145
 5950SOL     OW18748   0.159   1.707   4.727
 5950SOL    HW118749   0.110   1.740   4.808
 5950SOL    HW218750   0.201   1.784   4.680
 5951SOL     OW18751   2.070   0.251   3.429
 5951SOL    HW118752   2.074   0.289   3.336
 5951SOL    HW218753   2.129   0.304   3.489
 5952SOL     OW18754   0.375   6.433   4.539
 5952SOL    HW118755   0.288   6.403   4.501
 5952SOL    HW218756   0.362   6.464   4.633
 5953SOL     OW18757   1.207   3.662   6.114
 5953SOL    HW118758   1.246   3.609   6.039
 5953SOL    HW218759   1.279   3.686   6.178
 5954SOL     OW18760   1.527   4.325   6.632
 5954SOL    HW118761   1.436   4.353   6.601
 5954SOL    HW218762   1.592   4.332   6.556
 5955SOL     OW18763   3.847   5.213   1.924
 5955SOL    HW118764   3.747   5.213   1.931
 5955SOL    HW218765   3.875   5.278   1.854
 5956SOL     OW18766   0.413   1.806   0.629
 5956SOL    HW118767   0.360   1.831   0.710
 5956SOL    HW218768   0.386   1.863   0.552
 5957SOL     OW18769   4.073   6.649   6.392
 5957SOL    HW118770   4.065   6.657   6.293
 5957SOL    HW218771   3.988   6.679   6.435
 5958SOL     OW18772   1.231   5.804   2.300
 5958SOL    HW118773   1.211   5.897   2.333
 5958SOL    HW218774   1.300   5.809   2.227
 5959SOL     OW18775   1.584   0.694   5.824
 5959SOL    HW118776   1.550   0.785   5.803
 5959SOL    HW218777   1.648   0.698   5.900
 5960SOL     OW18778   3.597   5.669   5.016
 5960SOL    HW118779   3.547   5.594   4.972
 5960SOL    HW218780   3.531   5.736   5.051
 5961SOL     OW18781   2.900   1.013   5.256
 5961SOL    HW118782   2.855   1.094   5.295
 5961SOL    HW218783   2.991   1.038   5.225
 5962SOL     OW18784   5.577   4.083   3.240
 5962SOL    HW118785   5.522   4.031   3.175
 5962SOL    HW218786   5.652   4.128   3.192
 5963SOL     OW18787   4.285   4.308   1.593
 5963SOL    HW118788   4.200   4.259   1.579
 5963SOL    HW218789   4.331   4.273   1.675
 5964SOL     OW18790   1.280   3.513   5.014
 5964SOL    HW118791   1.186   3.486   5.035
 5964SOL    HW218792   1.343   3.466   5.075
 5965SOL     OW18793   1.975   2.461   4.608
 5965SOL    HW118794   1.941   2.555   4.608
 5965SOL    HW218795   1.995   2.432   4.701
 5966SOL     OW18796   1.340   5.787   4.697
 5966SOL    HW118797   1.392   5.717   4.647
 5966SOL    HW218798   1.377   5.878   4.674
 5967SOL     OW18799   4.930   5.660   0.932
 5967SOL    HW118800   4.954   5.599   0.856
 5967SOL    HW218801   4.844   5.628   0.974
 5968SOL     OW18802   1.868   2.114   3.926
 5968SOL    HW118803   1.897   2.169   4.004
 5968SOL    HW218804   1.774   2.136   3.903
 5969SOL     OW18805   0.876   2.320   2.868
 5969SOL    HW118806   0.938   2.389   2.830
 5969SOL    HW218807   0.841   2.262   2.794
 5970SOL     OW18808   2.232   4.088   3.394
 5970SOL    HW118809   2.281   4.103   3.480
 5970SOL    HW218810   2.216   3.990   3.382
 5971SOL     OW18811   3.150   5.766   3.610
 5971SOL    HW118812   3.119   5.746   3.703
 5971SOL    HW218813   3.188   5.683   3.569
 5972SOL     OW18814   5.627   6.814   1.674
 5972SOL    HW118815   5.668   6.790   1.586
 5972SOL    HW218816   5.577   6.900   1.664
 5973SOL     OW18817   2.477   4.823   3.064
 5973SOL    HW118818   2.393   4.769   3.052
 5973SOL    HW218819   2.472   4.906   3.008
 5974SOL     OW18820   1.069   4.381   6.522
 5974SOL    HW118821   1.080   4.301   6.462
 5974SOL    HW218822   1.146   4.443   6.511
 5975SOL     OW18823   1.924   2.415   6.457
 5975SOL    HW118824   1.987   2.342   6.434
 5975SOL    HW218825   1.970   2.481   6.516
 5976SOL     OW18826   3.608   3.663   4.045
 5976SOL    HW118827   3.615   3.693   3.950
 5976SOL    HW218828   3.547   3.724   4.095
 5977SOL     OW18829   0.395   3.818   2.460
 5977SOL    HW118830   0.338   3.759   2.403
 5977SOL    HW218831   0.342   3.897   2.490
 5978SOL     OW18832   5.233   5.190   1.353
 5978SOL    HW118833   5.291   5.152   1.426
 5978SOL    HW218834   5.273   5.170   1.264
 5979SOL     OW18835   0.891   1.429   1.521
 5979SOL    HW118836   0.990   1.434   1.506
 5979SOL    HW218837   0.866   1.486   1.599
 5980SOL     OW18838   6.128   2.469   5.160
 5980SOL    HW118839   6.150   2.390   5.104
 5980SOL    HW218840   6.192   2.476   5.236
 5981SOL     OW18841   3.374   1.934   0.566
 5981SOL    HW118842   3.310   1.885   0.508
 5981SOL    HW218843   3.349   2.031   0.570
 5982SOL     OW18844   6.424   2.724   6.996
 5982SOL    HW118845   6.383   2.634   6.980
 5982SOL    HW218846   6.507   2.733   6.941
 5983SOL     OW18847   0.664   0.585   4.168
 5983SOL    HW118848   0.764   0.582   4.175
 5983SOL    HW218849   0.636   0.550   4.079
 5984SOL     OW18850   0.553   0.102   6.140
 5984SOL    HW118851   0.578   0.197   6.120
 5984SOL    HW218852   0.601   0.071   6.222
 5985SOL     OW18853   5.907   3.203   3.685
 5985SOL    HW118854   5.969   3.249   3.749
 5985SOL    HW218855   5.942   3.112   3.664
 5986SOL     OW18856   3.402   3.532   2.120
 5986SOL    HW118857   3.351   3.520   2.034
 5986SOL    HW218858   3.339   3.556   2.193
 5987SOL     OW18859   3.780   0.132   5.208
 5987SOL    HW118860   3.754   0.063   5.142
 5987SOL    HW218861   3.721   0.125   5.289
 5988SOL     OW18862   3.508   6.839   6.040
 5988SOL    HW118863   3.518   6.926   5.992
 5988SOL    HW218864   3.595   6.814   6.083
 5989SOL     OW18865   3.011   1.643   6.728
 5989SOL    HW118866   2.961   1.663   6.644
 5989SOL    HW218867   3.091   1.586   6.707
 5990SOL     OW18868   2.774   6.515   3.661
 5990SOL    HW118869   2.854   6.486   3.714
 5990SOL    HW218870   2.803   6.545   3.571
 5991SOL     OW18871   3.505   4.979   3.041
 5991SOL    HW118872   3.456   4.917   2.980
 5991SOL    HW218873   3.504   5.071   3.003
 5992SOL     OW18874   3.867   1.777   4.387
 5992SOL    HW118875   3.963   1.750   4.378
 5992SOL    HW218876   3.809   1.704   4.351
 5993SOL     OW18877   2.662   5.444   4.313
 5993SOL    HW118878   2.588   5.403   4.366
 5993SOL    HW218879   2.698   5.523   4.362
 5994SOL     OW18880   6.343   2.179   0.350
 5994SOL    HW118881   6.403   2.175   0.430
 5994SOL    HW218882   6.257   2.131   0.370
 5995SOL     OW18883   0.167   3.851   1.818
 5995SOL    HW118884   0.232   3.909   1.770
 5995SOL    HW218885   0.206   3.760   1.831
 5996SOL     OW18886   1.443   5.814   6.072
 5996SOL    HW118887   1.391   5.897   6.092
 5996SOL    HW218888   1.485   5.822   5.982
 5997SOL     OW18889   0.825   0.262   1.198
 5997SOL    HW118890   0.838   0.344   1.254
 5997SOL    HW218891   0.882   0.268   1.116
 5998SOL     OW18892   5.308   3.213   3.109
 5998SOL    HW118893   5.384   3.156   3.076
 5998SOL    HW218894   5.254   3.245   3.031
 5999SOL     OW18895   2.132   2.989   3.003
 5999SOL    HW118896   2.191   3.017   3.078
 5999SOL    HW218897   2.110   3.069   2.946
 6000SOL     OW18898   5.394   0.993   3.850
 6000SOL    HW118899   5.307   0.958   3.816
 6000SOL    HW218900   5.439   0.923   3.906
 6001SOL     OW18901   5.487   1.213   0.243
 6001SOL    HW118902   5.496   1.288   0.178
 6001SOL    HW218903   5.535   1.132   0.208
 6002SOL     OW18904   2.578   0.124   2.368
 6002SOL    HW118905   2.598   0.143   2.272
 6002SOL    HW218906   2.625   0.191   2.426
 6003SOL     OW18907   5.095   4.487   3.961
 6003SOL    HW118908   5.091   4.418   3.888
 6003SOL    HW218909   5.019   4.551   3.950
 6004SOL     OW18910   0.647   3.571   2.099
 6004SOL    HW118911   0.609   3.654   2.140
 6004SOL    HW218912   0.670   3.505   2.170
 6005SOL     OW18913   2.406   6.460   2.315
 6005SOL    HW118914   2.380   6.414   2.400
 6005SOL    HW218915   2.481   6.410   2.272
 6006SOL     OW18916   2.054   6.081   6.725
 6006SOL    HW118917   2.111   6.000   6.711
 6006SOL    HW218918   2.112   6.159   6.748
 6007SOL     OW18919   5.697   3.873   4.681
 6007SOL    HW118920   5.601   3.903   4.688
 6007SOL    HW218921   5.745   3.897   4.765
 6008SOL     OW18922   4.863   3.953   2.018
 6008SOL    HW118923   4.818   4.037   2.046
 6008SOL    HW218924   4.866   3.948   1.918
 6009SOL     OW18925   3.579   1.586   4.823
 6009SOL    HW118926   3.564   1.567   4.726
 6009SOL    HW218927   3.650   1.656   4.832
 6010SOL     OW18928   1.961   5.035   3.507
 6010SOL    HW118929   1.912   5.095   3.570
 6010SOL    HW218930   2.050   5.074   3.486
 6011SOL     OW18931   6.309   2.327   1.693
 6011SOL    HW118932   6.409   2.324   1.692
 6011SOL    HW218933   6.274   2.258   1.755
 6012SOL     OW18934   0.739   2.445   0.839
 6012SOL    HW118935   0.798   2.482   0.911
 6012SOL    HW218936   0.672   2.514   0.812
 6013SOL     OW18937   5.404   0.858   2.326
 6013SOL    HW118938   5.360   0.781   2.281
 6013SOL    HW218939   5.347   0.891   2.401
 6014SOL     OW18940   6.416   1.469   0.383
 6014SOL    HW118941   6.365   1.393   0.423
 6014SOL    HW218942   6.365   1.554   0.396
 6015SOL     OW18943   6.282   6.955   4.643
 6015SOL    HW118944   6.379   6.930   4.648
 6015SOL    HW218945   6.271   0.026   4.673
 6016SOL     OW18946   1.102   0.060   5.654
 6016SOL    HW118947   1.196   0.091   5.640
 6016SOL    HW218948   1.052   0.129   5.706
 6017SOL     OW18949   0.214   3.681   2.323
 6017SOL    HW118950   0.125   3.725   2.338
 6017SOL    HW218951   0.208   3.620   2.244
 6018SOL     OW18952   3.541   5.005   1.527
 6018SOL    HW118953   3.612   5.073   1.508
 6018SOL    HW218954   3.512   5.012   1.622
 6019SOL     OW18955   6.427   0.026   3.689
 6019SOL    HW118956   6.361   6.977   3.667
 6019SOL    HW218957   6.507   7.010   3.733
 6020SOL     OW18958   2.601   6.370   2.861
 6020SOL    HW118959   2.668   6.335   2.795
 6020SOL    HW218960   2.601   6.311   2.942
 6021SOL     OW18961   3.211   0.311   3.142
 6021SOL    HW118962   3.278   0.238   3.130
 6021SOL    HW218963   3.241   0.393   3.093
 6022SOL     OW18964   3.552   2.181   5.697
 6022SOL    HW118965   3.646   2.149   5.702
 6022SOL    HW218966   3.490   2.102   5.690
 6023SOL     OW18967   0.524   1.996   1.786
 6023SOL    HW118968   0.427   2.022   1.782
 6023SOL    HW218969   0.572   2.054   1.852
 6024SOL     OW18970   6.163   5.026   2.619
 6024SOL    HW118971   6.257   4.995   2.631
 6024SOL    HW218972   6.148   5.052   2.524
 6025SOL     OW18973   4.471   2.448   2.519
 6025SOL    HW118974   4.394   2.451   2.583
 6025SOL    HW218975   4.442   2.403   2.434
 6026SOL     OW18976   0.927   4.040   5.570
 6026SOL    HW118977   0.895   4.126   5.529
 6026SOL    HW218978   0.930   4.050   5.670
 6027SOL     OW18979   4.131   4.256   0.019
 6027SOL    HW118980   4.174   4.318   6.978
 6027SOL    HW218981   4.047   4.219   7.003
 6028SOL     OW18982   0.959   3.832   5.896
 6028SOL    HW118983   1.019   3.779   5.837
 6028SOL    HW218984   0.864   3.816   5.870
 6029SOL     OW18985   1.182   5.465   1.624
 6029SOL    HW118986   1.229   5.551   1.605
 6029SOL    HW218987   1.113   5.448   1.554
 6030SOL     OW18988   1.954   6.622   1.760
 6030SOL    HW118989   2.040   6.618   1.709
 6030SOL    HW218990   1.960   6.562   1.841
 6031SOL     OW18991   4.319   0.777   4.564
 6031SOL    HW118992   4.411   0.764   4.529
 6031SOL    HW218993   4.259   0.706   4.528
 6032SOL     OW18994   1.265   2.358   1.919
 6032SOL    HW118995   1.233   2.399   2.004
 6032SOL    HW218996   1.362   2.337   1.926
 6033SOL     OW18997   0.088   6.779   4.580
 6033SOL    HW118998   0.076   6.876   4.558
 6033SOL    HW218999   0.024   6.724   4.526
 6034SOL     OW19000   2.427   4.385   4.349
 6034SOL    HW119001   2.472   4.442   4.418
 6034SOL    HW219002   2.358   4.328   4.392
 6035SOL     OW19003   4.652   0.098   4.201
 6035SOL    HW119004   4.647   0.151   4.117
 6035SOL    HW219005   4.636   0.158   4.279
 6036SOL     OW19006   5.582   0.777   5.262
 6036SOL    HW119007   5.525   0.848   5.303
 6036SOL    HW219008   5.676   0.787   5.294
 6037SOL     OW19009   0.265   5.850   4.862
 6037SOL    HW119010   0.276   5.834   4.764
 6037SOL    HW219011   0.217   5.773   4.903
 6038SOL     OW19012   0.394   3.624   6.334
 6038SOL    HW119013   0.460   3.574   6.280
 6038SOL    HW219014   0.427   3.633   6.428
 6039SOL     OW19015   3.187   3.528   3.874
 6039SOL    HW119016   3.218   3.562   3.963
 6039SOL    HW219017   3.220   3.434   3.861
 6040SOL     OW19018   1.400   0.885   0.414
 6040SOL    HW119019   1.302   0.877   0.394
 6040SOL    HW219020   1.452   0.842   0.339
 6041SOL     OW19021   0.544   3.035   6.904
 6041SOL    HW119022   0.633   3.081   6.900
 6041SOL    HW219023   0.472   3.102   6.886
 6042SOL     OW19024   5.540   5.954   4.867
 6042SOL    HW119025   5.610   5.883   4.861
 6042SOL    HW219026   5.450   5.912   4.859
 6043SOL     OW19027   6.948   4.931   3.373
 6043SOL    HW119028   7.015   4.945   3.300
 6043SOL    HW219029   6.997   4.914   3.459
 6044SOL     OW19030   1.677   1.007   0.577
 6044SOL    HW119031   1.705   1.034   0.669
 6044SOL    HW219032   1.636   1.086   0.530
 6045SOL     OW19033   6.212   3.868   6.740
 6045SOL    HW119034   6.182   3.954   6.698
 6045SOL    HW219035   6.211   3.795   6.672
 6046SOL     OW19036   1.170   3.790   6.922
 6046SOL    HW119037   1.186   3.709   6.979
 6046SOL    HW219038   1.139   3.866   6.979
 6047SOL     OW19039   1.373   6.223   5.053
 6047SOL    HW119040   1.382   6.241   5.151
 6047SOL    HW219041   1.439   6.279   5.003
 6048SOL     OW19042   5.164   6.141   3.970
 6048SOL    HW119043   5.100   6.214   3.946
 6048SOL    HW219044   5.191   6.092   3.888
 6049SOL     OW19045   6.678   5.770   0.210
 6049SOL    HW119046   6.601   5.777   0.272
 6049SOL    HW219047   6.666   5.691   0.150
 6050SOL     OW19048   5.474   4.308   5.313
 6050SOL    HW119049   5.442   4.237   5.250
 6050SOL    HW219050   5.548   4.360   5.270
 6051SOL     OW19051   2.994   1.870   3.508
 6051SOL    HW119052   3.027   1.865   3.603
 6051SOL    HW219053   3.016   1.960   3.470
 6052SOL     OW19054   0.516   1.821   6.954
 6052SOL    HW119055   0.489   1.837   6.859
 6052SOL    HW219056   0.611   1.849   6.968
 6053SOL     OW19057   1.128   0.764   6.564
 6053SOL    HW119058   1.165   0.820   6.490
 6053SOL    HW219059   1.190   0.688   6.583
 6054SOL     OW19060   0.561   4.008   6.267
 6054SOL    HW119061   0.528   4.012   6.173
 6054SOL    HW219062   0.622   3.930   6.277
 6055SOL     OW19063   5.614   6.982   2.705
 6055SOL    HW119064   5.543   0.013   2.748
 6055SOL    HW219065   5.677   6.948   2.775
 6056SOL     OW19066   5.161   3.106   6.319
 6056SOL    HW119067   5.187   3.111   6.223
 6056SOL    HW219068   5.148   3.010   6.345
 6057SOL     OW19069   4.608   0.939   6.944
 6057SOL    HW119070   4.704   0.930   6.971
 6057SOL    HW219071   4.602   0.984   6.855
 6058SOL     OW19072   5.278   2.187   5.493
 6058SOL    HW119073   5.376   2.180   5.473
 6058SOL    HW219074   5.266   2.201   5.591
 6059SOL     OW19075   0.022   6.291   6.624
 6059SOL    HW119076   6.981   6.365   6.607
 6059SOL    HW219077   0.106   6.329   6.663
 6060SOL     OW19078   2.972   5.183   6.408
 6060SOL    HW119079   2.924   5.259   6.452
 6060SOL    HW219080   3.070   5.205   6.402
 6061SOL     OW19081   2.159   1.447   6.931
 6061SOL    HW119082   2.199   1.539   6.934
 6061SOL    HW219083   2.148   1.419   6.835
 6062SOL     OW19084   1.195   0.361   3.451
 6062SOL    HW119085   1.132   0.343   3.375
 6062SOL    HW219086   1.185   0.290   3.520
 6063SOL     OW19087   6.001   6.276   0.062
 6063SOL    HW119088   6.052   6.338   0.121
 6063SOL    HW219089   6.023   6.296   6.990
 6064SOL     OW19090   1.037   5.612   2.338
 6064SOL    HW119091   1.089   5.697   2.324
 6064SOL    HW219092   0.991   5.616   2.427
 6065SOL     OW19093   5.069   0.343   0.924
 6065SOL    HW119094   5.151   0.369   0.974
 6065SOL    HW219095   5.092   0.276   0.854
 6066SOL     OW19096   4.841   2.349   5.537
 6066SOL    HW119097   4.810   2.350   5.632
 6066SOL    HW219098   4.897   2.430   5.520
 6067SOL     OW19099   4.843   1.554   6.974
 6067SOL    HW119100   4.858   1.631   0.011
 6067SOL    HW219101   4.927   1.534   6.925
 6068SOL     OW19102   4.809   1.037   5.548
 6068SOL    HW119103   4.740   0.997   5.608
 6068SOL    HW219104   4.868   0.965   5.512
 6069SOL     OW19105   6.963   5.479   3.529
 6069SOL    HW119106   6.979   5.535   3.610
 6069SOL    HW219107   0.005   5.404   3.526
 6070SOL     OW19108   4.937   3.359   1.486
 6070SOL    HW119109   4.949   3.289   1.556
 6070SOL    HW219110   4.900   3.317   1.403
 6071SOL     OW19111   5.002   0.377   5.331
 6071SOL    HW119112   4.928   0.353   5.394
 6071SOL    HW219113   4.998   0.318   5.250
 6072SOL     OW19114   6.328   1.248   1.732
 6072SOL    HW119115   6.255   1.181   1.748
 6072SOL    HW219116   6.411   1.201   1.704
 6073SOL     OW19117   6.179   1.184   1.025
 6073SOL    HW119118   6.265   1.164   0.978
 6073SOL    HW219119   6.177   1.137   1.113
 6074SOL     OW19120   0.363   0.582   5.833
 6074SOL    HW119121   0.425   0.660   5.825
 6074SOL    HW219122   0.392   0.510   5.770
 6075SOL     OW19123   5.412   3.469   5.785
 6075SOL    HW119124   5.446   3.531   5.714
 6075SOL    HW219125   5.440   3.375   5.764
 6076SOL     OW19126   2.915   0.354   3.639
 6076SOL    HW119127   2.857   0.279   3.608
 6076SOL    HW219128   2.940   0.412   3.562
 6077SOL     OW19129   5.084   4.940   3.524
 6077SOL    HW119130   5.107   4.938   3.427
 6077SOL    HW219131   5.042   4.853   3.550
 6078SOL     OW19132   2.184   4.781   4.463
 6078SOL    HW119133   2.171   4.781   4.563
 6078SOL    HW219134   2.094   4.784   4.419
 6079SOL     OW19135   3.222   1.799   0.401
 6079SOL    HW119136   3.197   1.865   0.330
 6079SOL    HW219137   3.154   1.725   0.403
 6080SOL     OW19138   5.907   3.570   3.412
 6080SOL    HW119139   5.941   3.601   3.501
 6080SOL    HW219140   5.933   3.635   3.341
 6081SOL     OW19141   1.017   4.640   1.980
 6081SOL    HW119142   1.084   4.576   1.942
 6081SOL    HW219143   1.008   4.719   1.920
 6082SOL     OW19144   4.788   1.746   5.246
 6082SOL    HW119145   4.757   1.671   5.188
 6082SOL    HW219146   4.815   1.711   5.335
 6083SOL     OW19147   1.915   6.793   6.570
 6083SOL    HW119148   1.980   6.864   6.544
 6083SOL    HW219149   1.881   6.811   6.663
 6084SOL     OW19150   0.250   5.967   6.164
 6084SOL    HW119151   0.163   6.012   6.186
 6084SOL    HW219152   0.306   5.960   6.247
 6085SOL     OW19153   5.411   5.034   1.842
 6085SOL    HW119154   5.337   4.987   1.795
 6085SOL    HW219155   5.458   4.970   1.902
 6086SOL     OW19156   3.458   2.067   2.106
 6086SOL    HW119157   3.487   1.985   2.057
 6086SOL    HW219158   3.529   2.136   2.101
 6087SOL     OW19159   3.732   0.810   0.399
 6087SOL    HW119160   3.662   0.803   0.328
 6087SOL    HW219161   3.691   0.845   0.483
 6088SOL     OW19162   0.683   0.841   4.880
 6088SOL    HW119163   0.637   0.764   4.923
 6088SOL    HW219164   0.773   0.855   4.923
 6089SOL     OW19165   6.877   3.720   1.652
 6089SOL    HW119166   6.893   3.657   1.577
 6089SOL    HW219167   6.778   3.726   1.670
 6090SOL     OW19168   6.747   6.531   4.283
 6090SOL    HW119169   6.807   6.452   4.277
 6090SOL    HW219170   6.664   6.507   4.332
 6091SOL     OW19171   6.908   2.042   1.971
 6091SOL    HW119172   6.893   2.013   2.066
 6091SOL    HW219173   7.000   2.016   1.943
 6092SOL     OW19174   0.471   3.642   1.316
 6092SOL    HW119175   0.556   3.677   1.278
 6092SOL    HW219176   0.413   3.606   1.243
 6093SOL     OW19177   0.654   4.328   0.812
 6093SOL    HW119178   0.596   4.300   0.735
 6093SOL    HW219179   0.679   4.425   0.800
 6094SOL     OW19180   0.539   1.325   0.934
 6094SOL    HW119181   0.585   1.236   0.929
 6094SOL    HW219182   0.547   1.360   1.027
 6095SOL     OW19183   0.436   3.943   5.268
 6095SOL    HW119184   0.372   4.017   5.248
 6095SOL    HW219185   0.503   3.974   5.335
 6096SOL     OW19186   5.773   1.818   2.566
 6096SOL    HW119187   5.759   1.749   2.495
 6096SOL    HW219188   5.845   1.881   2.537
 6097SOL     OW19189   3.815   1.537   2.571
 6097SOL    HW119190   3.857   1.626   2.557
 6097SOL    HW219191   3.883   1.473   2.606
 6098SOL     OW19192   0.408   0.853   6.838
 6098SOL    HW119193   0.323   0.809   6.869
 6098SOL    HW219194   0.486   0.808   6.882
 6099SOL     OW19195   5.895   4.140   4.706
 6099SOL    HW119196   5.973   4.203   4.712
 6099SOL    HW219197   5.910   4.062   4.766
 6100SOL     OW19198   0.121   2.965   1.392
 6100SOL    HW119199   0.097   2.905   1.468
 6100SOL    HW219200   0.105   2.916   1.306
 6101SOL     OW19201   6.032   6.350   3.865
 6101SOL    HW119202   6.088   6.430   3.888
 6101SOL    HW219203   5.967   6.332   3.938
 6102SOL     OW19204   3.455   6.110   4.600
 6102SOL    HW119205   3.514   6.089   4.678
 6102SOL    HW219206   3.512   6.122   4.519
 6103SOL     OW19207   5.377   1.869   4.995
 6103SOL    HW119208   5.374   1.840   4.900
 6103SOL    HW219209   5.464   1.840   5.036
 6104SOL     OW19210   2.125   3.269   1.443
 6104SOL    HW119211   2.191   3.194   1.449
 6104SOL    HW219212   2.103   3.302   1.535
 6105SOL     OW19213   3.524   4.954   4.725
 6105SOL    HW119214   3.577   4.948   4.810
 6105SOL    HW219215   3.439   4.902   4.735
 6106SOL     OW19216   2.208   5.304   4.210
 6106SOL    HW119217   2.109   5.295   4.219
 6106SOL    HW219218   2.254   5.224   4.248
 6107SOL     OW19219   1.972   4.842   6.005
 6107SOL    HW119220   1.952   4.924   6.059
 6107SOL    HW219221   2.062   4.805   6.031
 6108SOL     OW19222   5.532   2.077   5.287
 6108SOL    HW119223   5.558   2.166   5.249
 6108SOL    HW219224   5.535   2.081   5.387
 6109SOL     OW19225   0.137   4.399   1.803
 6109SOL    HW119226   0.228   4.360   1.786
 6109SOL    HW219227   0.133   4.436   1.895
 6110SOL     OW19228   3.437   2.123   3.810
 6110SOL    HW119229   3.488   2.062   3.750
 6110SOL    HW219230   3.367   2.171   3.757
 6111SOL     OW19231   0.814   4.499   3.536
 6111SOL    HW119232   0.907   4.515   3.569
 6111SOL    HW219233   0.794   4.401   3.540
 6112SOL     OW19234   1.617   0.788   0.988
 6112SOL    HW119235   1.652   0.869   0.941
 6112SOL    HW219236   1.597   0.810   1.084
 6113SOL     OW19237   1.045   4.713   6.014
 6113SOL    HW119238   0.980   4.714   5.938
 6113SOL    HW219239   1.127   4.763   5.989
 6114SOL     OW19240   3.537   4.364   1.365
 6114SOL    HW119241   3.579   4.450   1.337
 6114SOL    HW219242   3.495   4.319   1.286
 6115SOL     OW19243   0.058   4.412   2.263
 6115SOL    HW119244   0.047   4.479   2.337
 6115SOL    HW219245   0.091   4.326   2.301
 6116SOL     OW19246   4.237   2.641   0.716
 6116SOL    HW119247   4.161   2.707   0.718
 6116SOL    HW219248   4.281   2.643   0.627
 6117SOL     OW19249   5.531   6.202   4.074
 6117SOL    HW119250   5.451   6.237   4.124
 6117SOL    HW219251   5.519   6.104   4.056
 6118SOL     OW19252   6.330   0.119   3.440
 6118SOL    HW119253   6.330   0.080   3.532
 6118SOL    HW219254   6.424   0.142   3.414
 6119SOL     OW19255   5.676   5.275   5.047
 6119SOL    HW119256   5.666   5.311   4.954
 6119SOL    HW219257   5.586   5.269   5.090
 6120SOL     OW19258   2.114   1.846   2.747
 6120SOL    HW119259   2.122   1.761   2.798
 6120SOL    HW219260   2.166   1.918   2.792
 6121SOL     OW19261   7.006   1.896   3.234
 6121SOL    HW119262   0.027   1.818   3.189
 6121SOL    HW219263   0.046   1.939   3.298
 6122SOL     OW19264   3.702   5.601   3.754
 6122SOL    HW119265   3.729   5.677   3.694
 6122SOL    HW219266   3.779   5.577   3.814
 6123SOL     OW19267   6.418   1.850   3.010
 6123SOL    HW119268   6.376   1.883   3.095
 6123SOL    HW219269   6.395   1.913   2.935
 6124SOL     OW19270   2.891   0.319   4.983
 6124SOL    HW119271   2.979   0.367   4.993
 6124SOL    HW219272   2.899   0.251   4.910
 6125SOL     OW19273   1.304   4.180   2.758
 6125SOL    HW119274   1.248   4.171   2.841
 6125SOL    HW219275   1.300   4.275   2.726
 6126SOL     OW19276   3.560   6.431   3.213
 6126SOL    HW119277   3.609   6.414   3.128
 6126SOL    HW219278   3.494   6.357   3.229
 6127SOL     OW19279   1.929   5.629   1.122
 6127SOL    HW119280   1.922   5.728   1.105
 6127SOL    HW219281   1.852   5.583   1.080
 6128SOL     OW19282   5.355   4.215   1.883
 6128SOL    HW119283   5.382   4.185   1.791
 6128SOL    HW219284   5.256   4.207   1.892
 6129SOL     OW19285   6.631   3.722   3.566
 6129SOL    HW119286   6.677   3.810   3.578
 6129SOL    HW219287   6.624   3.702   3.468
 6130SOL     OW19288   5.882   3.223   2.733
 6130SOL    HW119289   5.887   3.293   2.804
 6130SOL    HW219290   5.816   3.250   2.664
 6131SOL     OW19291   0.215   1.288   5.514
 6131SOL    HW119292   0.137   1.346   5.535
 6131SOL    HW219293   0.187   1.215   5.452
 6132SOL     OW19294   6.984   2.698   0.229
 6132SOL    HW119295   6.925   2.625   0.194
 6132SOL    HW219296   0.051   2.661   0.248
 6133SOL     OW19297   1.448   4.988   0.410
 6133SOL    HW119298   1.404   5.077   0.397
 6133SOL    HW219299   1.466   4.974   0.507
 6134SOL     OW19300   4.717   4.109   6.109
 6134SOL    HW119301   4.652   4.100   6.184
 6134SOL    HW219302   4.808   4.126   6.146
 6135SOL     OW19303   5.840   6.694   2.228
 6135SOL    HW119304   5.867   6.778   2.182
 6135SOL    HW219305   5.841   6.618   2.163
 6136SOL     OW19306   1.063   2.123   2.594
 6136SOL    HW119307   1.129   2.125   2.669
 6136SOL    HW219308   1.095   2.060   2.524
 6137SOL     OW19309   3.211   0.415   6.082
 6137SOL    HW119310   3.238   0.422   6.178
 6137SOL    HW219311   3.122   0.458   6.068
 6138SOL     OW19312   4.768   1.052   3.025
 6138SOL    HW119313   4.722   0.964   3.039
 6138SOL    HW219314   4.812   1.080   3.110
 6139SOL     OW19315   2.447   6.087   3.679
 6139SOL    HW119316   2.412   6.140   3.756
 6139SOL    HW219317   2.394   6.108   3.597
 6140SOL     OW19318   2.460   5.982   1.313
 6140SOL    HW119319   2.396   5.945   1.380
 6140SOL    HW219320   2.472   6.081   1.328
 6141SOL     OW19321   0.847   6.247   4.678
 6141SOL    HW119322   0.848   6.172   4.745
 6141SOL    HW219323   0.760   6.296   4.684
 6142SOL     OW19324   0.094   3.028   4.258
 6142SOL    HW119325   0.034   2.950   4.243
 6142SOL    HW219326   0.040   3.110   4.278
 6143SOL     OW19327   6.445   5.770   6.564
 6143SOL    HW119328   6.474   5.850   6.511
 6143SOL    HW219329   6.349   5.749   6.545
 6144SOL     OW19330   0.226   5.671   4.621
 6144SOL    HW119331   0.168   5.603   4.576
 6144SOL    HW219332   0.319   5.664   4.585
 6145SOL     OW19333   5.966   5.211   3.931
 6145SOL    HW119334   5.874   5.246   3.913
 6145SOL    HW219335   6.033   5.284   3.915
 6146SOL     OW19336   6.027   1.709   3.897
 6146SOL    HW119337   6.070   1.665   3.818
 6146SOL    HW219338   5.942   1.754   3.869
 6147SOL     OW19339   1.253   3.799   3.881
 6147SOL    HW119340   1.350   3.776   3.871
 6147SOL    HW219341   1.202   3.716   3.904
 6148SOL     OW19342   5.709   6.515   3.246
 6148SOL    HW119343   5.674   6.449   3.180
 6148SOL    HW219344   5.710   6.606   3.204
 6149SOL     OW19345   1.095   5.806   4.573
 6149SOL    HW119346   1.174   5.850   4.617
 6149SOL    HW219347   1.031   5.876   4.542
 6150SOL     OW19348   4.551   6.622   6.782
 6150SOL    HW119349   4.632   6.676   6.758
 6150SOL    HW219350   4.573   6.561   6.857
 6151SOL     OW19351   3.801   0.231   4.953
 6151SOL    HW119352   3.801   0.202   5.049
 6151SOL    HW219353   3.716   0.278   4.932
 6152SOL     OW19354   6.636   3.721   5.985
 6152SOL    HW119355   6.595   3.761   6.067
 6152SOL    HW219356   6.570   3.721   5.910
 6153SOL     OW19357   3.730   5.670   5.755
 6153SOL    HW119358   3.826   5.650   5.776
 6153SOL    HW219359   3.723   5.765   5.723
 6154SOL     OW19360   5.054   2.659   3.426
 6154SOL    HW119361   5.061   2.560   3.413
 6154SOL    HW219362   5.107   2.706   3.357
 6155SOL     OW19363   2.883   4.769   4.558
 6155SOL    HW119364   2.810   4.745   4.495
 6155SOL    HW219365   2.863   4.733   4.649
 6156SOL     OW19366   5.940   0.511   4.298
 6156SOL    HW119367   5.854   0.563   4.299
 6156SOL    HW219368   5.922   0.415   4.276
 6157SOL     OW19369   1.144   0.457   4.848
 6157SOL    HW119370   1.135   0.557   4.850
 6157SOL    HW219371   1.237   0.431   4.871
 6158SOL     OW19372   4.941   6.523   7.018
 6158SOL    HW119373   4.976   6.596   6.959
 6158SOL    HW219374   5.018   6.468   0.028
 6159SOL     OW19375   4.905   3.882   6.208
 6159SOL    HW119376   4.903   3.844   6.115
 6159SOL    HW219377   4.959   3.822   6.267
 6160SOL     OW19378   6.124   5.249   0.368
 6160SOL    HW119379   6.215   5.211   0.350
 6160SOL    HW219380   6.134   5.339   0.410
 6161SOL     OW19381   5.580   0.356   6.247
 6161SOL    HW119382   5.534   0.320   6.328
 6161SOL    HW219383   5.513   0.397   6.186
 6162SOL     OW19384   5.731   5.846   3.609
 6162SOL    HW119385   5.666   5.774   3.633
 6162SOL    HW219386   5.698   5.895   3.528
 6163SOL     OW19387   0.061   4.283   2.889
 6163SOL    HW119388   7.010   4.343   2.860
 6163SOL    HW219389   0.026   4.215   2.953
 6164SOL     OW19390   4.703   3.352   1.304
 6164SOL    HW119391   4.721   3.279   1.238
 6164SOL    HW219392   4.627   3.326   1.364
 6165SOL     OW19393   3.588   0.048   1.280
 6165SOL    HW119394   3.495   0.036   1.314
 6165SOL    HW219395   3.586   0.100   1.194
 6166SOL     OW19396   3.348   0.863   0.475
 6166SOL    HW119397   3.369   0.781   0.528
 6166SOL    HW219398   3.325   0.937   0.537
 6167SOL     OW19399   0.241   4.968   3.418
 6167SOL    HW119400   0.240   4.913   3.334
 6167SOL    HW219401   0.219   4.909   3.496
 6168SOL     OW19402   6.970   2.680   1.781
 6168SOL    HW119403   7.012   2.593   1.806
 6168SOL    HW219404   6.969   2.740   1.861
 6169SOL     OW19405   1.465   4.297   0.865
 6169SOL    HW119406   1.525   4.236   0.814
 6169SOL    HW219407   1.397   4.242   0.915
 6170SOL     OW19408   5.661   1.997   3.490
 6170SOL    HW119409   5.683   1.900   3.475
 6170SOL    HW219410   5.590   2.005   3.559
 6171SOL     OW19411   5.637   2.456   6.229
 6171SOL    HW119412   5.657   2.394   6.304
 6171SOL    HW219413   5.629   2.550   6.264
 6172SOL     OW19414   0.051   4.851   3.583
 6172SOL    HW119415   7.016   4.787   3.632
 6172SOL    HW219416   0.070   4.930   3.641
 6173SOL     OW19417   5.468   6.313   2.776
 6173SOL    HW119418   5.508   6.404   2.782
 6173SOL    HW219419   5.472   6.269   2.866
 6174SOL     OW19420   0.329   2.007   3.513
 6174SOL    HW119421   0.359   2.041   3.424
 6174SOL    HW219422   0.230   2.021   3.522
 6175SOL     OW19423   4.507   2.477   6.385
 6175SOL    HW119424   4.481   2.504   6.478
 6175SOL    HW219425   4.451   2.399   6.356
 6176SOL     OW19426   2.640   5.231   5.948
 6176SOL    HW119427   2.695   5.157   5.986
 6176SOL    HW219428   2.626   5.302   6.017
 6177SOL     OW19429   6.080   5.226   1.932
 6177SOL    HW119430   6.044   5.300   1.989
 6177SOL    HW219431   6.003   5.174   1.894
 6178SOL     OW19432   4.238   4.703   1.831
 6178SOL    HW119433   4.311   4.634   1.836
 6178SOL    HW219434   4.212   4.717   1.736
 6179SOL     OW19435   4.894   5.351   4.544
 6179SOL    HW119436   4.883   5.446   4.513
 6179SOL    HW219437   4.804   5.313   4.566
 6180SOL     OW19438   1.616   3.333   6.493
 6180SOL    HW119439   1.542   3.389   6.530
 6180SOL    HW219440   1.626   3.250   6.549
 6181SOL     OW19441   6.893   6.400   0.305
 6181SOL    HW119442   6.912   6.352   0.219
 6181SOL    HW219443   6.978   6.414   0.355
 6182SOL     OW19444   2.773   2.554   6.010
 6182SOL    HW119445   2.722   2.633   5.977
 6182SOL    HW219446   2.870   2.578   6.019
 6183SOL     OW19447   0.444   0.698   0.630
 6183SOL    HW119448   0.487   0.632   0.692
 6183SOL    HW219449   0.409   0.775   0.683
 6184SOL     OW19450   3.605   6.496   5.169
 6184SOL    HW119451   3.528   6.442   5.136
 6184SOL    HW219452   3.629   6.564   5.099
 6185SOL     OW19453   3.453   3.040   3.739
 6185SOL    HW119454   3.487   2.973   3.672
 6185SOL    HW219455   3.499   3.026   3.826
 6186SOL     OW19456   0.879   1.326   1.874
 6186SOL    HW119457   0.890   1.410   1.822
 6186SOL    HW219458   0.781   1.306   1.883
 6187SOL     OW19459   3.575   2.404   5.542
 6187SOL    HW119460   3.628   2.480   5.580
 6187SOL    HW219461   3.566   2.332   5.611
 6188SOL     OW19462   0.964   1.392   5.933
 6188SOL    HW119463   0.867   1.389   5.954
 6188SOL    HW219464   1.016   1.416   6.015
 6189SOL     OW19465   6.937   5.449   0.898
 6189SOL    HW119466   6.916   5.422   0.992
 6189SOL    HW219467   6.973   5.370   0.848
 6190SOL     OW19468   0.915   3.187   4.149
 6190SOL    HW119469   0.889   3.232   4.063
 6190SOL    HW219470   0.855   3.109   4.164
 6191SOL     OW19471   3.020   4.937   0.353
 6191SOL    HW119472   2.931   4.933   0.399
 6191SOL    HW219473   3.014   4.892   0.265
 6192SOL     OW19474   2.559   1.996   1.161
 6192SOL    HW119475   2.500   1.939   1.219
 6192SOL    HW219476   2.551   1.966   1.066
 6193SOL     OW19477   4.437   5.376   6.704
 6193SOL    HW119478   4.505   5.317   6.659
 6193SOL    HW219479   4.472   5.469   6.708
 6194SOL     OW19480   5.636   6.837   6.034
 6194SOL    HW119481   5.719   6.825   6.088
 6194SOL    HW219482   5.633   6.930   5.998
 6195SOL     OW19483   5.110   5.296   5.640
 6195SOL    HW119484   5.192   5.312   5.694
 6195SOL    HW219485   5.115   5.348   5.555
 6196SOL     OW19486   6.686   3.990   3.232
 6196SOL    HW119487   6.716   3.931   3.307
 6196SOL    HW219488   6.600   3.955   3.195
 6197SOL     OW19489   0.335   5.535   0.455
 6197SOL    HW119490   0.434   5.536   0.440
 6197SOL    HW219491   0.311   5.457   0.512
 6198SOL     OW19492   6.362   1.859   6.132
 6198SOL    HW119493   6.291   1.880   6.065
 6198SOL    HW219494   6.321   1.848   6.222
 6199SOL     OW19495   2.191   7.012   6.298
 6199SOL    HW119496   2.274   6.959   6.284
 6199SOL    HW219497   2.166   7.011   6.394
 6200SOL     OW19498   2.068   6.998   6.532
 6200SOL    HW119499   2.073   0.073   6.544
 6200SOL    HW219500   2.099   6.952   6.615
 6201SOL     OW19501   0.952   4.809   3.631
 6201SOL    HW119502   0.989   4.823   3.723
 6201SOL    HW219503   0.856   4.836   3.630
 6202SOL     OW19504   5.116   1.460   1.525
 6202SOL    HW119505   5.117   1.393   1.450
 6202SOL    HW219506   5.178   1.535   1.504
 6203SOL     OW19507   0.352   1.061   2.341
 6203SOL    HW119508   0.261   1.103   2.342
 6203SOL    HW219509   0.407   1.104   2.269
 6204SOL     OW19510   0.931   6.028   4.494
 6204SOL    HW119511   0.885   6.009   4.407
 6204SOL    HW219512   0.873   6.089   4.549
 6205SOL     OW19513   0.293   4.408   3.487
 6205SOL    HW119514   0.282   4.372   3.580
 6205SOL    HW219515   0.254   4.343   3.422
 6206SOL     OW19516   5.512   2.194   3.983
 6206SOL    HW119517   5.423   2.177   4.026
 6206SOL    HW219518   5.578   2.125   4.013
 6207SOL     OW19519   1.677   5.268   3.405
 6207SOL    HW119520   1.684   5.367   3.419
 6207SOL    HW219521   1.760   5.224   3.438
 6208SOL     OW19522   3.848   4.521   6.035
 6208SOL    HW119523   3.923   4.583   6.012
 6208SOL    HW219524   3.778   4.526   5.964
 6209SOL     OW19525   3.407   1.029   2.694
 6209SOL    HW119526   3.321   1.045   2.648
 6209SOL    HW219527   3.473   1.101   2.669
 6210SOL     OW19528   5.430   0.176   4.337
 6210SOL    HW119529   5.500   0.108   4.362
 6210SOL    HW219530   5.340   0.142   4.366
 6211SOL     OW19531   5.439   3.024   5.298
 6211SOL    HW119532   5.485   2.941   5.329
 6211SOL    HW219533   5.342   3.006   5.286
 6212SOL     OW19534   4.819   4.077   4.841
 6212SOL    HW119535   4.864   4.000   4.797
 6212SOL    HW219536   4.767   4.129   4.773
 6213SOL     OW19537   5.392   5.878   0.647
 6213SOL    HW119538   5.382   5.827   0.732
 6213SOL    HW219539   5.385   5.976   0.666
 6214SOL     OW19540   6.525   6.246   5.837
 6214SOL    HW119541   6.432   6.274   5.814
 6214SOL    HW219542   6.525   6.151   5.867
 6215SOL     OW19543   5.448   2.710   4.924
 6215SOL    HW119544   5.532   2.762   4.943
 6215SOL    HW219545   5.472   2.615   4.905
 6216SOL     OW19546   5.457   2.900   6.160
 6216SOL    HW119547   5.484   2.930   6.068
 6216SOL    HW219548   5.527   2.929   6.226
 6217SOL     OW19549   0.415   4.312   2.349
 6217SOL    HW119550   0.362   4.247   2.402
 6217SOL    HW219551   0.480   4.262   2.291
 6218SOL     OW19552   5.436   6.841   1.426
 6218SOL    HW119553   5.529   6.806   1.438
 6218SOL    HW219554   5.435   6.912   1.356
 6219SOL     OW19555   2.692   0.696   0.353
 6219SOL    HW119556   2.782   0.663   0.382
 6219SOL    HW219557   2.695   0.720   0.257
 6220SOL     OW19558   2.701   0.772   2.786
 6220SOL    HW119559   2.683   0.863   2.749
 6220SOL    HW219560   2.705   0.777   2.886
 6221SOL     OW19561   4.615   5.098   5.103
 6221SOL    HW119562   4.681   5.106   5.028
 6221SOL    HW219563   4.615   5.004   5.136
 6222SOL     OW19564   0.346   0.914   2.066
 6222SOL    HW119565   0.409   0.885   2.138
 6222SOL    HW219566   0.258   0.939   2.106
 6223SOL     OW19567   6.401   5.254   3.764
 6223SOL    HW119568   6.463   5.326   3.795
 6223SOL    HW219569   6.437   5.213   3.680
 6224SOL     OW19570   3.970   6.936   0.107
 6224SOL    HW119571   4.011   6.973   0.024
 6224SOL    HW219572   4.040   6.927   0.178
 6225SOL     OW19573   5.736   5.564   6.339
 6225SOL    HW119574   5.639   5.555   6.316
 6225SOL    HW219575   5.760   5.498   6.410
 6226SOL     OW19576   1.399   0.964   4.048
 6226SOL    HW119577   1.476   0.922   4.000
 6226SOL    HW219578   1.432   1.036   4.109
 6227SOL     OW19579   2.267   4.141   6.227
 6227SOL    HW119580   2.300   4.170   6.137
 6227SOL    HW219581   2.171   4.165   6.237
 6228SOL     OW19582   0.836   2.762   4.160
 6228SOL    HW119583   0.935   2.750   4.146
 6228SOL    HW219584   0.809   2.716   4.245
 6229SOL     OW19585   0.293   4.868   4.576
 6229SOL    HW119586   0.246   4.794   4.528
 6229SOL    HW219587   0.351   4.830   4.647
 6230SOL     OW19588   1.050   0.630   0.956
 6230SOL    HW119589   1.111   0.648   1.033
 6230SOL    HW219590   1.104   0.601   0.877
 6231SOL     OW19591   1.642   5.217   5.494
 6231SOL    HW119592   1.701   5.217   5.414
 6231SOL    HW219593   1.555   5.173   5.471
 6232SOL     OW19594   3.765   0.919   6.380
 6232SOL    HW119595   3.864   0.926   6.368
 6232SOL    HW219596   3.742   0.939   6.475
 6233SOL     OW19597   6.890   4.410   1.152
 6233SOL    HW119598   6.966   4.364   1.200
 6233SOL    HW219599   6.849   4.478   1.213
 6234SOL     OW19600   4.725   5.029   2.860
 6234SOL    HW119601   4.774   5.098   2.913
 6234SOL    HW219602   4.720   4.943   2.911
 6235SOL     OW19603   0.966   1.041   1.312
 6235SOL    HW119604   0.923   0.951   1.303
 6235SOL    HW219605   0.909   1.109   1.267
 6236SOL     OW19606   6.144   6.226   1.444
 6236SOL    HW119607   6.237   6.251   1.419
 6236SOL    HW219608   6.138   6.126   1.452
 6237SOL     OW19609   4.612   1.383   3.275
 6237SOL    HW119610   4.645   1.295   3.310
 6237SOL    HW219611   4.606   1.448   3.351
 6238SOL     OW19612   1.900   6.611   3.604
 6238SOL    HW119613   1.829   6.614   3.674
 6238SOL    HW219614   1.953   6.527   3.613
 6239SOL     OW19615   3.945   1.521   4.171
 6239SOL    HW119616   3.880   1.500   4.098
 6239SOL    HW219617   3.938   1.452   4.244
 6240SOL     OW19618   4.147   3.472   4.368
 6240SOL    HW119619   4.121   3.381   4.336
 6240SOL    HW219620   4.127   3.539   4.296
 6241SOL     OW19621   3.986   0.664   3.218
 6241SOL    HW119622   3.961   0.600   3.291
 6241SOL    HW219623   4.067   0.630   3.170
 6242SOL     OW19624   3.247   2.165   4.645
 6242SOL    HW119625   3.337   2.164   4.604
 6242SOL    HW219626   3.184   2.108   4.591
 6243SOL     OW19627   3.255   0.431   0.230
 6243SOL    HW119628   3.347   0.468   0.240
 6243SOL    HW219629   3.191   0.505   0.209
 6244SOL     OW19630   5.271   2.546   1.591
 6244SOL    HW119631   5.278   2.457   1.637
 6244SOL    HW219632   5.221   2.535   1.505
 6245SOL     OW19633   6.980   4.871   1.653
 6245SOL    HW119634   6.972   4.778   1.689
 6245SOL    HW219635   0.005   4.869   1.566
 6246SOL     OW19636   1.056   5.976   5.328
 6246SOL    HW119637   0.956   5.980   5.329
 6246SOL    HW219638   1.090   6.026   5.248
 6247SOL     OW19639   5.701   5.169   2.300
 6247SOL    HW119640   5.792   5.210   2.305
 6247SOL    HW219641   5.707   5.072   2.321
 6248SOL     OW19642   4.663   2.504   5.986
 6248SOL    HW119643   4.616   2.571   5.928
 6248SOL    HW219644   4.693   2.548   6.071
 6249SOL     OW19645   5.745   2.419   3.039
 6249SOL    HW119646   5.664   2.479   3.037
 6249SOL    HW219647   5.719   2.328   3.008
 6250SOL     OW19648   5.083   6.849   5.083
 6250SOL    HW119649   5.106   6.867   4.987
 6250SOL    HW219650   5.163   6.867   5.140
 6251SOL     OW19651   2.990   1.037   3.855
 6251SOL    HW119652   3.047   1.040   3.937
 6251SOL    HW219653   2.978   1.130   3.820
 6252SOL     OW19654   2.308   4.609   0.374
 6252SOL    HW119655   2.221   4.650   0.401
 6252SOL    HW219656   2.334   4.538   0.439
 6253SOL     OW19657   4.823   6.159   3.921
 6253SOL    HW119658   4.736   6.206   3.933
 6253SOL    HW219659   4.895   6.226   3.902
 6254SOL     OW19660   6.930   6.548   1.704
 6254SOL    HW119661   6.876   6.465   1.720
 6254SOL    HW219662   6.994   6.533   1.629
 6255SOL     OW19663   3.005   0.762   0.957
 6255SOL    HW119664   2.955   0.817   1.024
 6255SOL    HW219665   3.064   0.697   1.005
 6256SOL     OW19666   0.175   4.526   2.043
 6256SOL    HW119667   0.167   4.470   2.126
 6256SOL    HW219668   0.227   4.609   2.063
 6257SOL     OW19669   4.000   4.217   0.413
 6257SOL    HW119670   4.002   4.280   0.491
 6257SOL    HW219671   3.999   4.270   0.328
 6258SOL     OW19672   4.350   5.139   3.556
 6258SOL    HW119673   4.446   5.153   3.579
 6258SOL    HW219674   4.342   5.110   3.461
 6259SOL     OW19675   5.018   0.039   4.650
 6259SOL    HW119676   4.923   0.046   4.682
 6259SOL    HW219677   5.064   6.989   4.699
 6260SOL     OW19678   3.859   2.287   6.746
 6260SOL    HW119679   3.873   2.327   6.837
 6260SOL    HW219680   3.876   2.357   6.676
 6261SOL     OW19681   4.587   6.291   1.636
 6261SOL    HW119682   4.507   6.236   1.659
 6261SOL    HW219683   4.592   6.303   1.537
 6262SOL     OW19684   6.191   1.709   3.591
 6262SOL    HW119685   6.133   1.770   3.537
 6262SOL    HW219686   6.237   1.644   3.531
 6263SOL     OW19687   5.983   6.262   5.936
 6263SOL    HW119688   5.996   6.164   5.943
 6263SOL    HW219689   5.889   6.282   5.910
 6264SOL     OW19690   1.057   6.419   0.972
 6264SOL    HW119691   1.144   6.439   0.928
 6264SOL    HW219692   1.020   6.502   1.013
 6265SOL     OW19693   3.889   6.300   6.821
 6265SOL    HW119694   3.986   6.279   6.812
 6265SOL    HW219695   3.869   6.325   6.915
 6266SOL     OW19696   2.694   5.113   3.291
 6266SOL    HW119697   2.714   5.087   3.196
 6266SOL    HW219698   2.722   5.208   3.306
 6267SOL     OW19699   0.477   6.538   4.300
 6267SOL    HW119700   0.549   6.487   4.254
 6267SOL    HW219701   0.463   6.501   4.392
 6268SOL     OW19702   3.275   2.130   1.065
 6268SOL    HW119703   3.241   2.110   0.973
 6268SOL    HW219704   3.367   2.091   1.075
 6269SOL     OW19705   0.043   5.740   0.368
 6269SOL    HW119706   0.116   5.672   0.372
 6269SOL    HW219707   6.985   5.704   0.412
 6270SOL     OW19708   1.132   6.076   0.924
 6270SOL    HW119709   1.185   6.096   1.007
 6270SOL    HW219710   1.102   5.981   0.925
 6271SOL     OW19711   6.807   3.457   5.950
 6271SOL    HW119712   6.843   3.456   6.043
 6271SOL    HW219713   6.747   3.536   5.938
 6272SOL     OW19714   6.850   0.860   1.031
 6272SOL    HW119715   6.795   0.943   1.037
 6272SOL    HW219716   6.903   0.862   0.946
 6273SOL     OW19717   0.383   6.632   2.591
 6273SOL    HW119718   0.343   6.560   2.534
 6273SOL    HW219719   0.466   6.668   2.546
 6274SOL     OW19720   3.564   6.152   3.719
 6274SOL    HW119721   3.501   6.074   3.722
 6274SOL    HW219722   3.585   6.174   3.623
 6275SOL     OW19723   3.562   5.551   1.330
 6275SOL    HW119724   3.619   5.471   1.313
 6275SOL    HW219725   3.520   5.544   1.421
 6276SOL     OW19726   1.742   4.387   2.646
 6276SOL    HW119727   1.737   4.393   2.746
 6276SOL    HW219728   1.670   4.326   2.613
 6277SOL     OW19729   5.349   2.025   1.399
 6277SOL    HW119730   5.416   2.036   1.326
 6277SOL    HW219731   5.264   1.989   1.362
 6278SOL     OW19732   3.929   3.201   0.037
 6278SOL    HW119733   3.831   3.180   0.034
 6278SOL    HW219734   3.943   3.293   0.073
 6279SOL     OW19735   0.762   6.152   1.795
 6279SOL    HW119736   0.765   6.057   1.826
 6279SOL    HW219737   0.772   6.155   1.696
 6280SOL     OW19738   4.866   0.855   7.008
 6280SOL    HW119739   4.912   0.843   6.920
 6280SOL    HW219740   4.934   0.851   0.057
 6281SOL     OW19741   6.011   4.015   6.152
 6281SOL    HW119742   6.090   4.033   6.210
 6281SOL    HW219743   6.006   3.917   6.132
 6282SOL     OW19744   0.009   4.561   5.616
 6282SOL    HW119745   0.018   4.475   5.566
 6282SOL    HW219746   0.069   4.560   5.696
 6283SOL     OW19747   2.733   6.550   4.252
 6283SOL    HW119748   2.821   6.512   4.222
 6283SOL    HW219749   2.723   6.643   4.216
 6284SOL     OW19750   1.938   4.185   6.452
 6284SOL    HW119751   1.997   4.202   6.372
 6284SOL    HW219752   1.869   4.258   6.458
 6285SOL     OW19753   1.614   4.245   4.208
 6285SOL    HW119754   1.605   4.198   4.296
 6285SOL    HW219755   1.524   4.250   4.163
 6286SOL     OW19756   1.192   3.500   0.031
 6286SOL    HW119757   1.128   3.426   0.010
 6286SOL    HW219758   1.176   3.532   0.125
 6287SOL     OW19759   3.776   5.356   4.856
 6287SOL    HW119760   3.761   5.319   4.764
 6287SOL    HW219761   3.838   5.434   4.851
 6288SOL     OW19762   3.445   4.031   5.906
 6288SOL    HW119763   3.393   4.087   5.971
 6288SOL    HW219764   3.431   4.065   5.813
 6289SOL     OW19765   3.102   5.556   5.866
 6289SOL    HW119766   3.007   5.530   5.846
 6289SOL    HW219767   3.131   5.513   5.951
 6290SOL     OW19768   6.417   0.625   3.356
 6290SOL    HW119769   6.428   0.614   3.257
 6290SOL    HW219770   6.447   0.717   3.383
 6291SOL     OW19771   3.092   3.336   1.764
 6291SOL    HW119772   3.072   3.315   1.669
 6291SOL    HW219773   3.036   3.278   1.824
 6292SOL     OW19774   0.677   4.348   4.811
 6292SOL    HW119775   0.764   4.364   4.858
 6292SOL    HW219776   0.668   4.250   4.790
 6293SOL     OW19777   3.100   1.515   0.446
 6293SOL    HW119778   3.024   1.503   0.510
 6293SOL    HW219779   3.067   1.561   0.363
 6294SOL     OW19780   1.325   0.005   2.041
 6294SOL    HW119781   1.336   0.089   1.987
 6294SOL    HW219782   1.237   6.988   2.020
 6295SOL     OW19783   4.720   2.867   5.537
 6295SOL    HW119784   4.784   2.944   5.534
 6295SOL    HW219785   4.762   2.790   5.584
 6296SOL     OW19786   6.747   2.164   0.391
 6296SOL    HW119787   6.834   2.210   0.370
 6296SOL    HW219788   6.765   2.085   0.449
 6297SOL     OW19789   0.369   1.494   4.595
 6297SOL    HW119790   0.320   1.415   4.558
 6297SOL    HW219791   0.305   1.552   4.646
 6298SOL     OW19792   6.997   0.845   6.846
 6298SOL    HW119793   6.922   0.887   6.898
 6298SOL    HW219794   0.054   0.842   6.903
 6299SOL     OW19795   3.177   1.851   3.748
 6299SOL    HW119796   3.260   1.799   3.731
 6299SOL    HW219797   3.139   1.826   3.837
 6300SOL     OW19798   2.836   2.288   0.809
 6300SOL    HW119799   2.897   2.257   0.737
 6300SOL    HW219800   2.791   2.208   0.851
 6301SOL     OW19801   4.382   6.092   0.678
 6301SOL    HW119802   4.481   6.101   0.690
 6301SOL    HW219803   4.360   5.999   0.650
 6302SOL     OW19804   1.532   3.694   0.714
 6302SOL    HW119805   1.440   3.715   0.682
 6302SOL    HW219806   1.544   3.595   0.719
 6303SOL     OW19807   6.656   4.601   5.139
 6303SOL    HW119808   6.678   4.634   5.230
 6303SOL    HW219809   6.626   4.506   5.145
 6304SOL     OW19810   2.046   2.670   4.945
 6304SOL    HW119811   2.048   2.578   4.907
 6304SOL    HW219812   2.127   2.721   4.914
 6305SOL     OW19813   1.110   6.138   5.101
 6305SOL    HW119814   1.116   6.067   5.031
 6305SOL    HW219815   1.194   6.192   5.100
 6306SOL     OW19816   1.373   4.262   4.085
 6306SOL    HW119817   1.293   4.304   4.127
 6306SOL    HW219818   1.398   4.312   4.003
 6307SOL     OW19819   3.738   3.064   2.465
 6307SOL    HW119820   3.815   3.082   2.526
 6307SOL    HW219821   3.685   2.987   2.501
 6308SOL     OW19822   1.209   0.872   1.268
 6308SOL    HW119823   1.168   0.943   1.326
 6308SOL    HW219824   1.217   0.787   1.319
 6309SOL     OW19825   1.857   5.972   5.344
 6309SOL    HW119826   1.939   6.022   5.373
 6309SOL    HW219827   1.804   6.028   5.280
 6310SOL     OW19828   1.006   6.555   2.249
 6310SOL    HW119829   1.070   6.573   2.174
 6310SOL    HW219830   1.052   6.501   2.319
 6311SOL     OW19831   5.515   1.179   6.099
 6311SOL    HW119832   5.480   1.186   6.005
 6311SOL    HW219833   5.599   1.232   6.106
 6312SOL     OW19834   4.332   4.958   1.637
 6312SOL    HW119835   4.409   4.962   1.701
 6312SOL    HW219836   4.363   4.915   1.552
 6313SOL     OW19837   5.156   4.863   3.232
 6313SOL    HW119838   5.243   4.817   3.212
 6313SOL    HW219839   5.166   4.961   3.220
 6314SOL     OW19840   1.930   5.792   3.309
 6314SOL    HW119841   1.985   5.872   3.331
 6314SOL    HW219842   1.969   5.711   3.353
 6315SOL     OW19843   2.036   2.346   3.163
 6315SOL    HW119844   1.991   2.269   3.118
 6315SOL    HW219845   2.123   2.315   3.202
 6316SOL     OW19846   4.840   0.629   5.480
 6316SOL    HW119847   4.856   0.537   5.516
 6316SOL    HW219848   4.916   0.689   5.505
 6317SOL     OW19849   4.857   3.743   3.276
 6317SOL    HW119850   4.839   3.830   3.321
 6317SOL    HW219851   4.956   3.725   3.277
 6318SOL     OW19852   5.471   6.494   0.279
 6318SOL    HW119853   5.550   6.493   0.341
 6318SOL    HW219854   5.499   6.460   0.189
 6319SOL     OW19855   4.876   2.258   4.079
 6319SOL    HW119856   4.922   2.279   4.165
 6319SOL    HW219857   4.850   2.344   4.033
 6320SOL     OW19858   5.817   2.230   6.271
 6320SOL    HW119859   5.783   2.154   6.215
 6320SOL    HW219860   5.900   2.268   6.229
 6321SOL     OW19861   0.817   3.454   0.188
 6321SOL    HW119862   0.806   3.546   0.224
 6321SOL    HW219863   0.842   3.392   0.263
 6322SOL     OW19864   1.691   1.263   2.858
 6322SOL    HW119865   1.628   1.340   2.868
 6322SOL    HW219866   1.666   1.210   2.777
 6323SOL     OW19867   1.831   5.814   0.854
 6323SOL    HW119868   1.829   5.837   0.951
 6323SOL    HW219869   1.926   5.806   0.824
 6324SOL     OW19870   5.103   4.211   1.891
 6324SOL    HW119871   5.037   4.165   1.831
 6324SOL    HW219872   5.098   4.171   1.982
 6325SOL     OW19873   0.854   3.290   3.897
 6325SOL    HW119874   0.871   3.260   3.804
 6325SOL    HW219875   0.761   3.326   3.904
 6326SOL     OW19876   5.533   5.616   4.753
 6326SOL    HW119877   5.490   5.639   4.666
 6326SOL    HW219878   5.464   5.583   4.817
 6327SOL     OW19879   0.850   0.902   2.494
 6327SOL    HW119880   0.816   0.808   2.491
 6327SOL    HW219881   0.776   0.964   2.521
 6328SOL     OW19882   4.104   3.604   4.814
 6328SOL    HW119883   4.171   3.539   4.777
 6328SOL    HW219884   4.091   3.587   4.912
 6329SOL     OW19885   0.316   3.372   4.830
 6329SOL    HW119886   0.250   3.441   4.859
 6329SOL    HW219887   0.282   3.281   4.853
 6330SOL     OW19888   4.452   1.763   3.406
 6330SOL    HW119889   4.528   1.698   3.407
 6330SOL    HW219890   4.471   1.838   3.469
 6331SOL     OW19891   1.781   3.096   3.585
 6331SOL    HW119892   1.779   3.195   3.595
 6331SOL    HW219893   1.691   3.058   3.608
 6332SOL     OW19894   4.350   1.960   6.983
 6332SOL    HW119895   4.403   2.044   6.986
 6332SOL    HW219896   4.253   1.982   6.972
 6333SOL     OW19897   5.856   1.542   6.965
 6333SOL    HW119898   5.940   1.585   6.931
 6333SOL    HW219899   5.879   1.459   7.016
 6334SOL     OW19900   2.675   1.037   2.002
 6334SOL    HW119901   2.741   1.053   2.075
 6334SOL    HW219902   2.586   1.072   2.029
 6335SOL     OW19903   5.907   2.227   5.744
 6335SOL    HW119904   5.948   2.308   5.784
 6335SOL    HW219905   5.917   2.230   5.644
 6336SOL     OW19906   1.172   5.829   5.662
 6336SOL    HW119907   1.108   5.767   5.707
 6336SOL    HW219908   1.147   5.924   5.683
 6337SOL     OW19909   6.331   0.366   5.870
 6337SOL    HW119910   6.357   0.300   5.941
 6337SOL    HW219911   6.338   0.459   5.906
 6338SOL     OW19912   1.089   0.698   2.072
 6338SOL    HW119913   1.016   0.709   2.139
 6338SOL    HW219914   1.153   0.628   2.103
 6339SOL     OW19915   0.335   4.060   3.595
 6339SOL    HW119916   0.302   4.064   3.501
 6339SOL    HW219917   0.306   3.974   3.637
 6340SOL     OW19918   2.433   5.369   7.004
 6340SOL    HW119919   2.452   5.343   0.075
 6340SOL    HW219920   2.514   5.350   6.948
 6341SOL     OW19921   1.042   4.382   3.066
 6341SOL    HW119922   0.943   4.388   3.071
 6341SOL    HW219923   1.069   4.293   3.029
 6342SOL     OW19924   2.491   6.640   1.215
 6342SOL    HW119925   2.485   6.668   1.311
 6342SOL    HW219926   2.447   6.551   1.203
 6343SOL     OW19927   1.744   4.233   0.189
 6343SOL    HW119928   1.708   4.203   0.100
 6343SOL    HW219929   1.788   4.322   0.178
 6344SOL     OW19930   1.872   1.082   3.885
 6344SOL    HW119931   1.809   1.008   3.862
 6344SOL    HW219932   1.834   1.136   3.959
 6345SOL     OW19933   6.968   3.224   3.713
 6345SOL    HW119934   0.028   3.275   3.734
 6345SOL    HW219935   6.991   3.141   3.663
 6346SOL     OW19936   0.523   4.556   3.913
 6346SOL    HW119937   0.508   4.593   3.821
 6346SOL    HW219938   0.619   4.535   3.926
 6347SOL     OW19939   1.827   1.625   2.429
 6347SOL    HW119940   1.865   1.626   2.336
 6347SOL    HW219941   1.734   1.586   2.427
 6348SOL     OW19942   0.730   2.606   0.282
 6348SOL    HW119943   0.755   2.621   0.378
 6348SOL    HW219944   0.768   2.679   0.226
 6349SOL     OW19945   6.267   1.552   0.895
 6349SOL    HW119946   6.247   1.475   0.835
 6349SOL    HW219947   6.317   1.519   0.976
 6350SOL     OW19948   0.478   7.015   1.494
 6350SOL    HW119949   0.535   7.019   1.412
 6350SOL    HW219950   0.434   0.080   1.509
 6351SOL     OW19951   6.367   2.283   2.143
 6351SOL    HW119952   6.276   2.242   2.144
 6351SOL    HW219953   6.436   2.215   2.166
 6352SOL     OW19954   3.952   0.917   5.065
 6352SOL    HW119955   3.892   0.988   5.027
 6352SOL    HW219956   3.958   0.841   5.000
 6353SOL     OW19957   3.983   6.088   5.994
 6353SOL    HW119958   4.079   6.115   6.005
 6353SOL    HW219959   3.924   6.150   6.046
 6354SOL     OW19960   5.800   4.728   3.470
 6354SOL    HW119961   5.774   4.794   3.540
 6354SOL    HW219962   5.899   4.730   3.458
 6355SOL     OW19963   4.677   6.405   6.911
 6355SOL    HW119964   4.706   6.336   6.844
 6355SOL    HW219965   4.756   6.457   6.942
 6356SOL     OW19966   0.105   6.600   6.549
 6356SOL    HW119967   0.160   6.612   6.466
 6356SOL    HW219968   0.164   6.567   6.623
 6357SOL     OW19969   5.013   2.045   3.194
 6357SOL    HW119970   5.097   2.025   3.144
 6357SOL    HW219971   4.934   2.037   3.133
 6358SOL     OW19972   1.227   0.826   5.087
 6358SOL    HW119973   1.310   0.841   5.032
 6358SOL    HW219974   1.180   0.913   5.102
 6359SOL     OW19975   6.683   4.447   0.920
 6359SOL    HW119976   6.672   4.546   0.907
 6359SOL    HW219977   6.724   4.429   1.009
 6360SOL     OW19978   3.040   2.755   0.800
 6360SOL    HW119979   2.975   2.721   0.868
 6360SOL    HW219980   3.132   2.756   0.839
 6361SOL     OW19981   6.903   2.048   2.830
 6361SOL    HW119982   6.977   1.984   2.849
 6361SOL    HW219983   6.827   2.000   2.786
 6362SOL     OW19984   1.778   5.500   0.456
 6362SOL    HW119985   1.704   5.564   0.435
 6362SOL    HW219986   1.762   5.413   0.409
 6363SOL     OW19987   0.398   1.984   1.297
 6363SOL    HW119988   0.310   1.941   1.278
 6363SOL    HW219989   0.465   1.955   1.228
 6364SOL     OW19990   2.903   2.294   3.471
 6364SOL    HW119991   2.885   2.316   3.375
 6364SOL    HW219992   2.969   2.219   3.476
 6365SOL     OW19993   6.013   6.872   2.088
 6365SOL    HW119994   5.996   6.970   2.095
 6365SOL    HW219995   6.104   6.856   2.050
 6366SOL     OW19996   6.205   1.657   5.182
 6366SOL    HW119997   6.303   1.636   5.177
 6366SOL    HW219998   6.191   1.737   5.240
 6367SOL     OW19999   1.856   3.649   4.752
 6367SOL    HW120000   1.941   3.609   4.787
 6367SOL    HW220001   1.844   3.741   4.789
 6368SOL     OW20002   5.292   3.554   4.859
 6368SOL    HW120003   5.203   3.512   4.842
 6368SOL    HW220004   5.328   3.523   4.947
 6369SOL     OW20005   3.097   4.238   1.001
 6369SOL    HW120006   3.084   4.316   1.063
 6369SOL    HW220007   3.026   4.169   1.019
 6370SOL     OW20008   6.625   3.168   4.770
 6370SOL    HW120009   6.526   3.159   4.760
 6370SOL    HW220010   6.664   3.203   4.686
 6371SOL     OW20011   5.722   4.477   1.058
 6371SOL    HW120012   5.788   4.547   1.031
 6371SOL    HW220013   5.641   4.521   1.098
 6372SOL     OW20014   5.501   1.291   1.996
 6372SOL    HW120015   5.582   1.347   1.981
 6372SOL    HW220016   5.438   1.339   2.057
 6373SOL     OW20017   5.511   1.705   1.632
 6373SOL    HW120018   5.578   1.736   1.564
 6373SOL    HW220019   5.535   1.613   1.664
 6374SOL     OW20020   3.596   3.552   6.117
 6374SOL    HW120021   3.573   3.625   6.182
 6374SOL    HW220022   3.512   3.521   6.071
 6375SOL     OW20023   5.121   0.956   2.014
 6375SOL    HW120024   5.055   0.920   1.947
 6375SOL    HW220025   5.160   1.041   1.980
 6376SOL     OW20026   3.191   6.766   6.781
 6376SOL    HW120027   3.193   6.680   6.731
 6376SOL    HW220028   3.124   6.828   6.738
 6377SOL     OW20029   0.016   1.669   0.411
 6377SOL    HW120030   0.082   1.740   0.384
 6377SOL    HW220031   0.027   1.589   0.352
 6378SOL     OW20032   6.011   3.389   3.111
 6378SOL    HW120033   6.001   3.295   3.076
 6378SOL    HW220034   6.056   3.445   3.041
 6379SOL     OW20035   2.519   4.517   7.018
 6379SOL    HW120036   2.518   4.474   6.928
 6379SOL    HW220037   2.442   4.483   0.047
 6380SOL     OW20038   1.844   2.692   4.699
 6380SOL    HW120039   1.775   2.748   4.654
 6380SOL    HW220040   1.933   2.737   4.696
 6381SOL     OW20041   3.561   4.613   0.814
 6381SOL    HW120042   3.585   4.557   0.735
 6381SOL    HW220043   3.539   4.706   0.785
 6382SOL     OW20044   1.897   1.258   0.887
 6382SOL    HW120045   1.992   1.289   0.879
 6382SOL    HW220046   1.839   1.313   0.827
 6383SOL     OW20047   2.873   1.990   1.954
 6383SOL    HW120048   2.960   1.952   1.922
 6383SOL    HW220049   2.885   2.088   1.973
 6384SOL     OW20050   0.291   1.386   2.274
 6384SOL    HW120051   0.362   1.353   2.212
 6384SOL    HW220052   0.316   1.363   2.368
 6385SOL     OW20053   0.325   3.635   1.879
 6385SOL    HW120054   0.402   3.680   1.923
 6385SOL    HW220055   0.358   3.580   1.803
 6386SOL     OW20056   2.875   4.694   1.020
 6386SOL    HW120057   2.938   4.756   0.972
 6386SOL    HW220058   2.784   4.703   0.981
 6387SOL     OW20059   6.476   1.581   5.727
 6387SOL    HW120060   6.412   1.522   5.679
 6387SOL    HW220061   6.486   1.667   5.677
 6388SOL     OW20062   6.675   5.144   2.562
 6388SOL    HW120063   6.718   5.138   2.472
 6388SOL    HW220064   6.739   5.111   2.632
 6389SOL     OW20065   6.633   0.183   0.428
 6389SOL    HW120066   6.641   0.193   0.527
 6389SOL    HW220067   6.655   0.270   0.383
 6390SOL     OW20068   4.519   6.060   0.277
 6390SOL    HW120069   4.567   5.982   0.238
 6390SOL    HW220070   4.445   6.089   0.216
 6391SOL     OW20071   0.747   1.877   4.751
 6391SOL    HW120072   0.770   1.787   4.789
 6391SOL    HW220073   0.718   1.866   4.656
 6392SOL     OW20074   4.532   6.339   3.058
 6392SOL    HW120075   4.539   6.431   3.019
 6392SOL    HW220076   4.461   6.337   3.128
 6393SOL     OW20077   2.332   3.961   0.435
 6393SOL    HW120078   2.244   3.990   0.399
 6393SOL    HW220079   2.327   3.864   0.462
 6394SOL     OW20080   1.454   5.222   2.051
 6394SOL    HW120081   1.413   5.266   1.972
 6394SOL    HW220082   1.552   5.208   2.035
 6395SOL     OW20083   1.134   3.874   5.149
 6395SOL    HW120084   1.190   3.944   5.194
 6395SOL    HW220085   1.136   3.790   5.204
 6396SOL     OW20086   0.859   3.840   4.114
 6396SOL    HW120087   0.895   3.752   4.084
 6396SOL    HW220088   0.933   3.908   4.113
 6397SOL     OW20089   0.713   3.668   4.448
 6397SOL    HW120090   0.662   3.652   4.533
 6397SOL    HW220091   0.651   3.663   4.370
 6398SOL     OW20092   0.408   6.875   2.188
 6398SOL    HW120093   0.475   6.934   2.235
 6398SOL    HW220094   0.394   6.909   2.095
 6399SOL     OW20095   2.566   0.183   6.438
 6399SOL    HW120096   2.485   0.236   6.415
 6399SOL    HW220097   2.549   0.131   6.521
 6400SOL     OW20098   1.080   6.421   2.867
 6400SOL    HW120099   1.177   6.400   2.855
 6400SOL    HW220100   1.066   6.464   2.956
 6401SOL     OW20101   3.792   4.914   1.043
 6401SOL    HW120102   3.724   4.953   1.105
 6401SOL    HW220103   3.767   4.819   1.022
 6402SOL     OW20104   3.184   3.200   6.153
 6402SOL    HW120105   3.230   3.150   6.079
 6402SOL    HW220106   3.229   3.289   6.166
 6403SOL     OW20107   3.760   5.372   6.105
 6403SOL    HW120108   3.714   5.459   6.091
 6403SOL    HW220109   3.697   5.297   6.084
 6404SOL     OW20110   5.214   6.075   6.107
 6404SOL    HW120111   5.292   6.078   6.170
 6404SOL    HW220112   5.230   6.005   6.038
 6405SOL     OW20113   4.681   1.117   3.343
 6405SOL    HW120114   4.636   1.035   3.308
 6405SOL    HW220115   4.718   1.097   3.434
 6406SOL     OW20116   0.208   3.258   2.532
 6406SOL    HW120117   0.288   3.314   2.551
 6406SOL    HW220118   0.156   3.299   2.457
 6407SOL     OW20119   0.557   6.860   2.908
 6407SOL    HW120120   0.491   6.800   2.954
 6407SOL    HW220121   0.636   6.807   2.879
 6408SOL     OW20122   0.124   0.816   2.212
 6408SOL    HW120123   0.194   0.798   2.281
 6408SOL    HW220124   0.140   0.756   2.133
 6409SOL     OW20125   6.354   4.294   4.241
 6409SOL    HW120126   6.337   4.230   4.316
 6409SOL    HW220127   6.451   4.294   4.218
 6410SOL     OW20128   1.938   0.584   6.996
 6410SOL    HW120129   1.969   0.571   0.066
 6410SOL    HW220130   1.964   0.504   6.942
 6411SOL     OW20131   1.229   2.336   4.127
 6411SOL    HW120132   1.166   2.409   4.102
 6411SOL    HW220133   1.207   2.253   4.076
 6412SOL     OW20134   4.808   0.255   0.113
 6412SOL    HW120135   4.782   0.167   0.153
 6412SOL    HW220136   4.901   0.249   0.077
 6413SOL     OW20137   4.746   5.864   3.545
 6413SOL    HW120138   4.673   5.910   3.494
 6413SOL    HW220139   4.835   5.890   3.508
 6414SOL     OW20140   3.692   0.441   6.765
 6414SOL    HW120141   3.756   0.372   6.799
 6414SOL    HW220142   3.734   0.532   6.771
 6415SOL     OW20143   0.079   1.814   3.640
 6415SOL    HW120144   0.142   1.748   3.600
 6415SOL    HW220145   0.027   1.771   3.714
 6416SOL     OW20146   2.741   4.074   0.754
 6416SOL    HW120147   2.786   4.104   0.838
 6416SOL    HW220148   2.810   4.058   0.684
 6417SOL     OW20149   4.921   3.433   5.722
 6417SOL    HW120150   4.926   3.513   5.663
 6417SOL    HW220151   4.842   3.377   5.698
 6418SOL     OW20152   4.889   5.820   0.009
 6418SOL    HW120153   4.953   5.780   0.075
 6418SOL    HW220154   4.824   5.750   7.004
 6419SOL     OW20155   1.747   0.039   6.501
 6419SOL    HW120156   1.802   6.998   6.552
 6419SOL    HW220157   1.668   7.016   6.460
 6420SOL     OW20158   2.385   4.903   3.336
 6420SOL    HW120159   2.333   4.819   3.323
 6420SOL    HW220160   2.467   4.900   3.279
 6421SOL     OW20161   5.085   6.477   1.607
 6421SOL    HW120162   5.003   6.531   1.626
 6421SOL    HW220163   5.163   6.539   1.592
 6422SOL     OW20164   1.016   0.678   5.732
 6422SOL    HW120165   1.018   0.585   5.770
 6422SOL    HW220166   1.065   0.740   5.793
 6423SOL     OW20167   1.137   3.757   4.389
 6423SOL    HW120168   1.203   3.752   4.464
 6423SOL    HW220169   1.084   3.673   4.386
 6424SOL     OW20170   6.078   4.223   5.514
 6424SOL    HW120171   6.168   4.259   5.538
 6424SOL    HW220172   6.017   4.299   5.490
 6425SOL     OW20173   0.841   0.334   4.393
 6425SOL    HW120174   0.867   0.425   4.426
 6425SOL    HW220175   0.877   0.265   4.455
 6426SOL     OW20176   3.090   5.208   4.010
 6426SOL    HW120177   3.027   5.162   4.073
 6426SOL    HW220178   3.183   5.202   4.045
 6427SOL     OW20179   3.242   3.290   3.000
 6427SOL    HW120180   3.253   3.193   3.022
 6427SOL    HW220181   3.152   3.303   2.957
 6428SOL     OW20182   6.616   3.332   6.542
 6428SOL    HW120183   6.591   3.249   6.491
 6428SOL    HW220184   6.532   3.381   6.567
 6429SOL     OW20185   2.853   1.762   4.377
 6429SOL    HW120186   2.900   1.800   4.457
 6429SOL    HW220187   2.919   1.749   4.303
 6430SOL     OW20188   6.700   1.252   4.060
 6430SOL    HW120189   6.605   1.277   4.082
 6430SOL    HW220190   6.719   1.160   4.095
 6431SOL     OW20191   3.612   5.185   3.245
 6431SOL    HW120192   3.616   5.096   3.200
 6431SOL    HW220193   3.704   5.213   3.273
 6432SOL     OW20194   4.021   3.426   0.133
 6432SOL    HW120195   4.091   3.495   0.115
 6432SOL    HW220196   3.974   3.447   0.219
 6433SOL     OW20197   4.031   5.675   6.201
 6433SOL    HW120198   3.940   5.637   6.184
 6433SOL    HW220199   4.056   5.737   6.127
 6434SOL     OW20200   6.299   4.703   6.748
 6434SOL    HW120201   6.355   4.768   6.800
 6434SOL    HW220202   6.242   4.753   6.684
 6435SOL     OW20203   4.280   1.064   0.658
 6435SOL    HW120204   4.368   1.110   0.670
 6435SOL    HW220205   4.295   0.977   0.610
 6436SOL     OW20206   0.846   1.795   3.489
 6436SOL    HW120207   0.897   1.731   3.431
 6436SOL    HW220208   0.799   1.745   3.561
 6437SOL     OW20209   0.946   3.015   6.535
 6437SOL    HW120210   0.987   2.931   6.571
 6437SOL    HW220211   0.931   3.006   6.437
 6438SOL     OW20212   1.044   5.840   1.646
 6438SOL    HW120213   1.011   5.763   1.701
 6438SOL    HW220214   0.992   5.846   1.562
 6439SOL     OW20215   4.516   5.978   2.758
 6439SOL    HW120216   4.458   5.932   2.691
 6439SOL    HW220217   4.565   5.910   2.812
 6440SOL     OW20218   2.245   2.277   5.176
 6440SOL    HW120219   2.169   2.305   5.235
 6440SOL    HW220220   2.260   2.347   5.106
 6441SOL     OW20221   1.303   1.392   1.747
 6441SOL    HW120222   1.239   1.336   1.799
 6441SOL    HW220223   1.394   1.385   1.787
 6442SOL     OW20224   3.022   2.271   4.135
 6442SOL    HW120225   2.952   2.298   4.069
 6442SOL    HW220226   3.111   2.306   4.107
 6443SOL     OW20227   2.331   1.954   5.849
 6443SOL    HW120228   2.248   1.897   5.850
 6443SOL    HW220229   2.332   2.010   5.766
 6444SOL     OW20230   6.513   4.421   5.425
 6444SOL    HW120231   6.463   4.404   5.510
 6444SOL    HW220232   6.448   4.448   5.353
 6445SOL     OW20233   3.247   2.952   3.582
 6445SOL    HW120234   3.176   3.022   3.586
 6445SOL    HW220235   3.316   2.971   3.651
 6446SOL     OW20236   0.897   7.023   1.810
 6446SOL    HW120237   0.948   6.998   1.727
 6446SOL    HW220238   0.809   0.038   1.784
 6447SOL     OW20239   0.332   4.023   1.707
 6447SOL    HW120240   0.407   4.067   1.757
 6447SOL    HW220241   0.371   3.967   1.633
 6448SOL     OW20242   4.046   4.176   1.507
 6448SOL    HW120243   4.054   4.077   1.503
 6448SOL    HW220244   3.994   4.202   1.588
 6449SOL     OW20245   4.576   6.198   6.759
 6449SOL    HW120246   4.526   6.262   6.701
 6449SOL    HW220247   4.510   6.138   6.806
 6450SOL     OW20248   4.276   3.803   0.884
 6450SOL    HW120249   4.215   3.803   0.963
 6450SOL    HW220250   4.361   3.850   0.907
 6451SOL     OW20251   4.244   3.513   1.693
 6451SOL    HW120252   4.202   3.430   1.731
 6451SOL    HW220253   4.220   3.591   1.749
 6452SOL     OW20254   4.654   1.931   4.166
 6452SOL    HW120255   4.620   1.888   4.082
 6452SOL    HW220256   4.754   1.933   4.164
 6453SOL     OW20257   3.365   0.871   3.172
 6453SOL    HW120258   3.342   0.942   3.238
 6453SOL    HW220259   3.398   0.914   3.087
 6454SOL     OW20260   4.686   3.333   5.588
 6454SOL    HW120261   4.649   3.244   5.616
 6454SOL    HW220262   4.690   3.337   5.488
 6455SOL     OW20263   0.027   3.302   5.600
 6455SOL    HW120264   6.966   3.330   5.556
 6455SOL    HW220265   0.014   3.293   5.698
 6456SOL     OW20266   6.382   2.121   3.159
 6456SOL    HW120267   6.289   2.126   3.123
 6456SOL    HW220268   6.393   2.038   3.214
 6457SOL     OW20269   1.585   6.063   3.342
 6457SOL    HW120270   1.588   6.138   3.409
 6457SOL    HW220271   1.501   6.011   3.354
 6458SOL     OW20272   0.984   6.936   4.444
 6458SOL    HW120273   0.919   6.880   4.495
 6458SOL    HW220274   0.981   6.911   4.347
 6459SOL     OW20275   7.020   3.160   3.370
 6459SOL    HW120276   7.021   3.071   3.414
 6459SOL    HW220277   0.081   3.208   3.391
 6460SOL     OW20278   1.383   5.126   5.448
 6460SOL    HW120279   1.398   5.138   5.350
 6460SOL    HW220280   1.285   5.120   5.467
 6461SOL     OW20281   6.786   0.351   2.309
 6461SOL    HW120282   6.698   0.334   2.265
 6461SOL    HW220283   6.835   0.265   2.319
 6462SOL     OW20284   2.824   4.224   5.747
 6462SOL    HW120285   2.768   4.172   5.683
 6462SOL    HW220286   2.823   4.180   5.837
 6463SOL     OW20287   4.856   3.336   1.853
 6463SOL    HW120288   4.815   3.262   1.906
 6463SOL    HW220289   4.788   3.375   1.791
 6464SOL     OW20290   0.777   3.481   3.434
 6464SOL    HW120291   0.872   3.451   3.439
 6464SOL    HW220292   0.719   3.405   3.405
 6465SOL     OW20293   2.251   1.107   2.565
 6465SOL    HW120294   2.251   1.202   2.595
 6465SOL    HW220295   2.343   1.080   2.537
 6466SOL     OW20296   6.493   5.350   0.103
 6466SOL    HW120297   6.409   5.309   0.138
 6466SOL    HW220298   6.571   5.296   0.133
 6467SOL     OW20299   2.785   3.586   5.793
 6467SOL    HW120300   2.845   3.628   5.724
 6467SOL    HW220301   2.837   3.571   5.877
 6468SOL     OW20302   0.988   0.777   0.121
 6468SOL    HW120303   0.980   0.713   0.044
 6468SOL    HW220304   1.007   0.726   0.205
 6469SOL     OW20305   3.257   0.889   0.865
 6469SOL    HW120306   3.253   0.802   0.914
 6469SOL    HW220307   3.188   0.889   0.792
 6470SOL     OW20308   6.180   0.528   6.196
 6470SOL    HW120309   6.195   0.575   6.283
 6470SOL    HW220310   6.260   0.474   6.173
 6471SOL     OW20311   0.531   6.444   5.292
 6471SOL    HW120312   0.549   6.415   5.386
 6471SOL    HW220313   0.585   6.388   5.229
 6472SOL     OW20314   0.928   6.189   0.751
 6472SOL    HW120315   0.946   6.172   0.848
 6472SOL    HW220316   0.989   6.261   0.718
 6473SOL     OW20317   3.068   1.475   3.889
 6473SOL    HW120318   3.010   1.541   3.937
 6473SOL    HW220319   3.127   1.428   3.954
 6474SOL     OW20320   4.077   0.552   4.604
 6474SOL    HW120321   4.123   0.599   4.528
 6474SOL    HW220322   4.141   0.490   4.649
 6475SOL     OW20323   5.767   6.038   4.063
 6475SOL    HW120324   5.787   6.061   3.967
 6475SOL    HW220325   5.679   5.992   4.068
 6476SOL     OW20326   5.236   4.047   4.392
 6476SOL    HW120327   5.324   4.080   4.358
 6476SOL    HW220328   5.239   3.947   4.398
 6477SOL     OW20329   1.297   6.846   1.152
 6477SOL    HW120330   1.394   6.844   1.175
 6477SOL    HW220331   1.269   6.940   1.134
 6478SOL     OW20332   1.802   6.545   0.057
 6478SOL    HW120333   1.852   6.491   0.126
 6478SOL    HW220334   1.812   6.642   0.078
 6479SOL     OW20335   4.654   5.178   4.282
 6479SOL    HW120336   4.666   5.151   4.377
 6479SOL    HW220337   4.582   5.121   4.240
 6480SOL     OW20338   2.652   0.720   4.916
 6480SOL    HW120339   2.556   0.731   4.940
 6480SOL    HW220340   2.698   0.809   4.921
 6481SOL     OW20341   4.069   3.919   1.500
 6481SOL    HW120342   3.989   3.860   1.506
 6481SOL    HW220343   4.147   3.866   1.466
 6482SOL     OW20344   5.149   3.100   3.905
 6482SOL    HW120345   5.077   3.169   3.909
 6482SOL    HW220346   5.110   3.012   3.878
 6483SOL     OW20347   1.835   6.433   5.479
 6483SOL    HW120348   1.836   6.533   5.471
 6483SOL    HW220349   1.759   6.405   5.537
 6484SOL     OW20350   3.786   0.625   3.511
 6484SOL    HW120351   3.798   0.529   3.488
 6484SOL    HW220352   3.692   0.653   3.490
 6485SOL     OW20353   2.359   4.693   5.425
 6485SOL    HW120354   2.377   4.791   5.435
 6485SOL    HW220355   2.374   4.665   5.330
 6486SOL     OW20356   6.612   4.031   2.560
 6486SOL    HW120357   6.676   4.096   2.603
 6486SOL    HW220358   6.549   4.081   2.501
 6487SOL     OW20359   6.253   5.446   4.779
 6487SOL    HW120360   6.305   5.425   4.696
 6487SOL    HW220361   6.294   5.524   4.826
 6488SOL     OW20362   3.411   4.945   3.321
 6488SOL    HW120363   3.457   4.958   3.233
 6488SOL    HW220364   3.336   4.879   3.309
 6489SOL     OW20365   6.390   3.668   5.279
 6489SOL    HW120366   6.294   3.651   5.302
 6489SOL    HW220367   6.398   3.682   5.180
 6490SOL     OW20368   1.504   3.413   6.233
 6490SOL    HW120369   1.552   3.384   6.316
 6490SOL    HW220370   1.488   3.334   6.175
 6491SOL     OW20371   0.891   6.796   2.214
 6491SOL    HW120372   0.936   6.709   2.232
 6491SOL    HW220373   0.892   6.852   2.297
 6492SOL     OW20374   4.089   3.424   3.086
 6492SOL    HW120375   4.091   3.327   3.063
 6492SOL    HW220376   4.092   3.435   3.185
 6493SOL     OW20377   2.043   5.016   3.829
 6493SOL    HW120378   2.043   4.932   3.775
 6493SOL    HW220379   2.112   5.079   3.794
 6494SOL     OW20380   7.019   1.022   1.613
 6494SOL    HW120381   6.972   0.970   1.685
 6494SOL    HW220382   6.957   1.036   1.536
 6495SOL     OW20383   5.912   6.424   2.548
 6495SOL    HW120384   5.998   6.475   2.554
 6495SOL    HW220385   5.836   6.484   2.574
 6496SOL     OW20386   2.836   2.663   1.004
 6496SOL    HW120387   2.882   2.574   1.002
 6496SOL    HW220388   2.857   2.709   1.091
 6497SOL     OW20389   6.768   2.713   0.719
 6497SOL    HW120390   6.714   2.789   0.683
 6497SOL    HW220391   6.789   2.649   0.645
 6498SOL     OW20392   2.672   5.031   4.604
 6498SOL    HW120393   2.710   4.945   4.570
 6498SOL    HW220394   2.707   5.108   4.551
 6499SOL     OW20395   5.232   2.051   3.027
 6499SOL    HW120396   5.264   1.965   3.067
 6499SOL    HW220397   5.177   2.031   2.946
 6500SOL     OW20398   1.746   3.540   2.862
 6500SOL    HW120399   1.681   3.466   2.846
 6500SOL    HW220400   1.774   3.541   2.958
 6501SOL     OW20401   6.493   1.560   2.621
 6501SOL    HW120402   6.459   1.466   2.621
 6501SOL    HW220403   6.458   1.607   2.702
 6502SOL     OW20404   0.665   3.047   2.571
 6502SOL    HW120405   0.646   3.023   2.475
 6502SOL    HW220406   0.698   3.141   2.576
 6503SOL     OW20407   0.375   2.854   5.676
 6503SOL    HW120408   0.317   2.928   5.710
 6503SOL    HW220409   0.375   2.855   5.576
 6504SOL     OW20410   4.221   6.316   5.670
 6504SOL    HW120411   4.301   6.372   5.691
 6504SOL    HW220412   4.169   6.360   5.596
 6505SOL     OW20413   0.912   6.930   6.751
 6505SOL    HW120414   0.862   6.872   6.686
 6505SOL    HW220415   0.971   6.993   6.702
 6506SOL     OW20416   0.906   4.618   2.230
 6506SOL    HW120417   0.942   4.691   2.287
 6506SOL    HW220418   0.944   4.626   2.138
 6507SOL     OW20419   5.303   5.159   0.557
 6507SOL    HW120420   5.284   5.240   0.612
 6507SOL    HW220421   5.273   5.077   0.607
 6508SOL     OW20422   0.220   1.042   4.821
 6508SOL    HW120423   0.152   0.987   4.773
 6508SOL    HW220424   0.174   1.114   4.873
 6509SOL     OW20425   2.611   1.913   6.524
 6509SOL    HW120426   2.664   1.933   6.443
 6509SOL    HW220427   2.658   1.843   6.578
 6510SOL     OW20428   4.035   5.130   3.915
 6510SOL    HW120429   3.942   5.095   3.910
 6510SOL    HW220430   4.064   5.161   3.824
 6511SOL     OW20431   3.596   3.094   0.283
 6511SOL    HW120432   3.587   3.022   0.214
 6511SOL    HW220433   3.666   3.068   0.349
 6512SOL     OW20434   5.284   1.578   2.333
 6512SOL    HW120435   5.188   1.563   2.311
 6512SOL    HW220436   5.341   1.514   2.282
 6513SOL     OW20437   3.479   4.966   1.809
 6513SOL    HW120438   3.496   4.884   1.864
 6513SOL    HW220439   3.385   4.965   1.777
 6514SOL     OW20440   5.233   5.451   5.439
 6514SOL    HW120441   5.173   5.489   5.368
 6514SOL    HW220442   5.263   5.524   5.500
 6515SOL     OW20443   0.909   5.297   2.134
 6515SOL    HW120444   0.963   5.234   2.079
 6515SOL    HW220445   0.919   5.274   2.231
 6516SOL     OW20446   5.645   1.494   3.745
 6516SOL    HW120447   5.723   1.556   3.742
 6516SOL    HW220448   5.607   1.492   3.837
 6517SOL     OW20449   6.813   4.147   0.887
 6517SOL    HW120450   6.792   4.167   0.983
 6517SOL    HW220451   6.733   4.167   0.831
 6518SOL     OW20452   1.076   2.003   2.119
 6518SOL    HW120453   1.158   1.955   2.088
 6518SOL    HW220454   0.995   1.957   2.083
 6519SOL     OW20455   1.590   2.247   3.340
 6519SOL    HW120456   1.491   2.258   3.336
 6519SOL    HW220457   1.617   2.208   3.428
 6520SOL     OW20458   6.028   6.710   6.844
 6520SOL    HW120459   6.062   6.754   6.761
 6520SOL    HW220460   6.100   6.711   6.914
 6521SOL     OW20461   1.589   4.365   4.660
 6521SOL    HW120462   1.634   4.450   4.631
 6521SOL    HW220463   1.659   4.298   4.685
 6522SOL     OW20464   2.287   3.230   5.268
 6522SOL    HW120465   2.223   3.264   5.198
 6522SOL    HW220466   2.345   3.159   5.229
 6523SOL     OW20467   4.765   6.438   0.723
 6523SOL    HW120468   4.780   6.535   0.701
 6523SOL    HW220469   4.778   6.383   0.641
 6524SOL     OW20470   3.746   1.768   1.079
 6524SOL    HW120471   3.793   1.846   1.035
 6524SOL    HW220472   3.768   1.684   1.029
 6525SOL     OW20473   2.892   4.859   3.622
 6525SOL    HW120474   2.978   4.838   3.576
 6525SOL    HW220475   2.817   4.856   3.556
 6526SOL     OW20476   6.248   6.573   0.632
 6526SOL    HW120477   6.276   6.554   0.538
 6526SOL    HW220478   6.314   6.532   0.695
 6527SOL     OW20479   5.446   2.110   0.832
 6527SOL    HW120480   5.426   2.033   0.892
 6527SOL    HW220481   5.520   2.085   0.769
 6528SOL     OW20482   4.532   6.771   0.812
 6528SOL    HW120483   4.524   6.860   0.766
 6528SOL    HW220484   4.505   6.698   0.749
 6529SOL     OW20485   3.964   6.429   1.396
 6529SOL    HW120486   3.868   6.428   1.369
 6529SOL    HW220487   4.020   6.457   1.319
 6530SOL     OW20488   0.289   2.858   4.352
 6530SOL    HW120489   0.350   2.903   4.417
 6530SOL    HW220490   0.218   2.921   4.322
 6531SOL     OW20491   2.915   3.428   4.219
 6531SOL    HW120492   2.903   3.453   4.315
 6531SOL    HW220493   2.849   3.356   4.195
 6532SOL     OW20494   0.772   6.020   6.638
 6532SOL    HW120495   0.772   6.011   6.539
 6532SOL    HW220496   0.785   5.931   6.680
 6533SOL     OW20497   5.692   4.962   1.437
 6533SOL    HW120498   5.745   4.881   1.411
 6533SOL    HW220499   5.638   4.993   1.359
 6534SOL     OW20500   6.368   3.156   4.641
 6534SOL    HW120501   6.361   3.128   4.545
 6534SOL    HW220502   6.313   3.095   4.697
 6535SOL     OW20503   5.625   3.247   6.805
 6535SOL    HW120504   5.602   3.170   6.745
 6535SOL    HW220505   5.716   3.281   6.783
 6536SOL     OW20506   6.551   5.890   5.357
 6536SOL    HW120507   6.593   5.921   5.271
 6536SOL    HW220508   6.457   5.860   5.339
 6537SOL     OW20509   6.560   5.474   4.031
 6537SOL    HW120510   6.622   5.495   3.956
 6537SOL    HW220511   6.599   5.505   4.117
 6538SOL     OW20512   1.257   3.668   3.329
 6538SOL    HW120513   1.212   3.583   3.356
 6538SOL    HW220514   1.290   3.659   3.235
 6539SOL     OW20515   5.721   6.612   5.398
 6539SOL    HW120516   5.694   6.533   5.453
 6539SOL    HW220517   5.644   6.676   5.392
 6540SOL     OW20518   1.009   2.382   5.243
 6540SOL    HW120519   1.094   2.408   5.197
 6540SOL    HW220520   0.977   2.294   5.208
 6541SOL     OW20521   3.338   2.023   5.556
 6541SOL    HW120522   3.300   1.994   5.469
 6541SOL    HW220523   3.264   2.037   5.622
 6542SOL     OW20524   1.759   4.694   1.689
 6542SOL    HW120525   1.730   4.619   1.630
 6542SOL    HW220526   1.772   4.661   1.782
 6543SOL     OW20527   3.708   1.879   4.010
 6543SOL    HW120528   3.746   1.960   4.055
 6543SOL    HW220529   3.728   1.883   3.912
 6544SOL     OW20530   1.438   0.750   1.572
 6544SOL    HW120531   1.463   0.846   1.561
 6544SOL    HW220532   1.453   0.723   1.667
 6545SOL     OW20533   6.448   4.490   0.459
 6545SOL    HW120534   6.377   4.529   0.519
 6545SOL    HW220535   6.530   4.547   0.462
 6546SOL     OW20536   4.445   5.524   3.829
 6546SOL    HW120537   4.421   5.571   3.744
 6546SOL    HW220538   4.483   5.434   3.807
 6547SOL     OW20539   0.482   6.862   5.253
 6547SOL    HW120540   0.489   6.947   5.303
 6547SOL    HW220541   0.488   6.880   5.154
 6548SOL     OW20542   1.517   0.859   5.231
 6548SOL    HW120543   1.497   0.823   5.322
 6548SOL    HW220544   1.616   0.864   5.218
 6549SOL     OW20545   2.124   1.659   2.477
 6549SOL    HW120546   2.028   1.667   2.449
 6549SOL    HW220547   2.131   1.677   2.575
 6550SOL     OW20548   5.522   0.141   1.823
 6550SOL    HW120549   5.484   0.049   1.830
 6550SOL    HW220550   5.448   0.207   1.809
 6551SOL     OW20551   2.345   5.872   1.096
 6551SOL    HW120552   2.280   5.802   1.126
 6551SOL    HW220553   2.391   5.912   1.175
 6552SOL     OW20554   2.418   3.545   7.009
 6552SOL    HW120555   2.396   3.604   6.932
 6552SOL    HW220556   2.372   3.579   0.067
 6553SOL     OW20557   0.145   1.725   3.121
 6553SOL    HW120558   0.089   1.660   3.070
 6553SOL    HW220559   0.210   1.769   3.059
 6554SOL     OW20560   2.320   1.734   4.044
 6554SOL    HW120561   2.294   1.639   4.059
 6554SOL    HW220562   2.279   1.791   4.115
 6555SOL     OW20563   2.229   3.712   1.802
 6555SOL    HW120564   2.308   3.765   1.772
 6555SOL    HW220565   2.255   3.617   1.814
 6556SOL     OW20566   4.844   2.975   3.294
 6556SOL    HW120567   4.834   3.059   3.240
 6556SOL    HW220568   4.860   2.999   3.390
 6557SOL     OW20569   1.586   6.654   2.122
 6557SOL    HW120570   1.673   6.681   2.081
 6557SOL    HW220571   1.545   6.733   2.168
 6558SOL     OW20572   4.953   5.698   0.597
 6558SOL    HW120573   5.040   5.678   0.551
 6558SOL    HW220574   4.953   5.794   0.626
 6559SOL     OW20575   0.083   1.878   5.983
 6559SOL    HW120576   0.133   1.945   6.038
 6559SOL    HW220577   7.010   1.883   6.004
 6560SOL     OW20578   6.498   4.509   6.239
 6560SOL    HW120579   6.561   4.564   6.294
 6560SOL    HW220580   6.535   4.498   6.147
 6561SOL     OW20581   2.664   5.136   6.965
 6561SOL    HW120582   2.676   5.225   6.923
 6561SOL    HW220583   2.709   5.135   0.030
 6562SOL     OW20584   4.561   2.802   1.132
 6562SOL    HW120585   4.524   2.722   1.178
 6562SOL    HW220586   4.531   2.802   1.036
 6563SOL     OW20587   5.866   4.276   5.869
 6563SOL    HW120588   5.840   4.354   5.925
 6563SOL    HW220589   5.833   4.192   5.912
 6564SOL     OW20590   5.809   3.799   2.123
 6564SOL    HW120591   5.861   3.715   2.106
 6564SOL    HW220592   5.712   3.782   2.109
 6565SOL     OW20593   5.688   5.206   1.674
 6565SOL    HW120594   5.657   5.119   1.712
 6565SOL    HW220595   5.749   5.188   1.596
 6566SOL     OW20596   5.510   6.265   4.411
 6566SOL    HW120597   5.426   6.281   4.360
 6566SOL    HW220598   5.487   6.236   4.504
 6567SOL     OW20599   2.602   0.769   2.489
 6567SOL    HW120600   2.594   0.836   2.563
 6567SOL    HW220601   2.518   0.715   2.483
 6568SOL     OW20602   5.226   1.590   0.324
 6568SOL    HW120603   5.149   1.655   0.322
 6568SOL    HW220604   5.300   1.628   0.379
 6569SOL     OW20605   1.343   3.748   3.570
 6569SOL    HW120606   1.313   3.727   3.477
 6569SOL    HW220607   1.277   3.808   3.614
 6570SOL     OW20608   4.107   0.371   2.479
 6570SOL    HW120609   4.171   0.448   2.473
 6570SOL    HW220610   4.093   0.346   2.574
 6571SOL     OW20611   2.457   6.764   3.016
 6571SOL    HW120612   2.439   6.694   2.946
 6571SOL    HW220613   2.409   6.848   2.992
 6572SOL     OW20614   1.053   6.457   3.701
 6572SOL    HW120615   0.988   6.470   3.776
 6572SOL    HW220616   1.118   6.532   3.699
 6573SOL     OW20617   1.141   2.732   3.641
 6573SOL    HW120618   1.056   2.784   3.633
 6573SOL    HW220619   1.218   2.788   3.612
 6574SOL     OW20620   1.173   4.678   1.492
 6574SOL    HW120621   1.138   4.593   1.452
 6574SOL    HW220622   1.130   4.756   1.446
 6575SOL     OW20623   6.998   1.138   4.161
 6575SOL    HW120624   6.939   1.126   4.081
 6575SOL    HW220625   6.944   1.171   4.238
 6576SOL     OW20626   4.206   0.848   2.860
 6576SOL    HW120627   4.137   0.916   2.884
 6576SOL    HW220628   4.165   0.757   2.859
 6577SOL     OW20629   2.916   0.816   5.471
 6577SOL    HW120630   2.906   0.729   5.422
 6577SOL    HW220631   2.923   0.891   5.406
 6578SOL     OW20632   0.871   6.002   6.987
 6578SOL    HW120633   0.828   6.013   6.898
 6578SOL    HW220634   0.851   6.081   0.020
 6579SOL     OW20635   1.909   2.184   2.980
 6579SOL    HW120636   1.947   2.096   3.009
 6579SOL    HW220637   1.838   2.169   2.912
 6580SOL     OW20638   2.922   2.608   0.265
 6580SOL    HW120639   2.965   2.693   0.234
 6580SOL    HW220640   2.993   2.540   0.285
 6581SOL     OW20641   0.901   2.228   1.757
 6581SOL    HW120642   0.886   2.258   1.662
 6581SOL    HW220643   0.925   2.131   1.757
 6582SOL     OW20644   3.469   6.170   2.988
 6582SOL    HW120645   3.530   6.109   2.938
 6582SOL    HW220646   3.480   6.263   2.955
 6583SOL     OW20647   2.291   4.537   0.863
 6583SOL    HW120648   2.251   4.452   0.898
 6583SOL    HW220649   2.318   4.595   0.939
 6584SOL     OW20650   4.706   3.796   5.571
 6584SOL    HW120651   4.744   3.716   5.524
 6584SOL    HW220652   4.611   3.808   5.544
 6585SOL     OW20653   5.141   6.859   1.992
 6585SOL    HW120654   5.127   6.938   1.932
 6585SOL    HW220655   5.178   6.889   2.079
 6586SOL     OW20656   6.824   1.893   6.658
 6586SOL    HW120657   6.856   1.986   6.674
 6586SOL    HW220658   6.745   1.895   6.596
 6587SOL     OW20659   2.875   5.009   5.480
 6587SOL    HW120660   2.834   4.964   5.401
 6587SOL    HW220661   2.881   4.945   5.556
 6588SOL     OW20662   1.504   2.414   0.470
 6588SOL    HW120663   1.406   2.425   0.486
 6588SOL    HW220664   1.529   2.455   0.383
 6589SOL     OW20665   5.980   0.544   0.866
 6589SOL    HW120666   6.003   0.635   0.834
 6589SOL    HW220667   5.902   0.509   0.815
 6590SOL     OW20668   0.874   5.996   4.209
 6590SOL    HW120669   0.875   5.932   4.132
 6590SOL    HW220670   0.782   6.032   4.221
 6591SOL     OW20671   6.483   3.424   3.360
 6591SOL    HW120672   6.524   3.336   3.335
 6591SOL    HW220673   6.388   3.426   3.330
 6592SOL     OW20674   0.272   0.198   4.652
 6592SOL    HW120675   0.296   0.229   4.560
 6592SOL    HW220676   0.299   0.267   4.719
 6593SOL     OW20677   1.000   0.187   3.600
 6593SOL    HW120678   0.914   0.237   3.603
 6593SOL    HW220679   0.994   0.106   3.659
 6594SOL     OW20680   5.310   0.108   6.703
 6594SOL    HW120681   5.272   0.172   6.637
 6594SOL    HW220682   5.399   0.141   6.735
 6595SOL     OW20683   0.694   6.927   4.826
 6595SOL    HW120684   0.779   6.875   4.839
 6595SOL    HW220685   0.667   6.923   4.730
 6596SOL     OW20686   4.824   0.396   3.180
 6596SOL    HW120687   4.732   0.378   3.214
 6596SOL    HW220688   4.886   0.415   3.257
 6597SOL     OW20689   0.966   5.367   1.462
 6597SOL    HW120690   0.965   5.458   1.420
 6597SOL    HW220691   0.962   5.297   1.391
 6598SOL     OW20692   1.572   5.154   1.671
 6598SOL    HW120693   1.648   5.189   1.726
 6598SOL    HW220694   1.589   5.059   1.648
 6599SOL     OW20695   0.220   6.229   0.058
 6599SOL    HW120696   0.140   6.186   0.099
 6599SOL    HW220697   0.286   6.159   0.029
 6600SOL     OW20698   5.206   0.270   5.062
 6600SOL    HW120699   5.175   0.287   4.968
 6600SOL    HW220700   5.268   0.343   5.090
 6601SOL     OW20701   0.866   2.415   3.714
 6601SOL    HW120702   0.822   2.387   3.629
 6601SOL    HW220703   0.805   2.479   3.763
 6602SOL     OW20704   6.263   6.223   0.683
 6602SOL    HW120705   6.281   6.312   0.723
 6602SOL    HW220706   6.349   6.176   0.665
 6603SOL     OW20707   0.036   4.831   2.530
 6603SOL    HW120708   7.005   4.832   2.446
 6603SOL    HW220709   0.104   4.904   2.526
 6604SOL     OW20710   2.223   4.889   2.154
 6604SOL    HW120711   2.287   4.893   2.230
 6604SOL    HW220712   2.266   4.926   2.071
 6605SOL     OW20713   0.122   5.641   0.902
 6605SOL    HW120714   0.045   5.577   0.895
 6605SOL    HW220715   0.108   5.717   0.839
 6606SOL     OW20716   1.201   4.964   3.046
 6606SOL    HW120717   1.239   4.959   2.953
 6606SOL    HW220718   1.174   4.873   3.075
 6607SOL     OW20719   0.341   2.617   4.211
 6607SOL    HW120720   0.348   2.696   4.273
 6607SOL    HW220721   0.433   2.586   4.187
 6608SOL     OW20722   1.717   0.325   5.272
 6608SOL    HW120723   1.643   0.312   5.206
 6608SOL    HW220724   1.755   0.417   5.263
 6609SOL     OW20725   2.561   1.916   0.191
 6609SOL    HW120726   2.592   1.952   0.104
 6609SOL    HW220727   2.463   1.898   0.187
 6610SOL     OW20728   3.299   5.824   0.780
 6610SOL    HW120729   3.281   5.778   0.867
 6610SOL    HW220730   3.223   5.885   0.758
 6611SOL     OW20731   2.781   1.259   5.304
 6611SOL    HW120732   2.808   1.328   5.237
 6611SOL    HW220733   2.687   1.275   5.334
 6612SOL     OW20734   6.065   0.385   6.844
 6612SOL    HW120735   6.149   0.377   6.791
 6612SOL    HW220736   6.040   0.296   6.882
 6613SOL     OW20737   4.964   6.894   0.949
 6613SOL    HW120738   4.995   6.802   0.928
 6613SOL    HW220739   5.043   6.956   0.956
 6614SOL     OW20740   4.561   5.399   0.521
 6614SOL    HW120741   4.591   5.312   0.483
 6614SOL    HW220742   4.607   5.416   0.608
 6615SOL     OW20743   3.797   5.871   5.981
 6615SOL    HW120744   3.803   5.834   5.889
 6615SOL    HW220745   3.870   5.937   5.996
 6616SOL     OW20746   4.161   2.124   6.727
 6616SOL    HW120747   4.082   2.150   6.671
 6616SOL    HW220748   4.224   2.201   6.732
 6617SOL     OW20749   3.622   1.551   4.497
 6617SOL    HW120750   3.540   1.521   4.450
 6617SOL    HW220751   3.614   1.648   4.520
 6618SOL     OW20752   6.410   2.519   3.599
 6618SOL    HW120753   6.346   2.550   3.529
 6618SOL    HW220754   6.501   2.557   3.581
 6619SOL     OW20755   4.602   4.834   3.397
 6619SOL    HW120756   4.502   4.821   3.400
 6619SOL    HW220757   4.640   4.779   3.323
 6620SOL     OW20758   1.121   3.056   3.732
 6620SOL    HW120759   1.124   3.058   3.832
 6620SOL    HW220760   1.188   3.121   3.696
 6621SOL     OW20761   3.511   3.622   3.113
 6621SOL    HW120762   3.473   3.551   3.171
 6621SOL    HW220763   3.601   3.594   3.080
 6622SOL     OW20764   6.775   5.193   1.856
 6622SOL    HW120765   6.738   5.264   1.916
 6622SOL    HW220766   6.852   5.147   1.902
 6623SOL     OW20767   3.339   3.238   4.433
 6623SOL    HW120768   3.432   3.276   4.438
 6623SOL    HW220769   3.281   3.301   4.381
 6624SOL     OW20770   2.437   2.501   2.470
 6624SOL    HW120771   2.533   2.525   2.459
 6624SOL    HW220772   2.428   2.433   2.544
 6625SOL     OW20773   1.040   5.244   6.213
 6625SOL    HW120774   1.069   5.150   6.231
 6625SOL    HW220775   1.098   5.284   6.142
 6626SOL     OW20776   3.700   5.907   5.564
 6626SOL    HW120777   3.609   5.869   5.554
 6626SOL    HW220778   3.698   6.006   5.549
 6627SOL     OW20779   2.806   0.320   4.287
 6627SOL    HW120780   2.803   0.298   4.384
 6627SOL    HW220781   2.824   0.237   4.234
 6628SOL     OW20782   3.635   6.097   4.099
 6628SOL    HW120783   3.557   6.120   4.041
 6628SOL    HW220784   3.691   6.178   4.112
 6629SOL     OW20785   5.133   5.976   5.404
 6629SOL    HW120786   5.078   6.008   5.326
 6629SOL    HW220787   5.155   6.054   5.463
 6630SOL     OW20788   1.817   6.996   0.550
 6630SOL    HW120789   1.719   7.010   0.564
 6630SOL    HW220790   1.851   0.039   0.484
 6631SOL     OW20791   1.338   1.396   5.722
 6631SOL    HW120792   1.408   1.330   5.694
 6631SOL    HW220793   1.333   1.469   5.654
 6632SOL     OW20794   1.295   0.432   5.849
 6632SOL    HW120795   1.281   0.337   5.877
 6632SOL    HW220796   1.302   0.436   5.749
 6633SOL     OW20797   5.175   0.179   5.711
 6633SOL    HW120798   5.235   0.230   5.649
 6633SOL    HW220799   5.151   0.091   5.670
 6634SOL     OW20800   2.811   2.318   3.962
 6634SOL    HW120801   2.750   2.378   3.911
 6634SOL    HW220802   2.869   2.268   3.899
 6635SOL     OW20803   4.823   5.659   6.196
 6635SOL    HW120804   4.781   5.616   6.276
 6635SOL    HW220805   4.836   5.757   6.214
 6636SOL     OW20806   4.853   1.619   1.259
 6636SOL    HW120807   4.905   1.704   1.256
 6636SOL    HW220808   4.761   1.634   1.221
 6637SOL     OW20809   0.247   3.304   0.047
 6637SOL    HW120810   0.173   3.345   7.017
 6637SOL    HW220811   0.250   3.346   0.137
 6638SOL     OW20812   3.188   3.391   4.262
 6638SOL    HW120813   3.090   3.384   4.245
 6638SOL    HW220814   3.220   3.481   4.233
 6639SOL     OW20815   5.872   2.461   2.412
 6639SOL    HW120816   5.916   2.543   2.449
 6639SOL    HW220817   5.895   2.452   2.314
 6640SOL     OW20818   0.299   3.583   4.090
 6640SOL    HW120819   0.350   3.504   4.058
 6640SOL    HW220820   0.362   3.648   4.134
 6641SOL     OW20821   5.399   2.341   0.402
 6641SOL    HW120822   5.436   2.431   0.426
 6641SOL    HW220823   5.311   2.352   0.357
 6642SOL     OW20824   0.314   4.753   6.380
 6642SOL    HW120825   0.390   4.699   6.342
 6642SOL    HW220826   0.273   4.703   6.456
 6643SOL     OW20827   5.824   5.579   5.518
 6643SOL    HW120828   5.896   5.581   5.587
 6643SOL    HW220829   5.739   5.547   5.559
 6644SOL     OW20830   2.054   6.380   3.524
 6644SOL    HW120831   2.123   6.394   3.596
 6644SOL    HW220832   2.012   6.290   3.535
 6645SOL     OW20833   4.831   2.838   5.289
 6645SOL    HW120834   4.806   2.916   5.232
 6645SOL    HW220835   4.771   2.834   5.368
 6646SOL     OW20836   4.358   0.118   6.055
 6646SOL    HW120837   4.304   0.058   6.114
 6646SOL    HW220838   4.451   0.125   6.091
 6647SOL     OW20839   2.843   4.974   0.672
 6647SOL    HW120840   2.909   4.900   0.687
 6647SOL    HW220841   2.825   5.020   0.758
 6648SOL     OW20842   3.297   5.689   5.021
 6648SOL    HW120843   3.308   5.610   5.081
 6648SOL    HW220844   3.258   5.765   5.073
 6649SOL     OW20845   5.666   2.888   5.077
 6649SOL    HW120846   5.657   2.988   5.073
 6649SOL    HW220847   5.731   2.864   5.148
 6650SOL     OW20848   2.736   0.560   4.700
 6650SOL    HW120849   2.814   0.501   4.721
 6650SOL    HW220850   2.704   0.604   4.783
 6651SOL     OW20851   5.975   0.921   3.275
 6651SOL    HW120852   5.951   0.971   3.359
 6651SOL    HW220853   6.038   0.847   3.297
 6652SOL     OW20854   6.959   5.415   6.630
 6652SOL    HW120855   6.915   5.500   6.658
 6652SOL    HW220856   6.938   5.397   6.534
 6653SOL     OW20857   5.695   3.667   6.678
 6653SOL    HW120858   5.686   3.720   6.594
 6653SOL    HW220859   5.720   3.728   6.754
 6654SOL     OW20860   6.564   1.825   3.445
 6654SOL    HW120861   6.597   1.753   3.506
 6654SOL    HW220862   6.643   1.876   3.410
 6655SOL     OW20863   6.769   5.330   1.594
 6655SOL    HW120864   6.783   5.423   1.627
 6655SOL    HW220865   6.787   5.264   1.667
 6656SOL     OW20866   5.378   1.728   2.535
 6656SOL    HW120867   5.307   1.768   2.593
 6656SOL    HW220868   5.335   1.672   2.465
 6657SOL     OW20869   4.909   1.986   4.076
 6657SOL    HW120870   4.888   2.084   4.064
 6657SOL    HW220871   5.005   1.975   4.100
 6658SOL     OW20872   6.468   5.849   3.946
 6658SOL    HW120873   6.519   5.883   3.867
 6658SOL    HW220874   6.398   5.784   3.915
 6659SOL     OW20875   1.095   6.424   0.666
 6659SOL    HW120876   1.179   6.419   0.612
 6659SOL    HW220877   1.092   6.511   0.715
 6660SOL     OW20878   1.483   0.879   3.484
 6660SOL    HW120879   1.563   0.938   3.494
 6660SOL    HW220880   1.497   0.817   3.406
 6661SOL     OW20881   3.654   6.489   3.521
 6661SOL    HW120882   3.729   6.527   3.467
 6661SOL    HW220883   3.685   6.474   3.615
 6662SOL     OW20884   3.992   6.109   1.062
 6662SOL    HW120885   3.899   6.143   1.080
 6662SOL    HW220886   4.045   6.179   1.015
 6663SOL     OW20887   1.651   4.260   5.328
 6663SOL    HW120888   1.658   4.205   5.411
 6663SOL    HW220889   1.690   4.209   5.251
 6664SOL     OW20890   3.499   0.032   1.629
 6664SOL    HW120891   3.411   0.026   1.676
 6664SOL    HW220892   3.525   0.128   1.621
 6665SOL     OW20893   2.903   0.480   6.602
 6665SOL    HW120894   2.933   0.532   6.522
 6665SOL    HW220895   2.971   0.489   6.675
 6666SOL     OW20896   2.926   6.743   5.792
 6666SOL    HW120897   2.983   6.825   5.785
 6666SOL    HW220898   2.834   6.764   5.759
 6667SOL     OW20899   1.666   5.592   6.872
 6667SOL    HW120900   1.755   5.547   6.862
 6667SOL    HW220901   1.676   5.690   6.857
 6668SOL     OW20902   6.844   3.896   5.989
 6668SOL    HW120903   6.911   3.864   5.922
 6668SOL    HW220904   6.767   3.833   5.992
 6669SOL     OW20905   0.584   3.597   3.577
 6669SOL    HW120906   0.610   3.594   3.673
 6669SOL    HW220907   0.664   3.577   3.520
 6670SOL     OW20908   2.566   3.701   0.655
 6670SOL    HW120909   2.651   3.731   0.699
 6670SOL    HW220910   2.502   3.668   0.725
 6671SOL     OW20911   5.207   5.296   0.297
 6671SOL    HW120912   5.234   5.199   0.298
 6671SOL    HW220913   5.113   5.304   0.263
 6672SOL     OW20914   1.710   2.305   0.972
 6672SOL    HW120915   1.703   2.220   1.024
 6672SOL    HW220916   1.775   2.293   0.897
 6673SOL     OW20917   5.495   4.079   4.257
 6673SOL    HW120918   5.563   4.146   4.288
 6673SOL    HW220919   5.539   4.016   4.193
 6674SOL     OW20920   6.509   1.515   6.952
 6674SOL    HW120921   6.519   1.606   6.991
 6674SOL    HW220922   6.415   1.482   6.968
 6675SOL     OW20923   4.995   1.073   0.826
 6675SOL    HW120924   4.998   0.975   0.843
 6675SOL    HW220925   5.029   1.092   0.733
 6676SOL     OW20926   0.985   3.381   5.527
 6676SOL    HW120927   1.022   3.449   5.592
 6676SOL    HW220928   0.905   3.336   5.568
 6677SOL     OW20929   0.703   2.352   7.015
 6677SOL    HW120930   0.624   2.366   0.051
 6677SOL    HW220931   0.787   2.371   0.041
 6678SOL     OW20932   3.126   4.247   6.877
 6678SOL    HW120933   3.096   4.174   6.815
 6678SOL    HW220934   3.203   4.214   6.931
 6679SOL     OW20935   1.518   0.330   3.658
 6679SOL    HW120936   1.475   0.397   3.597
 6679SOL    HW220937   1.609   0.361   3.683
 6680SOL     OW20938   6.414   5.524   1.799
 6680SOL    HW120939   6.339   5.583   1.831
 6680SOL    HW220940   6.379   5.431   1.786
 6681SOL     OW20941   3.193   6.413   1.200
 6681SOL    HW120942   3.164   6.503   1.233
 6681SOL    HW220943   3.137   6.385   1.122
 6682SOL     OW20944   2.443   5.138   6.642
 6682SOL    HW120945   2.458   5.042   6.663
 6682SOL    HW220946   2.393   5.146   6.556
 6683SOL     OW20947   6.609   6.530   6.030
 6683SOL    HW120948   6.532   6.487   5.982
 6683SOL    HW220949   6.589   6.627   6.046
 6684SOL     OW20950   2.988   0.045   5.794
 6684SOL    HW120951   2.901   0.081   5.826
 6684SOL    HW220952   3.063   0.102   5.829
 6685SOL     OW20953   3.781   2.974   0.726
 6685SOL    HW120954   3.702   3.008   0.777
 6685SOL    HW220955   3.862   2.976   0.785
 6686SOL     OW20956   4.332   4.553   5.538
 6686SOL    HW120957   4.352   4.619   5.466
 6686SOL    HW220958   4.413   4.499   5.557
 6687SOL     OW20959   0.049   2.928   1.139
 6687SOL    HW120960   0.113   2.990   1.094
 6687SOL    HW220961   7.016   2.884   1.069
 6688SOL     OW20962   5.732   5.951   0.291
 6688SOL    HW120963   5.652   5.901   0.259
 6688SOL    HW220964   5.710   6.048   0.299
 6689SOL     OW20965   3.904   4.399   5.564
 6689SOL    HW120966   3.892   4.495   5.590
 6689SOL    HW220967   3.983   4.361   5.612
 6690SOL     OW20968   1.198   0.086   6.911
 6690SOL    HW120969   1.128   0.102   6.981
 6690SOL    HW220970   1.235   7.018   6.921
 6691SOL     OW20971   1.601   1.909   2.144
 6691SOL    HW120972   1.588   1.960   2.058
 6691SOL    HW220973   1.695   1.923   2.176
 6692SOL     OW20974   4.138   6.170   2.121
 6692SOL    HW120975   4.060   6.108   2.113
 6692SOL    HW220976   4.153   6.192   2.218
 6693SOL     OW20977   3.133   1.334   5.932
 6693SOL    HW120978   3.110   1.269   6.005
 6693SOL    HW220979   3.224   1.314   5.897
 6694SOL     OW20980   4.599   4.082   1.711
 6694SOL    HW120981   4.526   4.130   1.760
 6694SOL    HW220982   4.661   4.148   1.669
 6695SOL     OW20983   3.344   2.193   0.100
 6695SOL    HW120984   3.320   2.263   0.033
 6695SOL    HW220985   3.415   2.229   0.161
 6696SOL     OW20986   3.431   3.255   5.195
 6696SOL    HW120987   3.521   3.223   5.223
 6696SOL    HW220988   3.382   3.181   5.149
 6697SOL     OW20989   5.006   1.153   2.844
 6697SOL    HW120990   4.970   1.126   2.933
 6697SOL    HW220991   4.964   1.240   2.816
 6698SOL     OW20992   2.680   3.620   1.351
 6698SOL    HW120993   2.700   3.523   1.364
 6698SOL    HW220994   2.765   3.670   1.339
 6699SOL     OW20995   1.384   3.528   5.966
 6699SOL    HW120996   1.443   3.603   5.995
 6699SOL    HW220997   1.396   3.451   6.029
 6700SOL     OW20998   5.137   0.100   1.231
 6700SOL    HW120999   5.134   0.166   1.306
 6700SOL    HW221000   5.092   0.015   1.258
 6701SOL     OW21001   6.549   6.606   1.631
 6701SOL    HW121002   6.612   6.653   1.568
 6701SOL    HW221003   6.546   6.656   1.718
 6702SOL     OW21004   4.978   2.692   1.488
 6702SOL    HW121005   4.897   2.722   1.438
 6702SOL    HW221006   5.050   2.669   1.422
 6703SOL     OW21007   0.126   1.163   0.749
 6703SOL    HW121008   0.066   1.233   0.709
 6703SOL    HW221009   0.134   1.178   0.847
 6704SOL     OW21010   2.245   5.904   6.575
 6704SOL    HW121011   2.225   5.995   6.539
 6704SOL    HW221012   2.237   5.837   6.501
 6705SOL     OW21013   1.558   4.177   3.012
 6705SOL    HW121014   1.495   4.252   3.033
 6705SOL    HW221015   1.546   4.104   3.080
 6706SOL     OW21016   0.548   5.612   1.623
 6706SOL    HW121017   0.631   5.569   1.660
 6706SOL    HW221018   0.507   5.669   1.694
 6707SOL     OW21019   5.140   0.809   2.841
 6707SOL    HW121020   5.143   0.711   2.861
 6707SOL    HW221021   5.105   0.858   2.921
 6708SOL     OW21022   7.013   3.259   1.049
 6708SOL    HW121023   6.926   3.219   1.021
 6708SOL    HW221024   0.004   3.241   1.146
 6709SOL     OW21025   2.279   4.067   1.852
 6709SOL    HW121026   2.240   4.025   1.934
 6709SOL    HW221027   2.206   4.108   1.797
 6710SOL     OW21028   4.887   2.298   2.127
 6710SOL    HW121029   4.872   2.298   2.028
 6710SOL    HW221030   4.887   2.392   2.160
 6711SOL     OW21031   4.302   5.567   6.230
 6711SOL    HW121032   4.289   5.498   6.301
 6711SOL    HW221033   4.215   5.583   6.183
 6712SOL     OW21034   5.680   3.503   0.958
 6712SOL    HW121035   5.682   3.415   0.912
 6712SOL    HW221036   5.758   3.511   1.020
 6713SOL     OW21037   2.050   4.471   4.367
 6713SOL    HW121038   2.119   4.535   4.402
 6713SOL    HW221039   2.013   4.417   4.442
 6714SOL     OW21040   6.038   0.648   2.681
 6714SOL    HW121041   5.939   0.649   2.668
 6714SOL    HW221042   6.073   0.741   2.684
 6715SOL     OW21043   0.897   6.713   5.568
 6715SOL    HW121044   0.888   6.790   5.506
 6715SOL    HW221045   0.835   6.640   5.539
 6716SOL     OW21046   1.541   4.459   1.762
 6716SOL    HW121047   1.461   4.511   1.733
 6716SOL    HW221048   1.574   4.493   1.850
 6717SOL     OW21049   6.335   2.448   5.384
 6717SOL    HW121050   6.360   2.498   5.467
 6717SOL    HW221051   6.417   2.431   5.330
 6718SOL     OW21052   4.661   2.387   0.831
 6718SOL    HW121053   4.599   2.329   0.778
 6718SOL    HW221054   4.755   2.365   0.806
 6719SOL     OW21055   1.726   0.301   0.244
 6719SOL    HW121056   1.710   0.252   0.159
 6719SOL    HW221057   1.796   0.254   0.298
 6720SOL     OW21058   1.637   1.790   4.573
 6720SOL    HW121059   1.680   1.821   4.657
 6720SOL    HW221060   1.706   1.777   4.502
 6721SOL     OW21061   6.357   6.423   0.413
 6721SOL    HW121062   6.343   6.325   0.418
 6721SOL    HW221063   6.451   6.443   0.385
 6722SOL     OW21064   6.949   3.969   1.737
 6722SOL    HW121065   0.018   3.947   1.767
 6722SOL    HW221066   6.916   3.898   1.676
 6723SOL     OW21067   2.129   3.491   3.875
 6723SOL    HW121068   2.130   3.470   3.972
 6723SOL    HW221069   2.081   3.418   3.825
 6724SOL     OW21070   2.171   3.381   5.073
 6724SOL    HW121071   2.215   3.467   5.098
 6724SOL    HW221072   2.168   3.372   4.973
 6725SOL     OW21073   4.676   2.628   3.459
 6725SOL    HW121074   4.738   2.639   3.381
 6725SOL    HW221075   4.686   2.536   3.497
 6726SOL     OW21076   0.036   1.427   0.277
 6726SOL    HW121077   7.009   1.342   0.265
 6726SOL    HW221078   0.132   1.406   0.294
 6727SOL     OW21079   0.848   5.364   5.574
 6727SOL    HW121080   0.876   5.298   5.504
 6727SOL    HW221081   0.752   5.349   5.597
 6728SOL     OW21082   3.538   1.624   5.345
 6728SOL    HW121083   3.443   1.650   5.324
 6728SOL    HW221084   3.594   1.631   5.262
 6729SOL     OW21085   4.324   1.291   2.594
 6729SOL    HW121086   4.306   1.222   2.524
 6729SOL    HW221087   4.309   1.252   2.685
 6730SOL     OW21088   6.983   2.128   1.257
 6730SOL    HW121089   6.985   2.065   1.335
 6730SOL    HW221090   6.941   2.083   1.179
 6731SOL     OW21091   3.707   0.592   5.754
 6731SOL    HW121092   3.773   0.659   5.719
 6731SOL    HW221093   3.670   0.624   5.841
 6732SOL     OW21094   6.219   4.955   6.265
 6732SOL    HW121095   6.254   4.862   6.278
 6732SOL    HW221096   6.154   4.955   6.189
 6733SOL     OW21097   5.292   4.754   5.753
 6733SOL    HW121098   5.219   4.821   5.763
 6733SOL    HW221099   5.324   4.753   5.658
 6734SOL     OW21100   5.429   1.639   5.226
 6734SOL    HW121101   5.363   1.650   5.152
 6734SOL    HW221102   5.502   1.708   5.216
 6735SOL     OW21103   5.772   2.689   4.632
 6735SOL    HW121104   5.787   2.684   4.534
 6735SOL    HW221105   5.775   2.597   4.671
 6736SOL     OW21106   3.979   3.372   0.686
 6736SOL    HW121107   3.987   3.380   0.786
 6736SOL    HW221108   4.069   3.386   0.645
 6737SOL     OW21109   5.942   2.634   1.106
 6737SOL    HW121110   5.899   2.719   1.138
 6737SOL    HW221111   6.023   2.615   1.162
 6738SOL     OW21112   1.857   6.940   3.594
 6738SOL    HW121113   1.953   6.934   3.621
 6738SOL    HW221114   1.819   6.848   3.585
 6739SOL     OW21115   0.276   0.335   5.482
 6739SOL    HW121116   0.304   0.261   5.421
 6739SOL    HW221117   0.219   0.298   5.555
 6740SOL     OW21118   0.947   6.969   1.547
 6740SOL    HW121119   0.849   6.953   1.536
 6740SOL    HW221120   0.994   6.943   1.463
 6741SOL     OW21121   3.189   1.966   0.184
 6741SOL    HW121122   3.200   2.061   0.153
 6741SOL    HW221123   3.135   1.915   0.118
 6742SOL     OW21124   6.553   5.359   2.715
 6742SOL    HW121125   6.629   5.312   2.671
 6742SOL    HW221126   6.526   5.438   2.660
 6743SOL     OW21127   3.816   4.348   6.930
 6743SOL    HW121128   3.871   4.291   6.869
 6743SOL    HW221129   3.862   4.435   6.945
 6744SOL     OW21130   6.643   6.639   5.681
 6744SOL    HW121131   6.587   6.561   5.654
 6744SOL    HW221132   6.589   6.700   5.740
 6745SOL     OW21133   5.659   3.564   5.019
 6745SOL    HW121134   5.633   3.511   5.100
 6745SOL    HW221135   5.599   3.541   4.943
 6746SOL     OW21136   1.802   2.549   2.757
 6746SOL    HW121137   1.780   2.577   2.850
 6746SOL    HW221138   1.882   2.488   2.758
 6747SOL     OW21139   0.784   5.972   5.351
 6747SOL    HW121140   0.784   5.936   5.445
 6747SOL    HW221141   0.755   6.067   5.352
 6748SOL     OW21142   1.404   2.437   3.849
 6748SOL    HW121143   1.307   2.436   3.822
 6748SOL    HW221144   1.424   2.523   3.897
 6749SOL     OW21145   3.280   5.097   2.090
 6749SOL    HW121146   3.313   5.005   2.113
 6749SOL    HW221147   3.313   5.123   1.999
 6750SOL     OW21148   3.362   0.291   5.470
 6750SOL    HW121149   3.405   0.322   5.386
 6750SOL    HW221150   3.310   0.366   5.510
 6751SOL     OW21151   3.780   1.351   4.381
 6751SOL    HW121152   3.745   1.435   4.423
 6751SOL    HW221153   3.810   1.288   4.453
 6752SOL     OW21154   2.213   5.422   2.711
 6752SOL    HW121155   2.153   5.425   2.631
 6752SOL    HW221156   2.273   5.502   2.710
 6753SOL     OW21157   3.617   4.368   6.675
 6753SOL    HW121158   3.670   4.395   6.755
 6753SOL    HW221159   3.553   4.440   6.651
 6754SOL     OW21160   5.612   0.457   0.483
 6754SOL    HW121161   5.664   0.540   0.462
 6754SOL    HW221162   5.598   0.404   0.399
 6755SOL     OW21163   3.783   5.735   5.367
 6755SOL    HW121164   3.704   5.683   5.335
 6755SOL    HW221165   3.752   5.813   5.421
 6756SOL     OW21166   4.216   3.395   5.133
 6756SOL    HW121167   4.234   3.484   5.174
 6756SOL    HW221168   4.303   3.349   5.113
 6757SOL     OW21169   4.103   6.922   1.710
 6757SOL    HW121170   4.146   6.941   1.799
 6757SOL    HW221171   4.071   7.007   1.670
 6758SOL     OW21172   5.323   2.304   3.492
 6758SOL    HW121173   5.378   2.282   3.572
 6758SOL    HW221174   5.370   2.273   3.409
 6759SOL     OW21175   1.187   2.485   1.679
 6759SOL    HW121176   1.232   2.571   1.702
 6759SOL    HW221177   1.186   2.426   1.760
 6760SOL     OW21178   5.160   1.655   5.810
 6760SOL    HW121179   5.075   1.705   5.792
 6760SOL    HW221180   5.161   1.572   5.754
 6761SOL     OW21181   2.841   0.096   4.809
 6761SOL    HW121182   2.771   0.053   4.866
 6761SOL    HW221183   2.921   0.036   4.804
 6762SOL     OW21184   5.460   4.626   4.336
 6762SOL    HW121185   5.397   4.658   4.266
 6762SOL    HW221186   5.437   4.532   4.360
 6763SOL     OW21187   5.565   5.638   3.650
 6763SOL    HW121188   5.497   5.616   3.720
 6763SOL    HW221189   5.596   5.554   3.606
 6764SOL     OW21190   1.188   4.664   2.224
 6764SOL    HW121191   1.136   4.585   2.191
 6764SOL    HW221192   1.220   4.718   2.146
 6765SOL     OW21193   0.066   4.746   2.792
 6765SOL    HW121194   6.999   4.710   2.813
 6765SOL    HW221195   0.061   4.803   2.711
 6766SOL     OW21196   5.993   0.057   1.426
 6766SOL    HW121197   6.072   0.097   1.471
 6766SOL    HW221198   6.014   6.987   1.399
 6767SOL     OW21199   2.982   0.624   1.561
 6767SOL    HW121200   3.004   0.528   1.574
 6767SOL    HW221201   2.892   0.644   1.601
 6768SOL     OW21202   2.329   0.292   6.402
 6768SOL    HW121203   2.256   0.291   6.471
 6768SOL    HW221204   2.293   0.256   6.316
 6769SOL     OW21205   5.476   2.730   1.400
 6769SOL    HW121206   5.487   2.673   1.481
 6769SOL    HW221207   5.450   2.823   1.428
 6770SOL     OW21208   0.133   1.871   1.341
 6770SOL    HW121209   0.188   1.798   1.380
 6770SOL    HW221210   0.038   1.859   1.367
 6771SOL     OW21211   4.881   1.218   3.587
 6771SOL    HW121212   4.877   1.311   3.622
 6771SOL    HW221213   4.797   1.169   3.609
 6772SOL     OW21214   3.409   1.453   5.075
 6772SOL    HW121215   3.376   1.491   4.989
 6772SOL    HW221216   3.486   1.508   5.107
 6773SOL     OW21217   6.657   3.257   2.293
 6773SOL    HW121218   6.637   3.267   2.195
 6773SOL    HW221219   6.724   3.325   2.320
 6774SOL     OW21220   1.343   1.757   6.113
 6774SOL    HW121221   1.322   1.727   6.020
 6774SOL    HW221222   1.287   1.836   6.137
 6775SOL     OW21223   0.298   3.249   0.683
 6775SOL    HW121224   0.307   3.235   0.584
 6775SOL    HW221225   0.339   3.171   0.731
 6776SOL     OW21226   5.820   6.510   6.576
 6776SOL    HW121227   5.777   6.550   6.495
 6776SOL    HW221228   5.914   6.544   6.585
 6777SOL     OW21229   4.453   4.778   6.831
 6777SOL    HW121230   4.478   4.681   6.837
 6777SOL    HW221231   4.423   4.810   6.921
 6778SOL     OW21232   6.700   5.323   3.243
 6778SOL    HW121233   6.705   5.232   3.284
 6778SOL    HW221234   6.681   5.314   3.145
 6779SOL     OW21235   5.339   3.598   6.443
 6779SOL    HW121236   5.362   3.577   6.538
 6779SOL    HW221237   5.389   3.536   6.382
 6780SOL     OW21238   1.009   2.686   1.273
 6780SOL    HW121239   1.011   2.591   1.242
 6780SOL    HW221240   1.100   2.726   1.262
 6781SOL     OW21241   5.647   4.602   5.438
 6781SOL    HW121242   5.704   4.666   5.489
 6781SOL    HW221243   5.641   4.515   5.487
 6782SOL     OW21244   6.336   1.707   3.803
 6782SOL    HW121245   6.283   1.727   3.720
 6782SOL    HW221246   6.333   1.786   3.865
 6783SOL     OW21247   1.369   5.363   6.834
 6783SOL    HW121248   1.323   5.370   6.745
 6783SOL    HW221249   1.431   5.284   6.834
 6784SOL     OW21250   4.422   3.304   0.312
 6784SOL    HW121251   4.451   3.210   0.295
 6784SOL    HW221252   4.340   3.304   0.369
 6785SOL     OW21253   5.476   5.841   1.799
 6785SOL    HW121254   5.562   5.885   1.823
 6785SOL    HW221255   5.399   5.898   1.828
 6786SOL     OW21256   1.639   3.272   5.044
 6786SOL    HW121257   1.714   3.331   5.075
 6786SOL    HW221258   1.629   3.196   5.107
 6787SOL     OW21259   0.865   3.866   2.303
 6787SOL    HW121260   0.772   3.856   2.267
 6787SOL    HW221261   0.914   3.779   2.293
 6788SOL     OW21262   2.769   3.823   0.849
 6788SOL    HW121263   2.844   3.819   0.915
 6788SOL    HW221264   2.759   3.916   0.815
 6789SOL     OW21265   1.973   4.583   3.280
 6789SOL    HW121266   2.001   4.636   3.199
 6789SOL    HW221267   2.028   4.612   3.359
 6790SOL     OW21268   0.982   3.363   0.628
 6790SOL    HW121269   0.972   3.345   0.726
 6790SOL    HW221270   1.079   3.371   0.605
 6791SOL     OW21271   3.718   3.992   5.688
 6791SOL    HW121272   3.621   4.001   5.664
 6791SOL    HW221273   3.746   3.897   5.674
 6792SOL     OW21274   0.405   5.231   0.439
 6792SOL    HW121275   0.479   5.292   0.465
 6792SOL    HW221276   0.442   5.153   0.388
 6793SOL     OW21277   5.913   1.220   0.972
 6793SOL    HW121278   5.995   1.241   1.025
 6793SOL    HW221279   5.833   1.260   1.017
 6794SOL     OW21280   2.949   1.702   4.931
 6794SOL    HW121281   2.890   1.702   5.011
 6794SOL    HW221282   2.908   1.758   4.859
 6795SOL     OW21283   4.054   6.014   6.969
 6795SOL    HW121284   4.008   5.951   6.907
 6795SOL    HW221285   4.147   5.981   6.987
 6796SOL     OW21286   4.589   1.925   2.419
 6796SOL    HW121287   4.679   1.967   2.406
 6796SOL    HW221288   4.520   1.982   2.376
 6797SOL     OW21289   6.570   2.639   2.810
 6797SOL    HW121290   6.579   2.723   2.756
 6797SOL    HW221291   6.651   2.626   2.866
 6798SOL     OW21292   6.514   6.819   2.254
 6798SOL    HW121293   6.574   6.781   2.184
 6798SOL    HW221294   6.560   6.817   2.342
 6799SOL     OW21295   5.155   6.045   2.145
 6799SOL    HW121296   5.136   5.949   2.161
 6799SOL    HW221297   5.236   6.072   2.198
 6800SOL     OW21298   3.462   3.751   6.275
 6800SOL    HW121299   3.443   3.845   6.304
 6800SOL    HW221300   3.450   3.689   6.353
 6801SOL     OW21301   0.523   2.727   3.156
 6801SOL    HW121302   0.443   2.711   3.098
 6801SOL    HW221303   0.582   2.795   3.113
 6802SOL     OW21304   3.221   4.883   2.458
 6802SOL    HW121305   3.175   4.821   2.521
 6802SOL    HW221306   3.170   4.887   2.372
 6803SOL     OW21307   4.180   2.475   0.120
 6803SOL    HW121308   4.164   2.506   0.214
 6803SOL    HW221309   4.113   2.516   0.059
 6804SOL     OW21310   1.698   5.849   3.184
 6804SOL    HW121311   1.636   5.906   3.238
 6804SOL    HW221312   1.783   5.835   3.235
 6805SOL     OW21313   6.180   1.794   5.763
 6805SOL    HW121314   6.154   1.733   5.838
 6805SOL    HW221315   6.183   1.742   5.677
 6806SOL     OW21316   5.183   5.679   5.274
 6806SOL    HW121317   5.231   5.703   5.189
 6806SOL    HW221318   5.182   5.759   5.334
 6807SOL     OW21319   4.318   3.385   6.851
 6807SOL    HW121320   4.236   3.443   6.852
 6807SOL    HW221321   4.348   3.369   6.945
 6808SOL     OW21322   2.497   4.594   3.900
 6808SOL    HW121323   2.586   4.620   3.862
 6808SOL    HW221324   2.451   4.675   3.936
 6809SOL     OW21325   1.432   3.468   6.908
 6809SOL    HW121326   1.478   3.557   6.917
 6809SOL    HW221327   1.347   3.470   6.961
 6810SOL     OW21328   6.032   1.504   3.691
 6810SOL    HW121329   5.942   1.544   3.709
 6810SOL    HW221330   6.090   1.573   3.647
 6811SOL     OW21331   5.392   6.099   2.277
 6811SOL    HW121332   5.404   6.003   2.249
 6811SOL    HW221333   5.413   6.109   2.374
 6812SOL     OW21334   3.903   3.251   2.825
 6812SOL    HW121335   3.978   3.305   2.788
 6812SOL    HW221336   3.834   3.312   2.865
 6813SOL     OW21337   5.317   3.857   1.168
 6813SOL    HW121338   5.248   3.876   1.099
 6813SOL    HW221339   5.271   3.835   1.255
 6814SOL     OW21340   2.308   2.468   0.603
 6814SOL    HW121341   2.253   2.386   0.617
 6814SOL    HW221342   2.390   2.445   0.551
 6815SOL     OW21343   1.608   6.921   0.251
 6815SOL    HW121344   1.553   6.970   0.184
 6815SOL    HW221345   1.580   6.949   0.343
 6816SOL     OW21346   4.901   4.651   1.238
 6816SOL    HW121347   4.976   4.587   1.222
 6816SOL    HW221348   4.856   4.672   1.151
 6817SOL     OW21349   1.937   2.106   5.755
 6817SOL    HW121350   1.944   2.178   5.824
 6817SOL    HW221351   1.972   2.020   5.794
 6818SOL     OW21352   4.462   4.977   1.045
 6818SOL    HW121353   4.372   4.943   1.073
 6818SOL    HW221354   4.455   5.074   1.023
 6819SOL     OW21355   2.669   1.510   4.047
 6819SOL    HW121356   2.662   1.607   4.026
 6819SOL    HW221357   2.671   1.457   3.962
 6820SOL     OW21358   1.878   5.070   4.644
 6820SOL    HW121359   1.845   5.035   4.556
 6820SOL    HW221360   1.804   5.117   4.692
 6821SOL     OW21361   2.445   2.680   3.890
 6821SOL    HW121362   2.440   2.761   3.948
 6821SOL    HW221363   2.361   2.671   3.837
 6822SOL     OW21364   5.489   1.210   5.471
 6822SOL    HW121365   5.492   1.309   5.463
 6822SOL    HW221366   5.394   1.180   5.481
 6823SOL     OW21367   4.134   3.277   2.056
 6823SOL    HW121368   4.104   3.197   2.107
 6823SOL    HW221369   4.105   3.360   2.103
 6824SOL     OW21370   0.644   5.553   5.008
 6824SOL    HW121371   0.550   5.526   5.028
 6824SOL    HW221372   0.702   5.531   5.086
 6825SOL     OW21373   5.594   0.765   4.634
 6825SOL    HW121374   5.651   0.846   4.650
 6825SOL    HW221375   5.589   0.710   4.717
 6826SOL     OW21376   0.877   2.720   3.451
 6826SOL    HW121377   0.844   2.626   3.458
 6826SOL    HW221378   0.868   2.766   3.539
 6827SOL     OW21379   4.143   5.287   4.912
 6827SOL    HW121380   4.228   5.274   4.962
 6827SOL    HW221381   4.066   5.266   4.972
 6828SOL     OW21382   2.193   2.014   1.096
 6828SOL    HW121383   2.127   2.079   1.059
 6828SOL    HW221384   2.262   2.064   1.149
 6829SOL     OW21385   5.525   5.047   3.789
 6829SOL    HW121386   5.457   5.063   3.718
 6829SOL    HW221387   5.483   4.997   3.865
 6830SOL     OW21388   5.197   1.394   3.604
 6830SOL    HW121389   5.281   1.341   3.587
 6830SOL    HW221390   5.131   1.336   3.653
 6831SOL     OW21391   0.642   1.708   6.373
 6831SOL    HW121392   0.658   1.798   6.412
 6831SOL    HW221393   0.583   1.655   6.434
 6832SOL     OW21394   2.229   5.053   1.479
 6832SOL    HW121395   2.299   5.057   1.550
 6832SOL    HW221396   2.192   5.144   1.463
 6833SOL     OW21397   4.356   6.094   6.901
 6833SOL    HW121398   4.370   5.997   6.916
 6833SOL    HW221399   4.313   6.109   6.812
 6834SOL     OW21400   2.537   4.849   2.565
 6834SOL    HW121401   2.574   4.923   2.621
 6834SOL    HW221402   2.442   4.832   2.592
 6835SOL     OW21403   3.530   6.652   4.462
 6835SOL    HW121404   3.479   6.703   4.531
 6835SOL    HW221405   3.616   6.699   4.442
 6836SOL     OW21406   3.867   5.817   0.146
 6836SOL    HW121407   3.891   5.896   0.089
 6836SOL    HW221408   3.793   5.842   0.208
 6837SOL     OW21409   0.315   3.286   2.949
 6837SOL    HW121410   0.215   3.287   2.940
 6837SOL    HW221411   0.341   3.237   3.031
 6838SOL     OW21412   2.501   2.029   0.672
 6838SOL    HW121413   2.513   2.047   0.574
 6838SOL    HW221414   2.493   2.116   0.721
 6839SOL     OW21415   3.460   1.114   2.073
 6839SOL    HW121416   3.420   1.185   2.015
 6839SOL    HW221417   3.412   1.111   2.160
 6840SOL     OW21418   0.657   0.598   6.148
 6840SOL    HW121419   0.664   0.691   6.113
 6840SOL    HW221420   0.661   0.599   6.248
 6841SOL     OW21421   6.953   3.006   5.798
 6841SOL    HW121422   6.895   2.943   5.850
 6841SOL    HW221423   0.021   2.969   5.791
 6842SOL     OW21424   2.576   4.565   2.898
 6842SOL    HW121425   2.593   4.566   2.799
 6842SOL    HW221426   2.486   4.604   2.917
 6843SOL     OW21427   4.501   6.586   1.478
 6843SOL    HW121428   4.456   6.655   1.422
 6843SOL    HW221429   4.447   6.571   1.561
 6844SOL     OW21430   5.512   0.548   5.437
 6844SOL    HW121431   5.606   0.514   5.429
 6844SOL    HW221432   5.496   0.619   5.369
 6845SOL     OW21433   5.444   2.111   2.618
 6845SOL    HW121434   5.464   2.205   2.649
 6845SOL    HW221435   5.479   2.099   2.525
 6846SOL     OW21436   1.775   3.205   6.886
 6846SOL    HW121437   1.675   3.204   6.888
 6846SOL    HW221438   1.806   3.287   6.838
 6847SOL     OW21439   6.848   2.534   3.633
 6847SOL    HW121440   6.913   2.604   3.663
 6847SOL    HW221441   6.770   2.578   3.589
 6848SOL     OW21442   6.652   5.042   4.060
 6848SOL    HW121443   6.672   5.035   4.158
 6848SOL    HW221444   6.691   4.963   4.013
 6849SOL     OW21445   3.110   4.225   5.339
 6849SOL    HW121446   3.075   4.140   5.379
 6849SOL    HW221447   3.181   4.202   5.271
 6850SOL     OW21448   5.266   1.054   4.948
 6850SOL    HW121449   5.335   1.096   5.006
 6850SOL    HW221450   5.285   0.956   4.940
 6851SOL     OW21451   1.989   4.195   3.405
 6851SOL    HW121452   1.996   4.204   3.504
 6851SOL    HW221453   2.060   4.133   3.371
 6852SOL     OW21454   4.562   3.000   0.607
 6852SOL    HW121455   4.530   2.912   0.573
 6852SOL    HW221456   4.633   2.985   0.676
 6853SOL     OW21457   4.463   5.363   5.825
 6853SOL    HW121458   4.373   5.331   5.794
 6853SOL    HW221459   4.451   5.422   5.905
 6854SOL     OW21460   5.237   6.148   5.579
 6854SOL    HW121461   5.272   6.200   5.501
 6854SOL    HW221462   5.162   6.199   5.622
 6855SOL     OW21463   3.675   5.437   2.596
 6855SOL    HW121464   3.723   5.439   2.509
 6855SOL    HW221465   3.577   5.426   2.580
 6856SOL     OW21466   6.361   2.619   0.879
 6856SOL    HW121467   6.453   2.605   0.842
 6856SOL    HW221468   6.363   2.694   0.945
 6857SOL     OW21469   1.811   4.708   6.358
 6857SOL    HW121470   1.899   4.692   6.403
 6857SOL    HW221471   1.827   4.730   6.262
 6858SOL     OW21472   1.284   3.657   1.956
 6858SOL    HW121473   1.205   3.713   1.932
 6858SOL    HW221474   1.268   3.612   2.043
 6859SOL     OW21475   2.561   2.463   0.841
 6859SOL    HW121476   2.519   2.521   0.911
 6859SOL    HW221477   2.660   2.461   0.855
 6860SOL     OW21478   0.552   0.029   6.756
 6860SOL    HW121479   0.586   0.006   6.664
 6860SOL    HW221480   0.616   7.019   6.825
 6861SOL     OW21481   6.271   3.625   6.916
 6861SOL    HW121482   6.254   3.697   6.849
 6861SOL    HW221483   6.186   3.605   6.965
 6862SOL     OW21484   0.876   4.924   3.220
 6862SOL    HW121485   0.926   4.845   3.257
 6862SOL    HW221486   0.780   4.899   3.204
 6863SOL     OW21487   5.053   1.090   5.693
 6863SOL    HW121488   5.093   1.015   5.746
 6863SOL    HW221489   4.954   1.076   5.686
 6864SOL     OW21490   2.130   3.327   6.297
 6864SOL    HW121491   2.040   3.302   6.263
 6864SOL    HW221492   2.122   3.403   6.361
 6865SOL     OW21493   1.461   0.678   2.827
 6865SOL    HW121494   1.521   0.724   2.893
 6865SOL    HW221495   1.384   0.636   2.876
 6866SOL     OW21496   1.970   4.893   6.775
 6866SOL    HW121497   1.894   4.843   6.733
 6866SOL    HW221498   2.024   4.831   6.832
 6867SOL     OW21499   1.721   2.417   6.278
 6867SOL    HW121500   1.630   2.389   6.307
 6867SOL    HW221501   1.786   2.405   6.353
 6868SOL     OW21502   4.130   5.387   3.399
 6868SOL    HW121503   4.089   5.450   3.465
 6868SOL    HW221504   4.080   5.300   3.401
 6869SOL     OW21505   1.336   0.302   5.571
 6869SOL    HW121506   1.321   0.203   5.578
 6869SOL    HW221507   1.433   0.320   5.558
 6870SOL     OW21508   6.171   2.932   6.853
 6870SOL    HW121509   6.155   2.954   6.950
 6870SOL    HW221510   6.089   2.954   6.800
 6871SOL     OW21511   6.083   2.255   3.234
 6871SOL    HW121512   6.011   2.205   3.282
 6871SOL    HW221513   6.071   2.244   3.135
 6872SOL     OW21514   1.650   5.201   1.077
 6872SOL    HW121515   1.693   5.142   1.146
 6872SOL    HW221516   1.605   5.144   1.008
 6873SOL     OW21517   0.610   3.779   2.263
 6873SOL    HW121518   0.599   3.738   2.353
 6873SOL    HW221519   0.536   3.844   2.245
 6874SOL     OW21520   4.100   5.940   1.869
 6874SOL    HW121521   4.197   5.920   1.873
 6874SOL    HW221522   4.061   5.902   1.785
 6875SOL     OW21523   3.124   1.208   6.196
 6875SOL    HW121524   3.078   1.296   6.210
 6875SOL    HW221525   3.127   1.158   6.283
 6876SOL     OW21526   5.743   5.626   3.139
 6876SOL    HW121527   5.794   5.639   3.224
 6876SOL    HW221528   5.755   5.706   3.080
 6877SOL     OW21529   1.121   4.421   1.366
 6877SOL    HW121530   1.029   4.459   1.356
 6877SOL    HW221531   1.116   4.334   1.415
 6878SOL     OW21532   1.666   0.671   3.676
 6878SOL    HW121533   1.600   0.645   3.606
 6878SOL    HW221534   1.723   0.592   3.700
 6879SOL     OW21535   1.463   1.656   1.255
 6879SOL    HW121536   1.415   1.657   1.343
 6879SOL    HW221537   1.465   1.562   1.220
 6880SOL     OW21538   1.835   6.837   0.128
 6880SOL    HW121539   1.921   6.887   0.139
 6880SOL    HW221540   1.765   6.876   0.187
 6881SOL     OW21541   6.938   3.569   1.410
 6881SOL    HW121542   6.873   3.565   1.335
 6881SOL    HW221543   0.007   3.568   1.374
 6882SOL     OW21544   2.513   6.292   0.045
 6882SOL    HW121545   2.536   6.233   0.122
 6882SOL    HW221546   2.593   6.343   0.016
 6883SOL     OW21547   4.784   6.880   1.174
 6883SOL    HW121548   4.832   6.902   1.089
 6883SOL    HW221549   4.729   6.798   1.161
 6884SOL     OW21550   1.200   5.071   3.314
 6884SOL    HW121551   1.216   5.030   3.224
 6884SOL    HW221552   1.284   5.117   3.345
 6885SOL     OW21553   5.749   5.068   4.510
 6885SOL    HW121554   5.788   5.102   4.424
 6885SOL    HW221555   5.650   5.081   4.510
 6886SOL     OW21556   5.767   3.675   0.711
 6886SOL    HW121557   5.696   3.706   0.647
 6886SOL    HW221558   5.730   3.605   0.772
 6887SOL     OW21559   5.189   6.752   5.409
 6887SOL    HW121560   5.154   6.674   5.358
 6887SOL    HW221561   5.151   6.837   5.371
 6888SOL     OW21562   6.756   4.133   1.192
 6888SOL    HW121563   6.706   4.203   1.242
 6888SOL    HW221564   6.854   4.157   1.192
 6889SOL     OW21565   0.830   2.619   5.664
 6889SOL    HW121566   0.867   2.527   5.676
 6889SOL    HW221567   0.823   2.640   5.567
 6890SOL     OW21568   4.665   4.615   4.058
 6890SOL    HW121569   4.615   4.662   4.131
 6890SOL    HW221570   4.680   4.520   4.085
 6891SOL     OW21571   1.428   1.121   1.108
 6891SOL    HW121572   1.528   1.120   1.109
 6891SOL    HW221573   1.395   1.182   1.180
 6892SOL     OW21574   1.565   0.834   5.512
 6892SOL    HW121575   1.518   0.874   5.590
 6892SOL    HW221576   1.661   0.817   5.536
 6893SOL     OW21577   5.637   2.993   0.931
 6893SOL    HW121578   5.695   3.074   0.921
 6893SOL    HW221579   5.563   3.014   0.995
 6894SOL     OW21580   5.712   5.274   6.776
 6894SOL    HW121581   5.633   5.335   6.785
 6894SOL    HW221582   5.795   5.321   6.807
 6895SOL     OW21583   1.385   5.494   2.569
 6895SOL    HW121584   1.302   5.538   2.605
 6895SOL    HW221585   1.463   5.519   2.626
 6896SOL     OW21586   4.973   0.806   6.203
 6896SOL    HW121587   5.002   0.844   6.115
 6896SOL    HW221588   4.887   0.847   6.231
 6897SOL     OW21589   4.298   2.291   4.835
 6897SOL    HW121590   4.246   2.320   4.916
 6897SOL    HW221591   4.244   2.226   4.782
 6898SOL     OW21592   2.017   6.783   1.518
 6898SOL    HW121593   2.007   6.695   1.472
 6898SOL    HW221594   1.928   6.814   1.550
 6899SOL     OW21595   5.178   5.055   2.944
 6899SOL    HW121596   5.110   5.128   2.957
 6899SOL    HW221597   5.228   5.041   3.029
 6900SOL     OW21598   0.067   4.188   4.704
 6900SOL    HW121599   0.050   4.284   4.725
 6900SOL    HW221600   0.097   4.179   4.609
 6901SOL     OW21601   5.325   4.125   6.901
 6901SOL    HW121602   5.415   4.148   6.865
 6901SOL    HW221603   5.262   4.107   6.826
 6902SOL     OW21604   0.402   5.779   5.767
 6902SOL    HW121605   0.456   5.750   5.688
 6902SOL    HW221606   0.416   5.715   5.842
 6903SOL     OW21607   1.143   6.495   5.303
 6903SOL    HW121608   1.169   6.570   5.364
 6903SOL    HW221609   1.044   6.493   5.293
 6904SOL     OW21610   0.242   0.175   6.270
 6904SOL    HW121611   0.221   0.265   6.309
 6904SOL    HW221612   0.226   0.177   6.171
 6905SOL     OW21613   4.701   6.097   5.239
 6905SOL    HW121614   4.602   6.105   5.239
 6905SOL    HW221615   4.730   6.038   5.163
 6906SOL     OW21616   2.752   1.659   3.026
 6906SOL    HW121617   2.791   1.745   3.059
 6906SOL    HW221618   2.741   1.596   3.103
 6907SOL     OW21619   5.439   3.121   0.381
 6907SOL    HW121620   5.411   3.141   0.287
 6907SOL    HW221621   5.483   3.201   0.421
 6908SOL     OW21622   3.981   5.606   0.779
 6908SOL    HW121623   3.911   5.626   0.711
 6908SOL    HW221624   3.962   5.656   0.863
 6909SOL     OW21625   5.543   4.565   3.112
 6909SOL    HW121626   5.642   4.577   3.108
 6909SOL    HW221627   5.509   4.541   3.021
 6910SOL     OW21628   1.727   2.498   2.010
 6910SOL    HW121629   1.822   2.475   2.032
 6910SOL    HW221630   1.699   2.447   1.929
 6911SOL     OW21631   2.403   6.794   5.101
 6911SOL    HW121632   2.425   6.740   5.020
 6911SOL    HW221633   2.304   6.790   5.119
 6912SOL     OW21634   2.305   4.101   6.508
 6912SOL    HW121635   2.295   4.090   6.410
 6912SOL    HW221636   2.384   4.160   6.527
 6913SOL     OW21637   4.348   5.789   5.854
 6913SOL    HW121638   4.342   5.715   5.786
 6913SOL    HW221639   4.329   5.877   5.810
 6914SOL     OW21640   0.730   2.332   2.131
 6914SOL    HW121641   0.761   2.243   2.164
 6914SOL    HW221642   0.745   2.401   2.201
 6915SOL     OW21643   6.089   3.389   4.258
 6915SOL    HW121644   6.184   3.419   4.246
 6915SOL    HW221645   6.077   3.299   4.217
 6916SOL     OW21646   4.581   5.789   5.478
 6916SOL    HW121647   4.505   5.730   5.507
 6916SOL    HW221648   4.550   5.884   5.478
 6917SOL     OW21649   3.707   5.561   1.933
 6917SOL    HW121650   3.698   5.485   1.998
 6917SOL    HW221651   3.713   5.647   1.982
 6918SOL     OW21652   1.862   3.793   6.903
 6918SOL    HW121653   1.807   3.864   6.859
 6918SOL    HW221654   1.937   3.767   6.843
 6919SOL     OW21655   6.162   6.276   3.559
 6919SOL    HW121656   6.215   6.290   3.642
 6919SOL    HW221657   6.224   6.256   3.483
 6920SOL     OW21658   0.535   2.943   5.409
 6920SOL    HW121659   0.506   3.038   5.394
 6920SOL    HW221660   0.523   2.891   5.325
 6921SOL     OW21661   3.582   0.570   5.257
 6921SOL    HW121662   3.599   0.472   5.250
 6921SOL    HW221663   3.493   0.591   5.216
 6922SOL     OW21664   3.203   4.509   6.475
 6922SOL    HW121665   3.176   4.597   6.435
 6922SOL    HW221666   3.248   4.454   6.406
 6923SOL     OW21667   5.176   6.956   3.293
 6923SOL    HW121668   5.272   6.933   3.310
 6923SOL    HW221669   5.117   6.882   3.324
 6924SOL     OW21670   2.580   5.331   1.594
 6924SOL    HW121671   2.513   5.259   1.612
 6924SOL    HW221672   2.538   5.420   1.608
 6925SOL     OW21673   6.443   6.722   4.514
 6925SOL    HW121674   6.461   6.662   4.436
 6925SOL    HW221675   6.494   6.807   4.503
 6926SOL     OW21676   2.659   2.588   0.288
 6926SOL    HW121677   2.604   2.611   0.208
 6926SOL    HW221678   2.755   2.611   0.271
 6927SOL     OW21679   3.449   6.401   5.692
 6927SOL    HW121680   3.515   6.345   5.642
 6927SOL    HW221681   3.433   6.361   5.783
 6928SOL     OW21682   4.227   5.458   0.809
 6928SOL    HW121683   4.137   5.501   0.818
 6928SOL    HW221684   4.259   5.469   0.715
 6929SOL     OW21685   4.981   5.930   3.418
 6929SOL    HW121686   5.028   6.015   3.440
 6929SOL    HW221687   5.046   5.854   3.422
 6930SOL     OW21688   0.523   6.227   1.942
 6930SOL    HW121689   0.607   6.210   1.890
 6930SOL    HW221690   0.494   6.143   1.987
 6931SOL     OW21691   4.049   2.987   0.183
 6931SOL    HW121692   3.998   3.062   0.142
 6931SOL    HW221693   4.111   3.023   0.253
 6932SOL     OW21694   3.871   0.956   0.166
 6932SOL    HW121695   3.839   1.014   0.241
 6932SOL    HW221696   3.794   0.934   0.106
 6933SOL     OW21697   3.772   6.220   6.135
 6933SOL    HW121698   3.734   6.225   6.043
 6933SOL    HW221699   3.797   6.312   6.165
 6934SOL     OW21700   4.392   5.484   0.114
 6934SOL    HW121701   4.349   5.414   0.057
 6934SOL    HW221702   4.329   5.560   0.127
 6935SOL     OW21703   4.217   5.278   2.706
 6935SOL    HW121704   4.138   5.217   2.708
 6935SOL    HW221705   4.193   5.366   2.747
 6936SOL     OW21706   1.013   1.561   0.065
 6936SOL    HW121707   1.075   1.483   0.073
 6936SOL    HW221708   0.919   1.530   0.078
 6937SOL     OW21709   6.450   4.340   6.927
 6937SOL    HW121710   6.350   4.339   6.939
 6937SOL    HW221711   6.493   4.291   7.003
 6938SOL     OW21712   2.748   0.137   5.265
 6938SOL    HW121713   2.803   0.103   5.188
 6938SOL    HW221714   2.793   0.114   5.351
 6939SOL     OW21715   5.822   2.895   3.055
 6939SOL    HW121716   5.845   2.798   3.046
 6939SOL    HW221717   5.840   2.926   3.148
 6940SOL     OW21718   1.081   6.317   1.482
 6940SOL    HW121719   1.079   6.407   1.525
 6940SOL    HW221720   1.174   6.297   1.451
 6941SOL     OW21721   3.888   2.921   2.128
 6941SOL    HW121722   3.949   2.988   2.170
 6941SOL    HW221723   3.899   2.832   2.174
 6942SOL     OW21724   0.113   5.141   2.782
 6942SOL    HW121725   0.073   5.221   2.827
 6942SOL    HW221726   0.197   5.115   2.829
 6943SOL     OW21727   3.293   5.476   5.175
 6943SOL    HW121728   3.269   5.380   5.161
 6943SOL    HW221729   3.267   5.504   5.268
 6944SOL     OW21730   0.719   5.079   5.756
 6944SOL    HW121731   0.813   5.108   5.735
 6944SOL    HW221732   0.710   5.065   5.855
 6945SOL     OW21733   4.161   1.848   0.855
 6945SOL    HW121734   4.233   1.911   0.826
 6945SOL    HW221735   4.135   1.789   0.779
 6946SOL     OW21736   5.667   5.291   3.865
 6946SOL    HW121737   5.626   5.200   3.867
 6946SOL    HW221738   5.603   5.358   3.904
 6947SOL     OW21739   6.506   3.641   5.512
 6947SOL    HW121740   6.486   3.639   5.415
 6947SOL    HW221741   6.460   3.566   5.558
 6948SOL     OW21742   7.015   5.371   6.350
 6948SOL    HW121743   0.006   5.443   6.282
 6948SOL    HW221744   0.032   5.286   6.318
 6949SOL     OW21745   2.288   1.246   3.288
 6949SOL    HW121746   2.233   1.169   3.320
 6949SOL    HW221747   2.362   1.264   3.353
 6950SOL     OW21748   1.615   1.200   4.628
 6950SOL    HW121749   1.552   1.138   4.582
 6950SOL    HW221750   1.675   1.243   4.561
 6951SOL     OW21751   1.189   3.482   0.352
 6951SOL    HW121752   1.093   3.505   0.369
 6951SOL    HW221753   1.195   3.388   0.317
 6952SOL     OW21754   4.071   4.861   3.345
 6952SOL    HW121755   3.987   4.879   3.293
 6952SOL    HW221756   4.049   4.804   3.424
 6953SOL     OW21757   0.817   0.876   1.913
 6953SOL    HW121758   0.838   0.826   1.997
 6953SOL    HW221759   0.723   0.858   1.886
 6954SOL     OW21760   6.369   5.263   5.990
 6954SOL    HW121761   6.339   5.168   6.002
 6954SOL    HW221762   6.290   5.324   5.997
 6955SOL     OW21763   3.900   5.396   2.750
 6955SOL    HW121764   3.888   5.314   2.805
 6955SOL    HW221765   3.813   5.421   2.707
 6956SOL     OW21766   6.054   4.738   2.574
 6956SOL    HW121767   6.088   4.727   2.481
 6956SOL    HW221768   6.094   4.819   2.615
 6957SOL     OW21769   5.652   3.997   5.349
 6957SOL    HW121770   5.744   4.036   5.352
 6957SOL    HW221771   5.639   3.949   5.262
 6958SOL     OW21772   3.515   3.846   1.548
 6958SOL    HW121773   3.481   3.760   1.510
 6958SOL    HW221774   3.443   3.890   1.600
 6959SOL     OW21775   0.430   3.093   3.119
 6959SOL    HW121776   0.368   3.028   3.076
 6959SOL    HW221777   0.519   3.089   3.073
 6960SOL     OW21778   5.183   4.573   1.264
 6960SOL    HW121779   5.221   4.639   1.329
 6960SOL    HW221780   5.226   4.484   1.278
 6961SOL     OW21781   4.833   2.672   4.322
 6961SOL    HW121782   4.902   2.671   4.250
 6961SOL    HW221783   4.867   2.727   4.399
 6962SOL     OW21784   2.628   6.815   0.755
 6962SOL    HW121785   2.609   6.738   0.694
 6962SOL    HW221786   2.576   6.804   0.840
 6963SOL     OW21787   1.149   6.765   6.763
 6963SOL    HW121788   1.051   6.771   6.785
 6963SOL    HW221789   1.162   6.777   6.665
 6964SOL     OW21790   2.021   1.124   5.795
 6964SOL    HW121791   2.095   1.175   5.751
 6964SOL    HW221792   2.051   1.092   5.885
 6965SOL     OW21793   1.590   1.204   0.100
 6965SOL    HW121794   1.520   1.269   0.130
 6965SOL    HW221795   1.658   1.252   0.044
 6966SOL     OW21796   1.381   6.357   0.934
 6966SOL    HW121797   1.361   6.452   0.957
 6966SOL    HW221798   1.401   6.350   0.836
 6967SOL     OW21799   3.663   6.991   6.544
 6967SOL    HW121800   3.763   6.992   6.545
 6967SOL    HW221801   3.629   0.051   6.588
 6968SOL     OW21802   4.223   0.627   2.517
 6968SOL    HW121803   4.311   0.658   2.552
 6968SOL    HW221804   4.204   0.671   2.429
 6969SOL     OW21805   1.374   3.046   2.675
 6969SOL    HW121806   1.372   2.946   2.665
 6969SOL    HW221807   1.295   3.076   2.727
 6970SOL     OW21808   3.568   5.955   6.092
 6970SOL    HW121809   3.565   6.041   6.042
 6970SOL    HW221810   3.654   5.907   6.072
 6971SOL     OW21811   0.055   4.128   0.181
 6971SOL    HW121812   6.985   4.145   0.154
 6971SOL    HW221813   0.070   4.029   0.191
 6972SOL     OW21814   5.881   3.831   1.147
 6972SOL    HW121815   5.946   3.814   1.073
 6972SOL    HW221816   5.929   3.877   1.223
 6973SOL     OW21817   0.878   1.079   3.168
 6973SOL    HW121818   0.942   1.033   3.107
 6973SOL    HW221819   0.889   1.178   3.160
 6974SOL     OW21820   4.048   3.695   3.078
 6974SOL    HW121821   4.054   3.596   3.063
 6974SOL    HW221822   4.035   3.713   3.175
 6975SOL     OW21823   3.198   5.198   5.191
 6975SOL    HW121824   3.297   5.187   5.196
 6975SOL    HW221825   3.153   5.125   5.243
 6976SOL     OW21826   4.998   4.794   5.990
 6976SOL    HW121827   5.071   4.737   6.028
 6976SOL    HW221828   4.915   4.739   5.981
 6977SOL     OW21829   4.077   4.798   2.402
 6977SOL    HW121830   4.106   4.893   2.403
 6977SOL    HW221831   4.147   4.742   2.357
 6978SOL     OW21832   0.681   3.209   1.435
 6978SOL    HW121833   0.619   3.238   1.362
 6978SOL    HW221834   0.767   3.260   1.428
 6979SOL     OW21835   0.478   3.834   2.715
 6979SOL    HW121836   0.446   3.812   2.623
 6979SOL    HW221837   0.565   3.789   2.733
 6980SOL     OW21838   2.612   4.666   3.266
 6980SOL    HW121839   2.633   4.600   3.193
 6980SOL    HW221840   2.583   4.752   3.224
 6981SOL     OW21841   4.023   2.974   6.796
 6981SOL    HW121842   4.074   3.014   6.872
 6981SOL    HW221843   3.998   3.046   6.731
 6982SOL     OW21844   6.824   6.291   1.786
 6982SOL    HW121845   6.728   6.272   1.765
 6982SOL    HW221846   6.831   6.325   1.880
 6983SOL     OW21847   6.884   0.754   3.984
 6983SOL    HW121848   6.952   0.827   3.991
 6983SOL    HW221849   6.906   0.682   4.049
 6984SOL     OW21850   1.471   4.366   3.569
 6984SOL    HW121851   1.558   4.369   3.520
 6984SOL    HW221852   1.422   4.282   3.546
 6985SOL     OW21853   5.282   3.496   1.184
 6985SOL    HW121854   5.185   3.489   1.159
 6985SOL    HW221855   5.327   3.408   1.170
 6986SOL     OW21856   4.252   5.821   5.116
 6986SOL    HW121857   4.245   5.828   5.017
 6986SOL    HW221858   4.227   5.729   5.146
 6987SOL     OW21859   0.104   1.356   6.996
 6987SOL    HW121860   0.087   1.399   0.061
 6987SOL    HW221861   0.199   1.373   6.969
 6988SOL     OW21862   1.534   0.519   6.070
 6988SOL    HW121863   1.473   0.597   6.054
 6988SOL    HW221864   1.624   0.538   6.031
 6989SOL     OW21865   0.511   3.323   2.343
 6989SOL    HW121866   0.485   3.354   2.435
 6989SOL    HW221867   0.518   3.224   2.342
 6990SOL     OW21868   3.586   5.224   6.934
 6990SOL    HW121869   3.594   5.167   7.016
 6990SOL    HW221870   3.501   5.201   6.886
 6991SOL     OW21871   5.242   4.080   3.623
 6991SOL    HW121872   5.271   4.115   3.534
 6991SOL    HW221873   5.163   4.019   3.610
 6992SOL     OW21874   1.786   5.372   6.063
 6992SOL    HW121875   1.804   5.364   5.965
 6992SOL    HW221876   1.872   5.374   6.113
 6993SOL     OW21877   4.111   2.305   1.683
 6993SOL    HW121878   4.131   2.208   1.689
 6993SOL    HW221879   4.175   2.356   1.740
 6994SOL     OW21880   2.602   0.821   3.161
 6994SOL    HW121881   2.698   0.830   3.134
 6994SOL    HW221882   2.596   0.772   3.248
 6995SOL     OW21883   7.015   5.267   0.706
 6995SOL    HW121884   0.040   5.183   0.731
 6995SOL    HW221885   6.927   5.243   0.665
 6996SOL     OW21886   1.313   1.564   6.457
 6996SOL    HW121887   1.344   1.549   6.363
 6996SOL    HW221888   1.345   1.489   6.515
 6997SOL     OW21889   6.084   6.019   6.083
 6997SOL    HW121890   6.184   6.020   6.078
 6997SOL    HW221891   6.055   5.961   6.159
 6998SOL     OW21892   0.336   1.088   6.735
 6998SOL    HW121893   0.281   1.098   6.652
 6998SOL    HW221894   0.345   0.992   6.758
 6999SOL     OW21895   0.398   2.873   0.074
 6999SOL    HW121896   0.452   2.906   7.022
 6999SOL    HW221897   0.426   2.920   0.158
 7000SOL     OW21898   0.987   5.162   3.090
 7000SOL    HW121899   0.947   5.078   3.127
 7000SOL    HW221900   1.085   5.148   3.073
 7001SOL     OW21901   1.102   1.005   4.218
 7001SOL    HW121902   1.046   0.930   4.254
 7001SOL    HW221903   1.127   0.985   4.123
 7002SOL     OW21904   1.482   4.608   3.233
 7002SOL    HW121905   1.495   4.678   3.163
 7002SOL    HW221906   1.564   4.601   3.289
 7003SOL     OW21907   0.230   5.199   6.315
 7003SOL    HW121908   0.199   5.185   6.221
 7003SOL    HW221909   0.297   5.273   6.318
 7004SOL     OW21910   1.241   0.882   6.784
 7004SOL    HW121911   1.179   0.941   6.836
 7004SOL    HW221912   1.193   0.844   6.705
 7005SOL     OW21913   1.352   5.228   0.268
 7005SOL    HW121914   1.372   5.230   0.170
 7005SOL    HW221915   1.266   5.179   0.283
 7006SOL     OW21916   0.892   0.186   3.996
 7006SOL    HW121917   0.935   0.210   4.083
 7006SOL    HW221918   0.880   0.268   3.940
 7007SOL     OW21919   2.086   6.541   6.284
 7007SOL    HW121920   1.997   6.577   6.314
 7007SOL    HW221921   2.155   6.561   6.354
 7008SOL     OW21922   5.875   2.987   2.397
 7008SOL    HW121923   5.874   2.988   2.497
 7008SOL    HW221924   5.814   3.058   2.362
 7009SOL     OW21925   5.515   5.355   2.249
 7009SOL    HW121926   5.523   5.354   2.150
 7009SOL    HW221927   5.581   5.291   2.289
 7010SOL     OW21928   5.258   2.332   3.056
 7010SOL    HW121929   5.251   2.245   3.008
 7010SOL    HW221930   5.166   2.363   3.082
 7011SOL     OW21931   2.254   5.663   6.720
 7011SOL    HW121932   2.237   5.611   6.637
 7011SOL    HW221933   2.280   5.756   6.696
 7012SOL     OW21934   0.438   3.875   0.227
 7012SOL    HW121935   0.386   3.838   0.304
 7012SOL    HW221936   0.423   3.973   0.220
 7013SOL     OW21937   2.551   2.787   7.005
 7013SOL    HW121938   2.517   2.879   6.985
 7013SOL    HW221939   2.496   2.747   0.054
 7014SOL     OW21940   6.656   3.592   0.851
 7014SOL    HW121941   6.684   3.506   0.808
 7014SOL    HW221942   6.574   3.627   0.806
 7015SOL     OW21943   6.024   6.305   1.685
 7015SOL    HW121944   6.073   6.246   1.621
 7015SOL    HW221945   6.001   6.391   1.639
 7016SOL     OW21946   2.990   5.385   1.090
 7016SOL    HW121947   2.946   5.308   1.136
 7016SOL    HW221948   3.086   5.363   1.073
 7017SOL     OW21949   5.933   4.033   6.878
 7017SOL    HW121950   6.021   4.000   6.913
 7017SOL    HW221951   5.919   4.128   6.907
 7018SOL     OW21952   6.218   3.054   4.406
 7018SOL    HW121953   6.159   3.103   4.471
 7018SOL    HW221954   6.197   2.956   4.410
 7019SOL     OW21955   3.296   6.352   2.847
 7019SOL    HW121956   3.302   6.282   2.776
 7019SOL    HW221957   3.241   6.317   2.923
 7020SOL     OW21958   6.637   1.716   0.907
 7020SOL    HW121959   6.583   1.786   0.953
 7020SOL    HW221960   6.734   1.739   0.912
 7021SOL     OW21961   0.481   2.094   4.478
 7021SOL    HW121962   0.389   2.091   4.517
 7021SOL    HW221963   0.485   2.165   4.408
 7022SOL     OW21964   1.817   3.841   1.216
 7022SOL    HW121965   1.862   3.754   1.196
 7022SOL    HW221966   1.886   3.910   1.239
 7023SOL     OW21967   6.877   2.057   0.995
 7023SOL    HW121968   6.790   2.070   1.043
 7023SOL    HW221969   6.869   2.091   0.902
 7024SOL     OW21970   3.430   4.377   5.341
 7024SOL    HW121971   3.369   4.336   5.409
 7024SOL    HW221972   3.524   4.346   5.357
 7025SOL     OW21973   3.547   0.759   0.830
 7025SOL    HW121974   3.510   0.688   0.890
 7025SOL    HW221975   3.593   0.828   0.885
 7026SOL     OW21976   2.784   2.598   1.325
 7026SOL    HW121977   2.821   2.506   1.316
 7026SOL    HW221978   2.854   2.665   1.297
 7027SOL     OW21979   2.624   4.309   0.457
 7027SOL    HW121980   2.702   4.370   0.476
 7027SOL    HW221981   2.558   4.315   0.532
 7028SOL     OW21982   2.825   0.718   2.362
 7028SOL    HW121983   2.732   0.723   2.399
 7028SOL    HW221984   2.877   0.799   2.392
 7029SOL     OW21985   3.222   3.991   3.293
 7029SOL    HW121986   3.155   3.934   3.340
 7029SOL    HW221987   3.305   3.937   3.276
 7030SOL     OW21988   5.376   0.099   4.802
 7030SOL    HW121989   5.284   0.133   4.782
 7030SOL    HW221990   5.407   0.041   4.727
 7031SOL     OW21991   5.812   4.925   0.318
 7031SOL    HW121992   5.899   4.972   0.307
 7031SOL    HW221993   5.829   4.826   0.326
 7032SOL     OW21994   3.611   4.866   3.997
 7032SOL    HW121995   3.633   4.891   4.091
 7032SOL    HW221996   3.522   4.905   3.972
 7033SOL     OW21997   2.307   1.687   5.316
 7033SOL    HW121998   2.381   1.750   5.340
 7033SOL    HW221999   2.235   1.692   5.385
 7034SOL     OW22000   6.185   2.495   2.390
 7034SOL    HW122001   6.121   2.471   2.316
 7034SOL    HW222002   6.232   2.412   2.421
 7035SOL     OW22003   3.955   2.507   1.105
 7035SOL    HW122004   4.005   2.456   1.035
 7035SOL    HW222005   3.923   2.593   1.067
 7036SOL     OW22006   6.904   1.709   1.877
 7036SOL    HW122007   6.967   1.785   1.857
 7036SOL    HW222008   6.951   1.641   1.932
 7037SOL     OW22009   0.604   1.397   5.707
 7037SOL    HW122010   0.528   1.455   5.733
 7037SOL    HW222011   0.580   1.301   5.724
 7038SOL     OW22012   0.897   4.048   0.505
 7038SOL    HW122013   0.925   4.122   0.567
 7038SOL    HW222014   0.883   4.086   0.413
 7039SOL     OW22015   6.803   0.278   1.942
 7039SOL    HW122016   6.815   0.365   1.990
 7039SOL    HW222017   6.877   0.216   1.966
 7040SOL     OW22018   4.885   3.247   4.817
 7040SOL    HW122019   4.804   3.196   4.786
 7040SOL    HW222020   4.967   3.207   4.776
 7041SOL     OW22021   1.051   6.985   2.701
 7041SOL    HW122022   1.069   6.886   2.703
 7041SOL    HW222023   1.137   0.011   2.708
 7042SOL     OW22024   5.012   5.317   5.106
 7042SOL    HW122025   4.975   5.391   5.163
 7042SOL    HW222026   5.084   5.269   5.157
 7043SOL     OW22027   2.149   6.028   0.604
 7043SOL    HW122028   2.244   6.030   0.575
 7043SOL    HW222029   2.099   5.961   0.550
 7044SOL     OW22030   4.589   6.491   5.278
 7044SOL    HW122031   4.530   6.445   5.211
 7044SOL    HW222032   4.569   6.589   5.279
 7045SOL     OW22033   5.491   0.218   1.353
 7045SOL    HW122034   5.588   0.212   1.379
 7045SOL    HW222035   5.451   0.300   1.391
 7046SOL     OW22036   2.801   1.157   2.503
 7046SOL    HW122037   2.899   1.165   2.524
 7046SOL    HW222038   2.756   1.245   2.519
 7047SOL     OW22039   1.420   6.952   0.791
 7047SOL    HW122040   1.469   6.931   0.876
 7047SOL    HW222041   1.322   6.954   0.808
 7048SOL     OW22042   0.477   5.572   4.556
 7048SOL    HW122043   0.498   5.529   4.644
 7048SOL    HW222044   0.558   5.566   4.496
 7049SOL     OW22045   2.551   1.256   5.017
 7049SOL    HW122046   2.456   1.277   4.992
 7049SOL    HW222047   2.589   1.332   5.069
 7050SOL     OW22048   4.047   4.609   0.397
 7050SOL    HW122049   4.077   4.670   0.323
 7050SOL    HW222050   4.002   4.528   0.358
 7051SOL     OW22051   2.053   1.026   2.008
 7051SOL    HW122052   2.104   1.113   2.010
 7051SOL    HW222053   2.117   0.950   1.999
 7052SOL     OW22054   5.149   2.047   2.618
 7052SOL    HW122055   5.237   2.088   2.642
 7052SOL    HW222056   5.158   1.999   2.531
 7053SOL     OW22057   0.527   4.264   3.542
 7053SOL    HW122058   0.469   4.339   3.509
 7053SOL    HW222059   0.470   4.183   3.560
 7054SOL     OW22060   5.767   6.724   0.974
 7054SOL    HW122061   5.774   6.624   0.979
 7054SOL    HW222062   5.696   6.756   1.037
 7055SOL     OW22063   2.036   0.383   6.848
 7055SOL    HW122064   2.126   0.351   6.877
 7055SOL    HW222065   2.043   0.427   6.758
 7056SOL     OW22066   0.325   5.284   1.264
 7056SOL    HW122067   0.325   5.374   1.307
 7056SOL    HW222068   0.296   5.293   1.168
 7057SOL     OW22069   3.046   5.223   4.937
 7057SOL    HW122070   2.973   5.284   4.968
 7057SOL    HW222071   3.108   5.204   5.014
 7058SOL     OW22072   5.793   2.810   5.813
 7058SOL    HW122073   5.861   2.855   5.755
 7058SOL    HW222074   5.760   2.728   5.766
 7059SOL     OW22075   1.457   0.898   4.866
 7059SOL    HW122076   1.448   0.995   4.844
 7059SOL    HW222077   1.398   0.844   4.806
 7060SOL     OW22078   2.616   2.301   1.180
 7060SOL    HW122079   2.708   2.334   1.161
 7060SOL    HW222080   2.615   2.201   1.178
 7061SOL     OW22081   1.616   0.104   1.062
 7061SOL    HW122082   1.687   0.120   0.994
 7061SOL    HW222083   1.562   0.187   1.074
 7062SOL     OW22084   3.621   1.026   5.365
 7062SOL    HW122085   3.642   1.122   5.383
 7062SOL    HW222086   3.704   0.977   5.338
 7063SOL     OW22087   0.069   1.338   1.448
 7063SOL    HW122088   0.034   1.426   1.417
 7063SOL    HW222089   0.156   1.319   1.403
 7064SOL     OW22090   2.672   1.687   5.443
 7064SOL    HW122091   2.641   1.592   5.444
 7064SOL    HW222092   2.597   1.747   5.474
 7065SOL     OW22093   3.158   0.258   3.499
 7065SOL    HW122094   3.242   0.203   3.504
 7065SOL    HW222095   3.097   0.233   3.574
 7066SOL     OW22096   3.947   0.845   1.498
 7066SOL    HW122097   3.847   0.845   1.496
 7066SOL    HW222098   3.980   0.935   1.530
 7067SOL     OW22099   2.667   4.539   6.137
 7067SOL    HW122100   2.731   4.525   6.061
 7067SOL    HW222101   2.610   4.457   6.147
 7068SOL     OW22102   4.465   4.750   2.421
 7068SOL    HW122103   4.515   4.667   2.445
 7068SOL    HW222104   4.524   4.830   2.430
 7069SOL     OW22105   3.449   1.376   5.365
 7069SOL    HW122106   3.508   1.456   5.375
 7069SOL    HW222107   3.471   1.329   5.279
 7070SOL     OW22108   0.278   1.553   5.139
 7070SOL    HW122109   0.226   1.504   5.069
 7070SOL    HW222110   0.329   1.488   5.195
 7071SOL     OW22111   4.656   5.713   6.949
 7071SOL    HW122112   4.607   5.627   6.933
 7071SOL    HW222113   4.646   5.773   6.870
 7072SOL     OW22114   1.215   3.811   5.753
 7072SOL    HW122115   1.267   3.793   5.836
 7072SOL    HW222116   1.243   3.899   5.715
 7073SOL     OW22117   4.099   1.226   4.040
 7073SOL    HW122118   4.112   1.127   4.033
 7073SOL    HW222119   4.117   1.256   4.133
 7074SOL     OW22120   5.760   3.105   1.735
 7074SOL    HW122121   5.689   3.036   1.719
 7074SOL    HW222122   5.828   3.069   1.798
 7075SOL     OW22123   1.748   5.078   2.330
 7075SOL    HW122124   1.814   5.004   2.338
 7075SOL    HW222125   1.655   5.039   2.325
 7076SOL     OW22126   5.930   2.685   0.418
 7076SOL    HW122127   5.858   2.618   0.398
 7076SOL    HW222128   6.017   2.638   0.432
 7077SOL     OW22129   3.249   5.740   2.259
 7077SOL    HW122130   3.175   5.726   2.325
 7077SOL    HW222131   3.219   5.709   2.168
 7078SOL     OW22132   0.003   1.975   0.009
 7078SOL    HW122133   7.000   1.891   6.986
 7078SOL    HW222134   0.058   2.031   6.971
 7079SOL     OW22135   3.211   5.531   5.428
 7079SOL    HW122136   3.144   5.605   5.439
 7079SOL    HW222137   3.255   5.512   5.516
 7080SOL     OW22138   3.875   2.093   6.533
 7080SOL    HW122139   3.826   2.139   6.459
 7080SOL    HW222140   3.874   2.150   6.615
 7081SOL     OW22141   3.161   6.505   6.707
 7081SOL    HW122142   3.063   6.490   6.690
 7081SOL    HW222143   3.211   6.500   6.620
 7082SOL     OW22144   1.609   4.796   2.128
 7082SOL    HW122145   1.580   4.835   2.215
 7082SOL    HW222146   1.664   4.863   2.078
 7083SOL     OW22147   5.789   2.655   2.711
 7083SOL    HW122148   5.724   2.591   2.671
 7083SOL    HW222149   5.754   2.748   2.703
 7084SOL     OW22150   1.052   5.256   6.949
 7084SOL    HW122151   1.082   5.199   0.001
 7084SOL    HW222152   1.108   5.237   6.869
 7085SOL     OW22153   0.065   3.349   2.308
 7085SOL    HW122154   7.022   3.423   2.310
 7085SOL    HW222155   0.018   3.262   2.302
 7086SOL     OW22156   4.280   1.150   3.564
 7086SOL    HW122157   4.208   1.128   3.498
 7086SOL    HW222158   4.313   1.243   3.547
 7087SOL     OW22159   6.261   2.991   3.934
 7087SOL    HW122160   6.298   2.929   4.004
 7087SOL    HW222161   6.275   2.951   3.844
 7088SOL     OW22162   6.178   1.910   5.330
 7088SOL    HW122163   6.118   1.898   5.409
 7088SOL    HW222164   6.265   1.951   5.361
 7089SOL     OW22165   3.544   6.460   1.948
 7089SOL    HW122166   3.484   6.462   1.868
 7089SOL    HW222167   3.597   6.375   1.948
 7090SOL     OW22168   5.636   3.445   1.597
 7090SOL    HW122169   5.572   3.522   1.591
 7090SOL    HW222170   5.728   3.480   1.617
 7091SOL     OW22171   5.663   0.525   6.573
 7091SOL    HW122172   5.631   0.601   6.516
 7091SOL    HW222173   5.614   0.442   6.546
 7092SOL     OW22174   3.928   0.015   6.532
 7092SOL    HW122175   3.968   6.971   6.594
 7092SOL    HW222176   3.959   0.106   6.558
 7093SOL     OW22177   4.162   3.171   6.954
 7093SOL    HW122178   4.077   3.179   7.006
 7093SOL    HW222179   4.181   3.258   6.908
 7094SOL     OW22180   4.328   1.036   5.060
 7094SOL    HW122181   4.404   0.982   5.026
 7094SOL    HW222182   4.283   1.083   4.984
 7095SOL     OW22183   2.345   4.838   3.722
 7095SOL    HW122184   2.267   4.805   3.776
 7095SOL    HW222185   2.377   4.764   3.662
 7096SOL     OW22186   0.100   5.549   7.011
 7096SOL    HW122187   0.187   5.532   0.033
 7096SOL    HW222188   0.025   5.514   0.044
 7097SOL     OW22189   4.764   2.087   3.059
 7097SOL    HW122190   4.737   2.016   3.125
 7097SOL    HW222191   4.686   2.109   3.000
 7098SOL     OW22192   1.018   1.022   2.164
 7098SOL    HW122193   1.115   1.014   2.144
 7098SOL    HW222194   1.002   1.103   2.220
 7099SOL     OW22195   2.855   1.428   4.803
 7099SOL    HW122196   2.893   1.423   4.711
 7099SOL    HW222197   2.884   1.513   4.847
 7100SOL     OW22198   0.447   4.476   1.647
 7100SOL    HW122199   0.506   4.556   1.642
 7100SOL    HW222200   0.503   4.393   1.646
 7101SOL     OW22201   2.979   6.204   4.472
 7101SOL    HW122202   3.019   6.199   4.564
 7101SOL    HW222203   3.012   6.285   4.425
 7102SOL     OW22204   5.114   1.941   2.297
 7102SOL    HW122205   5.167   1.876   2.243
 7102SOL    HW222206   5.044   1.892   2.350
 7103SOL     OW22207   6.612   3.540   4.885
 7103SOL    HW122208   6.566   3.620   4.924
 7103SOL    HW222209   6.693   3.519   4.939
 7104SOL     OW22210   4.479   2.416   4.172
 7104SOL    HW122211   4.526   2.328   4.172
 7104SOL    HW222212   4.382   2.402   4.151
 7105SOL     OW22213   3.370   3.743   1.908
 7105SOL    HW122214   3.294   3.678   1.912
 7105SOL    HW222215   3.374   3.793   1.995
 7106SOL     OW22216   2.217   2.058   2.866
 7106SOL    HW122217   2.178   2.080   2.955
 7106SOL    HW222218   2.235   2.142   2.815
 7107SOL     OW22219   3.760   0.360   0.937
 7107SOL    HW122220   3.837   0.368   0.874
 7107SOL    HW222221   3.771   0.278   0.993
 7108SOL     OW22222   2.924   6.905   1.680
 7108SOL    HW122223   2.855   6.909   1.753
 7108SOL    HW222224   2.929   6.812   1.644
 7109SOL     OW22225   2.317   5.172   6.063
 7109SOL    HW122226   2.373   5.189   5.982
 7109SOL    HW222227   2.349   5.089   6.109
 7110SOL     OW22228   2.820   5.533   5.805
 7110SOL    HW122229   2.736   5.493   5.842
 7110SOL    HW222230   2.824   5.516   5.706
 7111SOL     OW22231   6.278   1.945   4.179
 7111SOL    HW122232   6.309   2.003   4.255
 7111SOL    HW222233   6.342   1.952   4.103
 7112SOL     OW22234   6.673   4.992   4.679
 7112SOL    HW122235   6.746   4.927   4.655
 7112SOL    HW222236   6.714   5.076   4.714
 7113SOL     OW22237   2.957   6.972   5.168
 7113SOL    HW122238   3.008   0.022   5.124
 7113SOL    HW222239   2.958   6.891   5.108
 7114SOL     OW22240   6.341   4.236   0.546
 7114SOL    HW122241   6.401   4.315   0.556
 7114SOL    HW222242   6.291   4.220   0.631
 7115SOL     OW22243   5.092   2.830   6.251
 7115SOL    HW122244   5.034   2.875   6.184
 7115SOL    HW222245   5.045   2.750   6.288
 7116SOL     OW22246   6.295   5.158   4.364
 7116SOL    HW122247   6.287   5.221   4.286
 7116SOL    HW222248   6.253   5.071   4.341
 7117SOL     OW22249   3.173   0.752   2.756
 7117SOL    HW122250   3.184   0.821   2.684
 7117SOL    HW222251   3.091   0.697   2.736
 7118SOL     OW22252   5.065   4.322   5.684
 7118SOL    HW122253   5.149   4.280   5.650
 7118SOL    HW222254   5.071   4.334   5.783
 7119SOL     OW22255   2.401   6.449   4.259
 7119SOL    HW122256   2.420   6.487   4.168
 7119SOL    HW222257   2.337   6.373   4.250
 7120SOL     OW22258   4.413   2.029   2.196
 7120SOL    HW122259   4.447   2.107   2.144
 7120SOL    HW222260   4.335   2.056   2.251
 7121SOL     OW22261   1.762   6.220   2.166
 7121SOL    HW122262   1.689   6.152   2.173
 7121SOL    HW222263   1.754   6.285   2.241
 7122SOL     OW22264   2.747   2.344   6.725
 7122SOL    HW122265   2.733   2.392   6.638
 7122SOL    HW222266   2.726   2.406   6.801
 7123SOL     OW22267   5.233   3.805   6.819
 7123SOL    HW122268   5.144   3.759   6.819
 7123SOL    HW222269   5.251   3.843   6.909
 7124SOL     OW22270   2.978   2.811   6.278
 7124SOL    HW122271   2.964   2.739   6.211
 7124SOL    HW222272   2.993   2.898   6.231
 7125SOL     OW22273   0.884   5.858   1.428
 7125SOL    HW122274   0.900   5.914   1.346
 7125SOL    HW222275   0.792   5.874   1.461
 7126SOL     OW22276   3.765   5.049   0.792
 7126SOL    HW122277   3.844   5.076   0.737
 7126SOL    HW222278   3.796   5.014   0.880
 7127SOL     OW22279   2.349   0.049   4.962
 7127SOL    HW122280   2.423   0.007   5.014
 7127SOL    HW222281   2.377   0.140   4.931
 7128SOL     OW22282   4.330   3.638   0.362
 7128SOL    HW122283   4.421   3.601   0.344
 7128SOL    HW222284   4.280   3.648   0.275
 7129SOL     OW22285   6.827   1.561   0.593
 7129SOL    HW122286   6.786   1.490   0.535
 7129SOL    HW222287   6.890   1.616   0.538
 7130SOL     OW22288   3.483   6.830   3.558
 7130SOL    HW122289   3.579   6.830   3.528
 7130SOL    HW222290   3.452   6.736   3.571
 7131SOL     OW22291   2.159   1.630   2.929
 7131SOL    HW122292   2.256   1.643   2.950
 7131SOL    HW222293   2.126   1.546   2.972
 7132SOL     OW22294   4.951   5.036   2.426
 7132SOL    HW122295   5.031   4.994   2.384
 7132SOL    HW222296   4.937   4.999   2.517
 7133SOL     OW22297   3.308   6.140   2.162
 7133SOL    HW122298   3.315   6.240   2.166
 7133SOL    HW222299   3.390   6.099   2.202
 7134SOL     OW22300   5.847   5.030   6.723
 7134SOL    HW122301   5.889   4.977   6.797
 7134SOL    HW222302   5.823   5.121   6.756
 7135SOL     OW22303   2.328   5.474   0.684
 7135SOL    HW122304   2.350   5.558   0.733
 7135SOL    HW222305   2.393   5.403   0.709
 7136SOL     OW22306   1.360   2.743   2.655
 7136SOL    HW122307   1.313   2.786   2.578
 7136SOL    HW222308   1.438   2.691   2.622
 7137SOL     OW22309   1.508   6.927   1.871
 7137SOL    HW122310   1.466   6.910   1.960
 7137SOL    HW222311   1.594   6.876   1.865
 7138SOL     OW22312   6.589   4.123   0.729
 7138SOL    HW122313   6.608   4.187   0.655
 7138SOL    HW222314   6.502   4.076   0.712
 7139SOL     OW22315   5.760   5.431   0.726
 7139SOL    HW122316   5.706   5.487   0.789
 7139SOL    HW222317   5.703   5.356   0.691
 7140SOL     OW22318   6.808   4.171   0.507
 7140SOL    HW122319   6.793   4.238   0.580
 7140SOL    HW222320   6.776   4.209   0.421
 7141SOL     OW22321   2.295   2.343   0.290
 7141SOL    HW122322   2.359   2.373   0.361
 7141SOL    HW222323   2.263   2.422   0.238
 7142SOL     OW22324   3.898   6.833   5.855
 7142SOL    HW122325   3.921   6.930   5.847
 7142SOL    HW222326   3.932   6.783   5.775
 7143SOL     OW22327   2.920   3.339   5.688
 7143SOL    HW122328   2.966   3.273   5.748
 7143SOL    HW222329   2.870   3.406   5.742
 7144SOL     OW22330   6.236   1.803   6.376
 7144SOL    HW122331   6.243   1.712   6.419
 7144SOL    HW222332   6.140   1.825   6.360
 7145SOL     OW22333   0.286   3.169   0.398
 7145SOL    HW122334   0.264   3.247   0.340
 7145SOL    HW222335   0.255   3.085   0.354
 7146SOL     OW22336   6.816   1.171   4.387
 7146SOL    HW122337   6.752   1.186   4.463
 7146SOL    HW222338   6.818   1.073   4.365
 7147SOL     OW22339   6.676   0.412   0.281
 7147SOL    HW122340   6.630   0.425   0.194
 7147SOL    HW222341   6.676   0.499   0.332
 7148SOL     OW22342   5.730   6.404   0.804
 7148SOL    HW122343   5.792   6.327   0.785
 7148SOL    HW222344   5.716   6.412   0.902
 7149SOL     OW22345   6.651   3.561   6.818
 7149SOL    HW122346   6.661   3.629   6.891
 7149SOL    HW222347   6.650   3.469   6.858
 7150SOL     OW22348   2.387   2.204   7.009
 7150SOL    HW122349   2.373   2.167   6.917
 7150SOL    HW222350   2.311   2.178   0.044
 7151SOL     OW22351   5.743   2.693   0.058
 7151SOL    HW122352   5.725   2.621   7.015
 7151SOL    HW222353   5.738   2.654   0.150
 7152SOL     OW22354   5.777   0.947   4.667
 7152SOL    HW122355   5.869   0.961   4.630
 7152SOL    HW222356   5.730   1.035   4.676
 7153SOL     OW22357   5.373   5.644   0.314
 7153SOL    HW122358   5.410   5.557   0.347
 7153SOL    HW222359   5.277   5.633   0.290
 7154SOL     OW22360   5.143   6.996   2.252
 7154SOL    HW122361   5.131   6.901   2.280
 7154SOL    HW222362   5.157   0.028   2.334
 7155SOL     OW22363   1.574   6.920   1.260
 7155SOL    HW122364   1.657   6.879   1.297
 7155SOL    HW222365   1.596   6.968   1.175
 7156SOL     OW22366   6.533   2.873   5.476
 7156SOL    HW122367   6.534   2.866   5.376
 7156SOL    HW222368   6.627   2.877   5.510
 7157SOL     OW22369   0.026   3.822   5.832
 7157SOL    HW122370   0.024   3.754   5.759
 7157SOL    HW222371   0.113   3.815   5.881
 7158SOL     OW22372   5.048   6.699   3.830
 7158SOL    HW122373   5.139   6.660   3.819
 7158SOL    HW222374   5.030   6.717   3.927
 7159SOL     OW22375   1.012   7.019   3.337
 7159SOL    HW122376   1.050   0.052   3.266
 7159SOL    HW222377   1.036   0.032   3.427
 7160SOL     OW22378   6.169   6.199   2.107
 7160SOL    HW122379   6.265   6.220   2.088
 7160SOL    HW222380   6.151   6.212   2.205
 7161SOL     OW22381   3.771   2.890   1.738
 7161SOL    HW122382   3.860   2.934   1.746
 7161SOL    HW222383   3.783   2.792   1.724
 7162SOL     OW22384   0.875   6.278   0.302
 7162SOL    HW122385   0.857   6.179   0.300
 7162SOL    HW222386   0.922   6.305   0.218
 7163SOL     OW22387   6.815   6.273   6.831
 7163SOL    HW122388   6.872   6.273   6.748
 7163SOL    HW222389   6.757   6.192   6.831
 7164SOL     OW22390   0.559   6.139   6.773
 7164SOL    HW122391   0.619   6.088   6.711
 7164SOL    HW222392   0.614   6.197   6.833
 7165SOL     OW22393   4.286   2.549   5.984
 7165SOL    HW122394   4.308   2.595   5.898
 7165SOL    HW222395   4.342   2.467   5.993
 7166SOL     OW22396   0.007   6.375   5.415
 7166SOL    HW122397   0.003   6.279   5.442
 7166SOL    HW222398   6.975   6.430   5.477
 7167SOL     OW22399   0.397   3.764   5.807
 7167SOL    HW122400   0.378   3.781   5.710
 7167SOL    HW222401   0.493   3.740   5.818
 7168SOL     OW22402   0.315   6.598   2.159
 7168SOL    HW122403   0.349   6.689   2.182
 7168SOL    HW222404   0.369   6.560   2.084
 7169SOL     OW22405   1.722   4.744   5.295
 7169SOL    HW122406   1.724   4.812   5.222
 7169SOL    HW222407   1.704   4.654   5.256
 7170SOL     OW22408   4.227   2.284   2.059
 7170SOL    HW122409   4.225   2.372   2.013
 7170SOL    HW222410   4.147   2.230   2.033
 7171SOL     OW22411   0.261   5.588   1.974
 7171SOL    HW122412   0.299   5.496   1.982
 7171SOL    HW222413   0.332   5.655   1.995
 7172SOL     OW22414   1.505   2.997   3.660
 7172SOL    HW122415   1.563   2.997   3.742
 7172SOL    HW222416   1.498   2.904   3.625
 7173SOL     OW22417   3.580   5.118   4.492
 7173SOL    HW122418   3.644   5.186   4.529
 7173SOL    HW222419   3.552   5.056   4.565
 7174SOL     OW22420   6.720   3.763   2.575
 7174SOL    HW122421   6.665   3.844   2.556
 7174SOL    HW222422   6.802   3.789   2.626
 7175SOL     OW22423   5.904   2.788   6.045
 7175SOL    HW122424   5.846   2.765   6.123
 7175SOL    HW222425   5.847   2.807   5.965
 7176SOL     OW22426   6.569   2.084   6.694
 7176SOL    HW122427   6.668   2.084   6.707
 7176SOL    HW222428   6.546   2.032   6.611
 7177SOL     OW22429   1.410   5.658   3.988
 7177SOL    HW122430   1.471   5.662   3.909
 7177SOL    HW222431   1.327   5.709   3.968
 7178SOL     OW22432   0.803   6.209   5.614
 7178SOL    HW122433   0.839   6.230   5.705
 7178SOL    HW222434   0.850   6.265   5.545
 7179SOL     OW22435   5.381   4.748   5.474
 7179SOL    HW122436   5.471   4.717   5.444
 7179SOL    HW222437   5.319   4.753   5.396
 7180SOL     OW22438   0.006   2.286   2.529
 7180SOL    HW122439   6.974   2.300   2.610
 7180SOL    HW222440   0.037   2.191   2.526
 7181SOL     OW22441   3.624   0.380   0.276
 7181SOL    HW122442   3.611   0.308   0.209
 7181SOL    HW222443   3.671   0.344   0.357
 7182SOL     OW22444   1.886   0.923   2.299
 7182SOL    HW122445   1.891   0.962   2.207
 7182SOL    HW222446   1.936   0.981   2.363
 7183SOL     OW22447   1.878   6.892   0.972
 7183SOL    HW122448   1.922   6.925   1.056
 7183SOL    HW222449   1.862   6.793   0.980
 7184SOL     OW22450   6.765   1.432   3.057
 7184SOL    HW122451   6.703   1.354   3.072
 7184SOL    HW222452   6.731   1.511   3.107
 7185SOL     OW22453   3.749   0.318   3.516
 7185SOL    HW122454   3.808   0.275   3.584
 7185SOL    HW222455   3.686   0.250   3.479
 7186SOL     OW22456   6.251   2.434   0.225
 7186SOL    HW122457   6.201   2.462   0.143
 7186SOL    HW222458   6.201   2.361   0.271
 7187SOL     OW22459   3.158   3.825   3.670
 7187SOL    HW122460   3.099   3.828   3.589
 7187SOL    HW222461   3.246   3.785   3.646
 7188SOL     OW22462   4.545   5.194   0.018
 7188SOL    HW122463   4.563   5.286   0.053
 7188SOL    HW222464   4.545   5.196   6.942
 7189SOL     OW22465   6.649   2.207   6.108
 7189SOL    HW122466   6.655   2.297   6.151
 7189SOL    HW222467   6.733   2.190   6.056
 7190SOL     OW22468   5.576   5.264   0.589
 7190SOL    HW122469   5.545   5.181   0.542
 7190SOL    HW222470   5.497   5.315   0.622
 7191SOL     OW22471   0.610   5.212   2.775
 7191SOL    HW122472   0.614   5.225   2.676
 7191SOL    HW222473   0.703   5.201   2.811
 7192SOL     OW22474   3.441   4.014   5.613
 7192SOL    HW122475   3.387   3.968   5.543
 7192SOL    HW222476   3.437   4.113   5.599
 7193SOL     OW22477   3.562   1.217   4.272
 7193SOL    HW122478   3.495   1.256   4.335
 7193SOL    HW222479   3.648   1.269   4.277
 7194SOL     OW22480   3.439   2.653   5.449
 7194SOL    HW122481   3.466   2.557   5.442
 7194SOL    HW222482   3.378   2.676   5.374
 7195SOL     OW22483   6.397   4.121   5.601
 7195SOL    HW122484   6.452   4.085   5.526
 7195SOL    HW222485   6.319   4.060   5.617
 7196SOL     OW22486   2.831   4.308   1.658
 7196SOL    HW122487   2.908   4.289   1.597
 7196SOL    HW222488   2.857   4.381   1.722
 7197SOL     OW22489   3.567   4.365   6.401
 7197SOL    HW122490   3.590   4.371   6.498
 7197SOL    HW222491   3.651   4.351   6.348
 7198SOL     OW22492   1.413   6.469   2.252
 7198SOL    HW122493   1.464   6.540   2.204
 7198SOL    HW222494   1.327   6.508   2.286
 7199SOL     OW22495   6.198   1.093   3.530
 7199SOL    HW122496   6.225   1.019   3.591
 7199SOL    HW222497   6.228   1.180   3.569
 7200SOL     OW22498   0.938   4.065   6.362
 7200SOL    HW122499   0.903   3.983   6.407
 7200SOL    HW222500   0.867   4.135   6.362
 7201SOL     OW22501   5.727   5.754   4.912
 7201SOL    HW122502   5.772   5.698   4.981
 7201SOL    HW222503   5.646   5.707   4.877
 7202SOL     OW22504   4.533   6.754   5.965
 7202SOL    HW122505   4.538   6.779   5.869
 7202SOL    HW222506   4.444   6.710   5.983
 7203SOL     OW22507   0.913   1.362   0.489
 7203SOL    HW122508   0.814   1.365   0.474
 7203SOL    HW222509   0.934   1.289   0.554
 7204SOL     OW22510   5.388   0.853   3.029
 7204SOL    HW122511   5.414   0.780   2.966
 7204SOL    HW222512   5.305   0.827   3.078
 7205SOL     OW22513   2.679   1.276   3.868
 7205SOL    HW122514   2.655   1.212   3.940
 7205SOL    HW222515   2.600   1.290   3.808
 7206SOL     OW22516   1.739   2.735   6.566
 7206SOL    HW122517   1.750   2.787   6.651
 7206SOL    HW222518   1.799   2.774   6.496
 7207SOL     OW22519   1.976   2.605   3.190
 7207SOL    HW122520   1.995   2.508   3.199
 7207SOL    HW222521   1.997   2.651   3.277
 7208SOL     OW22522   2.695   0.215   3.181
 7208SOL    HW122523   2.614   0.223   3.240
 7208SOL    HW222524   2.754   0.295   3.194
 7209SOL     OW22525   4.584   1.288   1.892
 7209SOL    HW122526   4.667   1.285   1.946
 7209SOL    HW222527   4.516   1.225   1.932
 7210SOL     OW22528   3.205   1.278   5.014
 7210SOL    HW122529   3.285   1.307   5.067
 7210SOL    HW222530   3.207   1.323   4.924
 7211SOL     OW22531   4.861   6.038   6.181
 7211SOL    HW122532   4.817   5.996   6.102
 7211SOL    HW222533   4.920   6.112   6.150
 7212SOL     OW22534   0.092   5.892   3.936
 7212SOL    HW122535   0.165   5.932   3.991
 7212SOL    HW222536   0.048   5.964   3.883
 7213SOL     OW22537   5.226   2.808   0.244
 7213SOL    HW122538   5.305   2.805   0.183
 7213SOL    HW222539   5.255   2.843   0.333
 7214SOL     OW22540   6.549   1.839   5.922
 7214SOL    HW122541   6.551   1.918   5.860
 7214SOL    HW222542   6.478   1.852   5.991
 7215SOL     OW22543   6.387   1.316   2.615
 7215SOL    HW122544   6.407   1.286   2.522
 7215SOL    HW222545   6.408   1.243   2.679
 7216SOL     OW22546   5.548   6.211   3.749
 7216SOL    HW122547   5.453   6.230   3.728
 7216SOL    HW222548   5.606   6.284   3.712
 7217SOL     OW22549   0.772   3.318   3.173
 7217SOL    HW122550   0.869   3.309   3.152
 7217SOL    HW222551   0.738   3.233   3.213
 7218SOL     OW22552   6.776   2.847   5.617
 7218SOL    HW122553   6.858   2.832   5.561
 7218SOL    HW222554   6.800   2.907   5.694
 7219SOL     OW22555   3.897   5.764   0.993
 7219SOL    HW122556   3.926   5.810   1.077
 7219SOL    HW222557   3.798   5.772   0.983
 7220SOL     OW22558   0.014   3.570   3.813
 7220SOL    HW122559   0.062   3.495   3.859
 7220SOL    HW222560   6.972   3.610   3.876
 7221SOL     OW22561   4.647   4.732   3.653
 7221SOL    HW122562   4.671   4.763   3.561
 7221SOL    HW222563   4.696   4.787   3.721
 7222SOL     OW22564   6.331   5.978   3.656
 7222SOL    HW122565   6.290   5.898   3.700
 7222SOL    HW222566   6.295   5.987   3.563
 7223SOL     OW22567   6.477   5.615   1.556
 7223SOL    HW122568   6.463   5.600   1.654
 7223SOL    HW222569   6.575   5.612   1.535
 7224SOL     OW22570   5.627   2.491   2.574
 7224SOL    HW122571   5.543   2.465   2.526
 7224SOL    HW222572   5.703   2.492   2.508
 7225SOL     OW22573   0.830   5.069   0.363
 7225SOL    HW122574   0.737   5.057   0.396
 7225SOL    HW222575   0.852   4.997   0.298
 7226SOL     OW22576   6.413   6.572   7.007
 7226SOL    HW122577   6.452   6.654   0.024
 7226SOL    HW222578   6.477   6.533   6.941
 7227SOL     OW22579   2.212   0.734   2.027
 7227SOL    HW122580   2.228   0.778   2.115
 7227SOL    HW222581   2.261   0.647   2.024
 7228SOL     OW22582   6.835   3.498   2.999
 7228SOL    HW122583   6.777   3.423   3.031
 7228SOL    HW222584   6.877   3.543   3.078
 7229SOL     OW22585   5.789   0.036   5.356
 7229SOL    HW122586   5.712   0.012   5.415
 7229SOL    HW222587   5.817   6.980   5.302
 7230SOL     OW22588   2.600   4.891   5.704
 7230SOL    HW122589   2.683   4.857   5.748
 7230SOL    HW222590   2.520   4.855   5.753
 7231SOL     OW22591   3.563   3.335   6.902
 7231SOL    HW122592   3.622   3.415   6.896
 7231SOL    HW222593   3.475   3.360   6.942
 7232SOL     OW22594   4.530   5.874   3.150
 7232SOL    HW122595   4.590   5.846   3.075
 7232SOL    HW222596   4.585   5.912   3.225
 7233SOL     OW22597   0.512   1.802   6.665
 7233SOL    HW122598   0.606   1.837   6.668
 7233SOL    HW222599   0.514   1.706   6.635
 7234SOL     OW22600   5.324   5.087   3.578
 7234SOL    HW122601   5.295   5.182   3.566
 7234SOL    HW222602   5.244   5.027   3.581
 7235SOL     OW22603   0.061   0.418   0.999
 7235SOL    HW122604   0.124   0.453   0.931
 7235SOL    HW222605   0.075   0.320   1.012
 7236SOL     OW22606   0.476   3.831   3.066
 7236SOL    HW122607   0.486   3.905   3.132
 7236SOL    HW222608   0.423   3.863   2.987
 7237SOL     OW22609   4.941   1.151   6.894
 7237SOL    HW122610   5.026   1.161   6.946
 7237SOL    HW222611   4.963   1.137   6.798
 7238SOL     OW22612   4.734   3.220   0.234
 7238SOL    HW122613   4.833   3.212   0.224
 7238SOL    HW222614   4.709   3.208   0.330
 7239SOL     OW22615   6.002   3.039   2.179
 7239SOL    HW122616   5.969   3.024   2.273
 7239SOL    HW222617   6.085   2.985   2.164
 7240SOL     OW22618   0.604   2.241   0.511
 7240SOL    HW122619   0.545   2.205   0.584
 7240SOL    HW222620   0.680   2.178   0.495
 7241SOL     OW22621   2.160   0.300   2.712
 7241SOL    HW122622   2.103   0.371   2.670
 7241SOL    HW222623   2.189   0.331   2.803
 7242SOL     OW22624   6.495   3.873   6.198
 7242SOL    HW122625   6.438   3.893   6.278
 7242SOL    HW222626   6.586   3.912   6.213
 7243SOL     OW22627   6.204   4.914   6.564
 7243SOL    HW122628   6.286   4.939   6.511
 7243SOL    HW222629   6.124   4.918   6.504
 7244SOL     OW22630   6.716   6.058   0.311
 7244SOL    HW122631   6.630   6.083   0.266
 7244SOL    HW222632   6.756   5.979   0.265
 7245SOL     OW22633   1.827   2.501   0.193
 7245SOL    HW122634   1.751   2.557   0.226
 7245SOL    HW222635   1.858   2.441   0.267
 7246SOL     OW22636   4.775   0.051   4.740
 7246SOL    HW122637   4.724   6.995   4.709
 7246SOL    HW222638   4.764   0.061   4.839
 7247SOL     OW22639   3.180   3.976   4.192
 7247SOL    HW122640   3.130   3.939   4.270
 7247SOL    HW222641   3.117   3.992   4.116
 7248SOL     OW22642   2.533   2.221   4.985
 7248SOL    HW122643   2.537   2.229   4.885
 7248SOL    HW222644   2.450   2.264   5.019
 7249SOL     OW22645   3.382   5.879   3.026
 7249SOL    HW122646   3.370   5.859   3.124
 7249SOL    HW222647   3.402   5.976   3.015
 7250SOL     OW22648   4.934   5.550   5.244
 7250SOL    HW122649   5.019   5.597   5.219
 7250SOL    HW222650   4.934   5.533   5.342
 7251SOL     OW22651   0.344   5.861   4.156
 7251SOL    HW122652   0.276   5.799   4.197
 7251SOL    HW222653   0.404   5.808   4.097
 7252SOL     OW22654   3.902   4.245   1.705
 7252SOL    HW122655   3.857   4.206   1.786
 7252SOL    HW222656   3.871   4.339   1.691
 7253SOL     OW22657   1.211   5.243   5.986
 7253SOL    HW122658   1.195   5.198   5.898
 7253SOL    HW222659   1.286   5.308   5.978
 7254SOL     OW22660   0.038   3.854   3.654
 7254SOL    HW122661   0.076   3.803   3.576
 7254SOL    HW222662   0.041   3.797   3.736
 7255SOL     OW22663   4.599   3.938   0.692
 7255SOL    HW122664   4.541   3.878   0.636
 7255SOL    HW222665   4.615   4.024   0.644
 7256SOL     OW22666   3.174   0.051   4.252
 7256SOL    HW122667   3.238   7.000   4.273
 7256SOL    HW222668   3.188   0.125   4.317
 7257SOL     OW22669   0.912   1.236   4.921
 7257SOL    HW122670   0.829   1.206   4.968
 7257SOL    HW222671   0.888   1.296   4.845
 7258SOL     OW22672   6.710   1.899   2.669
 7258SOL    HW122673   6.650   1.979   2.669
 7258SOL    HW222674   6.655   1.816   2.674
 7259SOL     OW22675   1.475   3.819   2.350
 7259SOL    HW122676   1.449   3.884   2.279
 7259SOL    HW222677   1.395   3.795   2.405
 7260SOL     OW22678   5.675   2.722   0.933
 7260SOL    HW122679   5.755   2.700   0.877
 7260SOL    HW222680   5.652   2.819   0.921
 7261SOL     OW22681   0.032   4.222   6.846
 7261SOL    HW122682   0.039   4.241   6.748
 7261SOL    HW222683   6.974   4.265   6.883
 7262SOL     OW22684   3.165   0.330   5.164
 7262SOL    HW122685   3.118   0.359   5.247
 7262SOL    HW222686   3.262   0.355   5.170
 7263SOL     OW22687   6.048   5.305   5.932
 7263SOL    HW122688   5.966   5.250   5.946
 7263SOL    HW222689   6.038   5.359   5.849
 7264SOL     OW22690   5.154   1.866   1.349
 7264SOL    HW122691   5.063   1.908   1.342
 7264SOL    HW222692   5.170   1.808   1.269
 7265SOL     OW22693   3.319   0.017   5.426
 7265SOL    HW122694   3.319   0.117   5.440
 7265SOL    HW222695   3.225   7.009   5.418
 7266SOL     OW22696   0.027   0.806   3.258
 7266SOL    HW122697   6.965   0.857   3.251
 7266SOL    HW222698   0.087   0.833   3.183
 7267SOL     OW22699   6.639   4.196   5.388
 7267SOL    HW122700   6.577   4.149   5.324
 7267SOL    HW222701   6.601   4.285   5.411
 7268SOL     OW22702   5.712   6.083   4.344
 7268SOL    HW122703   5.699   6.076   4.245
 7268SOL    HW222704   5.646   6.147   4.383
 7269SOL     OW22705   2.788   5.624   4.472
 7269SOL    HW122706   2.757   5.612   4.566
 7269SOL    HW222707   2.887   5.638   4.471
 7270SOL     OW22708   0.468   1.172   4.268
 7270SOL    HW122709   0.480   1.240   4.196
 7270SOL    HW222710   0.392   1.111   4.244
 7271SOL     OW22711   0.867   5.560   2.814
 7271SOL    HW122712   0.770   5.543   2.794
 7271SOL    HW222713   0.890   5.520   2.903
 7272SOL     OW22714   6.580   4.056   1.733
 7272SOL    HW122715   6.577   4.135   1.673
 7272SOL    HW222716   6.520   3.984   1.697
 7273SOL     OW22717   7.003   1.296   4.744
 7273SOL    HW122718   7.000   1.258   4.651
 7273SOL    HW222719   6.915   1.281   4.789
 7274SOL     OW22720   0.350   5.645   6.350
 7274SOL    HW122721   0.407   5.716   6.391
 7274SOL    HW222722   0.271   5.627   6.410
 7275SOL     OW22723   0.641   5.377   3.127
 7275SOL    HW122724   0.579   5.304   3.157
 7275SOL    HW222725   0.588   5.459   3.104
 7276SOL     OW22726   5.295   6.212   3.679
 7276SOL    HW122727   5.233   6.285   3.649
 7276SOL    HW222728   5.286   6.134   3.617
 7277SOL     OW22729   4.846   1.216   0.160
 7277SOL    HW122730   4.797   1.129   0.170
 7277SOL    HW222731   4.905   1.211   0.079
 7278SOL     OW22732   3.596   2.847   2.564
 7278SOL    HW122733   3.502   2.856   2.530
 7278SOL    HW222734   3.630   2.756   2.544
 7279SOL     OW22735   3.505   6.464   6.336
 7279SOL    HW122736   3.530   6.502   6.247
 7279SOL    HW222737   3.589   6.441   6.387
 7280SOL     OW22738   4.029   0.059   5.830
 7280SOL    HW122739   3.996   0.152   5.812
 7280SOL    HW222740   4.126   0.053   5.807
 7281SOL     OW22741   5.729   0.824   6.546
 7281SOL    HW122742   5.808   0.863   6.592
 7281SOL    HW222743   5.750   0.810   6.449
 7282SOL     OW22744   6.057   6.020   3.215
 7282SOL    HW122745   6.007   6.064   3.290
 7282SOL    HW222746   6.044   5.921   3.221
 7283SOL     OW22747   2.008   1.709   3.212
 7283SOL    HW122748   1.975   1.616   3.192
 7283SOL    HW222749   2.107   1.707   3.223
 7284SOL     OW22750   1.356   1.193   4.749
 7284SOL    HW122751   1.450   1.223   4.737
 7284SOL    HW222752   1.294   1.263   4.713
 7285SOL     OW22753   6.183   5.109   2.333
 7285SOL    HW122754   6.276   5.146   2.332
 7285SOL    HW222755   6.173   5.040   2.261
 7286SOL     OW22756   1.547   4.176   0.382
 7286SOL    HW122757   1.504   4.266   0.371
 7286SOL    HW222758   1.641   4.180   0.348
 7287SOL     OW22759   6.607   1.956   6.180
 7287SOL    HW122760   6.523   1.910   6.150
 7287SOL    HW222761   6.600   2.054   6.159
 7288SOL     OW22762   2.732   0.181   0.148
 7288SOL    HW122763   2.762   0.087   0.132
 7288SOL    HW222764   2.745   0.204   0.245
 7289SOL     OW22765   4.264   1.935   3.242
 7289SOL    HW122766   4.294   2.030   3.245
 7289SOL    HW222767   4.343   1.875   3.260
 7290SOL     OW22768   2.398   5.797   4.662
 7290SOL    HW122769   2.487   5.792   4.709
 7290SOL    HW222770   2.365   5.891   4.665
 7291SOL     OW22771   3.700   5.311   1.322
 7291SOL    HW122772   3.732   5.264   1.240
 7291SOL    HW222773   3.742   5.268   1.403
 7292SOL     OW22774   3.451   0.240   4.659
 7292SOL    HW122775   3.487   0.307   4.594
 7292SOL    HW222776   3.409   0.288   4.736
 7293SOL     OW22777   2.463   1.497   6.353
 7293SOL    HW122778   2.421   1.487   6.263
 7293SOL    HW222779   2.478   1.407   6.393
 7294SOL     OW22780   5.907   5.812   6.513
 7294SOL    HW122781   5.911   5.726   6.462
 7294SOL    HW222782   5.853   5.878   6.462
 7295SOL     OW22783   4.967   6.722   1.672
 7295SOL    HW122784   4.902   6.693   1.601
 7295SOL    HW222785   5.034   6.785   1.632
 7296SOL     OW22786   4.348   4.979   0.434
 7296SOL    HW122787   4.265   4.925   0.442
 7296SOL    HW222788   4.331   5.058   0.374
 7297SOL     OW22789   5.006   6.240   2.743
 7297SOL    HW122790   4.922   6.276   2.703
 7297SOL    HW222791   5.079   6.308   2.735
 7298SOL     OW22792   6.395   3.119   4.238
 7298SOL    HW122793   6.341   3.080   4.313
 7298SOL    HW222794   6.411   3.049   4.169
 7299SOL     OW22795   5.485   3.332   0.162
 7299SOL    HW122796   5.558   3.331   0.230
 7299SOL    HW222797   5.473   3.425   0.127
 7300SOL     OW22798   4.891   5.009   1.097
 7300SOL    HW122799   4.833   5.073   1.148
 7300SOL    HW222800   4.833   4.951   1.040
 7301SOL     OW22801   6.769   1.483   6.448
 7301SOL    HW122802   6.797   1.406   6.505
 7301SOL    HW222803   6.679   1.465   6.408
 7302SOL     OW22804   6.917   1.013   6.640
 7302SOL    HW122805   6.956   0.955   6.711
 7302SOL    HW222806   6.853   0.959   6.584
 7303SOL     OW22807   4.347   0.578   1.294
 7303SOL    HW122808   4.348   0.669   1.251
 7303SOL    HW222809   4.416   0.575   1.366
 7304SOL     OW22810   4.134   3.374   4.645
 7304SOL    HW122811   4.048   3.324   4.636
 7304SOL    HW222812   4.174   3.389   4.554
 7305SOL     OW22813   5.820   2.280   0.238
 7305SOL    HW122814   5.814   2.272   0.337
 7305SOL    HW222815   5.750   2.221   0.196
 7306SOL     OW22816   4.562   4.909   1.784
 7306SOL    HW122817   4.552   4.876   1.878
 7306SOL    HW222818   4.621   4.846   1.733
 7307SOL     OW22819   4.320   6.483   2.322
 7307SOL    HW122820   4.260   6.563   2.312
 7307SOL    HW222821   4.340   6.445   2.231
 7308SOL     OW22822   5.537   0.577   4.007
 7308SOL    HW122823   5.572   0.563   3.914
 7308SOL    HW222824   5.525   0.488   4.051
 7309SOL     OW22825   4.381   4.443   0.548
 7309SOL    HW122826   4.415   4.485   0.464
 7309SOL    HW222827   4.347   4.514   0.609
 7310SOL     OW22828   2.173   5.641   1.701
 7310SOL    HW122829   2.147   5.660   1.796
 7310SOL    HW222830   2.092   5.648   1.643
 7311SOL     OW22831   3.255   2.124   1.940
 7311SOL    HW122832   3.206   2.038   1.929
 7311SOL    HW222833   3.326   2.113   2.010
 7312SOL     OW22834   0.263   2.405   6.642
 7312SOL    HW122835   0.217   2.319   6.619
 7312SOL    HW222836   0.302   2.399   6.734
 7313SOL     OW22837   3.682   2.469   6.517
 7313SOL    HW122838   3.597   2.430   6.554
 7313SOL    HW222839   3.661   2.553   6.467
 7314SOL     OW22840   1.199   1.875   4.629
 7314SOL    HW122841   1.193   1.776   4.614
 7314SOL    HW222842   1.177   1.896   4.724
 7315SOL     OW22843   0.073   1.117   5.861
 7315SOL    HW122844   0.123   1.200   5.886
 7315SOL    HW222845   0.016   1.135   5.781
 7316SOL     OW22846   4.079   3.740   3.920
 7316SOL    HW122847   4.066   3.830   3.879
 7316SOL    HW222848   4.018   3.674   3.875
 7317SOL     OW22849   3.128   0.650   4.121
 7317SOL    HW122850   3.192   0.716   4.161
 7317SOL    HW222851   3.067   0.616   4.192
 7318SOL     OW22852   1.670   0.790   1.264
 7318SOL    HW122853   1.727   0.870   1.284
 7318SOL    HW222854   1.610   0.772   1.342
 7319SOL     OW22855   6.860   4.543   6.259
 7319SOL    HW122856   6.846   4.480   6.183
 7319SOL    HW222857   6.943   4.519   6.308
 7320SOL     OW22858   0.454   1.831   2.546
 7320SOL    HW122859   0.405   1.812   2.461
 7320SOL    HW222860   0.535   1.773   2.551
 7321SOL     OW22861   3.782   1.533   3.946
 7321SOL    HW122862   3.727   1.581   3.878
 7321SOL    HW222863   3.768   1.435   3.938
 7322SOL     OW22864   1.134   2.923   1.609
 7322SOL    HW122865   1.175   2.880   1.529
 7322SOL    HW222866   1.034   2.927   1.598
 7323SOL     OW22867   2.284   4.159   3.128
 7323SOL    HW122868   2.265   4.071   3.085
 7323SOL    HW222869   2.283   4.150   3.227
 7324SOL     OW22870   4.748   5.561   3.583
 7324SOL    HW122871   4.751   5.651   3.538
 7324SOL    HW222872   4.663   5.515   3.560
 7325SOL     OW22873   3.146   6.449   0.814
 7325SOL    HW122874   3.064   6.420   0.864
 7325SOL    HW222875   3.137   6.423   0.718
 7326SOL     OW22876   2.600   0.703   4.065
 7326SOL    HW122877   2.655   0.633   4.112
 7326SOL    HW222878   2.640   0.793   4.082
 7327SOL     OW22879   1.433   3.240   6.043
 7327SOL    HW122880   1.335   3.238   6.022
 7327SOL    HW222881   1.461   3.152   6.081
 7328SOL     OW22882   2.178   6.427   0.228
 7328SOL    HW122883   2.201   6.342   0.274
 7328SOL    HW222884   2.080   6.444   0.235
 7329SOL     OW22885   4.786   3.893   1.758
 7329SOL    HW122886   4.715   3.959   1.734
 7329SOL    HW222887   4.782   3.815   1.694
 7330SOL     OW22888   3.872   1.995   0.983
 7330SOL    HW122889   3.850   2.054   1.061
 7330SOL    HW222890   3.971   1.985   0.976
 7331SOL     OW22891   6.505   1.230   1.281
 7331SOL    HW122892   6.442   1.260   1.210
 7331SOL    HW222893   6.588   1.286   1.278
 7332SOL     OW22894   3.488   6.738   0.385
 7332SOL    HW122895   3.470   6.656   0.331
 7332SOL    HW222896   3.587   6.747   0.400
 7333SOL     OW22897   0.334   4.793   2.255
 7333SOL    HW122898   0.367   4.746   2.174
 7333SOL    HW222899   0.364   4.744   2.337
 7334SOL     OW22900   3.083   0.199   3.982
 7334SOL    HW122901   3.060   0.160   4.071
 7334SOL    HW222902   3.166   0.155   3.947
 7335SOL     OW22903   1.925   3.035   3.349
 7335SOL    HW122904   1.878   3.050   3.436
 7335SOL    HW222905   1.884   2.956   3.303
 7336SOL     OW22906   1.473   5.998   4.613
 7336SOL    HW122907   1.570   5.992   4.637
 7336SOL    HW222908   1.461   6.068   4.542
 7337SOL     OW22909   5.209   2.271   1.153
 7337SOL    HW122910   5.190   2.278   1.055
 7337SOL    HW222911   5.305   2.292   1.170
 7338SOL     OW22912   0.104   3.814   0.205
 7338SOL    HW122913   0.203   3.797   0.205
 7338SOL    HW222914   0.070   3.814   0.299
 7339SOL     OW22915   1.853   5.966   4.890
 7339SOL    HW122916   1.810   5.878   4.911
 7339SOL    HW222917   1.830   6.032   4.962
 7340SOL     OW22918   2.830   6.958   6.529
 7340SOL    HW122919   2.917   6.919   6.499
 7340SOL    HW222920   2.834   0.034   6.518
 7341SOL     OW22921   6.083   1.952   0.442
 7341SOL    HW122922   6.132   1.865   0.432
 7341SOL    HW222923   5.987   1.934   0.463
 7342SOL     OW22924   0.389   6.037   1.620
 7342SOL    HW122925   0.372   6.124   1.665
 7342SOL    HW222926   0.337   6.032   1.535
 7343SOL     OW22927   6.331   2.811   0.554
 7343SOL    HW122928   6.400   2.820   0.483
 7343SOL    HW222929   6.299   2.716   0.558
 7344SOL     OW22930   2.755   0.091   5.893
 7344SOL    HW122931   2.730   0.013   5.835
 7344SOL    HW222932   2.692   0.095   5.971
 7345SOL     OW22933   3.761   5.876   6.432
 7345SOL    HW122934   3.813   5.956   6.401
 7345SOL    HW222935   3.687   5.857   6.367
 7346SOL     OW22936   4.173   5.068   2.163
 7346SOL    HW122937   4.212   5.147   2.116
 7346SOL    HW222938   4.075   5.083   2.179
 7347SOL     OW22939   4.911   0.682   6.717
 7347SOL    HW122940   4.886   0.655   6.624
 7347SOL    HW222941   4.961   0.607   6.761
 7348SOL     OW22942   0.607   5.971   0.192
 7348SOL    HW122943   0.600   5.874   0.170
 7348SOL    HW222944   0.699   5.991   0.228
 7349SOL     OW22945   4.698   1.433   1.427
 7349SOL    HW122946   4.751   1.387   1.498
 7349SOL    HW222947   4.761   1.479   1.364
 7350SOL     OW22948   3.699   1.312   5.134
 7350SOL    HW122949   3.690   1.281   5.039
 7350SOL    HW222950   3.701   1.412   5.136
 7351SOL     OW22951   2.178   4.775   4.737
 7351SOL    HW122952   2.272   4.797   4.764
 7351SOL    HW222953   2.114   4.823   4.797
 7352SOL     OW22954   5.852   3.129   4.181
 7352SOL    HW122955   5.787   3.158   4.111
 7352SOL    HW222956   5.943   3.118   4.139
 7353SOL     OW22957   6.873   2.136   5.704
 7353SOL    HW122958   6.823   2.087   5.633
 7353SOL    HW222959   6.943   2.194   5.662
 7354SOL     OW22960   0.821   2.250   2.571
 7354SOL    HW122961   0.898   2.200   2.531
 7354SOL    HW222962   0.801   2.330   2.515
 7355SOL     OW22963   3.514   1.746   0.384
 7355SOL    HW122964   3.414   1.745   0.384
 7355SOL    HW222965   3.547   1.790   0.300
 7356SOL     OW22966   4.002   4.746   5.975
 7356SOL    HW122967   4.039   4.760   5.883
 7356SOL    HW222968   4.070   4.772   6.043
 7357SOL     OW22969   4.374   6.475   2.055
 7357SOL    HW122970   4.275   6.492   2.051
 7357SOL    HW222971   4.413   6.478   1.963
 7358SOL     OW22972   4.465   6.963   2.832
 7358SOL    HW122973   4.541   7.024   2.811
 7358SOL    HW222974   4.479   6.875   2.787
 7359SOL     OW22975   3.760   0.239   2.395
 7359SOL    HW122976   3.792   0.331   2.373
 7359SOL    HW222977   3.693   0.209   2.327
 7360SOL     OW22978   2.876   4.011   6.393
 7360SOL    HW122979   2.776   4.013   6.389
 7360SOL    HW222980   2.908   3.919   6.370
 7361SOL     OW22981   6.322   0.928   3.787
 7361SOL    HW122982   6.417   0.914   3.758
 7361SOL    HW222983   6.319   1.002   3.854
 7362SOL     OW22984   3.692   5.981   0.564
 7362SOL    HW122985   3.773   5.984   0.622
 7362SOL    HW222986   3.610   6.002   0.618
 7363SOL     OW22987   4.483   0.496   0.972
 7363SOL    HW122988   4.529   0.458   0.892
 7363SOL    HW222989   4.484   0.596   0.967
 7364SOL     OW22990   5.663   6.027   1.883
 7364SOL    HW122991   5.742   6.086   1.897
 7364SOL    HW222992   5.592   6.077   1.835
 7365SOL     OW22993   4.934   3.548   2.044
 7365SOL    HW122994   4.912   3.630   1.991
 7365SOL    HW222995   4.894   3.468   2.000
 7366SOL     OW22996   1.835   6.580   2.932
 7366SOL    HW122997   1.759   6.603   2.870
 7366SOL    HW222998   1.908   6.648   2.922
 7367SOL     OW22999   4.402   0.831   0.059
 7367SOL    HW123000   4.319   0.836   0.003
 7367SOL    HW223001   4.482   0.842   0.000
 7368SOL     OW23002   3.238   4.117   3.043
 7368SOL    HW123003   3.225   4.048   3.115
 7368SOL    HW223004   3.254   4.206   3.085
 7369SOL     OW23005   5.792   3.506   0.346
 7369SOL    HW123006   5.878   3.513   0.397
 7369SOL    HW223007   5.795   3.428   0.284
 7370SOL     OW23008   2.098   0.858   4.296
 7370SOL    HW123009   2.122   0.822   4.387
 7370SOL    HW223010   2.177   0.851   4.236
 7371SOL     OW23011   4.111   0.400   3.799
 7371SOL    HW123012   4.121   0.458   3.879
 7371SOL    HW223013   4.026   0.423   3.751
 7372SOL     OW23014   4.104   1.402   5.298
 7372SOL    HW123015   4.086   1.355   5.212
 7372SOL    HW223016   4.020   1.402   5.354
 7373SOL     OW23017   6.734   2.704   4.212
 7373SOL    HW123018   6.666   2.660   4.153
 7373SOL    HW223019   6.754   2.645   4.290
 7374SOL     OW23020   0.266   3.251   6.191
 7374SOL    HW123021   0.185   3.288   6.145
 7374SOL    HW223022   0.246   3.236   6.287
 7375SOL     OW23023   1.812   2.982   1.375
 7375SOL    HW123024   1.769   3.051   1.434
 7375SOL    HW223025   1.896   2.949   1.418
 7376SOL     OW23026   6.517   5.241   0.506
 7376SOL    HW123027   6.562   5.157   0.475
 7376SOL    HW223028   6.430   5.217   0.550
 7377SOL     OW23029   2.771   6.139   1.067
 7377SOL    HW123030   2.810   6.111   1.154
 7377SOL    HW223031   2.707   6.069   1.035
 7378SOL     OW23032   2.449   5.138   5.768
 7378SOL    HW123033   2.524   5.167   5.827
 7378SOL    HW223034   2.432   5.041   5.781
 7379SOL     OW23035   5.421   2.438   2.417
 7379SOL    HW123036   5.460   2.404   2.332
 7379SOL    HW223037   5.321   2.428   2.414
 7380SOL     OW23038   5.192   3.713   1.375
 7380SOL    HW123039   5.253   3.634   1.383
 7380SOL    HW223040   5.109   3.697   1.429
 7381SOL     OW23041   3.922   6.928   1.999
 7381SOL    HW123042   3.976   7.012   1.998
 7381SOL    HW223043   3.864   6.924   1.918
 7382SOL     OW23044   0.354   2.512   6.919
 7382SOL    HW123045   0.312   2.434   6.967
 7382SOL    HW223046   0.438   2.482   6.874
 7383SOL     OW23047   2.470   6.752   0.970
 7383SOL    HW123048   2.393   6.815   0.958
 7383SOL    HW223049   2.468   6.714   1.062
 7384SOL     OW23050   6.861   0.686   0.073
 7384SOL    HW123051   6.890   0.604   0.123
 7384SOL    HW223052   6.926   0.760   0.090
 7385SOL     OW23053   6.455   4.634   3.286
 7385SOL    HW123054   6.543   4.633   3.333
 7385SOL    HW223055   6.411   4.545   3.295
 7386SOL     OW23056   6.658   4.316   0.328
 7386SOL    HW123057   6.645   4.347   0.422
 7386SOL    HW223058   6.579   4.345   0.273
 7387SOL     OW23059   6.908   5.708   3.969
 7387SOL    HW123060   6.829   5.769   3.963
 7387SOL    HW223061   6.989   5.761   3.997
 7388SOL     OW23062   2.281   4.204   2.835
 7388SOL    HW123063   2.203   4.266   2.826
 7388SOL    HW223064   2.358   4.254   2.876
 7389SOL     OW23065   6.980   2.783   0.906
 7389SOL    HW123066   6.897   2.733   0.882
 7389SOL    HW223067   0.008   2.803   0.823
 7390SOL     OW23068   4.050   2.094   4.122
 7390SOL    HW123069   3.961   2.139   4.131
 7390SOL    HW223070   4.049   2.034   4.042
 7391SOL     OW23071   3.359   3.743   2.407
 7391SOL    HW123072   3.338   3.764   2.503
 7391SOL    HW223073   3.457   3.724   2.398
 7392SOL     OW23074   3.511   6.614   0.930
 7392SOL    HW123075   3.423   6.657   0.912
 7392SOL    HW223076   3.516   6.527   0.881
 7393SOL     OW23077   4.882   5.541   3.291
 7393SOL    HW123078   4.831   5.569   3.210
 7393SOL    HW223079   4.818   5.504   3.359
 7394SOL     OW23080   1.836   1.986   6.222
 7394SOL    HW123081   1.887   1.913   6.176
 7394SOL    HW223082   1.742   1.988   6.187
 7395SOL     OW23083   2.896   6.095   1.311
 7395SOL    HW123084   2.909   6.015   1.253
 7395SOL    HW223085   2.972   6.101   1.376
 7396SOL     OW23086   1.447   5.222   2.319
 7396SOL    HW123087   1.494   5.300   2.362
 7396SOL    HW223088   1.450   5.233   2.220
 7397SOL     OW23089   5.958   4.976   4.060
 7397SOL    HW123090   5.956   5.057   4.002
 7397SOL    HW223091   5.888   4.911   4.030
 7398SOL     OW23092   3.281   5.205   1.822
 7398SOL    HW123093   3.221   5.185   1.745
 7398SOL    HW223094   3.327   5.292   1.807
 7399SOL     OW23095   6.397   2.052   5.338
 7399SOL    HW123096   6.439   2.037   5.249
 7399SOL    HW223097   6.454   2.115   5.391
 7400SOL     OW23098   4.136   3.529   5.611
 7400SOL    HW123099   4.088   3.563   5.530
 7400SOL    HW223100   4.088   3.561   5.693
 7401SOL     OW23101   2.350   2.085   4.150
 7401SOL    HW123102   2.353   2.129   4.240
 7401SOL    HW223103   2.428   2.116   4.095
 7402SOL     OW23104   3.230   5.228   4.309
 7402SOL    HW123105   3.328   5.220   4.289
 7402SOL    HW223106   3.188   5.137   4.306
 7403SOL     OW23107   1.656   5.125   4.193
 7403SOL    HW123108   1.679   5.215   4.230
 7403SOL    HW223109   1.710   5.108   4.110
 7404SOL     OW23110   1.695   3.375   1.175
 7404SOL    HW123111   1.660   3.420   1.093
 7404SOL    HW223112   1.621   3.326   1.221
 7405SOL     OW23113   3.721   6.662   6.301
 7405SOL    HW123114   3.795   6.706   6.250
 7405SOL    HW223115   3.714   6.703   6.392
 7406SOL     OW23116   0.557   2.457   4.478
 7406SOL    HW123117   0.484   2.491   4.537
 7406SOL    HW223118   0.517   2.412   4.398
 7407SOL     OW23119   1.438   6.108   4.362
 7407SOL    HW123120   1.345   6.132   4.390
 7407SOL    HW223121   1.499   6.186   4.379
 7408SOL     OW23122   4.252   5.210   5.700
 7408SOL    HW123123   4.250   5.115   5.669
 7408SOL    HW223124   4.163   5.253   5.685
 7409SOL     OW23125   6.416   5.179   1.509
 7409SOL    HW123126   6.335   5.218   1.551
 7409SOL    HW223127   6.460   5.249   1.452
 7410SOL     OW23128   6.099   1.127   0.686
 7410SOL    HW123129   6.005   1.136   0.655
 7410SOL    HW223130   6.102   1.130   0.786
 7411SOL     OW23131   3.545   1.786   5.562
 7411SOL    HW123132   3.546   1.737   5.475
 7411SOL    HW223133   3.465   1.845   5.567
 7412SOL     OW23134   4.289   6.698   6.773
 7412SOL    HW123135   4.387   6.703   6.754
 7412SOL    HW223136   4.269   6.614   6.823
 7413SOL     OW23137   4.914   0.997   3.843
 7413SOL    HW123138   4.873   0.991   3.935
 7413SOL    HW223139   4.986   0.928   3.834
 7414SOL     OW23140   2.994   0.941   4.273
 7414SOL    HW123141   3.045   0.980   4.196
 7414SOL    HW223142   3.025   0.985   4.358
 7415SOL     OW23143   4.408   0.816   5.966
 7415SOL    HW123144   4.348   0.863   5.901
 7415SOL    HW223145   4.360   0.803   6.052
 7416SOL     OW23146   0.922   0.242   1.541
 7416SOL    HW123147   1.001   0.291   1.506
 7416SOL    HW223148   0.947   0.148   1.563
 7417SOL     OW23149   0.345   0.341   1.932
 7417SOL    HW123150   0.403   0.352   2.013
 7417SOL    HW223151   0.363   0.415   1.868
 7418SOL     OW23152   2.019   3.542   6.416
 7418SOL    HW123153   2.028   3.633   6.377
 7418SOL    HW223154   2.001   3.549   6.514
 7419SOL     OW23155   6.743   2.904   4.622
 7419SOL    HW123156   6.727   2.999   4.598
 7419SOL    HW223157   6.836   2.878   4.596
 7420SOL     OW23158   6.983   0.112   0.377
 7420SOL    HW123159   6.884   0.113   0.382
 7420SOL    HW223160   7.012   0.134   0.283
 7421SOL     OW23161   6.364   3.919   1.011
 7421SOL    HW123162   6.430   3.852   1.045
 7421SOL    HW223163   6.395   3.955   0.923
 7422SOL     OW23164   6.063   3.673   1.390
 7422SOL    HW123165   6.013   3.597   1.349
 7422SOL    HW223166   6.112   3.640   1.471
 7423SOL     OW23167   4.333   2.562   5.641
 7423SOL    HW123168   4.306   2.468   5.661
 7423SOL    HW223169   4.260   2.608   5.591
 7424SOL     OW23170   0.795   1.815   3.916
 7424SOL    HW123171   0.759   1.836   4.007
 7424SOL    HW223172   0.891   1.841   3.910
 7425SOL     OW23173   5.541   0.267   0.888
 7425SOL    HW123174   5.473   0.290   0.958
 7425SOL    HW223175   5.603   0.197   0.923
 7426SOL     OW23176   3.788   3.392   5.397
 7426SOL    HW123177   3.848   3.332   5.344
 7426SOL    HW223178   3.732   3.337   5.460
 7427SOL     OW23179   2.674   0.887   1.565
 7427SOL    HW123180   2.645   0.962   1.623
 7427SOL    HW223181   2.727   0.922   1.488
 7428SOL     OW23182   1.617   6.991   5.493
 7428SOL    HW123183   1.686   0.023   5.449
 7428SOL    HW223184   1.596   0.004   5.584
 7429SOL     OW23185   1.119   0.738   2.467
 7429SOL    HW123186   1.021   0.756   2.472
 7429SOL    HW223187   1.136   0.640   2.483
 7430SOL     OW23188   6.421   4.209   2.472
 7430SOL    HW123189   6.368   4.167   2.399
 7430SOL    HW223190   6.363   4.273   2.523
 7431SOL     OW23191   1.109   2.722   4.356
 7431SOL    HW123192   1.202   2.752   4.373
 7431SOL    HW223193   1.058   2.718   4.443
 7432SOL     OW23194   1.410   1.056   2.858
 7432SOL    HW123195   1.341   1.098   2.799
 7432SOL    HW223196   1.456   1.127   2.911
 7433SOL     OW23197   3.541   0.337   6.386
 7433SOL    HW123198   3.551   0.309   6.482
 7433SOL    HW223199   3.528   0.256   6.329
 7434SOL     OW23200   4.153   0.064   3.842
 7434SOL    HW123201   4.153   7.009   3.781
 7434SOL    HW223202   4.194   0.039   3.929
 7435SOL     OW23203   5.117   4.592   3.360
 7435SOL    HW123204   5.048   4.539   3.310
 7435SOL    HW223205   5.144   4.672   3.306
 7436SOL     OW23206   4.416   2.791   6.377
 7436SOL    HW123207   4.436   2.876   6.425
 7436SOL    HW223208   4.452   2.714   6.431
 7437SOL     OW23209   3.970   0.398   1.724
 7437SOL    HW123210   3.997   0.486   1.686
 7437SOL    HW223211   3.972   0.402   1.824
 7438SOL     OW23212   1.874   1.057   6.549
 7438SOL    HW123213   1.873   1.013   6.639
 7438SOL    HW223214   1.959   1.036   6.502
 7439SOL     OW23215   1.691   4.362   6.390
 7439SOL    HW123216   1.676   4.456   6.359
 7439SOL    HW223217   1.661   4.298   6.319
 7440SOL     OW23218   6.205   2.764   4.419
 7440SOL    HW123219   6.233   2.730   4.509
 7440SOL    HW223220   6.174   2.687   4.363
 7441SOL     OW23221   4.359   6.665   0.243
 7441SOL    HW123222   4.432   6.673   0.311
 7441SOL    HW223223   4.330   6.569   0.237
 7442SOL     OW23224   6.416   1.061   6.408
 7442SOL    HW123225   6.482   1.125   6.371
 7442SOL    HW223226   6.364   1.018   6.334
 7443SOL     OW23227   0.313   6.767   0.956
 7443SOL    HW123228   0.226   6.766   0.907
 7443SOL    HW223229   0.298   6.751   1.053
 7444SOL     OW23230   1.710   5.729   6.501
 7444SOL    HW123231   1.633   5.673   6.532
 7444SOL    HW223232   1.778   5.670   6.458
 7445SOL     OW23233   3.722   6.235   2.744
 7445SOL    HW123234   3.755   6.174   2.815
 7445SOL    HW223235   3.792   6.245   2.674
 7446SOL     OW23236   6.635   5.001   0.436
 7446SOL    HW123237   6.656   4.953   0.521
 7446SOL    HW223238   6.560   4.954   0.389
 7447SOL     OW23239   0.611   5.501   0.435
 7447SOL    HW123240   0.675   5.555   0.490
 7447SOL    HW223241   0.662   5.440   0.374
 7448SOL     OW23242   4.986   5.036   6.919
 7448SOL    HW123243   5.046   4.968   6.877
 7448SOL    HW223244   4.891   5.019   6.891
 7449SOL     OW23245   6.584   3.694   6.598
 7449SOL    HW123246   6.486   3.679   6.583
 7449SOL    HW223247   6.617   3.635   6.671
 7450SOL     OW23248   5.161   3.282   0.604
 7450SOL    HW123249   5.216   3.327   0.534
 7450SOL    HW223250   5.214   3.209   0.646
 7451SOL     OW23251   4.187   5.013   2.917
 7451SOL    HW123252   4.113   5.027   2.851
 7451SOL    HW223253   4.225   4.921   2.906
 7452SOL     OW23254   6.493   5.891   6.942
 7452SOL    HW123255   6.499   5.797   6.910
 7452SOL    HW223256   6.529   5.896   0.011
 7453SOL     OW23257   4.594   4.974   6.193
 7453SOL    HW123258   4.541   5.054   6.164
 7453SOL    HW223259   4.532   4.899   6.216
 7454SOL     OW23260   3.853   2.184   1.195
 7454SOL    HW123261   3.926   2.204   1.260
 7454SOL    HW223262   3.786   2.259   1.197
 7455SOL     OW23263   6.446   0.651   3.053
 7455SOL    HW123264   6.531   0.599   3.056
 7455SOL    HW223265   6.399   0.633   2.966
 7456SOL     OW23266   2.822   1.256   5.574
 7456SOL    HW123267   2.819   1.347   5.616
 7456SOL    HW223268   2.820   1.265   5.475
 7457SOL     OW23269   1.063   1.798   2.599
 7457SOL    HW123270   1.111   1.863   2.539
 7457SOL    HW223271   1.129   1.745   2.651
 7458SOL     OW23272   0.257   5.969   5.165
 7458SOL    HW123273   0.172   6.002   5.206
 7458SOL    HW223274   0.243   5.955   5.067
 7459SOL     OW23275   5.716   6.764   3.093
 7459SOL    HW123276   5.641   6.829   3.078
 7459SOL    HW223277   5.788   6.809   3.146
 7460SOL     OW23278   0.575   0.287   0.983
 7460SOL    HW123279   0.657   0.239   0.953
 7460SOL    HW223280   0.596   0.343   1.063
 7461SOL     OW23281   1.757   4.433   5.504
 7461SOL    HW123282   1.735   4.384   5.420
 7461SOL    HW223283   1.806   4.517   5.481
 7462SOL     OW23284   2.052   4.539   0.136
 7462SOL    HW123285   2.062   4.485   0.219
 7462SOL    HW223286   1.954   4.549   0.114
 7463SOL     OW23287   5.070   5.084   0.910
 7463SOL    HW123288   5.005   5.069   0.985
 7463SOL    HW223289   5.019   5.111   0.828
 7464SOL     OW23290   5.400   4.979   5.207
 7464SOL    HW123291   5.439   4.908   5.149
 7464SOL    HW223292   5.471   5.046   5.230
 7465SOL     OW23293   1.521   3.530   6.637
 7465SOL    HW123294   1.497   3.518   6.734
 7465SOL    HW223295   1.546   3.625   6.620
 7466SOL     OW23296   0.562   0.072   5.434
 7466SOL    HW123297   0.547   0.006   5.508
 7466SOL    HW223298   0.617   0.148   5.468
 7467SOL     OW23299   0.704   3.501   4.085
 7467SOL    HW123300   0.681   3.432   4.154
 7467SOL    HW223301   0.800   3.490   4.058
 7468SOL     OW23302   6.351   2.713   4.654
 7468SOL    HW123303   6.341   2.640   4.722
 7468SOL    HW223304   6.424   2.688   4.590
 7469SOL     OW23305   0.144   2.190   6.859
 7469SOL    HW123306   0.208   2.153   6.791
 7469SOL    HW223307   0.080   2.252   6.814
 7470SOL     OW23308   5.089   2.805   3.876
 7470SOL    HW123309   5.050   2.750   3.802
 7470SOL    HW223310   5.188   2.790   3.880
 7471SOL     OW23311   3.517   0.073   6.322
 7471SOL    HW123312   3.433   0.036   6.282
 7471SOL    HW223313   3.534   0.030   6.410
 7472SOL     OW23314   6.847   0.106   5.699
 7472SOL    HW123315   6.797   0.136   5.780
 7472SOL    HW223316   6.822   0.164   5.621
 7473SOL     OW23317   4.283   6.615   3.148
 7473SOL    HW123318   4.239   6.640   3.234
 7473SOL    HW223319   4.230   6.651   3.071
 7474SOL     OW23320   6.048   2.218   1.304
 7474SOL    HW123321   6.148   2.223   1.300
 7474SOL    HW223322   6.009   2.262   1.223
 7475SOL     OW23323   5.178   2.629   1.312
 7475SOL    HW123324   5.260   2.687   1.313
 7475SOL    HW223325   5.166   2.590   1.221
 7476SOL     OW23326   2.237   1.272   2.954
 7476SOL    HW123327   2.147   1.313   2.941
 7476SOL    HW223328   2.236   1.215   3.035
 7477SOL     OW23329   2.402   3.795   5.980
 7477SOL    HW123330   2.474   3.864   5.975
 7477SOL    HW223331   2.418   3.725   5.910
 7478SOL     OW23332   0.680   2.755   6.676
 7478SOL    HW123333   0.616   2.788   6.606
 7478SOL    HW223334   0.633   2.691   6.737
 7479SOL     OW23335   5.647   2.624   1.651
 7479SOL    HW123336   5.677   2.627   1.747
 7479SOL    HW223337   5.624   2.529   1.627
 7480SOL     OW23338   3.856   6.024   2.313
 7480SOL    HW123339   3.759   6.000   2.303
 7480SOL    HW223340   3.909   5.974   2.244
 7481SOL     OW23341   0.337   4.178   6.809
 7481SOL    HW123342   0.348   4.123   6.727
 7481SOL    HW223343   0.240   4.181   6.835
 7482SOL     OW23344   4.120   1.673   4.685
 7482SOL    HW123345   4.022   1.690   4.686
 7482SOL    HW223346   4.161   1.717   4.605
 7483SOL     OW23347   5.499   1.123   5.806
 7483SOL    HW123348   5.574   1.058   5.794
 7483SOL    HW223349   5.441   1.123   5.724
 7484SOL     OW23350   2.461   0.054   4.658
 7484SOL    HW123351   2.384   7.019   4.635
 7484SOL    HW223352   2.506   0.021   4.741
 7485SOL     OW23353   3.861   0.244   6.850
 7485SOL    HW123354   3.794   0.170   6.860
 7485SOL    HW223355   3.897   0.269   6.940
 7486SOL     OW23356   4.342   6.123   0.939
 7486SOL    HW123357   4.406   6.190   0.977
 7486SOL    HW223358   4.326   6.143   0.842
 7487SOL     OW23359   3.140   6.393   4.314
 7487SOL    HW123360   3.180   6.328   4.251
 7487SOL    HW223361   3.074   6.451   4.266
 7488SOL     OW23362   1.742   5.933   3.607
 7488SOL    HW123363   1.715   5.845   3.567
 7488SOL    HW223364   1.677   5.959   3.678
 7489SOL     OW23365   5.102   3.418   6.237
 7489SOL    HW123366   5.085   3.503   6.287
 7489SOL    HW223367   5.188   3.425   6.187
 7490SOL     OW23368   1.995   2.312   1.287
 7490SOL    HW123369   2.074   2.371   1.304
 7490SOL    HW223370   2.005   2.267   1.198
 7491SOL     OW23371   4.732   4.261   6.401
 7491SOL    HW123372   4.652   4.225   6.352
 7491SOL    HW223373   4.784   4.185   6.440
 7492SOL     OW23374   1.535   0.891   3.040
 7492SOL    HW123375   1.495   0.925   3.125
 7492SOL    HW223376   1.485   0.929   2.962
 7493SOL     OW23377   6.008   4.839   4.344
 7493SOL    HW123378   6.072   4.861   4.271
 7493SOL    HW223379   5.915   4.854   4.312
 7494SOL     OW23380   5.998   1.178   2.297
 7494SOL    HW123381   5.933   1.208   2.366
 7494SOL    HW223382   5.966   1.094   2.254
 7495SOL     OW23383   1.404   3.420   4.331
 7495SOL    HW123384   1.460   3.341   4.308
 7495SOL    HW223385   1.415   3.442   4.428
 7496SOL     OW23386   5.756   2.674   3.366
 7496SOL    HW123387   5.763   2.575   3.355
 7496SOL    HW223388   5.666   2.705   3.334
 7497SOL     OW23389   6.440   0.299   1.357
 7497SOL    HW123390   6.518   0.357   1.383
 7497SOL    HW223391   6.473   0.219   1.307
 7498SOL     OW23392   2.238   6.176   3.112
 7498SOL    HW123393   2.159   6.123   3.084
 7498SOL    HW223394   2.208   6.266   3.146
 7499SOL     OW23395   2.707   1.122   3.003
 7499SOL    HW123396   2.613   1.090   3.016
 7499SOL    HW223397   2.771   1.055   3.040
 7500SOL     OW23398   3.643   1.260   4.838
 7500SOL    HW123399   3.625   1.358   4.828
 7500SOL    HW223400   3.695   1.227   4.759
 7501SOL     OW23401   6.175   1.984   3.799
 7501SOL    HW123402   6.144   2.019   3.711
 7501SOL    HW223403   6.109   1.917   3.834
 7502SOL     OW23404   3.802   1.204   3.585
 7502SOL    HW123405   3.883   1.153   3.614
 7502SOL    HW223406   3.776   1.175   3.493
 7503SOL     OW23407   0.931   5.769   0.847
 7503SOL    HW123408   0.934   5.680   0.891
 7503SOL    HW223409   0.836   5.797   0.833
 7504SOL     OW23410   5.559   6.362   4.909
 7504SOL    HW123411   5.615   6.282   4.933
 7504SOL    HW223412   5.619   6.441   4.894
 7505SOL     OW23413   0.436   6.430   6.536
 7505SOL    HW123414   0.515   6.421   6.477
 7505SOL    HW223415   0.356   6.454   6.482
 7506SOL     OW23416   3.766   2.054   4.447
 7506SOL    HW123417   3.746   2.056   4.545
 7506SOL    HW223418   3.778   1.959   4.418
 7507SOL     OW23419   6.687   3.702   6.337
 7507SOL    HW123420   6.639   3.694   6.424
 7507SOL    HW223421   6.718   3.797   6.325
 7508SOL     OW23422   3.402   6.528   0.128
 7508SOL    HW123423   3.356   6.473   0.059
 7508SOL    HW223424   3.420   6.619   0.092
 7509SOL     OW23425   5.753   4.283   3.116
 7509SOL    HW123426   5.766   4.354   3.185
 7509SOL    HW223427   5.831   4.283   3.053
 7510SOL     OW23428   3.326   4.859   1.476
 7510SOL    HW123429   3.409   4.915   1.474
 7510SOL    HW223430   3.309   4.827   1.569
 7511SOL     OW23431   5.253   5.733   3.698
 7511SOL    HW123432   5.280   5.644   3.735
 7511SOL    HW223433   5.173   5.722   3.640
 7512SOL     OW23434   4.149   6.361   0.961
 7512SOL    HW123435   4.225   6.376   0.897
 7512SOL    HW223436   4.062   6.372   0.912
 7513SOL     OW23437   0.474   0.249   2.425
 7513SOL    HW123438   0.547   0.203   2.475
 7513SOL    HW223439   0.391   0.193   2.428
 7514SOL     OW23440   0.258   0.527   0.499
 7514SOL    HW123441   0.255   0.437   0.542
 7514SOL    HW223442   0.350   0.566   0.509
 7515SOL     OW23443   0.130   5.028   5.207
 7515SOL    HW123444   0.191   4.955   5.236
 7515SOL    HW223445   0.079   5.062   5.285
 7516SOL     OW23446   2.387   6.071   5.238
 7516SOL    HW123447   2.468   6.061   5.295
 7516SOL    HW223448   2.369   5.985   5.190
 7517SOL     OW23449   0.449   2.589   0.178
 7517SOL    HW123450   0.435   2.618   0.083
 7517SOL    HW223451   0.535   2.626   0.212
 7518SOL     OW23452   4.002   2.039   4.872
 7518SOL    HW123453   4.034   2.110   4.934
 7518SOL    HW223454   4.024   2.064   4.778
 7519SOL     OW23455   3.029   6.080   4.889
 7519SOL    HW123456   3.050   6.042   4.980
 7519SOL    HW223457   3.100   6.145   4.863
 7520SOL     OW23458   2.119   0.594   0.678
 7520SOL    HW123459   2.078   0.559   0.762
 7520SOL    HW223460   2.202   0.646   0.700
 7521SOL     OW23461   4.343   1.457   5.816
 7521SOL    HW123462   4.287   1.518   5.761
 7521SOL    HW223463   4.368   1.502   5.901
 7522SOL     OW23464   1.571   6.509   4.133
 7522SOL    HW123465   1.647   6.516   4.067
 7522SOL    HW223466   1.605   6.474   4.220
 7523SOL     OW23467   5.738   1.758   6.746
 7523SOL    HW123468   5.740   1.674   6.802
 7523SOL    HW223469   5.743   1.837   6.806
 7524SOL     OW23470   0.323   3.991   4.757
 7524SOL    HW123471   0.230   4.021   4.732
 7524SOL    HW223472   0.350   4.035   4.843
 7525SOL     OW23473   2.340   4.831   5.826
 7525SOL    HW123474   2.295   4.781   5.901
 7525SOL    HW223475   2.278   4.836   5.748
 7526SOL     OW23476   1.158   4.633   0.580
 7526SOL    HW123477   1.236   4.572   0.591
 7526SOL    HW223478   1.128   4.666   0.670
 7527SOL     OW23479   2.786   5.140   2.488
 7527SOL    HW123480   2.732   5.115   2.568
 7527SOL    HW223481   2.805   5.058   2.434
 7528SOL     OW23482   6.555   2.978   0.150
 7528SOL    HW123483   6.648   2.944   0.165
 7528SOL    HW223484   6.536   2.981   0.052
 7529SOL     OW23485   5.880   2.948   4.707
 7529SOL    HW123486   5.924   2.944   4.797
 7529SOL    HW223487   5.845   2.857   4.683
 7530SOL     OW23488   1.273   2.479   3.159
 7530SOL    HW123489   1.307   2.573   3.153
 7530SOL    HW223490   1.209   2.463   3.083
 7531SOL     OW23491   4.136   1.735   4.115
 7531SOL    HW123492   4.068   1.663   4.129
 7531SOL    HW223493   4.097   1.807   4.057
 7532SOL     OW23494   4.495   4.772   6.364
 7532SOL    HW123495   4.405   4.730   6.373
 7532SOL    HW223496   4.524   4.808   6.452
 7533SOL     OW23497   4.253   4.678   1.244
 7533SOL    HW123498   4.242   4.629   1.330
 7533SOL    HW223499   4.207   4.626   1.171
 7534SOL     OW23500   4.426   6.363   5.113
 7534SOL    HW123501   4.420   6.379   5.014
 7534SOL    HW223502   4.409   6.266   5.132
 7535SOL     OW23503   0.395   6.822   4.531
 7535SOL    HW123504   0.364   6.846   4.439
 7535SOL    HW223505   0.325   6.768   4.577
 7536SOL     OW23506   6.032   0.015   2.718
 7536SOL    HW123507   5.994   0.053   2.802
 7536SOL    HW223508   6.061   0.090   2.658
 7537SOL     OW23509   2.330   0.394   2.267
 7537SOL    HW123510   2.282   0.314   2.303
 7537SOL    HW223511   2.314   0.401   2.169
 7538SOL     OW23512   6.985   4.653   6.982
 7538SOL    HW123513   6.952   4.566   6.946
 7538SOL    HW223514   0.012   4.637   0.042
 7539SOL     OW23515   6.531   0.544   5.050
 7539SOL    HW123516   6.603   0.482   5.018
 7539SOL    HW223517   6.445   0.494   5.061
 7540SOL     OW23518   5.342   3.641   3.374
 7540SOL    HW123519   5.391   3.570   3.323
 7540SOL    HW223520   5.295   3.600   3.452
 7541SOL     OW23521   2.325   3.830   0.094
 7541SOL    HW123522   2.238   3.863   0.130
 7541SOL    HW223523   2.332   3.856   7.022
 7542SOL     OW23524   6.554   5.656   4.872
 7542SOL    HW123525   6.516   5.712   4.945
 7542SOL    HW223526   6.529   5.694   4.783
 7543SOL     OW23527   2.371   0.706   0.725
 7543SOL    HW123528   2.325   0.750   0.648
 7543SOL    HW223529   2.461   0.674   0.696
 7544SOL     OW23530   5.806   1.594   5.171
 7544SOL    HW123531   5.720   1.558   5.134
 7544SOL    HW223532   5.882   1.540   5.136
 7545SOL     OW23533   1.316   5.553   5.184
 7545SOL    HW123534   1.282   5.614   5.255
 7545SOL    HW223535   1.301   5.595   5.094
 7546SOL     OW23536   2.377   3.185   1.649
 7546SOL    HW123537   2.305   3.250   1.671
 7546SOL    HW223538   2.340   3.112   1.592
 7547SOL     OW23539   3.949   0.041   2.439
 7547SOL    HW123540   3.881   0.113   2.428
 7547SOL    HW223541   3.913   6.979   2.404
 7548SOL     OW23542   2.455   2.192   6.089
 7548SOL    HW123543   2.419   2.131   6.160
 7548SOL    HW223544   2.431   2.155   5.999
 7549SOL     OW23545   4.848   0.298   4.641
 7549SOL    HW123546   4.811   0.368   4.701
 7549SOL    HW223547   4.797   0.213   4.654
 7550SOL     OW23548   2.310   5.767   5.160
 7550SOL    HW123549   2.230   5.751   5.102
 7550SOL    HW223550   2.313   5.698   5.233
 7551SOL     OW23551   6.412   3.323   6.207
 7551SOL    HW123552   6.492   3.275   6.173
 7551SOL    HW223553   6.434   3.420   6.218
 7552SOL     OW23554   2.689   6.535   4.567
 7552SOL    HW123555   2.673   6.508   4.661
 7552SOL    HW223556   2.766   6.599   4.563
 7553SOL     OW23557   6.416   0.071   5.635
 7553SOL    HW123558   6.458   0.161   5.624
 7553SOL    HW223559   6.475   0.002   5.592
 7554SOL     OW23560   5.211   1.242   1.936
 7554SOL    HW123561   5.143   1.242   2.010
 7554SOL    HW223562   5.271   1.321   1.946
 7555SOL     OW23563   4.622   5.450   4.234
 7555SOL    HW123564   4.672   5.488   4.156
 7555SOL    HW223565   4.615   5.351   4.224
 7556SOL     OW23566   0.847   6.001   0.586
 7556SOL    HW123567   0.750   5.993   0.611
 7556SOL    HW223568   0.889   6.074   0.640
 7557SOL     OW23569   4.225   5.998   0.374
 7557SOL    HW123570   4.195   6.052   0.295
 7557SOL    HW223571   4.320   6.019   0.395
 7558SOL     OW23572   0.994   1.374   3.838
 7558SOL    HW123573   0.926   1.349   3.907
 7558SOL    HW223574   0.967   1.460   3.794
 7559SOL     OW23575   1.333   0.046   5.506
 7559SOL    HW123576   1.312   0.094   5.421
 7559SOL    HW223577   1.417   7.017   5.495
 7560SOL     OW23578   0.822   0.452   5.801
 7560SOL    HW123579   0.831   0.509   5.719
 7560SOL    HW223580   0.726   0.441   5.824
 7561SOL     OW23581   5.226   1.340   5.259
 7561SOL    HW123582   5.214   1.379   5.350
 7561SOL    HW223583   5.177   1.253   5.253
 7562SOL     OW23584   1.774   5.507   3.540
 7562SOL    HW123585   1.686   5.547   3.516
 7562SOL    HW223586   1.799   5.534   3.633
 7563SOL     OW23587   2.877   6.584   3.360
 7563SOL    HW123588   2.784   6.588   3.322
 7563SOL    HW223589   2.942   6.567   3.286
 7564SOL     OW23590   5.180   2.863   5.842
 7564SOL    HW123591   5.202   2.801   5.917
 7564SOL    HW223592   5.080   2.870   5.833
 7565SOL     OW23593   6.800   3.554   5.659
 7565SOL    HW123594   6.770   3.648   5.670
 7565SOL    HW223595   6.804   3.510   5.749
 7566SOL     OW23596   4.767   4.273   1.579
 7566SOL    HW123597   4.853   4.284   1.529
 7566SOL    HW223598   4.760   4.342   1.651
 7567SOL     OW23599   1.464   0.280   3.051
 7567SOL    HW123600   1.412   0.361   3.021
 7567SOL    HW223601   1.477   0.284   3.150
 7568SOL     OW23602   0.270   3.956   1.182
 7568SOL    HW123603   0.212   3.879   1.156
 7568SOL    HW223604   0.254   3.978   1.279
 7569SOL     OW23605   4.523   3.764   1.445
 7569SOL    HW123606   4.458   3.820   1.495
 7569SOL    HW223607   4.534   3.801   1.352
 7570SOL     OW23608   0.913   2.671   1.815
 7570SOL    HW123609   0.910   2.605   1.891
 7570SOL    HW223610   0.916   2.622   1.728
 7571SOL     OW23611   4.900   1.685   3.634
 7571SOL    HW123612   4.885   1.708   3.538
 7571SOL    HW223613   4.870   1.761   3.692
 7572SOL     OW23614   4.750   6.590   3.163
 7572SOL    HW123615   4.735   6.627   3.255
 7572SOL    HW223616   4.664   6.595   3.111
 7573SOL     OW23617   3.570   0.041   5.879
 7573SOL    HW123618   3.662   0.033   5.840
 7573SOL    HW223619   3.518   0.108   5.826
 7574SOL     OW23620   0.703   3.134   3.393
 7574SOL    HW123621   0.700   3.034   3.382
 7574SOL    HW223622   0.610   3.171   3.392
 7575SOL     OW23623   6.975   7.006   0.129
 7575SOL    HW123624   7.007   6.911   0.135
 7575SOL    HW223625   6.885   7.013   0.172
 7576SOL     OW23626   4.478   3.000   0.317
 7576SOL    HW123627   4.547   2.944   0.364
 7576SOL    HW223628   4.402   3.017   0.378
 7577SOL     OW23629   6.954   0.239   6.550
 7577SOL    HW123630   6.982   0.152   6.509
 7577SOL    HW223631   0.004   0.272   6.609
 7578SOL     OW23632   6.033   5.619   2.831
 7578SOL    HW123633   6.080   5.575   2.755
 7578SOL    HW223634   5.989   5.550   2.888
 7579SOL     OW23635   1.286   1.914   6.778
 7579SOL    HW123636   1.263   1.821   6.806
 7579SOL    HW223637   1.299   1.917   6.679
 7580SOL     OW23638   2.150   4.998   2.532
 7580SOL    HW123639   2.132   5.065   2.605
 7580SOL    HW223640   2.140   5.043   2.443
 7581SOL     OW23641   0.288   0.264   0.906
 7581SOL    HW123642   0.218   0.202   0.941
 7581SOL    HW223643   0.371   0.256   0.961
 7582SOL     OW23644   1.973   0.706   5.793
 7582SOL    HW123645   2.045   0.658   5.742
 7582SOL    HW223646   2.012   0.748   5.875
 7583SOL     OW23647   5.609   4.019   2.105
 7583SOL    HW123648   5.704   3.999   2.131
 7583SOL    HW223649   5.575   4.096   2.159
 7584SOL     OW23650   0.210   0.705   3.428
 7584SOL    HW123651   0.135   0.750   3.380
 7584SOL    HW223652   0.295   0.717   3.376
 7585SOL     OW23653   0.848   1.219   5.767
 7585SOL    HW123654   0.760   1.257   5.738
 7585SOL    HW223655   0.904   1.291   5.808
 7586SOL     OW23656   1.807   6.564   3.971
 7586SOL    HW123657   1.754   6.618   3.905
 7586SOL    HW223658   1.887   6.616   4.000
 7587SOL     OW23659   5.460   0.239   2.095
 7587SOL    HW123660   5.518   0.212   2.019
 7587SOL    HW223661   5.517   0.266   2.173
 7588SOL     OW23662   2.079   3.426   4.511
 7588SOL    HW123663   2.114   3.519   4.519
 7588SOL    HW223664   1.991   3.428   4.463
 7589SOL     OW23665   6.907   0.037   2.589
 7589SOL    HW123666   6.954   0.025   2.676
 7589SOL    HW223667   6.836   0.107   2.599
 7590SOL     OW23668   5.866   0.898   6.931
 7590SOL    HW123669   5.781   0.852   6.906
 7590SOL    HW223670   5.870   0.988   6.887
 7591SOL     OW23671   3.176   4.099   4.817
 7591SOL    HW123672   3.230   4.101   4.733
 7591SOL    HW223673   3.209   4.169   4.880
 7592SOL     OW23674   0.316   6.468   3.490
 7592SOL    HW123675   0.251   6.432   3.423
 7592SOL    HW223676   0.387   6.520   3.443
 7593SOL     OW23677   6.811   1.490   6.120
 7593SOL    HW123678   6.788   1.404   6.165
 7593SOL    HW223679   6.728   1.531   6.082
 7594SOL     OW23680   6.781   3.943   6.250
 7594SOL    HW123681   6.754   4.034   6.279
 7594SOL    HW223682   6.796   3.942   6.151
 7595SOL     OW23683   0.249   3.416   0.303
 7595SOL    HW123684   0.309   3.489   0.336
 7595SOL    HW223685   0.159   3.424   0.347
 7596SOL     OW23686   3.448   1.819   6.601
 7596SOL    HW123687   3.485   1.791   6.513
 7596SOL    HW223688   3.359   1.862   6.587
 7597SOL     OW23689   2.390   4.493   0.610
 7597SOL    HW123690   2.319   4.513   0.677
 7597SOL    HW223691   2.471   4.458   0.658
 7598SOL     OW23692   4.859   0.644   2.029
 7598SOL    HW123693   4.908   0.557   2.030
 7598SOL    HW223694   4.811   0.656   2.116
 7599SOL     OW23695   3.093   3.122   0.362
 7599SOL    HW123696   3.089   3.083   0.454
 7599SOL    HW223697   3.002   3.153   0.335
 7600SOL     OW23698   0.790   6.620   3.772
 7600SOL    HW123699   0.824   6.700   3.721
 7600SOL    HW223700   0.709   6.646   3.825
 7601SOL     OW23701   2.938   6.335   1.027
 7601SOL    HW123702   2.893   6.423   1.041
 7601SOL    HW223703   2.872   6.261   1.038
 7602SOL     OW23704   0.357   1.283   1.429
 7602SOL    HW123705   0.409   1.206   1.391
 7602SOL    HW223706   0.413   1.333   1.495
 7603SOL     OW23707   4.331   1.029   6.543
 7603SOL    HW123708   4.411   1.084   6.520
 7603SOL    HW223709   4.258   1.046   6.477
 7604SOL     OW23710   2.463   2.371   5.359
 7604SOL    HW123711   2.438   2.293   5.302
 7604SOL    HW223712   2.395   2.381   5.432
 7605SOL     OW23713   3.080   5.648   0.172
 7605SOL    HW123714   3.131   5.610   0.248
 7605SOL    HW223715   3.103   5.745   0.161
 7606SOL     OW23716   6.144   0.687   3.340
 7606SOL    HW123717   6.159   0.666   3.244
 7606SOL    HW223718   6.226   0.664   3.393
 7607SOL     OW23719   1.937   5.433   5.388
 7607SOL    HW123720   1.958   5.527   5.363
 7607SOL    HW223721   1.865   5.397   5.329
 7608SOL     OW23722   0.434   2.871   6.546
 7608SOL    HW123723   0.363   2.890   6.614
 7608SOL    HW223724   0.504   2.942   6.551
 7609SOL     OW23725   3.105   0.009   4.807
 7609SOL    HW123726   3.147   0.046   4.890
 7609SOL    HW223727   3.101   6.933   4.813
 7610SOL     OW23728   4.073   5.362   4.069
 7610SOL    HW123729   4.080   5.270   4.029
 7610SOL    HW223730   4.135   5.369   4.147
 7611SOL     OW23731   3.830   2.289   0.358
 7611SOL    HW123732   3.880   2.254   0.278
 7611SOL    HW223733   3.798   2.381   0.339
 7612SOL     OW23734   4.785   2.823   2.293
 7612SOL    HW123735   4.728   2.874   2.229
 7612SOL    HW223736   4.727   2.781   2.363
 7613SOL     OW23737   0.216   0.716   6.968
 7613SOL    HW123738   0.248   0.686   0.034
 7613SOL    HW223739   0.175   0.639   6.920
 7614SOL     OW23740   6.138   5.522   6.757
 7614SOL    HW123741   6.203   5.485   6.824
 7614SOL    HW223742   6.122   5.453   6.686
 7615SOL     OW23743   4.939   3.171   6.443
 7615SOL    HW123744   5.022   3.188   6.390
 7615SOL    HW223745   4.870   3.128   6.384
 7616SOL     OW23746   6.549   6.795   1.856
 7616SOL    HW123747   6.502   6.729   1.915
 7616SOL    HW223748   6.643   6.806   1.888
 7617SOL     OW23749   6.065   4.427   3.063
 7617SOL    HW123750   5.992   4.451   2.999
 7617SOL    HW223751   6.100   4.511   3.106
 7618SOL     OW23752   2.887   2.246   0.144
 7618SOL    HW123753   2.904   2.208   0.053
 7618SOL    HW223754   2.789   2.262   0.157
 7619SOL     OW23755   0.738   0.578   4.791
 7619SOL    HW123756   0.733   0.582   4.891
 7619SOL    HW223757   0.646   0.592   4.753
 7620SOL     OW23758   3.570   4.118   0.275
 7620SOL    HW123759   3.555   4.162   0.187
 7620SOL    HW223760   3.636   4.172   0.328
 7621SOL     OW23761   6.388   4.887   0.346
 7621SOL    HW123762   6.341   4.815   0.295
 7621SOL    HW223763   6.333   4.914   0.425
 7622SOL     OW23764   2.498   4.121   1.005
 7622SOL    HW123765   2.502   4.143   0.908
 7622SOL    HW223766   2.403   4.130   1.037
 7623SOL     OW23767   4.878   4.405   3.176
 7623SOL    HW123768   4.784   4.374   3.160
 7623SOL    HW223769   4.931   4.332   3.218
 7624SOL     OW23770   6.729   2.961   2.798
 7624SOL    HW123771   6.735   2.921   2.889
 7624SOL    HW223772   6.680   3.048   2.803
 7625SOL     OW23773   5.162   0.511   1.833
 7625SOL    HW123774   5.077   0.473   1.870
 7625SOL    HW223775   5.140   0.583   1.767
 7626SOL     OW23776   4.800   6.306   0.481
 7626SOL    HW123777   4.862   6.384   0.469
 7626SOL    HW223778   4.836   6.227   0.431
 7627SOL     OW23779   4.605   2.768   5.843
 7627SOL    HW123780   4.556   2.822   5.774
 7627SOL    HW223781   4.588   2.807   5.934
 7628SOL     OW23782   3.672   2.709   1.003
 7628SOL    HW123783   3.584   2.711   1.050
 7628SOL    HW223784   3.699   2.802   0.979
 7629SOL     OW23785   5.272   2.846   3.599
 7629SOL    HW123786   5.261   2.757   3.556
 7629SOL    HW223787   5.326   2.836   3.682
 7630SOL     OW23788   1.282   5.943   3.669
 7630SOL    HW123789   1.262   5.874   3.738
 7630SOL    HW223790   1.320   6.025   3.715
 7631SOL     OW23791   1.027   1.165   6.580
 7631SOL    HW123792   0.994   1.123   6.495
 7631SOL    HW223793   1.122   1.194   6.568
 7632SOL     OW23794   4.300   5.769   1.722
 7632SOL    HW123795   4.214   5.818   1.707
 7632SOL    HW223796   4.376   5.827   1.694
 7633SOL     OW23797   5.110   0.703   1.662
 7633SOL    HW123798   5.195   0.742   1.629
 7633SOL    HW223799   5.053   0.775   1.701
 7634SOL     OW23800   0.391   2.139   6.707
 7634SOL    HW123801   0.481   2.158   6.744
 7634SOL    HW223802   0.379   2.040   6.696
 7635SOL     OW23803   1.285   3.186   5.626
 7635SOL    HW123804   1.315   3.247   5.700
 7635SOL    HW223805   1.314   3.093   5.647
 7636SOL     OW23806   6.725   2.890   3.703
 7636SOL    HW123807   6.648   2.949   3.680
 7636SOL    HW223808   6.726   2.872   3.801
 7637SOL     OW23809   1.260   4.000   4.879
 7637SOL    HW123810   1.203   4.047   4.947
 7637SOL    HW223811   1.308   4.069   4.824
 7638SOL     OW23812   0.727   6.822   1.016
 7638SOL    HW123813   0.670   6.847   1.095
 7638SOL    HW223814   0.671   6.771   0.950
 7639SOL     OW23815   2.282   6.575   0.454
 7639SOL    HW123816   2.233   6.585   0.540
 7639SOL    HW223817   2.216   6.557   0.380
 7640SOL     OW23818   3.257   0.334   0.962
 7640SOL    HW123819   3.180   0.282   0.997
 7640SOL    HW223820   3.333   0.272   0.941
 7641SOL     OW23821   6.472   4.837   4.972
 7641SOL    HW123822   6.493   4.752   5.020
 7641SOL    HW223823   6.555   4.893   4.965
 7642SOL     OW23824   6.037   1.129   3.852
 7642SOL    HW123825   5.957   1.171   3.894
 7642SOL    HW223826   6.089   1.199   3.802
 7643SOL     OW23827   5.181   1.927   4.126
 7643SOL    HW123828   5.205   1.874   4.045
 7643SOL    HW223829   5.204   2.023   4.111
 7644SOL     OW23830   5.391   3.909   0.757
 7644SOL    HW123831   5.456   3.980   0.729
 7644SOL    HW223832   5.315   3.905   0.692
 7645SOL     OW23833   5.311   5.052   6.206
 7645SOL    HW123834   5.297   5.095   6.117
 7645SOL    HW223835   5.308   4.952   6.196
 7646SOL     OW23836   6.232   1.651   1.914
 7646SOL    HW123837   6.250   1.720   1.984
 7646SOL    HW223838   6.297   1.575   1.925
 7647SOL     OW23839   6.969   1.666   4.007
 7647SOL    HW123840   0.043   1.654   3.990
 7647SOL    HW223841   6.947   1.764   4.004
 7648SOL     OW23842   1.896   2.281   0.768
 7648SOL    HW123843   1.820   2.265   0.704
 7648SOL    HW223844   1.933   2.373   0.753
 7649SOL     OW23845   4.228   0.414   0.372
 7649SOL    HW123846   4.287   0.345   0.331
 7649SOL    HW223847   4.263   0.438   0.463
 7650SOL     OW23848   3.549   2.561   0.490
 7650SOL    HW123849   3.634   2.597   0.528
 7650SOL    HW223850   3.491   2.528   0.564
 7651SOL     OW23851   3.668   5.620   6.209
 7651SOL    HW123852   3.661   5.652   6.303
 7651SOL    HW223853   3.645   5.694   6.146
 7652SOL     OW23854   0.379   0.697   4.982
 7652SOL    HW123855   0.455   0.685   5.045
 7652SOL    HW223856   0.295   0.661   5.023
 7653SOL     OW23857   1.848   6.568   6.448
 7653SOL    HW123858   1.878   6.655   6.488
 7653SOL    HW223859   1.751   6.555   6.468
 7654SOL     OW23860   6.655   2.602   5.667
 7654SOL    HW123861   6.647   2.598   5.766
 7654SOL    HW223862   6.677   2.695   5.638
 7655SOL     OW23863   2.852   1.770   5.156
 7655SOL    HW123864   2.830   1.750   5.251
 7655SOL    HW223865   2.840   1.868   5.139
 7656SOL     OW23866   6.143   3.744   0.378
 7656SOL    HW123867   6.178   3.729   0.285
 7656SOL    HW223868   6.064   3.684   0.393
 7657SOL     OW23869   1.002   3.925   4.732
 7657SOL    HW123870   1.057   3.990   4.784
 7657SOL    HW223871   0.981   3.963   4.642
 7658SOL     OW23872   3.228   0.587   1.027
 7658SOL    HW123873   3.231   0.491   0.999
 7658SOL    HW223874   3.194   0.593   1.121
 7659SOL     OW23875   5.426   4.098   5.117
 7659SOL    HW123876   5.526   4.101   5.123
 7659SOL    HW223877   5.395   4.007   5.143
 7660SOL     OW23878   0.318   6.284   5.014
 7660SOL    HW123879   0.319   6.317   5.109
 7660SOL    HW223880   0.379   6.206   5.006
 7661SOL     OW23881   2.287   0.549   4.907
 7661SOL    HW123882   2.314   0.540   4.811
 7661SOL    HW223883   2.240   0.466   4.936
 7662SOL     OW23884   7.023   6.308   1.431
 7662SOL    HW123885   6.939   6.276   1.387
 7662SOL    HW223886   0.060   6.347   1.363
 7663SOL     OW23887   1.156   5.757   3.844
 7663SOL    HW123888   1.097   5.788   3.770
 7663SOL    HW223889   1.123   5.668   3.878
 7664SOL     OW23890   5.639   2.180   2.952
 7664SOL    HW123891   5.590   2.197   2.867
 7664SOL    HW223892   5.651   2.081   2.965
 7665SOL     OW23893   2.079   0.258   5.163
 7665SOL    HW123894   2.119   0.198   5.232
 7665SOL    HW223895   2.095   0.353   5.188
 7666SOL     OW23896   6.084   5.524   4.295
 7666SOL    HW123897   6.182   5.502   4.288
 7666SOL    HW223898   6.043   5.519   4.203
 7667SOL     OW23899   4.228   5.409   1.169
 7667SOL    HW123900   4.200   5.313   1.165
 7667SOL    HW223901   4.312   5.422   1.116
 7668SOL     OW23902   1.543   5.659   0.335
 7668SOL    HW123903   1.594   5.687   0.253
 7668SOL    HW223904   1.486   5.735   0.366
 7669SOL     OW23905   3.754   2.690   6.121
 7669SOL    HW123906   3.713   2.599   6.125
 7669SOL    HW223907   3.848   2.683   6.089
 7670SOL     OW23908   1.213   0.358   0.411
 7670SOL    HW123909   1.221   0.381   0.314
 7670SOL    HW223910   1.250   0.432   0.466
 7671SOL     OW23911   3.806   0.710   1.760
 7671SOL    HW123912   3.850   0.658   1.834
 7671SOL    HW223913   3.775   0.647   1.689
 7672SOL     OW23914   5.692   2.934   2.185
 7672SOL    HW123915   5.707   3.030   2.208
 7672SOL    HW223916   5.775   2.897   2.143
 7673SOL     OW23917   1.898   7.004   5.178
 7673SOL    HW123918   1.893   0.075   5.150
 7673SOL    HW223919   1.956   6.996   5.259
 7674SOL     OW23920   3.280   5.386   3.665
 7674SOL    HW123921   3.316   5.314   3.724
 7674SOL    HW223922   3.312   5.371   3.572
 7675SOL     OW23923   3.911   6.506   3.391
 7675SOL    HW123924   3.893   6.409   3.375
 7675SOL    HW223925   3.924   6.552   3.304
 7676SOL     OW23926   3.134   3.209   4.600
 7676SOL    HW123927   3.219   3.216   4.548
 7676SOL    HW223928   3.115   3.113   4.622
 7677SOL     OW23929   0.505   6.268   0.164
 7677SOL    HW123930   0.519   6.176   0.199
 7677SOL    HW223931   0.407   6.290   0.164
 7678SOL     OW23932   3.366   0.974   5.320
 7678SOL    HW123933   3.297   0.965   5.392
 7678SOL    HW223934   3.456   0.985   5.362
 7679SOL     OW23935   3.266   5.605   3.839
 7679SOL    HW123936   3.298   5.533   3.777
 7679SOL    HW223937   3.202   5.566   3.905
 7680SOL     OW23938   1.407   6.275   3.939
 7680SOL    HW123939   1.374   6.346   4.001
 7680SOL    HW223940   1.415   6.188   3.988
 7681SOL     OW23941   2.148   1.961   5.579
 7681SOL    HW123942   2.202   2.041   5.553
 7681SOL    HW223943   2.060   1.963   5.531
 7682SOL     OW23944   3.441   0.214   1.933
 7682SOL    HW123945   3.499   0.265   1.996
 7682SOL    HW223946   3.452   0.250   1.840
 7683SOL     OW23947   1.252   4.173   4.456
 7683SOL    HW123948   1.229   4.270   4.449
 7683SOL    HW223949   1.169   4.119   4.444
 7684SOL     OW23950   4.958   3.650   1.466
 7684SOL    HW123951   4.866   3.677   1.494
 7684SOL    HW223952   4.963   3.550   1.465
 7685SOL     OW23953   2.456   0.204   0.288
 7685SOL    HW123954   2.451   0.294   0.246
 7685SOL    HW223955   2.514   0.144   0.233
 7686SOL     OW23956   6.203   0.599   4.402
 7686SOL    HW123957   6.109   0.566   4.393
 7686SOL    HW223958   6.235   0.631   4.313
 7687SOL     OW23959   5.792   3.548   5.686
 7687SOL    HW123960   5.716   3.589   5.635
 7687SOL    HW223961   5.795   3.587   5.778
 7688SOL     OW23962   6.649   3.329   0.708
 7688SOL    HW123963   6.720   3.258   0.705
 7688SOL    HW223964   6.580   3.310   0.638
 7689SOL     OW23965   5.293   0.271   2.908
 7689SOL    HW123966   5.321   0.264   3.004
 7689SOL    HW223967   5.319   0.188   2.860
 7690SOL     OW23968   6.317   4.530   2.508
 7690SOL    HW123969   6.340   4.609   2.563
 7690SOL    HW223970   6.284   4.456   2.567
 7691SOL     OW23971   5.211   2.976   4.302
 7691SOL    HW123972   5.250   3.016   4.385
 7691SOL    HW223973   5.255   3.016   4.222
 7692SOL     OW23974   2.272   6.730   2.400
 7692SOL    HW123975   2.201   6.747   2.332
 7692SOL    HW223976   2.287   6.631   2.409
 7693SOL     OW23977   2.340   2.293   1.138
 7693SOL    HW123978   2.295   2.367   1.089
 7693SOL    HW223979   2.436   2.315   1.151
 7694SOL     OW23980   4.264   2.367   1.238
 7694SOL    HW123981   4.234   2.362   1.143
 7694SOL    HW223982   4.186   2.390   1.297
 7695SOL     OW23983   5.053   6.807   4.493
 7695SOL    HW123984   5.127   6.793   4.559
 7695SOL    HW223985   5.083   6.871   4.422
 7696SOL     OW23986   2.248   1.272   5.676
 7696SOL    HW123987   2.235   1.203   5.604
 7696SOL    HW223988   2.331   1.251   5.727
 7697SOL     OW23989   5.915   0.173   2.924
 7697SOL    HW123990   5.922   0.263   2.968
 7697SOL    HW223991   5.896   0.104   2.994
 7698SOL     OW23992   5.754   2.292   1.476
 7698SOL    HW123993   5.742   2.212   1.418
 7698SOL    HW223994   5.671   2.348   1.474
 7699SOL     OW23995   3.878   6.125   6.370
 7699SOL    HW123996   3.828   6.156   6.289
 7699SOL    HW223997   3.828   6.151   6.453
 7700SOL     OW23998   6.481   5.159   1.857
 7700SOL    HW123999   6.455   5.070   1.894
 7700SOL    HW224000   6.580   5.162   1.843
 7701SOL     OW24001   3.210   1.940   6.525
 7701SOL    HW124002   3.169   1.854   6.494
 7701SOL    HW224003   3.151   2.017   6.498
 7702SOL     OW24004   6.312   5.818   5.857
 7702SOL    HW124005   6.318   5.735   5.913
 7702SOL    HW224006   6.370   5.808   5.776
 7703SOL     OW24007   0.211   6.468   6.735
 7703SOL    HW124008   0.189   6.474   6.832
 7703SOL    HW224009   0.306   6.441   6.724
 7704SOL     OW24010   1.637   2.316   4.955
 7704SOL    HW124011   1.558   2.322   5.016
 7704SOL    HW224012   1.628   2.383   4.881
 7705SOL     OW24013   0.863   4.421   0.353
 7705SOL    HW124014   0.939   4.391   0.412
 7705SOL    HW224015   0.780   4.431   0.408
 7706SOL     OW24016   3.074   3.910   2.009
 7706SOL    HW124017   3.119   3.846   2.071
 7706SOL    HW224018   3.134   3.988   1.993
 7707SOL     OW24019   6.876   5.623   5.601
 7707SOL    HW124020   6.860   5.634   5.504
 7707SOL    HW224021   6.974   5.637   5.620
 7708SOL     OW24022   0.572   0.167   4.011
 7708SOL    HW124023   0.657   0.115   4.000
 7708SOL    HW224024   0.525   0.136   4.094
 7709SOL     OW24025   6.075   4.417   0.861
 7709SOL    HW124026   6.158   4.439   0.912
 7709SOL    HW224027   6.023   4.501   0.845
 7710SOL     OW24028   6.175   3.181   2.670
 7710SOL    HW124029   6.091   3.234   2.684
 7710SOL    HW224030   6.213   3.203   2.580
 7711SOL     OW24031   1.168   4.402   3.310
 7711SOL    HW124032   1.116   4.396   3.226
 7711SOL    HW224033   1.139   4.330   3.373
 7712SOL     OW24034   0.916   4.705   4.330
 7712SOL    HW124035   0.980   4.777   4.301
 7712SOL    HW224036   0.881   4.726   4.421
 7713SOL     OW24037   0.968   5.750   0.278
 7713SOL    HW124038   1.059   5.787   0.256
 7713SOL    HW224039   0.965   5.653   0.255
 7714SOL     OW24040   5.736   1.603   4.816
 7714SOL    HW124041   5.653   1.620   4.764
 7714SOL    HW224042   5.713   1.554   4.900
 7715SOL     OW24043   3.920   3.510   6.516
 7715SOL    HW124044   3.870   3.429   6.484
 7715SOL    HW224045   3.908   3.585   6.452
 7716SOL     OW24046   1.879   1.136   0.000
 7716SOL    HW124047   1.957   1.179   6.979
 7716SOL    HW224048   1.857   1.188   0.083
 7717SOL     OW24049   0.444   1.769   6.156
 7717SOL    HW124050   0.519   1.729   6.208
 7717SOL    HW224051   0.370   1.794   6.219
 7718SOL     OW24052   0.289   3.885   3.362
 7718SOL    HW124053   0.229   3.909   3.286
 7718SOL    HW224054   0.280   3.787   3.382
 7719SOL     OW24055   2.113   6.505   5.175
 7719SOL    HW124056   2.093   6.601   5.153
 7719SOL    HW224057   2.030   6.461   5.209
 7720SOL     OW24058   4.567   1.162   6.482
 7720SOL    HW124059   4.655   1.208   6.487
 7720SOL    HW224060   4.540   1.152   6.386
 7721SOL     OW24061   5.875   5.180   2.585
 7721SOL    HW124062   5.808   5.151   2.653
 7721SOL    HW224063   5.869   5.278   2.571
 7722SOL     OW24064   0.243   5.968   4.623
 7722SOL    HW124065   0.188   5.982   4.706
 7722SOL    HW224066   0.338   5.993   4.641
 7723SOL     OW24067   3.999   4.330   6.663
 7723SOL    HW124068   3.990   4.333   6.564
 7723SOL    HW224069   4.055   4.407   6.693
 7724SOL     OW24070   1.285   4.709   0.332
 7724SOL    HW124071   1.305   4.806   0.348
 7724SOL    HW224072   1.230   4.674   0.408
 7725SOL     OW24073   5.549   3.439   4.750
 7725SOL    HW124074   5.580   3.370   4.684
 7725SOL    HW224075   5.474   3.403   4.804
 7726SOL     OW24076   2.057   3.058   0.771
 7726SOL    HW124077   2.128   2.994   0.799
 7726SOL    HW224078   2.017   3.101   0.852
 7727SOL     OW24079   5.659   0.347   3.480
 7727SOL    HW124080   5.726   0.397   3.535
 7727SOL    HW224081   5.569   0.350   3.526
 7728SOL     OW24082   2.138   3.140   5.699
 7728SOL    HW124083   2.124   3.227   5.651
 7728SOL    HW224084   2.053   3.111   5.742
 7729SOL     OW24085   0.353   1.055   2.718
 7729SOL    HW124086   0.279   0.993   2.745
 7729SOL    HW224087   0.325   1.108   2.638
 7730SOL     OW24088   6.100   3.436   6.439
 7730SOL    HW124089   6.119   3.387   6.354
 7730SOL    HW224090   6.050   3.520   6.419
 7731SOL     OW24091   6.933   0.219   6.187
 7731SOL    HW124092   7.015   0.273   6.207
 7731SOL    HW224093   6.853   0.263   6.228
 7732SOL     OW24094   4.160   1.187   0.124
 7732SOL    HW124095   4.237   1.231   0.077
 7732SOL    HW224096   4.081   1.184   0.063
 7733SOL     OW24097   5.523   6.444   1.608
 7733SOL    HW124098   5.424   6.458   1.610
 7733SOL    HW224099   5.565   6.495   1.684
 7734SOL     OW24100   3.927   3.732   3.339
 7734SOL    HW124101   3.905   3.829   3.329
 7734SOL    HW224102   3.854   3.685   3.389
 7735SOL     OW24103   0.647   5.772   0.790
 7735SOL    HW124104   0.612   5.807   0.702
 7735SOL    HW224105   0.612   5.829   0.864
 7736SOL     OW24106   1.818   1.588   0.954
 7736SOL    HW124107   1.829   1.648   0.875
 7736SOL    HW224108   1.757   1.632   1.021
 7737SOL     OW24109   4.822   4.803   6.784
 7737SOL    HW124110   4.859   4.737   6.719
 7737SOL    HW224111   4.785   4.755   6.863
 7738SOL     OW24112   1.458   0.994   5.802
 7738SOL    HW124113   1.366   0.961   5.784
 7738SOL    HW224114   1.484   1.061   5.732
 7739SOL     OW24115   0.911   3.007   6.266
 7739SOL    HW124116   0.813   3.007   6.248
 7739SOL    HW224117   0.960   3.034   6.183
 7740SOL     OW24118   2.321   0.844   4.128
 7740SOL    HW124119   2.399   0.874   4.072
 7740SOL    HW224120   2.353   0.824   4.220
 7741SOL     OW24121   6.387   4.557   5.912
 7741SOL    HW124122   6.477   4.526   5.943
 7741SOL    HW224123   6.392   4.653   5.885
 7742SOL     OW24124   4.680   2.794   3.886
 7742SOL    HW124125   4.640   2.714   3.930
 7742SOL    HW224126   4.683   2.779   3.787
 7743SOL     OW24127   3.376   1.210   5.852
 7743SOL    HW124128   3.393   1.288   5.792
 7743SOL    HW224129   3.457   1.151   5.854
 7744SOL     OW24130   0.027   6.487   4.668
 7744SOL    HW124131   6.962   6.455   4.699
 7744SOL    HW224132   0.099   6.443   4.721
 7745SOL     OW24133   2.745   0.178   0.611
 7745SOL    HW124134   2.645   0.184   0.614
 7745SOL    HW224135   2.773   0.089   0.649
 7746SOL     OW24136   7.010   6.124   0.912
 7746SOL    HW124137   7.007   6.065   0.993
 7746SOL    HW224138   6.927   6.111   0.858
 7747SOL     OW24139   0.028   5.980   1.133
 7747SOL    HW124140   0.122   5.994   1.104
 7747SOL    HW224141   0.024   5.907   1.201
 7748SOL     OW24142   4.637   0.863   5.679
 7748SOL    HW124143   4.557   0.908   5.719
 7748SOL    HW224144   4.706   0.847   5.750
 7749SOL     OW24145   3.158   3.505   2.710
 7749SOL    HW124146   3.198   3.466   2.626
 7749SOL    HW224147   3.231   3.539   2.769
 7750SOL     OW24148   5.375   4.182   6.268
 7750SOL    HW124149   5.382   4.268   6.318
 7750SOL    HW224150   5.350   4.109   6.331
 7751SOL     OW24151   0.590   1.294   4.736
 7751SOL    HW124152   0.544   1.206   4.751
 7751SOL    HW224153   0.531   1.353   4.681
 7752SOL     OW24154   5.644   4.072   6.307
 7752SOL    HW124155   5.559   4.113   6.274
 7752SOL    HW224156   5.628   3.977   6.332
 7753SOL     OW24157   2.790   0.957   5.023
 7753SOL    HW124158   2.768   1.044   4.978
 7753SOL    HW224159   2.827   0.976   5.114
 7754SOL     OW24160   6.448   1.297   0.753
 7754SOL    HW124161   6.520   1.364   0.772
 7754SOL    HW224162   6.457   1.220   0.817
 7755SOL     OW24163   1.583   6.320   5.361
 7755SOL    HW124164   1.601   6.243   5.422
 7755SOL    HW224165   1.486   6.320   5.336
 7756SOL     OW24166   3.619   6.709   2.838
 7756SOL    HW124167   3.611   6.610   2.825
 7756SOL    HW224168   3.533   6.753   2.813
 7757SOL     OW24169   3.370   1.396   5.620
 7757SOL    HW124170   3.280   1.354   5.607
 7757SOL    HW224171   3.414   1.409   5.531
 7758SOL     OW24172   2.670   1.571   6.216
 7758SOL    HW124173   2.623   1.622   6.144
 7758SOL    HW224174   2.603   1.531   6.278
 7759SOL     OW24175   2.537   0.245   4.450
 7759SOL    HW124176   2.460   0.278   4.396
 7759SOL    HW224177   2.503   0.194   4.529
 7760SOL     OW24178   5.098   1.632   2.696
 7760SOL    HW124179   5.040   1.683   2.632
 7760SOL    HW224180   5.168   1.694   2.733
 7761SOL     OW24181   4.726   0.964   0.221
 7761SOL    HW124182   4.644   0.942   0.168
 7761SOL    HW224183   4.787   0.885   0.223
 7762SOL     OW24184   1.743   1.968   0.297
 7762SOL    HW124185   1.748   1.928   0.388
 7762SOL    HW224186   1.659   1.936   0.252
 7763SOL     OW24187   2.240   2.638   0.805
 7763SOL    HW124188   2.299   2.710   0.841
 7763SOL    HW224189   2.281   2.598   0.724
 7764SOL     OW24190   3.394   3.341   1.859
 7764SOL    HW124191   3.325   3.316   1.926
 7764SOL    HW224192   3.427   3.258   1.813
 7765SOL     OW24193   6.970   1.473   1.995
 7765SOL    HW124194   0.005   1.393   1.987
 7765SOL    HW224195   6.887   1.447   2.044
 7766SOL     OW24196   6.772   3.252   0.303
 7766SOL    HW124197   6.687   3.296   0.332
 7766SOL    HW224198   6.787   3.170   0.358
 7767SOL     OW24199   6.076   3.864   5.070
 7767SOL    HW124200   5.981   3.895   5.070
 7767SOL    HW224201   6.100   3.829   4.979
 7768SOL     OW24202   3.769   5.173   1.570
 7768SOL    HW124203   3.771   5.079   1.606
 7768SOL    HW224204   3.856   5.218   1.589
 7769SOL     OW24205   4.769   1.982   3.515
 7769SOL    HW124206   4.836   2.049   3.484
 7769SOL    HW224207   4.781   1.964   3.613
 7770SOL     OW24208   3.059   6.380   1.545
 7770SOL    HW124209   3.148   6.370   1.500
 7770SOL    HW224210   3.061   6.334   1.634
 7771SOL     OW24211   2.381   0.723   4.369
 7771SOL    HW124212   2.449   0.652   4.382
 7771SOL    HW224213   2.322   0.728   4.451
 7772SOL     OW24214   5.462   0.834   5.550
 7772SOL    HW124215   5.538   0.899   5.541
 7772SOL    HW224216   5.478   0.774   5.629
 7773SOL     OW24217   4.423   4.388   6.165
 7773SOL    HW124218   4.431   4.372   6.067
 7773SOL    HW224219   4.386   4.307   6.210
 7774SOL     OW24220   4.320   1.461   0.181
 7774SOL    HW124221   4.370   1.488   0.099
 7774SOL    HW224222   4.340   1.365   0.202
 7775SOL     OW24223   1.581   6.350   1.983
 7775SOL    HW124224   1.500   6.388   2.026
 7775SOL    HW224225   1.646   6.321   2.054
 7776SOL     OW24226   2.915   4.410   0.800
 7776SOL    HW124227   2.983   4.356   0.849
 7776SOL    HW224228   2.896   4.494   0.850
 7777SOL     OW24229   0.428   0.349   6.645
 7777SOL    HW124230   0.488   0.305   6.712
 7777SOL    HW224231   0.412   0.286   6.569
 7778SOL     OW24232   5.237   2.456   2.070
 7778SOL    HW124233   5.246   2.366   2.029
 7778SOL    HW224234   5.220   2.524   1.998
 7779SOL     OW24235   4.212   3.127   0.420
 7779SOL    HW124236   4.118   3.163   0.418
 7779SOL    HW224237   4.242   3.118   0.515
 7780SOL     OW24238   1.776   0.292   3.937
 7780SOL    HW124239   1.684   0.327   3.960
 7780SOL    HW224240   1.830   0.284   4.021
 7781SOL     OW24241   1.918   4.168   5.551
 7781SOL    HW124242   1.823   4.152   5.580
 7781SOL    HW224243   1.927   4.263   5.519
 7782SOL     OW24244   4.770   4.788   0.283
 7782SOL    HW124245   4.843   4.850   0.308
 7782SOL    HW224246   4.731   4.816   0.195
 7783SOL     OW24247   3.226   6.033   6.673
 7783SOL    HW124248   3.295   6.103   6.654
 7783SOL    HW224249   3.172   6.061   6.753
 7784SOL     OW24250   6.249   3.487   0.227
 7784SOL    HW124251   6.240   3.388   0.218
 7784SOL    HW224252   6.343   3.514   0.207
 7785SOL     OW24253   1.297   6.281   5.974
 7785SOL    HW124254   1.350   6.303   6.057
 7785SOL    HW224255   1.304   6.357   5.909
 7786SOL     OW24256   3.652   4.289   5.130
 7786SOL    HW124257   3.643   4.203   5.180
 7786SOL    HW224258   3.652   4.271   5.031
 7787SOL     OW24259   3.084   1.990   5.424
 7787SOL    HW124260   2.995   1.945   5.433
 7787SOL    HW224261   3.116   1.982   5.330
 7788SOL     OW24262   6.621   2.765   1.068
 7788SOL    HW124263   6.610   2.853   1.022
 7788SOL    HW224264   6.646   2.781   1.164
 7789SOL     OW24265   1.051   0.277   1.912
 7789SOL    HW124266   1.148   0.256   1.923
 7789SOL    HW224267   0.997   0.198   1.940
 7790SOL     OW24268   7.007   3.809   2.381
 7790SOL    HW124269   6.916   3.780   2.410
 7790SOL    HW224270   6.999   3.874   2.306
 7791SOL     OW24271   6.615   5.584   5.700
 7791SOL    HW124272   6.697   5.612   5.651
 7791SOL    HW224273   6.552   5.538   5.638
 7792SOL     OW24274   1.885   6.018   6.313
 7792SOL    HW124275   1.888   6.107   6.359
 7792SOL    HW224276   1.794   5.978   6.323
 7793SOL     OW24277   2.477   0.748   6.360
 7793SOL    HW124278   2.520   0.820   6.305
 7793SOL    HW224279   2.409   0.789   6.421
 7794SOL     OW24280   4.900   4.946   2.677
 7794SOL    HW124281   4.834   4.998   2.732
 7794SOL    HW224282   4.977   4.919   2.735
 7795SOL     OW24283   1.655   3.918   6.341
 7795SOL    HW124284   1.754   3.926   6.353
 7795SOL    HW224285   1.620   4.002   6.302
 7796SOL     OW24286   4.028   3.582   4.139
 7796SOL    HW124287   4.066   3.629   4.059
 7796SOL    HW224288   3.953   3.636   4.177
 7797SOL     OW24289   1.015   6.041   3.854
 7797SOL    HW124290   1.050   6.081   3.769
 7797SOL    HW224291   0.932   6.090   3.882
 7798SOL     OW24292   4.964   5.176   6.076
 7798SOL    HW124293   4.895   5.114   6.037
 7798SOL    HW224294   4.963   5.263   6.027
 7799SOL     OW24295   6.156   5.564   1.350
 7799SOL    HW124296   6.179   5.644   1.405
 7799SOL    HW224297   6.116   5.494   1.408
 7800SOL     OW24298   0.466   5.955   2.476
 7800SOL    HW124299   0.514   5.972   2.562
 7800SOL    HW224300   0.513   6.005   2.403
 7801SOL     OW24301   4.524   2.495   5.380
 7801SOL    HW124302   4.530   2.473   5.478
 7801SOL    HW224303   4.609   2.467   5.335
 7802SOL     OW24304   5.918   2.326   6.757
 7802SOL    HW124305   5.872   2.320   6.668
 7802SOL    HW224306   5.952   2.235   6.783
 7803SOL     OW24307   2.968   3.471   5.996
 7803SOL    HW124308   3.058   3.429   6.003
 7803SOL    HW224309   2.901   3.415   6.045
 7804SOL     OW24310   5.043   0.927   5.959
 7804SOL    HW124311   5.128   0.972   5.987
 7804SOL    HW224312   4.973   0.996   5.941
 7805SOL     OW24313   5.929   3.250   1.584
 7805SOL    HW124314   5.951   3.262   1.680
 7805SOL    HW224315   5.842   3.202   1.575
 7806SOL     OW24316   5.244   2.451   0.622
 7806SOL    HW124317   5.151   2.424   0.599
 7806SOL    HW224318   5.308   2.383   0.585
 7807SOL     OW24319   0.532   3.870   6.845
 7807SOL    HW124320   0.623   3.900   6.818
 7807SOL    HW224321   0.522   3.880   6.944
 7808SOL     OW24322   0.175   1.430   4.899
 7808SOL    HW124323   0.252   1.470   4.849
 7808SOL    HW224324   0.124   1.370   4.838
 7809SOL     OW24325   0.978   5.605   5.717
 7809SOL    HW124326   0.893   5.600   5.770
 7809SOL    HW224327   0.976   5.537   5.644
 7810SOL     OW24328   3.336   1.244   6.812
 7810SOL    HW124329   3.370   1.269   6.903
 7810SOL    HW224330   3.340   1.324   6.752
 7811SOL     OW24331   6.331   4.499   5.218
 7811SOL    HW124332   6.251   4.536   5.170
 7811SOL    HW224333   6.377   4.432   5.159
 7812SOL     OW24334   0.544   2.145   3.792
 7812SOL    HW124335   0.592   2.066   3.754
 7812SOL    HW224336   0.517   2.206   3.718
 7813SOL     OW24337   5.774   1.269   1.286
 7813SOL    HW124338   5.743   1.316   1.203
 7813SOL    HW224339   5.870   1.290   1.301
 7814SOL     OW24340   1.883   2.875   3.713
 7814SOL    HW124341   1.838   2.949   3.664
 7814SOL    HW224342   1.873   2.889   3.811
 7815SOL     OW24343   6.879   2.095   5.248
 7815SOL    HW124344   6.956   2.156   5.266
 7815SOL    HW224345   6.885   2.014   5.306
 7816SOL     OW24346   0.240   4.402   4.914
 7816SOL    HW124347   0.184   4.321   4.929
 7816SOL    HW224348   0.182   4.479   4.887
 7817SOL     OW24349   5.503   3.044   5.654
 7817SOL    HW124350   5.412   3.075   5.629
 7817SOL    HW224351   5.522   2.956   5.610
 7818SOL     OW24352   5.782   2.658   3.642
 7818SOL    HW124353   5.751   2.565   3.627
 7818SOL    HW224354   5.813   2.697   3.555
 7819SOL     OW24355   1.032   0.967   0.829
 7819SOL    HW124356   1.109   0.933   0.883
 7819SOL    HW224357   0.947   0.950   0.879
 7820SOL     OW24358   3.073   6.561   6.076
 7820SOL    HW124359   2.975   6.582   6.071
 7820SOL    HW224360   3.125   6.629   6.024
 7821SOL     OW24361   3.397   6.301   0.977
 7821SOL    HW124362   3.323   6.329   0.915
 7821SOL    HW224363   3.378   6.335   1.069
 7822SOL     OW24364   0.873   6.466   5.345
 7822SOL    HW124365   0.833   6.557   5.343
 7822SOL    HW224366   0.822   6.406   5.283
 7823SOL     OW24367   2.135   3.310   5.472
 7823SOL    HW124368   2.197   3.280   5.400
 7823SOL    HW224369   2.100   3.401   5.451
 7824SOL     OW24370   0.785   3.424   5.741
 7824SOL    HW124371   0.778   3.451   5.837
 7824SOL    HW224372   0.727   3.483   5.685
 7825SOL     OW24373   2.195   1.087   0.102
 7825SOL    HW124374   2.113   1.071   0.047
 7825SOL    HW224375   2.273   1.106   0.041
 7826SOL     OW24376   0.514   4.106   6.016
 7826SOL    HW124377   0.415   4.093   6.010
 7826SOL    HW224378   0.556   4.081   5.928
 7827SOL     OW24379   6.042   5.250   3.632
 7827SOL    HW124380   6.041   5.192   3.714
 7827SOL    HW224381   5.958   5.234   3.580
 7828SOL     OW24382   1.036   6.045   5.775
 7828SOL    HW124383   1.123   6.053   5.824
 7828SOL    HW224384   0.961   6.077   5.833
 7829SOL     OW24385   4.767   4.829   0.698
 7829SOL    HW124386   4.700   4.839   0.624
 7829SOL    HW224387   4.859   4.830   0.659
 7830SOL     OW24388   2.071   5.146   4.502
 7830SOL    HW124389   2.022   5.205   4.438
 7830SOL    HW224390   2.006   5.104   4.565
 7831SOL     OW24391   1.761   0.369   6.378
 7831SOL    HW124392   1.754   0.468   6.376
 7831SOL    HW224393   1.759   0.337   6.472
 7832SOL     OW24394   0.218   0.971   5.125
 7832SOL    HW124395   0.165   1.051   5.096
 7832SOL    HW224396   0.223   0.905   5.050
 7833SOL     OW24397   0.693   0.117   2.763
 7833SOL    HW124398   0.727   0.166   2.843
 7833SOL    HW224399   0.650   0.032   2.792
 7834SOL     OW24400   0.436   3.460   5.343
 7834SOL    HW124401   0.404   3.519   5.269
 7834SOL    HW224402   0.529   3.487   5.368
 7835SOL     OW24403   3.065   2.880   5.537
 7835SOL    HW124404   3.158   2.862   5.506
 7835SOL    HW224405   3.016   2.794   5.546
 7836SOL     OW24406   2.854   3.709   4.869
 7836SOL    HW124407   2.869   3.672   4.960
 7836SOL    HW224408   2.855   3.634   4.802
 7837SOL     OW24409   0.805   5.496   6.809
 7837SOL    HW124410   0.826   5.423   6.875
 7837SOL    HW224411   0.818   5.585   6.853
 7838SOL     OW24412   4.189   4.849   1.023
 7838SOL    HW124413   4.115   4.805   0.972
 7838SOL    HW224414   4.197   4.806   1.113
 7839SOL     OW24415   6.139   3.643   4.604
 7839SOL    HW124416   6.176   3.550   4.601
 7839SOL    HW224417   6.076   3.655   4.527
 7840SOL     OW24418   2.257   2.030   3.239
 7840SOL    HW124419   2.265   2.119   3.194
 7840SOL    HW224420   2.316   1.964   3.192
 7841SOL     OW24421   4.702   1.954   5.660
 7841SOL    HW124422   4.725   1.970   5.756
 7841SOL    HW224423   4.669   1.860   5.649
 7842SOL     OW24424   0.954   0.250   0.971
 7842SOL    HW124425   1.036   0.307   0.976
 7842SOL    HW224426   0.936   0.225   0.876
 7843SOL     OW24427   6.848   6.321   2.077
 7843SOL    HW124428   6.879   6.227   2.069
 7843SOL    HW224429   6.902   6.368   2.148
 7844SOL     OW24430   3.480   0.191   2.255
 7844SOL    HW124431   3.387   0.157   2.239
 7844SOL    HW224432   3.546   0.120   2.231
 7845SOL     OW24433   6.840   3.450   1.825
 7845SOL    HW124434   6.771   3.445   1.753
 7845SOL    HW224435   6.874   3.544   1.832
 7846SOL     OW24436   0.818   2.070   0.423
 7846SOL    HW124437   0.778   1.992   0.471
 7846SOL    HW224438   0.859   2.040   0.338
 7847SOL     OW24439   5.700   3.889   5.818
 7847SOL    HW124440   5.657   3.898   5.908
 7847SOL    HW224441   5.781   3.830   5.826
 7848SOL     OW24442   5.109   4.952   0.290
 7848SOL    HW124443   5.058   5.001   0.219
 7848SOL    HW224444   5.206   4.976   0.284
 7849SOL     OW24445   4.650   5.191   6.623
 7849SOL    HW124446   4.690   5.220   6.536
 7849SOL    HW224447   4.629   5.093   6.620
 7850SOL     OW24448   6.741   0.679   3.575
 7850SOL    HW124449   6.823   0.652   3.625
 7850SOL    HW224450   6.681   0.599   3.565
 7851SOL     OW24451   0.414   4.079   0.503
 7851SOL    HW124452   0.438   4.167   0.543
 7851SOL    HW224453   0.407   4.087   0.404
 7852SOL     OW24454   1.534   3.475   5.676
 7852SOL    HW124455   1.587   3.426   5.746
 7852SOL    HW224456   1.546   3.430   5.588
 7853SOL     OW24457   4.384   3.093   1.684
 7853SOL    HW124458   4.324   3.014   1.679
 7853SOL    HW224459   4.449   3.081   1.759
 7854SOL     OW24460   3.926   1.163   1.366
 7854SOL    HW124461   3.833   1.181   1.332
 7854SOL    HW224462   3.985   1.137   1.289
 7855SOL     OW24463   5.024   6.441   3.589
 7855SOL    HW124464   5.078   6.425   3.507
 7855SOL    HW224465   4.927   6.426   3.569
 7856SOL     OW24466   2.005   6.571   6.804
 7856SOL    HW124467   1.923   6.576   6.862
 7856SOL    HW224468   1.997   6.492   6.743
 7857SOL     OW24469   6.835   5.209   0.439
 7857SOL    HW124470   6.761   5.145   0.458
 7857SOL    HW224471   6.921   5.159   0.429
 7858SOL     OW24472   0.437   4.343   6.469
 7858SOL    HW124473   0.376   4.397   6.527
 7858SOL    HW224474   0.393   4.255   6.448
 7859SOL     OW24475   4.804   2.282   1.857
 7859SOL    HW124476   4.869   2.316   1.788
 7859SOL    HW224477   4.777   2.189   1.833
 7860SOL     OW24478   2.480   1.634   2.927
 7860SOL    HW124479   2.557   1.696   2.916
 7860SOL    HW224480   2.511   1.549   2.968
 7861SOL     OW24481   1.982   5.872   0.422
 7861SOL    HW124482   1.986   5.775   0.397
 7861SOL    HW224483   1.888   5.904   0.415
 7862SOL     OW24484   1.141   6.781   6.499
 7862SOL    HW124485   1.206   6.818   6.433
 7862SOL    HW224486   1.070   6.730   6.451
 7863SOL     OW24487   0.422   4.203   3.866
 7863SOL    HW124488   0.432   4.119   3.814
 7863SOL    HW224489   0.375   4.272   3.811
 7864SOL     OW24490   3.180   5.251   4.673
 7864SOL    HW124491   3.179   5.336   4.621
 7864SOL    HW224492   3.106   5.253   4.741
 7865SOL     OW24493   6.487   5.711   3.411
 7865SOL    HW124494   6.478   5.651   3.332
 7865SOL    HW224495   6.521   5.659   3.489
 7866SOL     OW24496   0.981   1.064   5.496
 7866SOL    HW124497   0.935   1.056   5.585
 7866SOL    HW224498   1.008   0.973   5.464
 7867SOL     OW24499   4.882   5.966   2.905
 7867SOL    HW124500   4.833   6.045   2.942
 7867SOL    HW224501   4.979   5.989   2.894
 7868SOL     OW24502   4.330   6.288   1.509
 7868SOL    HW124503   4.292   6.352   1.576
 7868SOL    HW224504   4.319   6.326   1.417
 7869SOL     OW24505   5.784   5.308   0.428
 7869SOL    HW124506   5.827   5.397   0.439
 7869SOL    HW224507   5.709   5.298   0.494
 7870SOL     OW24508   6.572   0.437   3.513
 7870SOL    HW124509   6.500   0.503   3.491
 7870SOL    HW224510   6.569   0.361   3.448
 7871SOL     OW24511   4.307   0.521   0.624
 7871SOL    HW124512   4.263   0.565   0.701
 7871SOL    HW224513   4.382   0.579   0.590
 7872SOL     OW24514   6.696   5.299   4.283
 7872SOL    HW124515   6.690   5.201   4.302
 7872SOL    HW224516   6.723   5.313   4.187
 7873SOL     OW24517   4.804   2.354   6.415
 7873SOL    HW124518   4.840   2.400   6.497
 7873SOL    HW224519   4.715   2.313   6.436
 7874SOL     OW24520   6.050   2.290   0.418
 7874SOL    HW124521   6.074   2.276   0.514
 7874SOL    HW224522   5.951   2.301   0.410
 7875SOL     OW24523   6.661   4.922   0.175
 7875SOL    HW124524   6.570   4.939   0.138
 7875SOL    HW224525   6.721   4.888   0.102
 7876SOL     OW24526   1.155   6.735   2.674
 7876SOL    HW124527   1.189   6.740   2.767
 7876SOL    HW224528   1.080   6.669   2.669
 7877SOL     OW24529   0.818   3.237   2.016
 7877SOL    HW124530   0.834   3.157   1.958
 7877SOL    HW224531   0.758   3.301   1.968
 7878SOL     OW24532   3.907   0.506   2.362
 7878SOL    HW124533   3.965   0.554   2.296
 7878SOL    HW224534   3.958   0.429   2.401
 7879SOL     OW24535   2.480   6.099   1.830
 7879SOL    HW124536   2.472   6.161   1.908
 7879SOL    HW224537   2.417   6.129   1.758
 7880SOL     OW24538   1.355   5.182   2.659
 7880SOL    HW124539   1.304   5.266   2.677
 7880SOL    HW224540   1.345   5.157   2.562
 7881SOL     OW24541   4.846   3.018   2.869
 7881SOL    HW124542   4.818   2.964   2.790
 7881SOL    HW224543   4.908   2.964   2.926
 7882SOL     OW24544   6.845   2.485   0.142
 7882SOL    HW124545   6.862   2.520   0.050
 7882SOL    HW224546   6.777   2.412   0.137
 7883SOL     OW24547   0.278   7.000   4.871
 7883SOL    HW124548   0.295   0.058   4.816
 7883SOL    HW224549   0.208   6.944   4.828
 7884SOL     OW24550   1.535   2.907   4.067
 7884SOL    HW124551   1.469   2.956   4.124
 7884SOL    HW224552   1.560   2.964   3.989
 7885SOL     OW24553   6.587   6.107   6.817
 7885SOL    HW124554   6.556   6.095   6.723
 7885SOL    HW224555   6.558   6.029   6.872
 7886SOL     OW24556   4.874   4.118   0.443
 7886SOL    HW124557   4.881   4.021   0.418
 7886SOL    HW224558   4.784   4.136   0.482
 7887SOL     OW24559   4.711   2.090   6.674
 7887SOL    HW124560   4.644   2.142   6.621
 7887SOL    HW224561   4.666   2.013   6.719
 7888SOL     OW24562   4.284   5.644   4.069
 7888SOL    HW124563   4.249   5.727   4.027
 7888SOL    HW224564   4.357   5.606   4.012
 7889SOL     OW24565   6.314   4.480   3.907
 7889SOL    HW124566   6.402   4.523   3.924
 7889SOL    HW224567   6.240   4.545   3.926
 7890SOL     OW24568   2.195   3.913   3.022
 7890SOL    HW124569   2.189   3.814   3.032
 7890SOL    HW224570   2.153   3.940   2.935
 7891SOL     OW24571   0.176   4.181   2.658
 7891SOL    HW124572   0.155   4.229   2.743
 7891SOL    HW224573   0.256   4.222   2.615
 7892SOL     OW24574   2.338   2.435   4.371
 7892SOL    HW124575   2.339   2.436   4.271
 7892SOL    HW224576   2.370   2.346   4.404
 7893SOL     OW24577   5.324   6.207   1.359
 7893SOL    HW124578   5.259   6.143   1.399
 7893SOL    HW224579   5.407   6.210   1.416
 7894SOL     OW24580   2.964   0.288   1.310
 7894SOL    HW124581   2.987   0.201   1.354
 7894SOL    HW224582   2.883   0.326   1.352
 7895SOL     OW24583   1.061   1.650   4.140
 7895SOL    HW124584   1.108   1.654   4.228
 7895SOL    HW224585   0.969   1.613   4.153
 7896SOL     OW24586   3.941   2.466   6.572
 7896SOL    HW124587   3.841   2.468   6.568
 7896SOL    HW224588   3.977   2.554   6.540
 7897SOL     OW24589   3.308   3.424   0.647
 7897SOL    HW124590   3.310   3.390   0.554
 7897SOL    HW224591   3.379   3.378   0.701
 7898SOL     OW24592   4.965   1.234   4.630
 7898SOL    HW124593   4.941   1.225   4.533
 7898SOL    HW224594   4.912   1.309   4.671
 7899SOL     OW24595   4.502   0.893   1.556
 7899SOL    HW124596   4.430   0.889   1.625
 7899SOL    HW224597   4.571   0.960   1.584
 7900SOL     OW24598   0.316   5.528   1.417
 7900SOL    HW124599   0.392   5.593   1.411
 7900SOL    HW224600   0.257   5.551   1.494
 7901SOL     OW24601   5.899   4.711   0.921
 7901SOL    HW124602   5.861   4.744   0.835
 7901SOL    HW224603   5.933   4.789   0.975
 7902SOL     OW24604   4.827   4.893   6.335
 7902SOL    HW124605   4.855   4.800   6.316
 7902SOL    HW224606   4.749   4.917   6.278
 7903SOL     OW24607   0.548   2.696   2.015
 7903SOL    HW124608   0.559   2.698   2.114
 7903SOL    HW224609   0.513   2.784   1.984
 7904SOL     OW24610   5.236   1.681   3.383
 7904SOL    HW124611   5.322   1.637   3.407
 7904SOL    HW224612   5.163   1.612   3.383
 7905SOL     OW24613   2.212   2.103   1.832
 7905SOL    HW124614   2.287   2.073   1.773
 7905SOL    HW224615   2.216   2.054   1.919
 7906SOL     OW24616   1.786   4.568   0.076
 7906SOL    HW124617   1.774   4.538   7.006
 7906SOL    HW224618   1.712   4.630   0.101
 7907SOL     OW24619   0.588   2.487   2.614
 7907SOL    HW124620   0.647   2.516   2.690
 7907SOL    HW224621   0.493   2.487   2.644
 7908SOL     OW24622   0.427   1.237   3.175
 7908SOL    HW124623   0.494   1.201   3.110
 7908SOL    HW224624   0.376   1.312   3.132
 7909SOL     OW24625   3.962   6.224   5.291
 7909SOL    HW124626   3.899   6.282   5.342
 7909SOL    HW224627   3.942   6.229   5.193
 7910SOL     OW24628   6.144   3.234   6.180
 7910SOL    HW124629   6.125   3.179   6.261
 7910SOL    HW224630   6.240   3.263   6.182
 7911SOL     OW24631   6.880   6.028   6.106
 7911SOL    HW124632   6.841   6.112   6.071
 7911SOL    HW224633   6.917   5.973   6.030
 7912SOL     OW24634   0.114   5.622   4.887
 7912SOL    HW124635   0.095   5.637   4.790
 7912SOL    HW224636   0.122   5.524   4.904
 7913SOL     OW24637   1.957   6.357   6.648
 7913SOL    HW124638   1.988   6.276   6.697
 7913SOL    HW224639   1.965   6.342   6.550
 7914SOL     OW24640   5.934   4.541   0.608
 7914SOL    HW124641   5.890   4.625   0.639
 7914SOL    HW224642   6.026   4.536   0.646
 7915SOL     OW24643   2.793   1.462   2.822
 7915SOL    HW124644   2.729   1.421   2.887
 7915SOL    HW224645   2.784   1.561   2.824
 7916SOL     OW24646   3.897   3.475   4.990
 7916SOL    HW124647   3.962   3.404   4.966
 7916SOL    HW224648   3.804   3.441   4.975
 7917SOL     OW24649   3.858   3.991   3.337
 7917SOL    HW124650   3.793   4.028   3.404
 7917SOL    HW224651   3.927   4.060   3.318
 7918SOL     OW24652   6.300   1.855   1.741
 7918SOL    HW124653   6.282   1.779   1.804
 7918SOL    HW224654   6.259   1.939   1.776
 7919SOL     OW24655   5.540   3.808   2.702
 7919SOL    HW124656   5.618   3.767   2.749
 7919SOL    HW224657   5.494   3.872   2.764
 7920SOL     OW24658   6.905   6.513   0.773
 7920SOL    HW124659   6.819   6.509   0.723
 7920SOL    HW224660   6.903   6.448   0.849
 7921SOL     OW24661   3.435   4.882   2.216
 7921SOL    HW124662   3.481   4.848   2.134
 7921SOL    HW224663   3.501   4.888   2.291
 7922SOL     OW24664   0.782   3.930   4.385
 7922SOL    HW124665   0.798   3.924   4.287
 7922SOL    HW224666   0.788   3.838   4.425
 7923SOL     OW24667   1.839   2.978   2.891
 7923SOL    HW124668   1.935   3.004   2.901
 7923SOL    HW224669   1.821   2.951   2.796
 7924SOL     OW24670   2.497   1.683   3.393
 7924SOL    HW124671   2.467   1.667   3.487
 7924SOL    HW224672   2.597   1.691   3.391
 7925SOL     OW24673   1.350   1.355   0.140
 7925SOL    HW124674   1.372   1.450   0.117
 7925SOL    HW224675   1.257   1.334   0.109
 7926SOL     OW24676   3.348   0.976   1.808
 7926SOL    HW124677   3.321   1.007   1.899
 7926SOL    HW224678   3.377   1.054   1.753
 7927SOL     OW24679   4.580   5.724   4.493
 7927SOL    HW124680   4.630   5.674   4.564
 7927SOL    HW224681   4.513   5.664   4.450
 7928SOL     OW24682   0.660   3.748   1.126
 7928SOL    HW124683   0.602   3.771   1.048
 7928SOL    HW224684   0.724   3.823   1.143
 7929SOL     OW24685   3.484   4.093   4.921
 7929SOL    HW124686   3.514   4.123   4.830
 7929SOL    HW224687   3.485   3.993   4.926
 7930SOL     OW24688   3.693   0.032   2.133
 7930SOL    HW124689   3.624   6.988   2.155
 7930SOL    HW224690   3.779   7.011   2.109
 7931SOL     OW24691   2.623   3.158   5.676
 7931SOL    HW124692   2.649   3.253   5.661
 7931SOL    HW224693   2.693   3.098   5.638
 7932SOL     OW24694   3.259   1.647   0.723
 7932SOL    HW124695   3.351   1.681   0.740
 7932SOL    HW224696   3.192   1.710   0.762
 7933SOL     OW24697   1.829   1.036   6.188
 7933SOL    HW124698   1.798   1.083   6.105
 7933SOL    HW224699   1.761   1.047   6.260
 7934SOL     OW24700   4.605   2.262   6.117
 7934SOL    HW124701   4.522   2.256   6.173
 7934SOL    HW224702   4.600   2.344   6.060
 7935SOL     OW24703   4.905   5.289   2.301
 7935SOL    HW124704   4.974   5.286   2.228
 7935SOL    HW224705   4.903   5.200   2.347
 7936SOL     OW24706   4.391   6.102   2.078
 7936SOL    HW124707   4.417   6.031   2.143
 7936SOL    HW224708   4.295   6.125   2.091
 7937SOL     OW24709   5.570   1.590   6.109
 7937SOL    HW124710   5.629   1.542   6.174
 7937SOL    HW224711   5.619   1.602   6.022
 7938SOL     OW24712   6.187   4.965   4.178
 7938SOL    HW124713   6.257   4.992   4.112
 7938SOL    HW224714   6.097   4.967   4.133
 7939SOL     OW24715   6.372   6.231   3.753
 7939SOL    HW124716   6.374   6.141   3.710
 7939SOL    HW224717   6.351   6.222   3.850
 7940SOL     OW24718   2.023   6.166   0.344
 7940SOL    HW124719   1.932   6.149   0.382
 7940SOL    HW224720   2.035   6.112   0.261
 7941SOL     OW24721   1.439   0.596   0.971
 7941SOL    HW124722   1.501   0.674   0.962
 7941SOL    HW224723   1.362   0.609   0.908
 7942SOL     OW24724   0.957   6.637   1.075
 7942SOL    HW124725   1.016   6.690   1.136
 7942SOL    HW224726   0.874   6.689   1.056
 7943SOL     OW24727   6.090   2.057   6.303
 7943SOL    HW124728   6.030   2.002   6.244
 7943SOL    HW224729   6.163   2.097   6.247
 7944SOL     OW24730   6.407   4.145   2.204
 7944SOL    HW124731   6.418   4.156   2.105
 7944SOL    HW224732   6.492   4.170   2.250
 7945SOL     OW24733   5.696   6.503   0.488
 7945SOL    HW124734   5.685   6.496   0.587
 7945SOL    HW224735   5.766   6.438   0.458
 7946SOL     OW24736   2.281   1.421   5.293
 7946SOL    HW124737   2.191   1.403   5.332
 7946SOL    HW224738   2.295   1.520   5.287
 7947SOL     OW24739   4.247   5.427   6.452
 7947SOL    HW124740   4.319   5.401   6.516
 7947SOL    HW224741   4.191   5.346   6.430
 7948SOL     OW24742   1.293   4.967   4.745
 7948SOL    HW124743   1.267   4.988   4.651
 7948SOL    HW224744   1.233   5.016   4.808
 7949SOL     OW24745   6.590   3.377   4.381
 7949SOL    HW124746   6.550   3.442   4.446
 7949SOL    HW224747   6.530   3.370   4.301
 7950SOL     OW24748   2.738   5.714   3.726
 7950SOL    HW124749   2.805   5.787   3.711
 7950SOL    HW224750   2.646   5.750   3.720
 7951SOL     OW24751   2.469   3.303   0.787
 7951SOL    HW124752   2.445   3.297   0.690
 7951SOL    HW224753   2.441   3.392   0.823
 7952SOL     OW24754   6.379   3.965   0.717
 7952SOL    HW124755   6.296   4.021   0.723
 7952SOL    HW224756   6.381   3.918   0.629
 7953SOL     OW24757   1.954   4.138   1.355
 7953SOL    HW124758   1.884   4.155   1.424
 7953SOL    HW224759   2.014   4.064   1.385
 7954SOL     OW24760   5.934   5.757   4.222
 7954SOL    HW124761   5.945   5.742   4.124
 7954SOL    HW224762   5.983   5.686   4.273
 7955SOL     OW24763   1.931   6.304   6.330
 7955SOL    HW124764   2.016   6.354   6.312
 7955SOL    HW224765   1.854   6.367   6.325
 7956SOL     OW24766   5.391   5.931   3.271
 7956SOL    HW124767   5.318   5.982   3.226
 7956SOL    HW224768   5.401   5.841   3.227
 7957SOL     OW24769   1.573   3.072   0.838
 7957SOL    HW124770   1.580   2.972   0.837
 7957SOL    HW224771   1.648   3.111   0.785
 7958SOL     OW24772   2.146   5.664   3.085
 7958SOL    HW124773   2.062   5.711   3.058
 7958SOL    HW224774   2.207   5.728   3.132
 7959SOL     OW24775   4.542   5.125   1.294
 7959SOL    HW124776   4.495   5.203   1.336
 7959SOL    HW224777   4.485   5.044   1.303
 7960SOL     OW24778   1.812   2.470   1.166
 7960SOL    HW124779   1.763   2.415   1.098
 7960SOL    HW224780   1.894   2.422   1.196
 7961SOL     OW24781   1.422   6.260   0.170
 7961SOL    HW124782   1.358   6.310   0.112
 7961SOL    HW224783   1.514   6.266   0.130
 7962SOL     OW24784   1.823   6.666   2.372
 7962SOL    HW124785   1.911   6.702   2.339
 7962SOL    HW224786   1.758   6.740   2.382
 7963SOL     OW24787   0.052   6.116   6.284
 7963SOL    HW124788   6.991   6.084   6.242
 7963SOL    HW224789   0.069   6.210   6.255
 7964SOL     OW24790   5.992   5.767   3.595
 7964SOL    HW124791   5.898   5.797   3.576
 7964SOL    HW224792   5.995   5.667   3.592
 7965SOL     OW24793   4.152   1.749   1.108
 7965SOL    HW124794   4.159   1.812   1.030
 7965SOL    HW224795   4.112   1.663   1.077
 7966SOL     OW24796   0.024   1.390   4.441
 7966SOL    HW124797   0.115   1.350   4.448
 7966SOL    HW224798   6.993   1.336   4.377
 7967SOL     OW24799   2.060   0.551   3.841
 7967SOL    HW124800   2.145   0.553   3.789
 7967SOL    HW224801   1.987   0.513   3.784
 7968SOL     OW24802   2.058   1.078   0.358
 7968SOL    HW124803   2.112   1.093   0.276
 7968SOL    HW224804   2.062   1.158   0.417
 7969SOL     OW24805   3.961   2.179   3.474
 7969SOL    HW124806   3.976   2.171   3.375
 7969SOL    HW224807   3.935   2.273   3.496
 7970SOL     OW24808   0.430   4.607   3.285
 7970SOL    HW124809   0.379   4.577   3.365
 7970SOL    HW224810   0.451   4.528   3.227
 7971SOL     OW24811   3.473   2.106   2.626
 7971SOL    HW124812   3.422   2.111   2.541
 7971SOL    HW224813   3.414   2.069   2.698
 7972SOL     OW24814   5.482   5.890   1.236
 7972SOL    HW124815   5.487   5.834   1.319
 7972SOL    HW224816   5.387   5.908   1.214
 7973SOL     OW24817   5.550   1.904   2.731
 7973SOL    HW124818   5.630   1.880   2.676
 7973SOL    HW224819   5.505   1.985   2.692
 7974SOL     OW24820   4.422   6.015   4.633
 7974SOL    HW124821   4.340   5.977   4.592
 7974SOL    HW224822   4.501   5.995   4.574
 7975SOL     OW24823   1.964   1.565   2.183
 7975SOL    HW124824   1.912   1.588   2.101
 7975SOL    HW224825   2.025   1.487   2.163
 7976SOL     OW24826   0.400   6.908   6.045
 7976SOL    HW124827   0.430   6.995   6.084
 7976SOL    HW224828   0.300   6.903   6.048
 7977SOL     OW24829   5.507   5.846   0.982
 7977SOL    HW124830   5.519   5.856   1.081
 7977SOL    HW224831   5.533   5.931   0.936
 7978SOL     OW24832   3.081   1.965   5.775
 7978SOL    HW124833   3.106   1.869   5.773
 7978SOL    HW224834   3.036   1.986   5.862
 7979SOL     OW24835   4.697   5.533   3.978
 7979SOL    HW124836   4.769   5.521   3.910
 7979SOL    HW224837   4.608   5.531   3.933
 7980SOL     OW24838   2.825   1.255   1.312
 7980SOL    HW124839   2.827   1.285   1.216
 7980SOL    HW224840   2.823   1.155   1.316
 7981SOL     OW24841   0.268   6.139   2.278
 7981SOL    HW124842   0.227   6.081   2.349
 7981SOL    HW224843   0.367   6.126   2.278
 7982SOL     OW24844   0.443   3.246   1.239
 7982SOL    HW124845   0.453   3.148   1.259
 7982SOL    HW224846   0.476   3.264   1.146
 7983SOL     OW24847   5.289   1.806   0.616
 7983SOL    HW124848   5.382   1.800   0.651
 7983SOL    HW224849   5.253   1.897   0.632
 7984SOL     OW24850   6.080   0.872   0.468
 7984SOL    HW124851   6.105   0.805   0.398
 7984SOL    HW224852   6.160   0.928   0.491
 7985SOL     OW24853   1.014   1.375   0.822
 7985SOL    HW124854   1.057   1.300   0.772
 7985SOL    HW224855   0.917   1.381   0.796
 7986SOL     OW24856   4.946   3.598   0.723
 7986SOL    HW124857   4.905   3.650   0.798
 7986SOL    HW224858   4.901   3.623   0.637
 7987SOL     OW24859   1.437   3.704   5.504
 7987SOL    HW124860   1.392   3.648   5.574
 7987SOL    HW224861   1.501   3.648   5.452
 7988SOL     OW24862   2.510   1.067   5.202
 7988SOL    HW124863   2.536   1.123   5.123
 7988SOL    HW224864   2.552   0.977   5.195
 7989SOL     OW24865   3.213   4.065   0.314
 7989SOL    HW124866   3.185   3.970   0.302
 7989SOL    HW224867   3.134   4.121   0.337
 7990SOL     OW24868   2.166   2.781   4.441
 7990SOL    HW124869   2.165   2.682   4.428
 7990SOL    HW224870   2.118   2.805   4.525
 7991SOL     OW24871   2.300   3.303   6.078
 7991SOL    HW124872   2.341   3.219   6.041
 7991SOL    HW224873   2.237   3.280   6.152
 7992SOL     OW24874   3.047   1.370   6.928
 7992SOL    HW124875   2.965   1.333   6.886
 7992SOL    HW224876   3.125   1.355   6.868
 7993SOL     OW24877   3.019   5.808   6.609
 7993SOL    HW124878   3.095   5.842   6.664
 7993SOL    HW224879   3.041   5.816   6.512
 7994SOL     OW24880   5.781   0.196   4.900
 7994SOL    HW124881   5.714   0.247   4.954
 7994SOL    HW224882   5.827   0.257   4.836
 7995SOL     OW24883   4.255   5.001   2.528
 7995SOL    HW124884   4.273   5.099   2.520
 7995SOL    HW224885   4.331   4.949   2.490
 7996SOL     OW24886   4.393   1.607   5.539
 7996SOL    HW124887   4.371   1.645   5.450
 7996SOL    HW224888   4.315   1.554   5.573
 7997SOL     OW24889   5.425   3.285   1.029
 7997SOL    HW124890   5.494   3.329   1.086
 7997SOL    HW224891   5.397   3.199   1.069
 7998SOL     OW24892   6.886   5.488   6.123
 7998SOL    HW124893   6.873   5.400   6.078
 7998SOL    HW224894   6.799   5.519   6.161
 7999SOL     OW24895   2.898   2.874   5.863
 7999SOL    HW124896   2.908   2.809   5.788
 7999SOL    HW224897   2.801   2.884   5.886
 8000SOL     OW24898   5.173   0.807   5.696
 8000SOL    HW124899   5.200   0.718   5.659
 8000SOL    HW224900   5.230   0.829   5.775
 8001SOL     OW24901   2.447   5.097   1.212
 8001SOL    HW124902   2.406   5.188   1.212
 8001SOL    HW224903   2.439   5.057   1.304
 8002SOL     OW24904   4.478   2.016   5.386
 8002SOL    HW124905   4.503   2.110   5.409
 8002SOL    HW224906   4.537   1.983   5.312
 8003SOL     OW24907   5.024   5.269   3.000
 8003SOL    HW124908   4.927   5.272   3.024
 8003SOL    HW224909   5.076   5.330   3.060
 8004SOL     OW24910   1.396   4.763   3.687
 8004SOL    HW124911   1.357   4.691   3.629
 8004SOL    HW224912   1.489   4.784   3.655
 8005SOL     OW24913   1.949   1.100   2.598
 8005SOL    HW124914   1.971   1.192   2.565
 8005SOL    HW224915   2.034   1.050   2.615
 8006SOL     OW24916   4.781   5.618   2.670
 8006SOL    HW124917   4.753   5.543   2.611
 8006SOL    HW224918   4.880   5.612   2.687
 8007SOL     OW24919   0.816   0.846   3.752
 8007SOL    HW124920   0.747   0.823   3.684
 8007SOL    HW224921   0.772   0.875   3.836
 8008SOL     OW24922   6.021   4.644   1.599
 8008SOL    HW124923   5.984   4.564   1.646
 8008SOL    HW224924   6.119   4.631   1.583
 8009SOL     OW24925   6.804   6.243   2.983
 8009SOL    HW124926   6.706   6.248   2.968
 8009SOL    HW224927   6.832   6.147   2.990
 8010SOL     OW24928   2.163   2.277   6.494
 8010SOL    HW124929   2.236   2.343   6.515
 8010SOL    HW224930   2.175   2.195   6.550
 8011SOL     OW24931   2.058   2.899   0.337
 8011SOL    HW124932   2.049   2.911   0.238
 8011SOL    HW224933   2.103   2.979   0.377
 8012SOL     OW24934   2.288   5.864   3.210
 8012SOL    HW124935   2.223   5.934   3.178
 8012SOL    HW224936   2.257   5.828   3.297
 8013SOL     OW24937   6.437   5.573   4.427
 8013SOL    HW124938   6.528   5.559   4.387
 8013SOL    HW224939   6.396   5.655   4.387
 8014SOL     OW24940   2.996   0.654   6.366
 8014SOL    HW124941   3.091   0.651   6.397
 8014SOL    HW224942   2.987   0.598   6.283
 8015SOL     OW24943   1.735   1.805   0.509
 8015SOL    HW124944   1.791   1.730   0.545
 8015SOL    HW224945   1.657   1.820   0.569
 8016SOL     OW24946   4.574   5.448   2.100
 8016SOL    HW124947   4.535   5.507   2.030
 8016SOL    HW224948   4.652   5.495   2.143
 8017SOL     OW24949   6.403   3.729   4.994
 8017SOL    HW124950   6.342   3.653   4.971
 8017SOL    HW224951   6.402   3.796   4.920
 8018SOL     OW24952   4.814   3.041   3.845
 8018SOL    HW124953   4.862   2.982   3.911
 8018SOL    HW224954   4.728   2.998   3.819
 8019SOL     OW24955   3.364   5.178   0.987
 8019SOL    HW124956   3.444   5.234   0.966
 8019SOL    HW224957   3.372   5.090   0.940
 8020SOL     OW24958   5.247   6.563   6.669
 8020SOL    HW124959   5.213   6.543   6.577
 8020SOL    HW224960   5.332   6.513   6.686
 8021SOL     OW24961   6.658   1.473   1.826
 8021SOL    HW124962   6.639   1.567   1.852
 8021SOL    HW224963   6.753   1.464   1.799
 8022SOL     OW24964   5.428   4.981   4.271
 8022SOL    HW124965   5.488   4.956   4.347
 8022SOL    HW224966   5.430   5.080   4.259
 8023SOL     OW24967   0.036   5.648   3.743
 8023SOL    HW124968   0.112   5.597   3.784
 8023SOL    HW224969   7.003   5.687   3.814
 8024SOL     OW24970   4.504   5.818   3.893
 8024SOL    HW124971   4.593   5.793   3.930
 8024SOL    HW224972   4.503   5.803   3.794
 8025SOL     OW24973   2.892   5.925   0.378
 8025SOL    HW124974   2.825   5.888   0.313
 8025SOL    HW224975   2.963   5.974   0.329
 8026SOL     OW24976   2.912   2.164   6.880
 8026SOL    HW124977   2.879   2.237   6.820
 8026SOL    HW224978   3.002   2.133   6.849
 8027SOL     OW24979   4.459   3.175   5.660
 8027SOL    HW124980   4.441   3.248   5.594
 8027SOL    HW224981   4.376   3.156   5.712
 8028SOL     OW24982   6.072   4.875   1.154
 8028SOL    HW124983   6.157   4.890   1.204
 8028SOL    HW224984   6.058   4.950   1.089
 8029SOL     OW24985   3.382   4.547   5.786
 8029SOL    HW124986   3.441   4.597   5.723
 8029SOL    HW224987   3.403   4.574   5.880
 8030SOL     OW24988   6.989   3.677   2.082
 8030SOL    HW124989   0.041   3.617   2.105
 8030SOL    HW224990   7.023   3.770   2.065
 8031SOL     OW24991   3.907   6.578   0.391
 8031SOL    HW124992   3.962   6.514   0.445
 8031SOL    HW224993   3.853   6.528   0.324
 8032SOL     OW24994   4.687   3.295   5.310
 8032SOL    HW124995   4.755   3.228   5.280
 8032SOL    HW224996   4.695   3.378   5.255
 8033SOL     OW24997   6.298   0.816   2.179
 8033SOL    HW124998   6.312   0.874   2.260
 8033SOL    HW224999   6.333   0.724   2.198
 8034SOL     OW25000   6.373   2.557   5.637
 8034SOL    HW125001   6.310   2.625   5.601
 8034SOL    HW225002   6.462   2.599   5.653
 8035SOL     OW25003   5.291   5.847   5.957
 8035SOL    HW125004   5.226   5.773   5.974
 8035SOL    HW225005   5.301   5.861   5.858
 8036SOL     OW25006   1.343   4.003   1.694
 8036SOL    HW125007   1.365   3.967   1.604
 8036SOL    HW225008   1.424   4.047   1.734
 8037SOL     OW25009   2.101   3.048   1.842
 8037SOL    HW125010   2.166   2.979   1.874
 8037SOL    HW225011   2.109   3.130   1.899
 8038SOL     OW25012   5.664   0.961   4.011
 8038SOL    HW125013   5.758   0.959   3.978
 8038SOL    HW225014   5.654   1.035   4.079
 8039SOL     OW25015   2.575   5.580   3.084
 8039SOL    HW125016   2.568   5.671   3.124
 8039SOL    HW225017   2.644   5.527   3.133
 8040SOL     OW25018   5.796   6.299   6.740
 8040SOL    HW125019   5.893   6.276   6.740
 8040SOL    HW225020   5.783   6.391   6.703
 8041SOL     OW25021   3.198   2.372   1.126
 8041SOL    HW125022   3.228   2.278   1.111
 8041SOL    HW225023   3.198   2.392   1.224
 8042SOL     OW25024   1.589   4.740   0.130
 8042SOL    HW125025   1.523   4.747   0.205
 8042SOL    HW225026   1.541   4.739   0.042
 8043SOL     OW25027   3.467   0.627   1.304
 8043SOL    HW125028   3.410   0.636   1.222
 8043SOL    HW225029   3.551   0.578   1.280
 8044SOL     OW25030   3.040   2.765   1.778
 8044SOL    HW125031   3.044   2.758   1.878
 8044SOL    HW225032   3.029   2.861   1.752
 8045SOL     OW25033   6.010   2.708   3.776
 8045SOL    HW125034   6.018   2.706   3.876
 8045SOL    HW225035   5.915   2.691   3.749
 8046SOL     OW25036   6.637   5.304   5.059
 8046SOL    HW125037   6.567   5.307   4.988
 8046SOL    HW225038   6.652   5.209   5.087
 8047SOL     OW25039   2.652   0.013   4.318
 8047SOL    HW125040   2.661   6.965   4.387
 8047SOL    HW225041   2.599   0.089   4.355
 8048SOL     OW25042   5.505   0.189   5.627
 8048SOL    HW125043   5.463   0.217   5.713
 8048SOL    HW225044   5.468   0.243   5.552
 8049SOL     OW25045   2.391   6.283   6.486
 8049SOL    HW125046   2.467   6.242   6.535
 8049SOL    HW225047   2.305   6.248   6.522
 8050SOL     OW25048   0.211   3.529   2.100
 8050SOL    HW125049   0.233   3.432   2.104
 8050SOL    HW225050   0.252   3.569   2.018
 8051SOL     OW25051   2.612   2.472   3.839
 8051SOL    HW125052   2.624   2.471   3.740
 8051SOL    HW225053   2.548   2.545   3.865
 8052SOL     OW25054   4.289   1.588   2.670
 8052SOL    HW125055   4.297   1.687   2.665
 8052SOL    HW225056   4.379   1.546   2.655
 8053SOL     OW25057   4.717   3.668   1.604
 8053SOL    HW125058   4.706   3.576   1.641
 8053SOL    HW225059   4.640   3.689   1.544
 8054SOL     OW25060   4.636   5.962   4.488
 8054SOL    HW125061   4.697   5.991   4.414
 8054SOL    HW225062   4.613   5.865   4.477
 8055SOL     OW25063   1.344   6.741   4.901
 8055SOL    HW125064   1.320   6.678   4.975
 8055SOL    HW225065   1.429   6.788   4.923
 8056SOL     OW25066   4.575   1.448   3.028
 8056SOL    HW125067   4.594   1.371   2.966
 8056SOL    HW225068   4.602   1.423   3.121
 8057SOL     OW25069   3.678   6.975   3.882
 8057SOL    HW125070   3.586   6.989   3.844
 8057SOL    HW225071   3.740   6.946   3.809
 8058SOL     OW25072   1.826   0.222   3.171
 8058SOL    HW125073   1.885   0.142   3.159
 8058SOL    HW225074   1.777   0.241   3.086
 8059SOL     OW25075   1.476   1.485   4.336
 8059SOL    HW125076   1.456   1.427   4.257
 8059SOL    HW225077   1.470   1.581   4.308
 8060SOL     OW25078   0.797   2.698   5.421
 8060SOL    HW125079   0.717   2.737   5.468
 8060SOL    HW225080   0.765   2.635   5.350
 8061SOL     OW25081   5.357   6.713   3.311
 8061SOL    HW125082   5.395   6.647   3.375
 8061SOL    HW225083   5.259   6.724   3.327
 8062SOL     OW25084   1.821   1.915   1.322
 8062SOL    HW125085   1.856   1.970   1.397
 8062SOL    HW225086   1.811   1.820   1.352
 8063SOL     OW25087   2.320   2.599   5.688
 8063SOL    HW125088   2.305   2.636   5.779
 8063SOL    HW225089   2.370   2.666   5.632
 8064SOL     OW25090   5.576   2.171   5.530
 8064SOL    HW125091   5.600   2.081   5.568
 8064SOL    HW225092   5.631   2.241   5.575
 8065SOL     OW25093   4.107   0.740   6.521
 8065SOL    HW125094   4.060   0.779   6.600
 8065SOL    HW225095   4.176   0.674   6.551
 8066SOL     OW25096   1.462   0.363   1.363
 8066SOL    HW125097   1.559   0.378   1.343
 8066SOL    HW225098   1.443   0.265   1.360
 8067SOL     OW25099   4.531   2.097   2.904
 8067SOL    HW125100   4.532   2.178   2.845
 8067SOL    HW225101   4.509   2.016   2.850
 8068SOL     OW25102   6.894   4.406   3.677
 8068SOL    HW125103   6.905   4.311   3.648
 8068SOL    HW225104   6.928   4.466   3.604
 8069SOL     OW25105   6.907   6.140   2.454
 8069SOL    HW125106   6.941   6.075   2.386
 8069SOL    HW225107   6.985   6.186   2.497
 8070SOL     OW25108   3.823   0.472   2.842
 8070SOL    HW125109   3.761   0.518   2.905
 8070SOL    HW225110   3.770   0.424   2.772
 8071SOL     OW25111   5.363   4.785   6.978
 8071SOL    HW125112   5.393   4.775   0.049
 8071SOL    HW225113   5.433   4.835   6.926
 8072SOL     OW25114   3.877   0.174   3.694
 8072SOL    HW125115   3.838   0.083   3.678
 8072SOL    HW225116   3.970   0.165   3.728
 8073SOL     OW25117   5.209   0.271   6.501
 8073SOL    HW125118   5.144   0.301   6.571
 8073SOL    HW225119   5.164   0.268   6.412
 8074SOL     OW25120   3.100   4.484   0.312
 8074SOL    HW125121   3.130   4.444   0.399
 8074SOL    HW225122   3.001   4.493   0.312
 8075SOL     OW25123   6.538   1.693   4.093
 8075SOL    HW125124   6.542   1.630   4.171
 8075SOL    HW225125   6.499   1.645   4.014
 8076SOL     OW25126   5.036   3.021   6.677
 8076SOL    HW125127   4.969   3.091   6.651
 8076SOL    HW225128   5.007   2.933   6.641
 8077SOL     OW25129   0.990   0.580   6.966
 8077SOL    HW125130   0.966   0.616   6.876
 8077SOL    HW225131   0.940   0.495   6.982
 8078SOL     OW25132   6.478   3.744   1.398
 8078SOL    HW125133   6.531   3.820   1.359
 8078SOL    HW225134   6.418   3.706   1.327
 8079SOL     OW25135   1.320   3.043   0.112
 8079SOL    HW125136   1.376   3.110   0.064
 8079SOL    HW225137   1.377   2.988   0.173
 8080SOL     OW25138   3.750   4.584   0.452
 8080SOL    HW125139   3.702   4.664   0.417
 8080SOL    HW225140   3.759   4.516   0.379
 8081SOL     OW25141   5.685   2.343   4.363
 8081SOL    HW125142   5.722   2.417   4.306
 8081SOL    HW225143   5.590   2.363   4.386
 8082SOL     OW25144   6.866   3.405   5.023
 8082SOL    HW125145   6.818   3.320   5.002
 8082SOL    HW225146   6.959   3.385   5.052
 8083SOL     OW25147   5.908   1.658   4.608
 8083SOL    HW125148   5.933   1.755   4.607
 8083SOL    HW225149   5.842   1.642   4.682
 8084SOL     OW25150   5.592   0.125   6.764
 8084SOL    HW125151   5.633   0.213   6.787
 8084SOL    HW225152   5.580   0.118   6.665
 8085SOL     OW25153   4.871   2.356   1.536
 8085SOL    HW125154   4.813   2.328   1.460
 8085SOL    HW225155   4.962   2.379   1.502
 8086SOL     OW25156   3.481   5.137   6.398
 8086SOL    HW125157   3.439   5.054   6.436
 8086SOL    HW225158   3.575   5.144   6.430
 8087SOL     OW25159   1.973   3.561   0.617
 8087SOL    HW125160   1.904   3.630   0.595
 8087SOL    HW225161   2.035   3.549   0.539
 8088SOL     OW25162   4.633   0.582   3.056
 8088SOL    HW125163   4.601   0.543   3.141
 8088SOL    HW225164   4.728   0.555   3.041
 8089SOL     OW25165   6.833   2.912   0.154
 8089SOL    HW125166   6.794   2.859   0.078
 8089SOL    HW225167   6.897   2.854   0.205
 8090SOL     OW25168   5.116   1.584   5.173
 8090SOL    HW125169   5.179   1.507   5.161
 8090SOL    HW225170   5.111   1.608   5.270
 8091SOL     OW25171   1.910   3.298   5.125
 8091SOL    HW125172   2.004   3.319   5.099
 8091SOL    HW225173   1.893   3.200   5.114
 8092SOL     OW25174   6.287   2.234   3.953
 8092SOL    HW125175   6.256   2.144   3.923
 8092SOL    HW225176   6.220   2.303   3.927
 8093SOL     OW25177   5.960   4.824   0.638
 8093SOL    HW125178   5.925   4.915   0.615
 8093SOL    HW225179   6.060   4.823   0.631
 8094SOL     OW25180   0.604   3.292   4.210
 8094SOL    HW125181   0.563   3.302   4.301
 8094SOL    HW225182   0.648   3.203   4.203
 8095SOL     OW25183   6.302   3.273   5.387
 8095SOL    HW125184   6.356   3.283   5.303
 8095SOL    HW225185   6.311   3.356   5.442
 8096SOL     OW25186   3.995   0.283   0.727
 8096SOL    HW125187   3.977   0.194   0.770
 8096SOL    HW225188   4.071   0.328   0.774
 8097SOL     OW25189   5.125   2.099   3.793
 8097SOL    HW125190   5.110   2.116   3.696
 8097SOL    HW225191   5.155   2.183   3.838
 8098SOL     OW25192   2.437   2.464   4.098
 8098SOL    HW125193   2.450   2.443   4.002
 8098SOL    HW225194   2.390   2.553   4.106
 8099SOL     OW25195   3.981   0.160   4.080
 8099SOL    HW125196   3.882   0.149   4.074
 8099SOL    HW225197   4.023   0.141   3.991
 8100SOL     OW25198   6.512   5.999   1.712
 8100SOL    HW125199   6.579   5.924   1.707
 8100SOL    HW225200   6.559   6.086   1.698
 8101SOL     OW25201   1.028   4.934   2.391
 8101SOL    HW125202   1.057   4.871   2.319
 8101SOL    HW225203   1.108   4.973   2.436
 8102SOL     OW25204   6.733   0.540   5.505
 8102SOL    HW125205   6.716   0.617   5.566
 8102SOL    HW225206   6.829   0.540   5.475
 8103SOL     OW25207   2.556   2.153   2.205
 8103SOL    HW125208   2.650   2.148   2.239
 8103SOL    HW225209   2.541   2.244   2.165
 8104SOL     OW25210   2.856   0.054   5.525
 8104SOL    HW125211   2.927   0.076   5.593
 8104SOL    HW225212   2.769   0.094   5.554
 8105SOL     OW25213   2.407   2.087   2.453
 8105SOL    HW125214   2.430   2.093   2.356
 8105SOL    HW225215   2.467   2.147   2.505
 8106SOL     OW25216   0.248   4.144   5.914
 8106SOL    HW125217   0.222   4.236   5.888
 8106SOL    HW225218   0.167   4.094   5.947
 8107SOL     OW25219   0.790   4.847   6.843
 8107SOL    HW125220   0.740   4.925   6.880
 8107SOL    HW225221   0.763   4.833   6.748
 8108SOL     OW25222   2.004   2.141   6.072
 8108SOL    HW125223   2.088   2.152   6.126
 8108SOL    HW225224   1.941   2.082   6.121
 8109SOL     OW25225   0.314   5.688   5.216
 8109SOL    HW125226   0.247   5.636   5.269
 8109SOL    HW225227   0.287   5.784   5.214
 8110SOL     OW25228   0.917   4.853   0.223
 8110SOL    HW125229   0.969   4.793   0.162
 8110SOL    HW225230   0.912   4.812   0.314
 8111SOL     OW25231   3.262   6.179   4.150
 8111SOL    HW125232   3.342   6.190   4.091
 8111SOL    HW225233   3.292   6.154   4.242
 8112SOL     OW25234   4.059   1.274   4.442
 8112SOL    HW125235   4.138   1.325   4.409
 8112SOL    HW225236   4.029   1.311   4.530
 8113SOL     OW25237   3.082   2.333   6.004
 8113SOL    HW125238   3.120   2.420   5.973
 8113SOL    HW225239   3.000   2.311   5.951
 8114SOL     OW25240   2.986   3.801   1.042
 8114SOL    HW125241   3.050   3.730   1.013
 8114SOL    HW225242   2.964   3.788   1.139
 8115SOL     OW25243   3.973   2.938   1.248
 8115SOL    HW125244   3.946   3.029   1.278
 8115SOL    HW225245   4.071   2.926   1.264
 8116SOL     OW25246   5.953   1.595   5.640
 8116SOL    HW125247   5.893   1.553   5.572
 8116SOL    HW225248   5.905   1.601   5.727
 8117SOL     OW25249   3.145   3.058   5.338
 8117SOL    HW125250   3.129   3.005   5.421
 8117SOL    HW225251   3.069   3.121   5.324
 8118SOL     OW25252   1.048   1.923   4.065
 8118SOL    HW125253   0.996   1.955   4.144
 8118SOL    HW225254   1.073   1.827   4.077
 8119SOL     OW25255   1.638   0.140   2.477
 8119SOL    HW125256   1.703   0.207   2.511
 8119SOL    HW225257   1.631   0.148   2.377
 8120SOL     OW25258   4.904   3.862   2.281
 8120SOL    HW125259   4.873   3.893   2.191
 8120SOL    HW225260   4.964   3.783   2.270
 8121SOL     OW25261   0.219   6.152   3.674
 8121SOL    HW125262   0.297   6.178   3.731
 8121SOL    HW225263   0.151   6.225   3.674
 8122SOL     OW25264   0.457   4.646   2.055
 8122SOL    HW125265   0.472   4.552   2.025
 8122SOL    HW225266   0.433   4.703   1.976
 8123SOL     OW25267   1.626   4.824   5.837
 8123SOL    HW125268   1.674   4.907   5.807
 8123SOL    HW225269   1.608   4.831   5.935
 8124SOL     OW25270   1.847   5.975   2.457
 8124SOL    HW125271   1.808   5.924   2.534
 8124SOL    HW225272   1.780   6.040   2.422
 8125SOL     OW25273   5.122   5.315   3.811
 8125SOL    HW125274   5.133   5.216   3.797
 8125SOL    HW225275   5.036   5.346   3.770
 8126SOL     OW25276   0.479   4.359   2.074
 8126SOL    HW125277   0.425   4.353   2.158
 8126SOL    HW225278   0.576   4.368   2.098
 8127SOL     OW25279   4.192   5.200   0.797
 8127SOL    HW125280   4.272   5.152   0.760
 8127SOL    HW225281   4.209   5.299   0.795
 8128SOL     OW25282   3.846   2.314   5.218
 8128SOL    HW125283   3.911   2.381   5.254
 8128SOL    HW225284   3.767   2.308   5.280
 8129SOL     OW25285   4.994   5.253   6.683
 8129SOL    HW125286   5.007   5.182   6.614
 8129SOL    HW225287   5.025   5.219   6.772
 8130SOL     OW25288   0.119   0.423   6.219
 8130SOL    HW125289   0.112   0.510   6.267
 8130SOL    HW225290   0.200   0.422   6.161
 8131SOL     OW25291   2.233   1.897   1.457
 8131SOL    HW125292   2.233   1.927   1.362
 8131SOL    HW225293   2.248   1.798   1.460
 8132SOL     OW25294   5.991   4.440   3.746
 8132SOL    HW125295   5.938   4.392   3.816
 8132SOL    HW225296   6.040   4.516   3.789
 8133SOL     OW25297   0.188   5.565   2.467
 8133SOL    HW125298   0.210   5.550   2.563
 8133SOL    HW225299   0.272   5.560   2.413
 8134SOL     OW25300   3.605   3.542   1.452
 8134SOL    HW125301   3.543   3.582   1.385
 8134SOL    HW225302   3.660   3.615   1.494
 8135SOL     OW25303   4.097   6.015   2.557
 8135SOL    HW125304   4.151   6.097   2.538
 8135SOL    HW225305   4.092   5.959   2.475
 8136SOL     OW25306   2.568   5.618   1.384
 8136SOL    HW125307   2.647   5.679   1.397
 8136SOL    HW225308   2.523   5.604   1.472
 8137SOL     OW25309   3.582   4.536   5.591
 8137SOL    HW125310   3.519   4.568   5.520
 8137SOL    HW225311   3.630   4.455   5.559
 8138SOL     OW25312   4.269   0.687   3.444
 8138SOL    HW125313   4.254   0.665   3.348
 8138SOL    HW225314   4.336   0.761   3.451
 8139SOL     OW25315   1.914   3.176   5.411
 8139SOL    HW125316   1.968   3.237   5.470
 8139SOL    HW225317   1.975   3.114   5.363
 8140SOL     OW25318   5.158   1.699   1.127
 8140SOL    HW125319   5.202   1.622   1.079
 8140SOL    HW225320   5.063   1.707   1.096
 8141SOL     OW25321   5.863   1.858   5.234
 8141SOL    HW125322   5.846   1.762   5.215
 8141SOL    HW225323   5.929   1.867   5.308
 8142SOL     OW25324   4.029   5.809   0.530
 8142SOL    HW125325   4.058   5.866   0.453
 8142SOL    HW225326   4.025   5.713   0.502
 8143SOL     OW25327   5.888   5.080   0.594
 8143SOL    HW125328   5.814   5.091   0.528
 8143SOL    HW225329   5.949   5.159   0.590
 8144SOL     OW25330   2.185   5.591   6.430
 8144SOL    HW125331   2.210   5.565   6.337
 8144SOL    HW225332   2.088   5.570   6.445
 8145SOL     OW25333   4.940   5.486   5.521
 8145SOL    HW125334   4.864   5.439   5.566
 8145SOL    HW225335   4.996   5.532   5.590
 8146SOL     OW25336   6.802   6.141   5.245
 8146SOL    HW125337   6.816   6.237   5.269
 8146SOL    HW225338   6.726   6.134   5.181
 8147SOL     OW25339   2.107   6.515   4.687
 8147SOL    HW125340   2.069   6.460   4.762
 8147SOL    HW225341   2.111   6.460   4.604
 8148SOL     OW25342   5.231   4.926   0.719
 8148SOL    HW125343   5.288   4.851   0.752
 8148SOL    HW225344   5.198   4.979   0.797
 8149SOL     OW25345   1.560   6.391   4.944
 8149SOL    HW125346   1.559   6.436   4.855
 8149SOL    HW225347   1.604   6.450   5.011
 8150SOL     OW25348   0.497   4.318   0.582
 8150SOL    HW125349   0.559   4.372   0.526
 8150SOL    HW225350   0.416   4.372   0.604
 8151SOL     OW25351   6.038   4.192   2.373
 8151SOL    HW125352   5.971   4.166   2.442
 8151SOL    HW225353   6.064   4.111   2.320
 8152SOL     OW25354   4.990   1.808   4.313
 8152SOL    HW125355   4.945   1.882   4.363
 8152SOL    HW225356   5.055   1.847   4.248
 8153SOL     OW25357   0.321   1.911   0.884
 8153SOL    HW125358   0.419   1.905   0.903
 8153SOL    HW225359   0.283   1.990   0.931
 8154SOL     OW25360   0.143   0.537   4.486
 8154SOL    HW125361   0.048   0.527   4.518
 8154SOL    HW225362   0.204   0.544   4.564
 8155SOL     OW25363   0.841   4.743   4.605
 8155SOL    HW125364   0.839   4.785   4.695
 8155SOL    HW225365   0.747   4.728   4.573
 8156SOL     OW25366   1.146   3.970   0.536
 8156SOL    HW125367   1.048   3.974   0.515
 8156SOL    HW225368   1.181   3.879   0.516
 8157SOL     OW25369   6.350   4.756   5.359
 8157SOL    HW125370   6.354   4.669   5.309
 8157SOL    HW225371   6.281   4.815   5.317
 8158SOL     OW25372   6.346   5.202   6.296
 8158SOL    HW125373   6.304   5.113   6.278
 8158SOL    HW225374   6.364   5.248   6.209
 8159SOL     OW25375   2.171   6.705   5.584
 8159SOL    HW125376   2.205   6.659   5.665
 8159SOL    HW225377   2.239   6.772   5.553
 8160SOL     OW25378   5.175   3.346   2.621
 8160SOL    HW125379   5.261   3.362   2.668
 8160SOL    HW225380   5.194   3.327   2.524
 8161SOL     OW25381   0.317   2.401   0.934
 8161SOL    HW125382   0.354   2.420   0.843
 8161SOL    HW225383   0.246   2.468   0.956
 8162SOL     OW25384   0.019   6.114   5.537
 8162SOL    HW125385   0.088   6.042   5.525
 8162SOL    HW225386   6.953   6.072   5.544
 8163SOL     OW25387   3.729   5.189   5.683
 8163SOL    HW125388   3.714   5.124   5.609
 8163SOL    HW225389   3.716   5.282   5.649
 8164SOL     OW25390   5.816   1.782   0.063
 8164SOL    HW125391   5.757   1.782   0.144
 8164SOL    HW225392   5.845   1.689   0.043
 8165SOL     OW25393   1.430   2.310   5.678
 8165SOL    HW125394   1.440   2.379   5.606
 8165SOL    HW225395   1.511   2.251   5.678
 8166SOL     OW25396   3.441   2.117   4.116
 8166SOL    HW125397   3.444   2.106   4.016
 8166SOL    HW225398   3.356   2.077   4.151
 8167SOL     OW25399   1.532   2.097   1.964
 8167SOL    HW125400   1.520   2.180   2.019
 8167SOL    HW225401   1.536   2.122   1.868
 8168SOL     OW25402   1.036   6.063   2.864
 8168SOL    HW125403   0.955   6.119   2.887
 8168SOL    HW225404   1.115   6.098   2.914
 8169SOL     OW25405   5.295   4.950   6.576
 8169SOL    HW125406   5.212   4.983   6.531
 8169SOL    HW225407   5.375   4.975   6.522
 8170SOL     OW25408   0.230   4.796   3.190
 8170SOL    HW125409   0.303   4.755   3.245
 8170SOL    HW225410   0.251   4.783   3.093
 8171SOL     OW25411   1.509   1.747   1.704
 8171SOL    HW125412   1.535   1.731   1.799
 8171SOL    HW225413   1.454   1.830   1.697
 8172SOL     OW25414   1.681   5.132   0.607
 8172SOL    HW125415   1.623   5.068   0.658
 8172SOL    HW225416   1.713   5.088   0.523
 8173SOL     OW25417   5.503   0.631   1.514
 8173SOL    HW125418   5.577   0.621   1.580
 8173SOL    HW225419   5.541   0.635   1.422
 8174SOL     OW25420   2.403   6.576   4.020
 8174SOL    HW125421   2.448   6.521   3.950
 8174SOL    HW225422   2.421   6.673   4.002
 8175SOL     OW25423   0.786   2.116   6.212
 8175SOL    HW125424   0.709   2.179   6.218
 8175SOL    HW225425   0.871   2.167   6.201
 8176SOL     OW25426   2.663   4.627   0.524
 8176SOL    HW125427   2.585   4.583   0.568
 8176SOL    HW225428   2.637   4.661   0.434
 8177SOL     OW25429   3.300   1.381   2.372
 8177SOL    HW125430   3.363   1.312   2.337
 8177SOL    HW225431   3.337   1.420   2.456
 8178SOL     OW25432   2.763   6.548   1.082
 8178SOL    HW125433   2.675   6.521   1.043
 8178SOL    HW225434   2.756   6.548   1.182
 8179SOL     OW25435   6.101   6.880   4.468
 8179SOL    HW125436   6.096   6.785   4.435
 8179SOL    HW225437   6.178   6.889   4.532
 8180SOL     OW25438   4.312   5.833   1.035
 8180SOL    HW125439   4.319   5.775   0.954
 8180SOL    HW225440   4.294   5.928   1.007
 8181SOL     OW25441   6.443   0.758   6.473
 8181SOL    HW125442   6.415   0.797   6.385
 8181SOL    HW225443   6.491   0.671   6.457
 8182SOL     OW25444   3.350   3.406   3.256
 8182SOL    HW125445   3.418   3.336   3.280
 8182SOL    HW225446   3.287   3.369   3.188
 8183SOL     OW25447   0.388   0.160   5.234
 8183SOL    HW125448   0.460   0.145   5.303
 8183SOL    HW225449   0.428   0.206   5.155
 8184SOL     OW25450   0.074   6.122   4.968
 8184SOL    HW125451   0.063   6.080   5.059
 8184SOL    HW225452   0.144   6.193   4.973
 8185SOL     OW25453   6.806   6.422   4.751
 8185SOL    HW125454   6.756   6.507   4.731
 8185SOL    HW225455   6.826   6.418   4.849
 8186SOL     OW25456   1.246   5.585   6.608
 8186SOL    HW125457   1.174   5.525   6.641
 8186SOL    HW225458   1.218   5.628   6.522
 8187SOL     OW25459   1.263   6.222   4.786
 8187SOL    HW125460   1.323   6.284   4.736
 8187SOL    HW225461   1.316   6.171   4.853
 8188SOL     OW25462   1.545   2.476   2.662
 8188SOL    HW125463   1.544   2.540   2.586
 8188SOL    HW225464   1.639   2.457   2.690
 8189SOL     OW25465   6.783   5.493   3.840
 8189SOL    HW125466   6.784   5.405   3.887
 8189SOL    HW225467   6.847   5.555   3.884
 8190SOL     OW25468   5.369   3.629   2.605
 8190SOL    HW125469   5.416   3.712   2.637
 8190SOL    HW225470   5.270   3.643   2.611
 8191SOL     OW25471   4.686   5.094   0.766
 8191SOL    HW125472   4.784   5.088   0.745
 8191SOL    HW225473   4.661   5.018   0.827
 8192SOL     OW25474   6.597   5.838   2.818
 8192SOL    HW125475   6.547   5.779   2.754
 8192SOL    HW225476   6.572   5.933   2.802
 8193SOL     OW25477   0.844   5.049   4.562
 8193SOL    HW125478   0.795   5.082   4.481
 8193SOL    HW225479   0.843   4.949   4.563
 8194SOL     OW25480   5.543   6.945   2.281
 8194SOL    HW125481   5.474   7.003   2.237
 8194SOL    HW225482   5.626   6.998   2.295
 8195SOL     OW25483   6.395   6.698   3.230
 8195SOL    HW125484   6.298   6.687   3.252
 8195SOL    HW225485   6.409   6.782   3.178
 8196SOL     OW25486   4.989   6.783   2.844
 8196SOL    HW125487   4.954   6.821   2.758
 8196SOL    HW225488   4.926   6.804   2.918
 8197SOL     OW25489   4.251   1.001   3.262
 8197SOL    HW125490   4.161   0.997   3.304
 8197SOL    HW225491   4.243   1.037   3.169
 8198SOL     OW25492   1.984   5.550   0.091
 8198SOL    HW125493   1.938   5.636   0.070
 8198SOL    HW225494   2.046   5.525   0.017
 8199SOL     OW25495   6.038   3.009   0.099
 8199SOL    HW125496   5.947   3.007   0.058
 8199SOL    HW225497   6.058   2.920   0.140
 8200SOL     OW25498   6.011   4.524   6.994
 8200SOL    HW125499   5.989   4.550   6.900
 8200SOL    HW225500   6.000   4.604   0.029
 8201SOL     OW25501   5.693   1.311   5.723
 8201SOL    HW125502   5.624   1.240   5.734
 8201SOL    HW225503   5.684   1.353   5.632
 8202SOL     OW25504   0.001   5.972   2.269
 8202SOL    HW125505   7.015   5.901   2.339
 8202SOL    HW225506   0.085   6.023   2.285
 8203SOL     OW25507   0.852   3.154   0.523
 8203SOL    HW125508   0.753   3.143   0.514
 8203SOL    HW225509   0.873   3.248   0.551
 8204SOL     OW25510   1.513   3.389   0.638
 8204SOL    HW125511   1.530   3.419   0.544
 8204SOL    HW225512   1.599   3.389   0.689
 8205SOL     OW25513   7.009   4.032   6.406
 8205SOL    HW125514   6.932   3.997   6.353
 8205SOL    HW225515   0.071   4.006   6.361
 8206SOL     OW25516   3.153   1.283   0.982
 8206SOL    HW125517   3.109   1.362   0.939
 8206SOL    HW225518   3.153   1.295   1.081
 8207SOL     OW25519   4.005   3.933   4.473
 8207SOL    HW125520   3.969   3.843   4.499
 8207SOL    HW225521   4.099   3.923   4.440
 8208SOL     OW25522   3.395   0.190   5.717
 8208SOL    HW125523   3.384   0.219   5.622
 8208SOL    HW225524   3.459   0.251   5.764
 8209SOL     OW25525   5.165   2.381   3.689
 8209SOL    HW125526   5.203   2.337   3.607
 8209SOL    HW225527   5.097   2.448   3.661
 8210SOL     OW25528   1.523   1.573   6.238
 8210SOL    HW125529   1.473   1.645   6.190
 8210SOL    HW225530   1.601   1.543   6.183
 8211SOL     OW25531   3.739   4.583   1.351
 8211SOL    HW125532   3.743   4.528   1.268
 8211SOL    HW225533   3.787   4.670   1.335
 8212SOL     OW25534   1.600   3.309   2.875
 8212SOL    HW125535   1.577   3.246   2.950
 8212SOL    HW225536   1.675   3.270   2.822
 8213SOL     OW25537   6.454   4.707   0.705
 8213SOL    HW125538   6.515   4.750   0.639
 8213SOL    HW225539   6.502   4.697   0.792
 8214SOL     OW25540   4.686   2.830   3.619
 8214SOL    HW125541   4.688   2.749   3.561
 8214SOL    HW225542   4.726   2.907   3.569
 8215SOL     OW25543   3.289   4.308   1.586
 8215SOL    HW125544   3.355   4.371   1.627
 8215SOL    HW225545   3.337   4.248   1.521
 8216SOL     OW25546   5.795   2.975   4.416
 8216SOL    HW125547   5.848   2.981   4.500
 8216SOL    HW225548   5.834   3.037   4.347
 8217SOL     OW25549   2.248   5.754   0.180
 8217SOL    HW125550   2.232   5.698   0.261
 8217SOL    HW225551   2.205   5.711   0.100
 8218SOL     OW25552   4.609   1.690   0.194
 8218SOL    HW125553   4.607   1.635   0.277
 8218SOL    HW225554   4.527   1.672   0.140
 8219SOL     OW25555   5.439   2.830   0.066
 8219SOL    HW125556   5.537   2.819   0.080
 8219SOL    HW225557   5.422   2.907   0.005
 8220SOL     OW25558   4.003   3.645   1.311
 8220SOL    HW125559   3.974   3.644   1.407
 8220SOL    HW225560   3.962   3.567   1.263
 8221SOL     OW25561   5.385   3.551   3.747
 8221SOL    HW125562   5.392   3.452   3.748
 8221SOL    HW225563   5.295   3.578   3.712
 8222SOL     OW25564   5.814   1.270   2.939
 8222SOL    HW125565   5.781   1.240   2.850
 8222SOL    HW225566   5.742   1.256   3.008
 8223SOL     OW25567   0.878   3.817   0.370
 8223SOL    HW125568   0.948   3.781   0.431
 8223SOL    HW225569   0.864   3.914   0.389
 8224SOL     OW25570   0.847   3.676   2.553
 8224SOL    HW125571   0.937   3.666   2.512
 8224SOL    HW225572   0.782   3.614   2.508
 8225SOL     OW25573   4.757   0.722   0.990
 8225SOL    HW125574   4.665   0.715   0.951
 8225SOL    HW225575   4.751   0.764   1.081
 8226SOL     OW25576   3.956   0.309   0.077
 8226SOL    HW125577   4.005   0.391   0.048
 8226SOL    HW225578   3.977   0.289   0.173
 8227SOL     OW25579   5.849   4.297   3.492
 8227SOL    HW125580   5.835   4.351   3.409
 8227SOL    HW225581   5.906   4.349   3.555
 8228SOL     OW25582   0.364   1.210   3.785
 8228SOL    HW125583   0.464   1.207   3.784
 8228SOL    HW225584   0.328   1.150   3.713
 8229SOL     OW25585   5.831   5.756   6.811
 8229SOL    HW125586   5.891   5.808   6.872
 8229SOL    HW225587   5.846   5.785   6.717
 8230SOL     OW25588   4.893   0.036   3.804
 8230SOL    HW125589   4.797   0.058   3.788
 8230SOL    HW225590   4.951   0.098   3.750
 8231SOL     OW25591   3.929   6.099   1.546
 8231SOL    HW125592   3.975   6.101   1.458
 8231SOL    HW225593   3.830   6.106   1.532
 8232SOL     OW25594   2.567   1.520   0.148
 8232SOL    HW125595   2.508   1.462   0.205
 8232SOL    HW225596   2.551   1.499   0.052
 8233SOL     OW25597   1.067   5.578   6.006
 8233SOL    HW125598   1.098   5.584   5.911
 8233SOL    HW225599   0.984   5.633   6.017
 8234SOL     OW25600   2.093   3.133   6.716
 8234SOL    HW125601   2.038   3.055   6.745
 8234SOL    HW225602   2.033   3.206   6.683
 8235SOL     OW25603   4.520   2.858   6.661
 8235SOL    HW125604   4.468   2.885   6.742
 8235SOL    HW225605   4.592   2.925   6.643
 8236SOL     OW25606   6.299   1.693   1.526
 8236SOL    HW125607   6.343   1.608   1.556
 8236SOL    HW225608   6.292   1.756   1.604
 8237SOL     OW25609   3.588   6.131   5.248
 8237SOL    HW125610   3.584   6.188   5.165
 8237SOL    HW225611   3.642   6.049   5.229
 8238SOL     OW25612   0.520   0.812   5.776
 8238SOL    HW125613   0.502   0.894   5.830
 8238SOL    HW225614   0.611   0.818   5.735
 8239SOL     OW25615   4.986   1.424   6.569
 8239SOL    HW125616   4.947   1.515   6.580
 8239SOL    HW225617   5.004   1.385   6.659
 8240SOL     OW25618   3.690   3.531   2.749
 8240SOL    HW125619   3.788   3.542   2.729
 8240SOL    HW225620   3.655   3.450   2.703
 8241SOL     OW25621   4.529   6.304   1.025
 8241SOL    HW125622   4.625   6.283   1.012
 8241SOL    HW225623   4.514   6.336   1.118
 8242SOL     OW25624   1.625   4.391   4.999
 8242SOL    HW125625   1.554   4.364   5.064
 8242SOL    HW225626   1.642   4.315   4.935
 8243SOL     OW25627   6.877   4.004   4.664
 8243SOL    HW125628   6.955   4.065   4.664
 8243SOL    HW225629   6.885   3.940   4.741
 8244SOL     OW25630   3.553   5.575   5.301
 8244SOL    HW125631   3.486   5.595   5.372
 8244SOL    HW225632   3.509   5.578   5.211
 8245SOL     OW25633   4.431   4.243   0.959
 8245SOL    HW125634   4.441   4.269   1.055
 8245SOL    HW225635   4.470   4.314   0.901
 8246SOL     OW25636   5.468   3.284   5.187
 8246SOL    HW125637   5.437   3.196   5.222
 8246SOL    HW225638   5.393   3.330   5.139
 8247SOL     OW25639   1.128   6.245   6.895
 8247SOL    HW125640   1.211   6.297   6.875
 8247SOL    HW225641   1.073   6.238   6.812
 8248SOL     OW25642   6.814   4.407   3.031
 8248SOL    HW125643   6.888   4.376   3.091
 8248SOL    HW225644   6.736   4.436   3.086
 8249SOL     OW25645   0.455   5.569   3.102
 8249SOL    HW125646   0.404   5.528   3.026
 8249SOL    HW225647   0.513   5.643   3.067
 8250SOL     OW25648   3.023   3.114   2.748
 8250SOL    HW125649   3.026   3.197   2.804
 8250SOL    HW225650   2.951   3.122   2.680
 8251SOL     OW25651   5.457   0.665   4.403
 8251SOL    HW125652   5.480   0.709   4.490
 8251SOL    HW225653   5.382   0.716   4.360
 8252SOL     OW25654   0.662   4.141   4.101
 8252SOL    HW125655   0.699   4.093   4.021
 8252SOL    HW225656   0.701   4.233   4.106
 8253SOL     OW25657   3.224   3.438   5.770
 8253SOL    HW125658   3.132   3.400   5.762
 8253SOL    HW225659   3.238   3.505   5.697
 8254SOL     OW25660   5.107   4.792   2.829
 8254SOL    HW125661   5.081   4.734   2.906
 8254SOL    HW225662   5.119   4.886   2.860
 8255SOL     OW25663   3.847   5.245   3.449
 8255SOL    HW125664   3.858   5.149   3.477
 8255SOL    HW225665   3.769   5.284   3.499
 8256SOL     OW25666   5.012   2.237   2.895
 8256SOL    HW125667   4.990   2.140   2.886
 8256SOL    HW225668   4.944   2.282   2.952
 8257SOL     OW25669   6.184   4.536   4.272
 8257SOL    HW125670   6.243   4.469   4.227
 8257SOL    HW225671   6.229   4.626   4.272
 8258SOL     OW25672   5.434   1.900   0.208
 8258SOL    HW125673   5.439   1.850   0.122
 8258SOL    HW225674   5.429   1.835   0.284
 8259SOL     OW25675   4.636   0.382   0.779
 8259SOL    HW125676   4.731   0.396   0.808
 8259SOL    HW225677   4.634   0.354   0.683
 8260SOL     OW25678   3.341   5.781   6.645
 8260SOL    HW125679   3.372   5.790   6.551
 8260SOL    HW225680   3.304   5.869   6.677
 8261SOL     OW25681   4.893   1.301   1.579
 8261SOL    HW125682   4.940   1.249   1.508
 8261SOL    HW225683   4.959   1.363   1.622
 8262SOL     OW25684   6.405   2.741   1.616
 8262SOL    HW125685   6.376   2.683   1.693
 8262SOL    HW225686   6.434   2.830   1.651
 8263SOL     OW25687   6.076   1.428   0.427
 8263SOL    HW125688   6.123   1.382   0.501
 8263SOL    HW225689   6.116   1.400   0.339
 8264SOL     OW25690   1.507   4.263   1.436
 8264SOL    HW125691   1.602   4.230   1.436
 8264SOL    HW225692   1.446   4.186   1.420
 8265SOL     OW25693   1.950   0.692   2.879
 8265SOL    HW125694   2.029   0.633   2.862
 8265SOL    HW225695   1.981   0.784   2.902
 8266SOL     OW25696   2.606   1.018   2.641
 8266SOL    HW125697   2.544   1.017   2.562
 8266SOL    HW225698   2.682   1.080   2.622
 8267SOL     OW25699   6.975   3.248   1.626
 8267SOL    HW125700   6.966   3.276   1.722
 8267SOL    HW225701   0.046   3.254   1.598
 8268SOL     OW25702   2.418   4.737   6.888
 8268SOL    HW125703   2.414   4.829   6.928
 8268SOL    HW225704   2.466   4.675   6.951
 8269SOL     OW25705   5.630   2.171   0.061
 8269SOL    HW125706   5.542   2.203   0.026
 8269SOL    HW225707   5.661   2.093   0.007
 8270SOL     OW25708   2.358   6.071   4.708
 8270SOL    HW125709   2.443   6.121   4.724
 8270SOL    HW225710   2.285   6.110   4.765
 8271SOL     OW25711   0.335   2.141   2.684
 8271SOL    HW125712   0.272   2.107   2.614
 8271SOL    HW225713   0.409   2.074   2.697
 8272SOL     OW25714   3.249   1.407   4.074
 8272SOL    HW125715   3.337   1.378   4.111
 8272SOL    HW225716   3.192   1.442   4.148
 8273SOL     OW25717   2.127   6.493   2.168
 8273SOL    HW125718   2.085   6.463   2.254
 8273SOL    HW225719   2.226   6.495   2.179
 8274SOL     OW25720   5.164   3.631   3.620
 8274SOL    HW125721   5.096   3.573   3.665
 8274SOL    HW225722   5.129   3.725   3.614
 8275SOL     OW25723   6.030   2.262   0.025
 8275SOL    HW125724   5.986   2.325   6.986
 8275SOL    HW225725   6.006   2.287   0.119
 8276SOL     OW25726   0.813   1.751   3.111
 8276SOL    HW125727   0.867   1.781   3.189
 8276SOL    HW225728   0.865   1.762   3.027
 8277SOL     OW25729   0.312   1.500   0.871
 8277SOL    HW125730   0.342   1.413   0.909
 8277SOL    HW225731   0.277   1.558   0.945
 8278SOL     OW25732   0.888   2.822   0.182
 8278SOL    HW125733   0.926   2.905   0.223
 8278SOL    HW225734   0.940   2.798   0.100
 8279SOL     OW25735   0.502   6.147   3.837
 8279SOL    HW125736   0.508   6.050   3.811
 8279SOL    HW225737   0.591   6.190   3.828
 8280SOL     OW25738   3.007   2.683   6.013
 8280SOL    HW125739   3.106   2.695   6.020
 8280SOL    HW225740   2.967   2.763   5.968
 8281SOL     OW25741   3.902   5.191   2.211
 8281SOL    HW125742   3.866   5.200   2.118
 8281SOL    HW225743   3.829   5.162   2.272
 8282SOL     OW25744   6.416   2.978   6.084
 8282SOL    HW125745   6.475   3.057   6.069
 8282SOL    HW225746   6.428   2.944   6.177
 8283SOL     OW25747   2.306   2.802   6.418
 8283SOL    HW125748   2.352   2.759   6.340
 8283SOL    HW225749   2.362   2.877   6.452
 8284SOL     OW25750   6.737   4.694   2.033
 8284SOL    HW125751   6.698   4.704   2.124
 8284SOL    HW225752   6.837   4.703   2.038
 8285SOL     OW25753   3.555   2.856   3.552
 8285SOL    HW125754   3.602   2.910   3.482
 8285SOL    HW225755   3.513   2.776   3.509
 8286SOL     OW25756   0.111   3.070   6.973
 8286SOL    HW125757   0.119   3.115   0.038
 8286SOL    HW225758   0.168   2.987   6.972
 8287SOL     OW25759   1.572   6.857   4.502
 8287SOL    HW125760   1.604   6.805   4.581
 8287SOL    HW225761   1.621   6.828   4.420
 8288SOL     OW25762   2.519   1.355   2.989
 8288SOL    HW125763   2.582   1.281   3.014
 8288SOL    HW225764   2.425   1.322   2.992
 8289SOL     OW25765   0.641   6.743   6.949
 8289SOL    HW125766   0.708   6.814   6.972
 8289SOL    HW225767   0.578   6.730   0.001
 8290SOL     OW25768   6.469   1.873   1.069
 8290SOL    HW125769   6.383   1.924   1.068
 8290SOL    HW225770   6.454   1.785   1.114
 8291SOL     OW25771   3.862   0.402   1.350
 8291SOL    HW125772   3.840   0.314   1.390
 8291SOL    HW225773   3.838   0.475   1.414
 8292SOL     OW25774   2.603   0.931   6.226
 8292SOL    HW125775   2.659   0.858   6.187
 8292SOL    HW225776   2.660   0.990   6.283
 8293SOL     OW25777   6.185   5.611   5.467
 8293SOL    HW125778   6.174   5.704   5.434
 8293SOL    HW225779   6.147   5.547   5.400
 8294SOL     OW25780   6.197   3.218   0.146
 8294SOL    HW125781   6.126   3.151   0.125
 8294SOL    HW225782   6.259   3.226   0.068
 8295SOL     OW25783   5.746   2.443   6.942
 8295SOL    HW125784   5.730   2.357   6.992
 8295SOL    HW225785   5.832   2.436   6.892
 8296SOL     OW25786   6.966   5.146   5.408
 8296SOL    HW125787   6.947   5.239   5.377
 8296SOL    HW225788   7.020   5.149   5.492
 8297SOL     OW25789   1.334   3.698   4.160
 8297SOL    HW125790   1.309   3.787   4.121
 8297SOL    HW225791   1.280   3.681   4.243
 8298SOL     OW25792   4.399   2.348   2.270
 8298SOL    HW125793   4.324   2.323   2.209
 8298SOL    HW225794   4.487   2.327   2.226
 8299SOL     OW25795   5.987   1.712   1.484
 8299SOL    HW125796   6.085   1.726   1.492
 8299SOL    HW225797   5.962   1.623   1.520
 8300SOL     OW25798   1.513   5.253   2.957
 8300SOL    HW125799   1.504   5.336   2.902
 8300SOL    HW225800   1.608   5.222   2.955
 8301SOL     OW25801   3.008   1.595   5.969
 8301SOL    HW125802   2.908   1.596   5.965
 8301SOL    HW225803   3.041   1.501   5.958
 8302SOL     OW25804   5.951   5.567   6.144
 8302SOL    HW125805   6.019   5.494   6.156
 8302SOL    HW225806   5.891   5.570   6.224
 8303SOL     OW25807   0.309   6.878   6.837
 8303SOL    HW125808   0.381   6.930   6.883
 8303SOL    HW225809   0.269   6.933   6.763
 8304SOL     OW25810   6.735   3.018   0.427
 8304SOL    HW125811   6.765   2.955   0.355
 8304SOL    HW225812   6.673   2.971   0.490
 8305SOL     OW25813   3.101   5.297   2.551
 8305SOL    HW125814   3.020   5.346   2.582
 8305SOL    HW225815   3.084   5.258   2.460
 8306SOL     OW25816   1.520   2.676   3.917
 8306SOL    HW125817   1.504   2.709   3.823
 8306SOL    HW225818   1.509   2.752   3.981
 8307SOL     OW25819   3.848   6.399   1.020
 8307SOL    HW125820   3.775   6.346   0.977
 8307SOL    HW225821   3.809   6.463   1.086
 8308SOL     OW25822   2.433   0.836   2.218
 8308SOL    HW125823   2.341   0.811   2.250
 8308SOL    HW225824   2.481   0.754   2.187
 8309SOL     OW25825   5.856   6.415   1.996
 8309SOL    HW125826   5.890   6.326   1.963
 8309SOL    HW225827   5.834   6.408   2.093
 8310SOL     OW25828   6.038   4.993   6.966
 8310SOL    HW125829   6.029   5.075   7.022
 8310SOL    HW225830   6.108   5.006   6.897
 8311SOL     OW25831   6.623   0.693   6.716
 8311SOL    HW125832   6.594   0.620   6.655
 8311SOL    HW225833   6.682   0.757   6.666
 8312SOL     OW25834   4.624   6.109   1.369
 8312SOL    HW125835   4.619   6.203   1.335
 8312SOL    HW225836   4.545   6.057   1.337
 8313SOL     OW25837   3.877   1.902   2.798
 8313SOL    HW125838   3.822   1.986   2.804
 8313SOL    HW225839   3.876   1.856   2.886
 8314SOL     OW25840   0.100   6.952   4.138
 8314SOL    HW125841   0.078   6.957   4.236
 8314SOL    HW225842   0.126   6.859   4.115
 8315SOL     OW25843   4.898   4.596   0.063
 8315SOL    HW125844   4.952   4.678   0.046
 8315SOL    HW225845   4.903   4.573   0.161
 8316SOL     OW25846   2.885   5.425   6.486
 8316SOL    HW125847   2.796   5.469   6.496
 8316SOL    HW225848   2.942   5.448   6.566
 8317SOL     OW25849   2.025   5.059   1.702
 8317SOL    HW125850   2.084   5.018   1.632
 8317SOL    HW225851   2.005   4.992   1.773
 8318SOL     OW25852   2.836   1.500   5.663
 8318SOL    HW125853   2.809   1.569   5.730
 8318SOL    HW225854   2.927   1.522   5.627
 8319SOL     OW25855   2.208   0.798   5.227
 8319SOL    HW125856   2.128   0.783   5.168
 8319SOL    HW225857   2.218   0.895   5.245
 8320SOL     OW25858   3.591   4.983   1.223
 8320SOL    HW125859   3.538   5.051   1.274
 8320SOL    HW225860   3.537   4.899   1.213
 8321SOL     OW25861   6.727   1.331   1.489
 8321SOL    HW125862   6.680   1.389   1.422
 8321SOL    HW225863   6.785   1.266   1.440
 8322SOL     OW25864   5.110   6.599   0.876
 8322SOL    HW125865   5.193   6.577   0.927
 8322SOL    HW225866   5.128   6.592   0.778
 8323SOL     OW25867   1.406   0.493   1.866
 8323SOL    HW125868   1.356   0.525   1.947
 8323SOL    HW225869   1.342   0.484   1.789
 8324SOL     OW25870   7.022   0.701   2.738
 8324SOL    HW125871   6.925   0.710   2.762
 8324SOL    HW225872   0.049   0.773   2.784
 8325SOL     OW25873   3.716   3.895   4.868
 8325SOL    HW125874   3.692   3.866   4.961
 8325SOL    HW225875   3.781   3.971   4.872
 8326SOL     OW25876   4.053   2.952   5.977
 8326SOL    HW125877   3.965   2.994   5.997
 8326SOL    HW225878   4.113   2.961   6.056
 8327SOL     OW25879   4.700   2.008   6.200
 8327SOL    HW125880   4.750   2.003   6.287
 8327SOL    HW225881   4.665   2.100   6.187
 8328SOL     OW25882   1.775   2.497   3.850
 8328SOL    HW125883   1.694   2.555   3.844
 8328SOL    HW225884   1.748   2.401   3.857
 8329SOL     OW25885   0.836   3.057   4.839
 8329SOL    HW125886   0.929   3.029   4.862
 8329SOL    HW225887   0.771   3.005   4.895
 8330SOL     OW25888   2.544   6.927   0.205
 8330SOL    HW125889   2.643   6.912   0.202
 8330SOL    HW225890   2.511   6.915   0.298
 8331SOL     OW25891   2.299   0.069   1.006
 8331SOL    HW125892   2.251   7.007   0.990
 8331SOL    HW225893   2.286   0.129   0.926
 8332SOL     OW25894   4.701   6.265   3.349
 8332SOL    HW125895   4.693   6.346   3.407
 8332SOL    HW225896   4.653   6.281   3.263
 8333SOL     OW25897   2.071   4.615   5.379
 8333SOL    HW125898   2.104   4.556   5.453
 8333SOL    HW225899   2.144   4.628   5.312
 8334SOL     OW25900   6.588   0.205   3.330
 8334SOL    HW125901   6.681   0.187   3.359
 8334SOL    HW225902   6.586   0.221   3.231
 8335SOL     OW25903   6.280   6.307   4.980
 8335SOL    HW125904   6.225   6.379   4.938
 8335SOL    HW225905   6.223   6.227   4.997
 8336SOL     OW25906   1.288   1.679   2.672
 8336SOL    HW125907   1.379   1.715   2.653
 8336SOL    HW225908   1.281   1.655   2.769
 8337SOL     OW25909   6.233   6.608   2.182
 8337SOL    HW125910   6.194   6.678   2.241
 8337SOL    HW225911   6.202   6.518   2.212
 8338SOL     OW25912   2.541   5.792   0.647
 8338SOL    HW125913   2.631   5.776   0.607
 8338SOL    HW225914   2.529   5.735   0.728
 8339SOL     OW25915   4.954   1.139   3.236
 8339SOL    HW125916   5.009   1.216   3.205
 8339SOL    HW225917   4.870   1.173   3.280
 8340SOL     OW25918   5.030   4.076   1.658
 8340SOL    HW125919   4.937   4.039   1.666
 8340SOL    HW225920   5.091   4.007   1.621
 8341SOL     OW25921   2.010   0.249   0.605
 8341SOL    HW125922   2.073   0.310   0.653
 8341SOL    HW225923   1.966   0.189   0.672
 8342SOL     OW25924   5.398   0.003   1.211
 8342SOL    HW125925   5.300   0.018   1.196
 8342SOL    HW225926   5.441   0.088   1.240
 8343SOL     OW25927   0.145   4.679   4.876
 8343SOL    HW125928   0.189   4.768   4.884
 8343SOL    HW225929   0.049   4.686   4.902
 8344SOL     OW25930   3.515   6.624   4.853
 8344SOL    HW125931   3.603   6.660   4.819
 8344SOL    HW225932   3.444   6.642   4.785
 8345SOL     OW25933   5.661   1.568   2.998
 8345SOL    HW125934   5.742   1.577   2.940
 8345SOL    HW225935   5.594   1.509   2.953
 8346SOL     OW25936   4.055   5.417   2.289
 8346SOL    HW125937   4.154   5.406   2.292
 8346SOL    HW225938   4.011   5.328   2.295
 8347SOL     OW25939   3.276   5.032   4.530
 8347SOL    HW125940   3.294   4.981   4.614
 8347SOL    HW225941   3.285   5.130   4.548
 8348SOL     OW25942   2.266   7.005   0.553
 8348SOL    HW125943   2.326   6.946   0.500
 8348SOL    HW225944   2.321   0.041   0.612
 8349SOL     OW25945   5.814   4.666   2.343
 8349SOL    HW125946   5.735   4.726   2.359
 8349SOL    HW225947   5.786   4.571   2.355
 8350SOL     OW25948   6.435   0.959   5.241
 8350SOL    HW125949   6.483   0.973   5.155
 8350SOL    HW225950   6.388   0.871   5.239
 8351SOL     OW25951   3.126   6.900   2.502
 8351SOL    HW125952   3.175   6.814   2.489
 8351SOL    HW225953   3.190   6.977   2.496
 8352SOL     OW25954   6.301   6.373   1.781
 8352SOL    HW125955   6.264   6.446   1.837
 8352SOL    HW225956   6.232   6.344   1.714
 8353SOL     OW25957   2.131   3.670   2.143
 8353SOL    HW125958   2.179   3.603   2.086
 8353SOL    HW225959   2.114   3.631   2.233
 8354SOL     OW25960   3.149   0.419   0.668
 8354SOL    HW125961   3.203   0.351   0.618
 8354SOL    HW225962   3.202   0.453   0.745
 8355SOL     OW25963   2.856   1.858   0.664
 8355SOL    HW125964   2.848   1.921   0.587
 8355SOL    HW225965   2.817   1.770   0.639
 8356SOL     OW25966   3.170   5.166   0.295
 8356SOL    HW125967   3.118   5.082   0.311
 8356SOL    HW225968   3.108   5.238   0.264
 8357SOL     OW25969   4.313   6.069   2.924
 8357SOL    HW125970   4.389   6.073   2.860
 8357SOL    HW225971   4.340   6.017   3.005
 8358SOL     OW25972   2.741   2.089   4.781
 8358SOL    HW125973   2.782   2.108   4.870
 8358SOL    HW225974   2.731   2.175   4.730
 8359SOL     OW25975   3.658   4.904   4.281
 8359SOL    HW125976   3.702   4.878   4.367
 8359SOL    HW225977   3.559   4.902   4.292
 8360SOL     OW25978   4.747   0.649   3.383
 8360SOL    HW125979   4.699   0.736   3.372
 8360SOL    HW225980   4.688   0.574   3.353
 8361SOL     OW25981   1.431   0.643   3.316
 8361SOL    HW125982   1.344   0.673   3.278
 8361SOL    HW225983   1.415   0.602   3.406
 8362SOL     OW25984   2.942   3.013   0.893
 8362SOL    HW125985   2.943   2.929   0.837
 8362SOL    HW225986   2.873   3.075   0.858
 8363SOL     OW25987   0.663   3.456   1.836
 8363SOL    HW125988   0.661   3.524   1.763
 8363SOL    HW225989   0.659   3.502   1.924
 8364SOL     OW25990   6.800   4.954   5.558
 8364SOL    HW125991   6.845   5.032   5.514
 8364SOL    HW225992   6.795   4.970   5.656
 8365SOL     OW25993   1.704   3.784   5.629
 8365SOL    HW125994   1.626   3.724   5.614
 8365SOL    HW225995   1.714   3.802   5.727
 8366SOL     OW25996   2.625   0.184   2.083
 8366SOL    HW125997   2.673   0.261   2.042
 8366SOL    HW225998   2.666   0.098   2.052
 8367SOL     OW25999   5.073   5.720   3.978
 8367SOL    HW126000   5.163   5.680   3.993
 8367SOL    HW226001   5.031   5.679   3.897
 8368SOL     OW26002   3.008   5.582   6.233
 8368SOL    HW126003   3.032   5.594   6.330
 8368SOL    HW226004   2.957   5.496   6.222
 8369SOL     OW26005   2.202   1.386   1.131
 8369SOL    HW126006   2.249   1.401   1.218
 8369SOL    HW226007   2.267   1.354   1.062
 8370SOL     OW26008   2.399   1.132   0.560
 8370SOL    HW126009   2.309   1.122   0.603
 8370SOL    HW226010   2.452   1.049   0.575
 8371SOL     OW26011   1.295   2.603   0.290
 8371SOL    HW126012   1.288   2.503   0.281
 8371SOL    HW226013   1.318   2.643   0.202
 8372SOL     OW26014   5.815   0.673   0.459
 8372SOL    HW126015   5.831   0.703   0.365
 8372SOL    HW226016   5.802   0.752   0.518
 8373SOL     OW26017   1.773   6.898   4.054
 8373SOL    HW126018   1.680   6.912   4.086
 8373SOL    HW226019   1.791   6.954   3.974
 8374SOL     OW26020   6.767   1.687   5.851
 8374SOL    HW126021   6.795   1.648   5.764
 8374SOL    HW226022   6.680   1.734   5.840
 8375SOL     OW26023   4.029   0.952   6.352
 8375SOL    HW126024   4.077   0.878   6.399
 8375SOL    HW226025   4.086   1.034   6.350
 8376SOL     OW26026   4.209   0.559   4.023
 8376SOL    HW126027   4.301   0.561   4.062
 8376SOL    HW226028   4.145   0.519   4.089
 8377SOL     OW26029   4.947   5.102   0.674
 8377SOL    HW126030   4.974   5.020   0.623
 8377SOL    HW226031   4.986   5.183   0.630
 8378SOL     OW26032   4.950   2.632   3.677
 8378SOL    HW126033   4.860   2.676   3.680
 8378SOL    HW226034   4.991   2.646   3.587
 8379SOL     OW26035   5.502   2.721   2.724
 8379SOL    HW126036   5.454   2.806   2.747
 8379SOL    HW226037   5.527   2.723   2.627
 8380SOL     OW26038   5.844   1.264   3.972
 8380SOL    HW126039   5.776   1.231   4.038
 8380SOL    HW226040   5.848   1.364   3.975
 8381SOL     OW26041   1.943   5.558   4.652
 8381SOL    HW126042   1.871   5.513   4.598
 8381SOL    HW226043   2.007   5.490   4.686
 8382SOL     OW26044   0.625   4.590   2.365
 8382SOL    HW126045   0.700   4.527   2.346
 8382SOL    HW226046   0.601   4.587   2.462
 8383SOL     OW26047   3.151   1.419   5.386
 8383SOL    HW126048   3.246   1.412   5.355
 8383SOL    HW226049   3.127   1.337   5.438
 8384SOL     OW26050   0.579   0.070   1.267
 8384SOL    HW126051   0.542   0.043   1.178
 8384SOL    HW226052   0.651   0.138   1.253
 8385SOL     OW26053   4.288   1.402   1.343
 8385SOL    HW126054   4.204   1.449   1.317
 8385SOL    HW226055   4.348   1.396   1.264
 8386SOL     OW26056   0.406   2.962   2.019
 8386SOL    HW126057   0.448   3.044   1.981
 8386SOL    HW226058   0.347   2.920   1.949
 8387SOL     OW26059   0.567   1.723   1.806
 8387SOL    HW126060   0.568   1.822   1.796
 8387SOL    HW226061   0.480   1.694   1.844
 8388SOL     OW26062   1.402   6.777   2.502
 8388SOL    HW126063   1.392   6.842   2.427
 8388SOL    HW226064   1.314   6.768   2.549
 8389SOL     OW26065   6.197   3.335   3.515
 8389SOL    HW126066   6.182   3.407   3.447
 8389SOL    HW226067   6.110   3.292   3.539
 8390SOL     OW26068   5.950   2.030   6.559
 8390SOL    HW126069   5.994   2.093   6.495
 8390SOL    HW226070   5.975   2.056   6.653
 8391SOL     OW26071   6.361   0.651   1.262
 8391SOL    HW126072   6.309   0.715   1.319
 8391SOL    HW226073   6.334   0.661   1.167
 8392SOL     OW26074   3.711   2.959   4.586
 8392SOL    HW126075   3.667   2.940   4.498
 8392SOL    HW226076   3.645   2.946   4.660
 8393SOL     OW26077   5.972   0.242   1.174
 8393SOL    HW126078   5.890   0.280   1.131
 8393SOL    HW226079   5.982   0.279   1.266
 8394SOL     OW26080   5.370   2.987   2.765
 8394SOL    HW126081   5.318   2.999   2.850
 8394SOL    HW226082   5.445   3.053   2.762
 8395SOL     OW26083   1.974   0.964   5.316
 8395SOL    HW126084   2.067   0.985   5.346
 8395SOL    HW226085   1.910   1.022   5.366
 8396SOL     OW26086   4.908   5.242   4.258
 8396SOL    HW126087   4.919   5.247   4.358
 8396SOL    HW226088   4.811   5.230   4.236
 8397SOL     OW26089   5.754   6.648   2.650
 8397SOL    HW126090   5.709   6.675   2.566
 8397SOL    HW226091   5.692   6.659   2.727
 8398SOL     OW26092   5.909   1.842   6.358
 8398SOL    HW126093   5.814   1.827   6.330
 8398SOL    HW226094   5.914   1.921   6.419
 8399SOL     OW26095   0.556   4.086   2.539
 8399SOL    HW126096   0.574   3.999   2.587
 8399SOL    HW226097   0.473   4.076   2.483
 8400SOL     OW26098   1.323   0.727   4.719
 8400SOL    HW126099   1.226   0.747   4.734
 8400SOL    HW226100   1.338   0.701   4.624
 8401SOL     OW26101   1.565   0.243   5.959
 8401SOL    HW126102   1.651   0.241   6.011
 8401SOL    HW226103   1.524   0.334   5.967
 8402SOL     OW26104   2.948   0.555   6.115
 8402SOL    HW126105   2.883   0.619   6.073
 8402SOL    HW226106   2.907   0.465   6.120
 8403SOL     OW26107   6.002   4.882   6.076
 8403SOL    HW126108   5.988   4.793   6.032
 8403SOL    HW226109   5.942   4.949   6.033
 8404SOL     OW26110   1.059   1.332   0.204
 8404SOL    HW126111   1.015   1.243   0.189
 8404SOL    HW226112   1.030   1.368   0.292
 8405SOL     OW26113   3.725   6.608   5.878
 8405SOL    HW126114   3.668   6.616   5.796
 8405SOL    HW226115   3.805   6.667   5.869
 8406SOL     OW26116   6.326   0.840   6.228
 8406SOL    HW126117   6.421   0.830   6.199
 8406SOL    HW226118   6.265   0.809   6.154
 8407SOL     OW26119   4.713   0.593   5.175
 8407SOL    HW126120   4.793   0.574   5.232
 8407SOL    HW226121   4.636   0.618   5.234
 8408SOL     OW26122   3.783   2.002   1.521
 8408SOL    HW126123   3.872   1.957   1.510
 8408SOL    HW226124   3.797   2.101   1.525
 8409SOL     OW26125   4.673   2.659   1.859
 8409SOL    HW126126   4.626   2.715   1.792
 8409SOL    HW226127   4.725   2.717   1.921
 8410SOL     OW26128   6.883   1.902   1.449
 8410SOL    HW126129   6.811   1.970   1.439
 8410SOL    HW226130   6.859   1.837   1.521
 8411SOL     OW26131   0.555   5.537   1.133
 8411SOL    HW126132   0.498   5.590   1.070
 8411SOL    HW226133   0.598   5.598   1.199
 8412SOL     OW26134   2.624   2.305   0.111
 8412SOL    HW126135   2.602   2.331   0.205
 8412SOL    HW226136   2.543   2.266   0.067
 8413SOL     OW26137   4.182   5.830   4.862
 8413SOL    HW126138   4.219   5.865   4.775
 8413SOL    HW226139   4.082   5.839   4.862
 8414SOL     OW26140   1.914   0.127   0.835
 8414SOL    HW126141   1.905   0.191   0.911
 8414SOL    HW226142   1.922   0.034   0.870
 8415SOL     OW26143   3.727   1.515   6.086
 8415SOL    HW126144   3.649   1.539   6.145
 8415SOL    HW226145   3.752   1.595   6.031
 8416SOL     OW26146   0.385   2.159   4.833
 8416SOL    HW126147   0.428   2.211   4.907
 8416SOL    HW226148   0.353   2.222   4.762
 8417SOL     OW26149   1.917   3.233   6.160
 8417SOL    HW126150   1.887   3.139   6.180
 8417SOL    HW226151   1.856   3.297   6.206
 8418SOL     OW26152   6.181   6.386   2.410
 8418SOL    HW126153   6.264   6.338   2.439
 8418SOL    HW226154   6.105   6.322   2.408
 8419SOL     OW26155   3.656   1.681   4.200
 8419SOL    HW126156   3.681   1.585   4.188
 8419SOL    HW226157   3.684   1.733   4.119
 8420SOL     OW26158   3.970   1.212   2.328
 8420SOL    HW126159   3.943   1.115   2.325
 8420SOL    HW226160   3.888   1.269   2.334
 8421SOL     OW26161   4.812   0.161   6.387
 8421SOL    HW126162   4.748   0.227   6.426
 8421SOL    HW226163   4.806   0.075   6.437
 8422SOL     OW26164   5.247   1.999   4.579
 8422SOL    HW126165   5.318   2.067   4.597
 8422SOL    HW226166   5.262   1.959   4.488
 8423SOL     OW26167   6.520   5.823   0.590
 8423SOL    HW126168   6.434   5.858   0.554
 8423SOL    HW226169   6.534   5.730   0.557
 8424SOL     OW26170   2.628   0.343   5.106
 8424SOL    HW126171   2.676   0.273   5.159
 8424SOL    HW226172   2.691   0.381   5.038
 8425SOL     OW26173   3.673   3.250   2.103
 8425SOL    HW126174   3.745   3.239   2.171
 8425SOL    HW226175   3.614   3.327   2.128
 8426SOL     OW26176   3.625   3.091   1.561
 8426SOL    HW126177   3.691   3.137   1.502
 8426SOL    HW226178   3.664   3.006   1.595
 8427SOL     OW26179   3.930   3.635   2.681
 8427SOL    HW126180   3.953   3.709   2.744
 8427SOL    HW226181   3.960   3.659   2.588
 8428SOL     OW26182   5.497   0.917   1.596
 8428SOL    HW126183   5.492   0.818   1.577
 8428SOL    HW226184   5.497   0.967   1.510
 8429SOL     OW26185   3.212   6.067   5.597
 8429SOL    HW126186   3.230   6.090   5.501
 8429SOL    HW226187   3.136   6.002   5.602
 8430SOL     OW26188   5.594   6.921   5.552
 8430SOL    HW126189   5.540   6.979   5.613
 8430SOL    HW226190   5.667   6.877   5.603
 8431SOL     OW26191   2.539   3.464   6.350
 8431SOL    HW126192   2.621   3.514   6.378
 8431SOL    HW226193   2.522   3.481   6.253
 8432SOL     OW26194   6.515   5.167   5.451
 8432SOL    HW126195   6.450   5.172   5.527
 8432SOL    HW226196   6.465   5.160   5.365
 8433SOL     OW26197   4.542   1.754   0.841
 8433SOL    HW126198   4.509   1.842   0.806
 8433SOL    HW226199   4.508   1.680   0.784
 8434SOL     OW26200   2.684   6.203   4.515
 8434SOL    HW126201   2.660   6.178   4.609
 8434SOL    HW226202   2.781   6.188   4.500
 8435SOL     OW26203   6.682   1.630   3.225
 8435SOL    HW126204   6.773   1.614   3.265
 8435SOL    HW226205   6.631   1.693   3.283
 8436SOL     OW26206   2.418   5.221   2.671
 8436SOL    HW126207   2.422   5.223   2.571
 8436SOL    HW226208   2.361   5.296   2.703
 8437SOL     OW26209   1.697   5.857   0.186
 8437SOL    HW126210   1.706   5.948   0.226
 8437SOL    HW226211   1.770   5.842   0.120
 8438SOL     OW26212   1.015   4.110   2.367
 8438SOL    HW126213   0.950   4.035   2.356
 8438SOL    HW226214   1.100   4.075   2.407
 8439SOL     OW26215   5.779   4.156   2.552
 8439SOL    HW126216   5.720   4.092   2.503
 8439SOL    HW226217   5.738   4.176   2.641
 8440SOL     OW26218   1.528   1.784   2.615
 8440SOL    HW126219   1.516   1.854   2.544
 8440SOL    HW226220   1.559   1.827   2.700
 8441SOL     OW26221   7.005   2.847   6.522
 8441SOL    HW126222   0.075   2.818   6.536
 8441SOL    HW226223   6.982   2.840   6.425
 8442SOL     OW26224   3.832   2.812   6.467
 8442SOL    HW126225   3.924   2.802   6.429
 8442SOL    HW226226   3.767   2.764   6.409
 8443SOL     OW26227   1.940   4.052   3.125
 8443SOL    HW126228   2.037   4.028   3.127
 8443SOL    HW226229   1.885   3.973   3.151
 8444SOL     OW26230   5.419   5.350   5.142
 8444SOL    HW126231   5.409   5.446   5.171
 8444SOL    HW226232   5.351   5.294   5.190
 8445SOL     OW26233   4.718   6.387   6.481
 8445SOL    HW126234   4.629   6.382   6.526
 8445SOL    HW226235   4.783   6.433   6.542
 8446SOL     OW26236   6.525   6.428   4.414
 8446SOL    HW126237   6.548   6.345   4.464
 8446SOL    HW226238   6.426   6.434   4.404
 8447SOL     OW26239   3.517   1.925   4.332
 8447SOL    HW126240   3.561   1.837   4.313
 8447SOL    HW226241   3.533   1.987   4.255
 8448SOL     OW26242   3.568   7.017   2.708
 8448SOL    HW126243   3.580   0.002   2.807
 8448SOL    HW226244   3.487   6.961   2.689
 8449SOL     OW26245   1.169   2.773   3.922
 8449SOL    HW126246   1.144   2.863   3.957
 8449SOL    HW226247   1.176   2.777   3.822
 8450SOL     OW26248   6.620   1.503   0.773
 8450SOL    HW126249   6.701   1.526   0.718
 8450SOL    HW226250   6.602   1.577   0.838
 8451SOL     OW26251   4.344   2.501   0.469
 8451SOL    HW126252   4.246   2.478   0.476
 8451SOL    HW226253   4.377   2.474   0.378
 8452SOL     OW26254   5.339   0.871   5.891
 8452SOL    HW126255   5.438   0.886   5.895
 8452SOL    HW226256   5.292   0.952   5.925
 8453SOL     OW26257   0.267   0.655   0.245
 8453SOL    HW126258   0.260   0.592   0.322
 8453SOL    HW226259   0.328   0.731   0.268
 8454SOL     OW26260   6.316   5.563   0.249
 8454SOL    HW126261   6.255   5.634   0.284
 8454SOL    HW226262   6.269   5.513   0.176
 8455SOL     OW26263   5.981   0.942   2.911
 8455SOL    HW126264   6.038   0.998   2.970
 8455SOL    HW226265   5.899   0.914   2.960
 8456SOL     OW26266   6.320   0.169   2.132
 8456SOL    HW126267   6.309   0.114   2.214
 8456SOL    HW226268   6.232   0.176   2.085
 8457SOL     OW26269   6.076   0.119   4.990
 8457SOL    HW126270   6.128   0.045   4.947
 8457SOL    HW226271   6.098   0.122   5.088
 8458SOL     OW26272   1.489   6.469   0.407
 8458SOL    HW126273   1.537   6.557   0.402
 8458SOL    HW226274   1.399   6.478   0.364
 8459SOL     OW26275   0.581   5.935   3.261
 8459SOL    HW126276   0.512   5.974   3.200
 8459SOL    HW226277   0.669   5.977   3.241
 8460SOL     OW26278   4.073   3.171   3.902
 8460SOL    HW126279   4.072   3.153   4.000
 8460SOL    HW226280   4.126   3.253   3.884
 8461SOL     OW26281   6.331   3.560   3.624
 8461SOL    HW126282   6.305   3.492   3.555
 8461SOL    HW226283   6.290   3.648   3.601
 8462SOL     OW26284   2.340   2.396   2.140
 8462SOL    HW126285   2.435   2.423   2.127
 8462SOL    HW226286   2.312   2.336   2.066
 8463SOL     OW26287   6.860   0.072   1.698
 8463SOL    HW126288   6.911   0.142   1.648
 8463SOL    HW226289   6.777   0.049   1.647
 8464SOL     OW26290   6.643   1.161   4.596
 8464SOL    HW126291   6.593   1.095   4.540
 8464SOL    HW226292   6.578   1.227   4.636
 8465SOL     OW26293   2.207   0.796   0.531
 8465SOL    HW126294   2.129   0.733   0.523
 8465SOL    HW226295   2.174   0.890   0.525
 8466SOL     OW26296   0.922   6.759   4.231
 8466SOL    HW126297   0.858   6.775   4.157
 8466SOL    HW226298   0.872   6.739   4.315
 8467SOL     OW26299   3.925   5.519   1.221
 8467SOL    HW126300   3.960   5.433   1.259
 8467SOL    HW226301   4.002   5.583   1.209
 8468SOL     OW26302   4.572   2.932   0.079
 8468SOL    HW126303   4.609   3.008   0.026
 8468SOL    HW226304   4.532   2.967   0.164
 8469SOL     OW26305   5.131   2.636   5.467
 8469SOL    HW126306   5.219   2.644   5.515
 8469SOL    HW226307   5.125   2.547   5.423
 8470SOL     OW26308   1.908   2.742   6.918
 8470SOL    HW126309   1.907   2.642   6.910
 8470SOL    HW226310   1.978   2.770   6.983
 8471SOL     OW26311   3.964   1.717   5.707
 8471SOL    HW126312   3.939   1.752   5.617
 8471SOL    HW226313   3.893   1.742   5.773
 8472SOL     OW26314   1.723   5.885   2.693
 8472SOL    HW126315   1.699   5.965   2.748
 8472SOL    HW226316   1.730   5.805   2.753
 8473SOL     OW26317   6.568   5.668   6.822
 8473SOL    HW126318   6.657   5.632   6.795
 8473SOL    HW226319   6.515   5.692   6.741
 8474SOL     OW26320   4.375   5.818   6.998
 8474SOL    HW126321   4.472   5.811   6.977
 8474SOL    HW226322   4.322   5.783   6.920
 8475SOL     OW26323   5.165   1.383   3.136
 8475SOL    HW126324   5.264   1.397   3.130
 8475SOL    HW226325   5.120   1.435   3.064
 8476SOL     OW26326   4.882   0.388   2.643
 8476SOL    HW126327   4.895   0.290   2.654
 8476SOL    HW226328   4.970   0.432   2.626
 8477SOL     OW26329   2.967   0.663   3.191
 8477SOL    HW126330   3.021   0.705   3.119
 8477SOL    HW226331   2.958   0.727   3.268
 8478SOL     OW26332   1.118   1.106   6.049
 8478SOL    HW126333   1.158   1.197   6.041
 8478SOL    HW226334   1.149   1.063   6.133
 8479SOL     OW26335   5.221   0.314   2.360
 8479SOL    HW126336   5.320   0.312   2.377
 8479SOL    HW226337   5.204   0.318   2.261
 8480SOL     OW26338   1.822   1.110   2.099
 8480SOL    HW126339   1.783   1.184   2.045
 8480SOL    HW226340   1.902   1.073   2.052
 8481SOL     OW26341   3.722   0.229   5.605
 8481SOL    HW126342   3.702   0.322   5.571
 8481SOL    HW226343   3.660   0.164   5.560
 8482SOL     OW26344   6.767   0.425   1.617
 8482SOL    HW126345   6.797   0.350   1.559
 8482SOL    HW226346   6.775   0.399   1.713
 8483SOL     OW26347   4.869   6.306   1.548
 8483SOL    HW126348   4.939   6.363   1.592
 8483SOL    HW226349   4.787   6.304   1.605
 8484SOL     OW26350   6.368   4.766   5.625
 8484SOL    HW126351   6.351   4.776   5.527
 8484SOL    HW226352   6.284   4.734   5.670
 8485SOL     OW26353   2.373   3.239   6.419
 8485SOL    HW126354   2.282   3.266   6.388
 8485SOL    HW226355   2.429   3.320   6.433
 8486SOL     OW26356   4.369   0.453   2.263
 8486SOL    HW126357   4.428   0.435   2.341
 8486SOL    HW226358   4.407   0.407   2.182
 8487SOL     OW26359   4.200   0.335   0.890
 8487SOL    HW126360   4.239   0.403   0.952
 8487SOL    HW226361   4.254   0.251   0.893
 8488SOL     OW26362   0.053   4.102   5.702
 8488SOL    HW126363   7.006   4.130   5.766
 8488SOL    HW226364   0.081   4.008   5.722
 8489SOL     OW26365   3.358   0.067   3.504
 8489SOL    HW126366   3.402   7.008   3.537
 8489SOL    HW226367   3.414   0.108   3.432
 8490SOL     OW26368   3.712   5.046   2.568
 8490SOL    HW126369   3.734   4.957   2.527
 8490SOL    HW226370   3.615   5.049   2.591
 8491SOL     OW26371   0.546   0.889   1.198
 8491SOL    HW126372   0.467   0.833   1.224
 8491SOL    HW226373   0.610   0.833   1.146
 8492SOL     OW26374   5.936   4.134   4.992
 8492SOL    HW126375   6.021   4.134   5.044
 8492SOL    HW226376   5.889   4.221   5.005
 8493SOL     OW26377   3.827   2.984   0.438
 8493SOL    HW126378   3.807   2.996   0.535
 8493SOL    HW226379   3.878   2.899   0.424
 8494SOL     OW26380   3.499   6.247   6.752
 8494SOL    HW126381   3.550   6.333   6.750
 8494SOL    HW226382   3.443   6.239   6.670
 8495SOL     OW26383   0.512   3.222   6.094
 8495SOL    HW126384   0.416   3.229   6.121
 8495SOL    HW226385   0.518   3.169   6.009
 8496SOL     OW26386   1.288   1.944   3.803
 8496SOL    HW126387   1.236   1.992   3.873
 8496SOL    HW226388   1.230   1.875   3.759
 8497SOL     OW26389   5.507   3.793   3.859
 8497SOL    HW126390   5.467   3.702   3.853
 8497SOL    HW226391   5.434   3.862   3.865
 8498SOL     OW26392   6.887   0.702   1.727
 8498SOL    HW126393   6.837   0.670   1.647
 8498SOL    HW226394   6.829   0.694   1.808
 8499SOL     OW26395   0.058   4.352   0.885
 8499SOL    HW126396   0.144   4.322   0.926
 8499SOL    HW226397   7.006   4.307   0.932
 8500SOL     OW26398   2.123   0.794   4.908
 8500SOL    HW126399   2.178   0.711   4.920
 8500SOL    HW226400   2.031   0.768   4.876
 8501SOL     OW26401   3.080   3.869   6.235
 8501SOL    HW126402   3.093   3.894   6.139
 8501SOL    HW226403   3.069   3.770   6.242
 8502SOL     OW26404   0.687   6.242   1.002
 8502SOL    HW126405   0.774   6.215   1.042
 8502SOL    HW226406   0.647   6.317   1.056
 8503SOL     OW26407   4.150   5.654   3.257
 8503SOL    HW126408   4.203   5.703   3.188
 8503SOL    HW226409   4.202   5.575   3.289
 8504SOL     OW26410   1.963   4.756   3.072
 8504SOL    HW126411   1.928   4.806   3.151
 8504SOL    HW226412   2.014   4.818   3.013
 8505SOL     OW26413   4.280   1.861   2.666
 8505SOL    HW126414   4.300   1.863   2.568
 8505SOL    HW226415   4.233   1.945   2.692
 8506SOL     OW26416   0.627   5.094   6.898
 8506SOL    HW126417   0.560   5.123   6.829
 8506SOL    HW226418   0.715   5.139   6.881
 8507SOL     OW26419   1.896   0.239   4.164
 8507SOL    HW126420   1.942   0.327   4.154
 8507SOL    HW226421   1.965   0.166   4.169
 8508SOL     OW26422   0.723   3.738   5.784
 8508SOL    HW126423   0.743   3.659   5.841
 8508SOL    HW226424   0.709   3.709   5.690
 8509SOL     OW26425   6.534   2.247   4.757
 8509SOL    HW126426   6.603   2.314   4.732
 8509SOL    HW226427   6.577   2.159   4.778
 8510SOL     OW26428   5.240   6.714   2.785
 8510SOL    HW126429   5.273   6.782   2.719
 8510SOL    HW226430   5.143   6.728   2.802
 8511SOL     OW26431   6.643   5.222   1.349
 8511SOL    HW126432   6.669   5.131   1.381
 8511SOL    HW226433   6.682   5.291   1.409
 8512SOL     OW26434   3.977   2.866   0.969
 8512SOL    HW126435   3.916   2.895   1.043
 8512SOL    HW226436   4.070   2.859   1.003
 8513SOL     OW26437   0.618   3.552   0.725
 8513SOL    HW126438   0.533   3.588   0.763
 8513SOL    HW226439   0.603   3.459   0.691
 8514SOL     OW26440   2.120   3.105   4.884
 8514SOL    HW126441   2.197   3.052   4.918
 8514SOL    HW226442   2.152   3.195   4.854
 8515SOL     OW26443   3.216   1.308   0.300
 8515SOL    HW126444   3.138   1.273   0.247
 8515SOL    HW226445   3.186   1.385   0.356
 8516SOL     OW26446   6.691   3.447   5.235
 8516SOL    HW126447   6.760   3.421   5.166
 8516SOL    HW226448   6.725   3.424   5.326
 8517SOL     OW26449   1.255   2.100   5.608
 8517SOL    HW126450   1.225   2.188   5.645
 8517SOL    HW226451   1.321   2.059   5.671
 8518SOL     OW26452   5.350   5.071   0.229
 8518SOL    HW126453   5.392   5.086   0.140
 8518SOL    HW226454   5.420   5.072   0.301
 8519SOL     OW26455   0.909   3.825   1.017
 8519SOL    HW126456   0.891   3.765   0.939
 8519SOL    HW226457   0.924   3.918   0.985
 8520SOL     OW26458   3.631   3.874   6.011
 8520SOL    HW126459   3.578   3.945   5.964
 8520SOL    HW226460   3.573   3.828   6.078
 8521SOL     OW26461   2.230   6.962   4.577
 8521SOL    HW126462   2.142   6.999   4.550
 8521SOL    HW226463   2.271   6.913   4.500
 8522SOL     OW26464   0.614   0.416   0.052
 8522SOL    HW126465   0.709   0.393   0.028
 8522SOL    HW226466   0.563   0.332   0.067
 8523SOL     OW26467   4.069   1.963   1.459
 8523SOL    HW126468   4.099   1.896   1.526
 8523SOL    HW226469   4.137   2.036   1.451
 8524SOL     OW26470   2.904   6.165   5.424
 8524SOL    HW126471   2.846   6.246   5.411
 8524SOL    HW226472   2.888   6.127   5.515
 8525SOL     OW26473   6.106   2.537   3.380
 8525SOL    HW126474   6.172   2.463   3.388
 8525SOL    HW226475   6.107   2.574   3.287
 8526SOL     OW26476   0.586   4.568   6.590
 8526SOL    HW126477   0.526   4.501   6.546
 8526SOL    HW226478   0.656   4.521   6.643
 8527SOL     OW26479   2.445   1.184   6.383
 8527SOL    HW126480   2.417   1.131   6.463
 8527SOL    HW226481   2.530   1.146   6.346
 8528SOL     OW26482   5.663   7.001   0.641
 8528SOL    HW126483   5.718   6.922   0.616
 8528SOL    HW226484   5.576   6.998   0.591
 8529SOL     OW26485   0.923   6.517   6.691
 8529SOL    HW126486   0.921   6.431   6.640
 8529SOL    HW226487   0.890   6.591   6.632
 8530SOL     OW26488   3.648   4.080   2.953
 8530SOL    HW126489   3.689   4.021   3.024
 8530SOL    HW226490   3.674   4.175   2.970
 8531SOL     OW26491   6.525   5.935   3.087
 8531SOL    HW126492   6.479   5.854   3.122
 8531SOL    HW226493   6.582   5.910   3.009
 8532SOL     OW26494   3.738   5.423   0.400
 8532SOL    HW126495   3.649   5.426   0.352
 8532SOL    HW226496   3.745   5.501   0.462
 8533SOL     OW26497   2.771   5.736   5.456
 8533SOL    HW126498   2.760   5.637   5.466
 8533SOL    HW226499   2.746   5.763   5.363
 8534SOL     OW26500   1.771   3.630   1.852
 8534SOL    HW126501   1.724   3.579   1.780
 8534SOL    HW226502   1.704   3.673   1.912
 8535SOL     OW26503   6.565   0.215   1.812
 8535SOL    HW126504   6.664   0.208   1.829
 8535SOL    HW226505   6.526   0.288   1.868
 8536SOL     OW26506   1.825   0.851   4.089
 8536SOL    HW126507   1.919   0.825   4.066
 8536SOL    HW226508   1.827   0.930   4.151
 8537SOL     OW26509   5.637   1.137   3.148
 8537SOL    HW126510   5.541   1.112   3.142
 8537SOL    HW226511   5.657   1.170   3.240
 8538SOL     OW26512   0.533   2.210   6.484
 8538SOL    HW126513   0.580   2.284   6.436
 8538SOL    HW226514   0.467   2.249   6.548
 8539SOL     OW26515   5.351   3.639   2.171
 8539SOL    HW126516   5.413   3.663   2.246
 8539SOL    HW226517   5.256   3.645   2.203
 8540SOL     OW26518   4.337   7.021   0.965
 8540SOL    HW126519   4.402   0.067   0.935
 8540SOL    HW226520   4.339   7.015   1.065
 8541SOL     OW26521   1.361   3.137   3.466
 8541SOL    HW126522   1.330   3.056   3.416
 8541SOL    HW226523   1.435   3.112   3.528
 8542SOL     OW26524   3.042   4.917   6.472
 8542SOL    HW126525   3.006   4.837   6.424
 8542SOL    HW226526   3.005   5.000   6.431
 8543SOL     OW26527   4.296   2.359   6.693
 8543SOL    HW126528   4.276   2.414   6.612
 8543SOL    HW226529   4.351   2.413   6.757
 8544SOL     OW26530   5.591   2.060   4.330
 8544SOL    HW126531   5.567   2.157   4.325
 8544SOL    HW226532   5.637   2.042   4.417
 8545SOL     OW26533   4.230   0.048   5.391
 8545SOL    HW126534   4.225   0.120   5.461
 8545SOL    HW226535   4.146   0.049   5.337
 8546SOL     OW26536   4.472   2.167   6.565
 8546SOL    HW126537   4.422   2.239   6.613
 8546SOL    HW226538   4.436   2.078   6.591
 8547SOL     OW26539   1.398   4.534   2.359
 8547SOL    HW126540   1.315   4.589   2.349
 8547SOL    HW226541   1.429   4.505   2.269
 8548SOL     OW26542   5.933   2.257   5.440
 8548SOL    HW126543   6.022   2.214   5.425
 8548SOL    HW226544   5.940   2.355   5.427
 8549SOL     OW26545   5.171   2.908   4.643
 8549SOL    HW126546   5.267   2.890   4.663
 8549SOL    HW226547   5.114   2.853   4.704
 8550SOL     OW26548   1.462   4.835   5.400
 8550SOL    HW126549   1.555   4.807   5.426
 8550SOL    HW226550   1.430   4.906   5.462
 8551SOL     OW26551   2.378   4.692   1.104
 8551SOL    HW126552   2.337   4.777   1.139
 8551SOL    HW226553   2.414   4.639   1.180
 8552SOL     OW26554   3.088   6.932   4.007
 8552SOL    HW126555   3.013   6.943   4.072
 8552SOL    HW226556   3.166   6.986   4.037
 8553SOL     OW26557   6.212   5.460   0.505
 8553SOL    HW126558   6.226   5.525   0.579
 8553SOL    HW226559   6.284   5.472   0.437
 8554SOL     OW26560   5.649   3.700   0.230
 8554SOL    HW126561   5.589   3.639   0.178
 8554SOL    HW226562   5.706   3.646   0.292
 8555SOL     OW26563   1.750   6.306   4.236
 8555SOL    HW126564   1.784   6.212   4.244
 8555SOL    HW226565   1.784   6.347   4.152
 8556SOL     OW26566   5.399   0.470   5.110
 8556SOL    HW126567   5.494   0.465   5.141
 8556SOL    HW226568   5.396   0.485   5.011
 8557SOL     OW26569   6.726   1.457   1.249
 8557SOL    HW126570   6.822   1.464   1.221
 8557SOL    HW226571   6.686   1.549   1.252
 8558SOL     OW26572   1.950   4.705   2.492
 8558SOL    HW126573   1.883   4.734   2.560
 8558SOL    HW226574   2.017   4.644   2.534
 8559SOL     OW26575   1.139   1.074   4.910
 8559SOL    HW126576   1.057   1.125   4.885
 8559SOL    HW226577   1.214   1.099   4.849
 8560SOL     OW26578   6.557   3.032   6.893
 8560SOL    HW126579   6.653   3.039   6.922
 8560SOL    HW226580   6.553   2.981   6.807
 8561SOL     OW26581   4.878   6.462   6.267
 8561SOL    HW126582   4.906   6.392   6.201
 8561SOL    HW226583   4.793   6.434   6.311
 8562SOL     OW26584   3.666   0.660   4.331
 8562SOL    HW126585   3.638   0.642   4.425
 8562SOL    HW226586   3.763   0.682   4.328
 8563SOL     OW26587   2.712   2.910   6.269
 8563SOL    HW126588   2.780   2.936   6.201
 8563SOL    HW226589   2.758   2.870   6.348
 8564SOL     OW26590   0.779   5.290   3.874
 8564SOL    HW126591   0.752   5.385   3.887
 8564SOL    HW226592   0.846   5.283   3.801
 8565SOL     OW26593   3.487   0.943   1.268
 8565SOL    HW126594   3.458   1.030   1.308
 8565SOL    HW226595   3.426   0.870   1.299
 8566SOL     OW26596   1.223   4.451   4.463
 8566SOL    HW126597   1.190   4.507   4.539
 8566SOL    HW226598   1.315   4.480   4.438
 8567SOL     OW26599   5.278   6.725   6.266
 8567SOL    HW126600   5.240   6.781   6.193
 8567SOL    HW226601   5.261   6.769   6.354
 8568SOL     OW26602   5.567   6.752   0.764
 8568SOL    HW126603   5.541   6.663   0.726
 8568SOL    HW226604   5.659   6.746   0.803
 8569SOL     OW26605   2.883   0.634   5.275
 8569SOL    HW126606   2.926   0.546   5.295
 8569SOL    HW226607   2.784   0.623   5.270
 8570SOL     OW26608   6.715   3.420   6.287
 8570SOL    HW126609   6.667   3.389   6.369
 8570SOL    HW226610   6.694   3.517   6.271
 8571SOL     OW26611   6.871   4.800   6.140
 8571SOL    HW126612   6.839   4.708   6.160
 8571SOL    HW226613   6.892   4.848   6.226
 8572SOL     OW26614   2.642   4.951   6.351
 8572SOL    HW126615   2.690   4.904   6.425
 8572SOL    HW226616   2.632   5.048   6.373
 8573SOL     OW26617   3.544   5.871   4.314
 8573SOL    HW126618   3.487   5.795   4.282
 8573SOL    HW226619   3.614   5.892   4.246
 8574SOL     OW26620   1.043   4.017   4.432
 8574SOL    HW126621   1.067   3.920   4.436
 8574SOL    HW226622   0.946   4.026   4.410
 8575SOL     OW26623   2.779   3.538   6.436
 8575SOL    HW126624   2.783   3.581   6.526
 8575SOL    HW226625   2.864   3.558   6.386
 8576SOL     OW26626   1.886   0.498   0.510
 8576SOL    HW126627   1.890   0.404   0.546
 8576SOL    HW226628   1.943   0.557   0.567
 8577SOL     OW26629   6.451   6.043   4.774
 8577SOL    HW126630   6.354   6.024   4.791
 8577SOL    HW226631   6.496   5.960   4.742
 8578SOL     OW26632   4.545   0.721   4.437
 8578SOL    HW126633   4.632   0.768   4.424
 8578SOL    HW226634   4.561   0.623   4.452
 8579SOL     OW26635   0.357   4.511   2.535
 8579SOL    HW126636   0.397   4.472   2.452
 8579SOL    HW226637   0.258   4.520   2.522
 8580SOL     OW26638   2.194   5.512   6.159
 8580SOL    HW126639   2.135   5.432   6.151
 8580SOL    HW226640   2.279   5.496   6.109
 8581SOL     OW26641   3.725   3.609   0.170
 8581SOL    HW126642   3.755   3.532   0.226
 8581SOL    HW226643   3.635   3.640   0.200
 8582SOL     OW26644   3.383   4.927   0.219
 8582SOL    HW126645   3.375   4.997   0.290
 8582SOL    HW226646   3.412   4.841   0.259
 8583SOL     OW26647   5.451   6.874   4.397
 8583SOL    HW126648   5.426   6.832   4.310
 8583SOL    HW226649   5.526   6.939   4.382
 8584SOL     OW26650   0.645   5.657   6.134
 8584SOL    HW126651   0.584   5.727   6.099
 8584SOL    HW226652   0.644   5.577   6.073
 8585SOL     OW26653   1.513   1.225   0.485
 8585SOL    HW126654   1.512   1.282   0.568
 8585SOL    HW226655   1.425   1.179   0.476
 8586SOL     OW26656   3.646   5.336   3.692
 8586SOL    HW126657   3.571   5.302   3.749
 8586SOL    HW226658   3.670   5.429   3.720
 8587SOL     OW26659   0.016   1.835   1.059
 8587SOL    HW126660   0.025   1.902   1.132
 8587SOL    HW226661   6.976   1.869   0.990
 8588SOL     OW26662   3.716   3.005   6.627
 8588SOL    HW126663   3.758   2.939   6.564
 8588SOL    HW226664   3.617   2.997   6.623
 8589SOL     OW26665   2.995   1.751   3.961
 8589SOL    HW126666   2.950   1.834   3.995
 8589SOL    HW226667   3.013   1.689   4.037
 8590SOL     OW26668   5.355   4.264   5.605
 8590SOL    HW126669   5.370   4.312   5.519
 8590SOL    HW226670   5.439   4.218   5.633
 8591SOL     OW26671   0.390   3.002   0.766
 8591SOL    HW126672   0.448   2.973   0.690
 8591SOL    HW226673   0.401   2.937   0.842
 8592SOL     OW26674   6.606   6.303   0.012
 8592SOL    HW126675   6.603   6.249   6.952
 8592SOL    HW226676   6.635   6.396   7.016
 8593SOL     OW26677   0.772   5.079   3.450
 8593SOL    HW126678   0.836   5.035   3.387
 8593SOL    HW226679   0.754   5.173   3.420
 8594SOL     OW26680   4.007   3.736   2.441
 8594SOL    HW126681   3.966   3.813   2.490
 8594SOL    HW226682   3.976   3.736   2.346
 8595SOL     OW26683   1.379   2.692   2.012
 8595SOL    HW126684   1.471   2.671   1.980
 8595SOL    HW226685   1.322   2.720   1.934
 8596SOL     OW26686   6.791   4.203   2.783
 8596SOL    HW126687   6.836   4.139   2.845
 8596SOL    HW226688   6.769   4.287   2.833
 8597SOL     OW26689   1.967   1.853   1.059
 8597SOL    HW126690   2.046   1.911   1.078
 8597SOL    HW226691   1.986   1.760   1.088
 8598SOL     OW26692   6.235   2.575   1.784
 8598SOL    HW126693   6.150   2.601   1.738
 8598SOL    HW226694   6.270   2.491   1.741
 8599SOL     OW26695   0.907   2.636   0.526
 8599SOL    HW126696   0.945   2.553   0.566
 8599SOL    HW226697   0.980   2.704   0.517
 8600SOL     OW26698   0.564   2.709   5.805
 8600SOL    HW126699   0.498   2.751   5.742
 8600SOL    HW226700   0.638   2.668   5.753
 8601SOL     OW26701   0.766   0.175   4.838
 8601SOL    HW126702   0.764   0.078   4.862
 8601SOL    HW226703   0.698   0.194   4.768
 8602SOL     OW26704   0.888   6.301   2.493
 8602SOL    HW126705   0.822   6.288   2.567
 8602SOL    HW226706   0.845   6.276   2.406
 8603SOL     OW26707   5.033   3.754   1.860
 8603SOL    HW126708   5.102   3.818   1.893
 8603SOL    HW226709   4.992   3.789   1.776
 8604SOL     OW26710   6.043   1.895   3.430
 8604SOL    HW126711   6.056   1.975   3.488
 8604SOL    HW226712   5.974   1.915   3.361
 8605SOL     OW26713   2.480   5.619   1.672
 8605SOL    HW126714   2.528   5.692   1.720
 8605SOL    HW226715   2.381   5.628   1.687
 8606SOL     OW26716   4.047   5.382   4.432
 8606SOL    HW126717   4.081   5.309   4.491
 8606SOL    HW226718   3.972   5.347   4.376
 8607SOL     OW26719   3.063   6.056   0.247
 8607SOL    HW126720   3.115   6.012   0.174
 8607SOL    HW226721   3.118   6.057   0.331
 8608SOL     OW26722   5.806   6.297   2.257
 8608SOL    HW126723   5.720   6.332   2.296
 8608SOL    HW226724   5.880   6.310   2.323
 8609SOL     OW26725   6.020   0.119   5.756
 8609SOL    HW126726   6.039   0.213   5.784
 8609SOL    HW226727   5.931   0.114   5.711
 8610SOL     OW26728   6.642   6.659   4.712
 8610SOL    HW126729   6.564   6.684   4.655
 8610SOL    HW226730   6.660   6.733   4.778
 8611SOL     OW26731   1.554   1.938   2.870
 8611SOL    HW126732   1.614   1.861   2.892
 8611SOL    HW226733   1.609   2.021   2.860
 8612SOL     OW26734   4.899   3.321   4.395
 8612SOL    HW126735   4.804   3.306   4.420
 8612SOL    HW226736   4.928   3.249   4.332
 8613SOL     OW26737   1.614   0.719   0.545
 8613SOL    HW126738   1.607   0.817   0.559
 8613SOL    HW226739   1.651   0.701   0.453
 8614SOL     OW26740   1.712   2.797   3.461
 8614SOL    HW126741   1.703   2.699   3.442
 8614SOL    HW226742   1.808   2.824   3.454
 8615SOL     OW26743   5.074   1.637   6.191
 8615SOL    HW126744   5.049   1.699   6.117
 8615SOL    HW226745   5.013   1.652   6.269
 8616SOL     OW26746   1.249   3.605   1.053
 8616SOL    HW126747   1.158   3.570   1.030
 8616SOL    HW226748   1.297   3.537   1.110
 8617SOL     OW26749   6.468   3.289   0.521
 8617SOL    HW126750   6.381   3.337   0.531
 8617SOL    HW226751   6.456   3.211   0.459
 8618SOL     OW26752   3.202   1.352   2.909
 8618SOL    HW126753   3.279   1.331   2.969
 8618SOL    HW226754   3.127   1.288   2.927
 8619SOL     OW26755   3.927   6.493   0.756
 8619SOL    HW126756   3.904   6.579   0.712
 8619SOL    HW226757   3.892   6.493   0.850
 8620SOL     OW26758   6.069   5.975   4.013
 8620SOL    HW126759   5.974   5.991   4.038
 8620SOL    HW226760   6.085   6.007   3.919
 8621SOL     OW26761   5.035   1.233   3.861
 8621SOL    HW126762   5.002   1.139   3.850
 8621SOL    HW226763   4.958   1.297   3.857
 8622SOL     OW26764   5.530   5.213   6.310
 8622SOL    HW126765   5.566   5.160   6.387
 8622SOL    HW226766   5.463   5.158   6.260
 8623SOL     OW26767   5.827   1.711   3.671
 8623SOL    HW126768   5.787   1.718   3.580
 8623SOL    HW226769   5.821   1.800   3.717
 8624SOL     OW26770   6.646   2.666   3.545
 8624SOL    HW126771   6.644   2.696   3.449
 8624SOL    HW226772   6.669   2.744   3.603
 8625SOL     OW26773   3.718   1.614   6.566
 8625SOL    HW126774   3.722   1.534   6.507
 8625SOL    HW226775   3.689   1.587   6.658
 8626SOL     OW26776   3.013   3.950   1.485
 8626SOL    HW126777   3.099   3.900   1.492
 8626SOL    HW226778   2.987   3.985   1.575
 8627SOL     OW26779   3.280   0.390   6.633
 8627SOL    HW126780   3.262   0.292   6.639
 8627SOL    HW226781   3.326   0.421   6.716
 8628SOL     OW26782   6.351   0.910   1.941
 8628SOL    HW126783   6.344   0.864   2.030
 8628SOL    HW226784   6.444   0.899   1.905
 8629SOL     OW26785   1.222   6.101   3.095
 8629SOL    HW126786   1.288   6.123   3.024
 8629SOL    HW226787   1.238   6.160   3.175
 8630SOL     OW26788   5.081   4.908   4.352
 8630SOL    HW126789   5.138   4.904   4.434
 8630SOL    HW226790   4.995   4.955   4.374
 8631SOL     OW26791   4.176   6.621   3.405
 8631SOL    HW126792   4.175   6.719   3.422
 8631SOL    HW226793   4.091   6.580   3.438
 8632SOL     OW26794   3.124   0.794   3.054
 8632SOL    HW126795   3.133   0.816   2.957
 8632SOL    HW226796   3.208   0.820   3.102
 8633SOL     OW26797   6.092   6.575   2.965
 8633SOL    HW126798   6.144   6.562   2.880
 8633SOL    HW226799   5.998   6.545   2.950
 8634SOL     OW26800   5.890   6.549   1.584
 8634SOL    HW126801   5.866   6.620   1.650
 8634SOL    HW226802   5.955   6.585   1.518
 8635SOL     OW26803   6.310   3.923   5.975
 8635SOL    HW126804   6.364   3.935   6.058
 8635SOL    HW226805   6.234   3.862   5.993
 8636SOL     OW26806   5.882   4.772   1.373
 8636SOL    HW126807   5.956   4.784   1.308
 8636SOL    HW226808   5.918   4.732   1.458
 8637SOL     OW26809   0.898   0.377   2.104
 8637SOL    HW126810   0.961   0.358   2.028
 8637SOL    HW226811   0.846   0.460   2.084
 8638SOL     OW26812   6.340   4.665   1.347
 8638SOL    HW126813   6.265   4.624   1.295
 8638SOL    HW226814   6.331   4.640   1.443
 8639SOL     OW26815   6.022   2.442   3.616
 8639SOL    HW126816   6.056   2.491   3.536
 8639SOL    HW226817   5.925   2.422   3.604
 8640SOL     OW26818   4.862   5.877   1.352
 8640SOL    HW126819   4.876   5.781   1.374
 8640SOL    HW226820   4.812   5.885   1.265
 8641SOL     OW26821   4.860   5.094   4.008
 8641SOL    HW126822   4.821   5.170   4.060
 8641SOL    HW226823   4.959   5.094   4.018
 8642SOL     OW26824   4.118   1.033   0.894
 8642SOL    HW126825   4.060   0.959   0.861
 8642SOL    HW226826   4.171   1.071   0.818
 8643SOL     OW26827   5.109   0.066   0.280
 8643SOL    HW126828   5.155   0.129   0.344
 8643SOL    HW226829   5.140   6.997   0.299
 8644SOL     OW26830   6.202   3.073   5.572
 8644SOL    HW126831   6.234   3.138   5.503
 8644SOL    HW226832   6.142   3.120   5.636
 8645SOL     OW26833   6.405   3.611   1.980
 8645SOL    HW126834   6.345   3.689   1.960
 8645SOL    HW226835   6.482   3.642   2.036
 8646SOL     OW26836   4.522   6.309   0.398
 8646SOL    HW126837   4.599   6.340   0.454
 8646SOL    HW226838   4.547   6.224   0.352
 8647SOL     OW26839   4.949   4.975   2.006
 8647SOL    HW126840   4.913   5.044   1.942
 8647SOL    HW226841   4.998   4.905   1.955
 8648SOL     OW26842   6.413   0.667   4.146
 8648SOL    HW126843   6.442   0.761   4.161
 8648SOL    HW226844   6.485   0.617   4.097
 8649SOL     OW26845   6.434   3.297   5.769
 8649SOL    HW126846   6.491   3.246   5.704
 8649SOL    HW226847   6.367   3.236   5.810
 8650SOL     OW26848   0.711   5.491   1.792
 8650SOL    HW126849   0.650   5.469   1.867
 8650SOL    HW226850   0.763   5.409   1.766
 8651SOL     OW26851   4.373   3.289   1.196
 8651SOL    HW126852   4.344   3.338   1.278
 8651SOL    HW226853   4.413   3.201   1.222
 8652SOL     OW26854   0.728   2.353   4.684
 8652SOL    HW126855   0.648   2.381   4.630
 8652SOL    HW226856   0.774   2.277   4.639
 8653SOL     OW26857   5.119   3.701   6.333
 8653SOL    HW126858   5.096   3.759   6.411
 8653SOL    HW226859   5.206   3.655   6.351
 8654SOL     OW26860   1.779   4.335   1.736
 8654SOL    HW126861   1.693   4.384   1.723
 8654SOL    HW226862   1.853   4.401   1.747
 8655SOL     OW26863   5.595   6.007   2.984
 8655SOL    HW126864   5.557   5.965   2.902
 8655SOL    HW226865   5.678   5.958   3.012
 8656SOL     OW26866   6.551   1.968   1.945
 8656SOL    HW126867   6.603   2.045   1.983
 8656SOL    HW226868   6.532   1.985   1.849
 8657SOL     OW26869   2.768   5.143   0.867
 8657SOL    HW126870   2.762   5.145   0.967
 8657SOL    HW226871   2.676   5.149   0.828
 8658SOL     OW26872   1.278   5.863   5.414
 8658SOL    HW126873   1.247   5.838   5.505
 8658SOL    HW226874   1.205   5.911   5.365
 8659SOL     OW26875   3.490   0.014   4.499
 8659SOL    HW126876   3.485   0.078   4.577
 8659SOL    HW226877   3.551   0.052   4.429
 8660SOL     OW26878   4.664   4.359   0.320
 8660SOL    HW126879   4.695   4.264   0.328
 8660SOL    HW226880   4.735   4.420   0.355
 8661SOL     OW26881   6.604   2.708   1.962
 8661SOL    HW126882   6.686   2.748   2.002
 8661SOL    HW226883   6.529   2.774   1.966
 8662SOL     OW26884   0.413   1.209   6.975
 8662SOL    HW126885   0.369   1.178   6.891
 8662SOL    HW226886   0.497   1.259   6.953
 8663SOL     OW26887   3.025   5.691   0.828
 8663SOL    HW126888   3.069   5.692   0.738
 8663SOL    HW226889   3.089   5.658   0.897
 8664SOL     OW26890   4.482   4.352   1.206
 8664SOL    HW126891   4.481   4.445   1.168
 8664SOL    HW226892   4.488   4.358   1.306
 8665SOL     OW26893   5.369   5.397   4.439
 8665SOL    HW126894   5.447   5.450   4.407
 8665SOL    HW226895   5.285   5.437   4.402
 8666SOL     OW26896   6.886   4.805   4.672
 8666SOL    HW126897   6.831   4.740   4.725
 8666SOL    HW226898   6.963   4.836   4.727
 8667SOL     OW26899   5.486   2.786   3.282
 8667SOL    HW126900   5.432   2.781   3.198
 8667SOL    HW226901   5.492   2.882   3.311
 8668SOL     OW26902   3.384   0.737   4.975
 8668SOL    HW126903   3.478   0.713   4.952
 8668SOL    HW226904   3.360   0.698   5.063
 8669SOL     OW26905   3.755   6.158   6.623
 8669SOL    HW126906   3.660   6.132   6.639
 8669SOL    HW226907   3.790   6.209   6.702
 8670SOL     OW26908   4.410   4.618   2.688
 8670SOL    HW126909   4.317   4.643   2.717
 8670SOL    HW226910   4.411   4.603   2.589
 8671SOL     OW26911   6.068   5.417   1.605
 8671SOL    HW126912   6.152   5.367   1.625
 8671SOL    HW226913   6.015   5.428   1.689
 8672SOL     OW26914   4.028   4.947   4.639
 8672SOL    HW126915   4.078   4.912   4.719
 8672SOL    HW226916   4.051   5.043   4.625
 8673SOL     OW26917   4.952   2.206   6.763
 8673SOL    HW126918   4.931   2.303   6.752
 8673SOL    HW226919   4.896   2.152   6.700
 8674SOL     OW26920   0.619   6.676   2.492
 8674SOL    HW126921   0.660   6.597   2.447
 8674SOL    HW226922   0.660   6.760   2.456
 8675SOL     OW26923   2.410   1.731   2.238
 8675SOL    HW126924   2.437   1.663   2.169
 8675SOL    HW226925   2.369   1.684   2.316
 8676SOL     OW26926   5.023   1.403   4.097
 8676SOL    HW126927   5.066   1.486   4.063
 8676SOL    HW226928   5.037   1.328   4.032
 8677SOL     OW26929   1.885   3.389   5.614
 8677SOL    HW126930   1.861   3.486   5.616
 8677SOL    HW226931   1.940   3.367   5.695
 8678SOL     OW26932   0.685   0.873   6.146
 8678SOL    HW126933   0.591   0.906   6.155
 8678SOL    HW226934   0.741   0.945   6.106
 8679SOL     OW26935   6.269   2.178   4.619
 8679SOL    HW126936   6.188   2.226   4.586
 8679SOL    HW226937   6.326   2.241   4.672
 8680SOL     OW26938   0.625   3.052   6.513
 8680SOL    HW126939   0.644   3.050   6.415
 8680SOL    HW226940   0.711   3.050   6.564
 8681SOL     OW26941   4.245   4.182   1.272
 8681SOL    HW126942   4.325   4.241   1.263
 8681SOL    HW226943   4.192   4.210   1.352
 8682SOL     OW26944   1.501   5.523   2.875
 8682SOL    HW126945   1.405   5.549   2.890
 8682SOL    HW226946   1.541   5.583   2.805
 8683SOL     OW26947   4.742   3.541   0.064
 8683SOL    HW126948   4.765   3.617   0.004
 8683SOL    HW226949   4.800   3.462   0.042
 8684SOL     OW26950   6.338   2.580   3.859
 8684SOL    HW126951   6.360   2.532   3.774
 8684SOL    HW226952   6.254   2.541   3.899
 8685SOL     OW26953   0.291   2.134   5.353
 8685SOL    HW126954   0.203   2.179   5.360
 8685SOL    HW226955   0.288   2.065   5.280
 8686SOL     OW26956   6.454   1.289   4.180
 8686SOL    HW126957   6.358   1.316   4.189
 8686SOL    HW226958   6.511   1.348   4.238
 8687SOL     OW26959   3.689   1.170   2.791
 8687SOL    HW126960   3.640   1.241   2.741
 8687SOL    HW226961   3.758   1.128   2.731
 8688SOL     OW26962   0.496   6.531   1.959
 8688SOL    HW126963   0.512   6.432   1.959
 8688SOL    HW226964   0.578   6.578   1.991
 8689SOL     OW26965   4.820   4.607   1.937
 8689SOL    HW126966   4.838   4.701   1.965
 8689SOL    HW226967   4.853   4.544   2.007
 8690SOL     OW26968   1.761   0.748   1.727
 8690SOL    HW126969   1.828   0.719   1.795
 8690SOL    HW226970   1.676   0.774   1.773
 8691SOL     OW26971   5.898   1.277   0.071
 8691SOL    HW126972   5.933   1.219   0.144
 8691SOL    HW226973   5.885   1.223   7.012
 8692SOL     OW26974   1.554   1.266   3.940
 8692SOL    HW126975   1.561   1.229   3.848
 8692SOL    HW226976   1.637   1.246   3.991
 8693SOL     OW26977   5.464   2.635   6.606
 8693SOL    HW126978   5.512   2.547   6.603
 8693SOL    HW226979   5.419   2.651   6.517
 8694SOL     OW26980   4.003   0.269   6.626
 8694SOL    HW126981   3.945   0.247   6.704
 8694SOL    HW226982   3.956   0.333   6.566
 8695SOL     OW26983   4.424   3.818   5.482
 8695SOL    HW126984   4.346   3.834   5.543
 8695SOL    HW226985   4.445   3.901   5.431
 8696SOL     OW26986   2.271   5.645   0.462
 8696SOL    HW126987   2.176   5.617   0.449
 8696SOL    HW226988   2.308   5.600   0.544
 8697SOL     OW26989   5.373   5.496   6.595
 8697SOL    HW126990   5.392   5.494   6.496
 8697SOL    HW226991   5.277   5.520   6.609
 8698SOL     OW26992   5.512   5.583   5.276
 8698SOL    HW126993   5.500   5.589   5.375
 8698SOL    HW226994   5.489   5.672   5.235
 8699SOL     OW26995   1.927   1.093   4.278
 8699SOL    HW126996   1.965   1.143   4.356
 8699SOL    HW226997   1.981   1.011   4.261
 8700SOL     OW26998   2.374   1.457   6.105
 8700SOL    HW126999   2.434   1.402   6.047
 8700SOL    HW227000   2.404   1.552   6.104
 8701SOL     OW27001   1.007   0.676   3.354
 8701SOL    HW127002   1.079   0.689   3.286
 8701SOL    HW227003   1.037   0.710   3.443
 8702SOL     OW27004   5.062   0.198   6.280
 8702SOL    HW127005   5.042   0.261   6.205
 8702SOL    HW227006   4.979   0.183   6.334
 8703SOL     OW27007   1.410   4.481   1.311
 8703SOL    HW127008   1.322   4.513   1.347
 8703SOL    HW227009   1.432   4.393   1.352
 8704SOL     OW27010   1.075   4.376   2.170
 8704SOL    HW127011   1.049   4.394   2.075
 8704SOL    HW227012   1.083   4.277   2.184
 8705SOL     OW27013   4.657   6.240   4.525
 8705SOL    HW127014   4.621   6.147   4.516
 8705SOL    HW227015   4.676   6.278   4.434
 8706SOL     OW27016   4.647   0.386   6.444
 8706SOL    HW127017   4.735   0.403   6.488
 8706SOL    HW227018   4.640   0.439   6.360
 8707SOL     OW27019   4.214   1.810   5.726
 8707SOL    HW127020   4.233   1.797   5.629
 8707SOL    HW227021   4.119   1.786   5.745
 8708SOL     OW27022   4.117   1.649   1.360
 8708SOL    HW127023   4.092   1.700   1.278
 8708SOL    HW227024   4.129   1.712   1.437
 8709SOL     OW27025   5.188   3.489   0.101
 8709SOL    HW127026   5.113   3.446   0.050
 8709SOL    HW227027   5.151   3.565   0.155
 8710SOL     OW27028   6.392   3.968   4.087
 8710SOL    HW127029   6.338   4.043   4.048
 8710SOL    HW227030   6.422   3.906   4.014
 8711SOL     OW27031   1.775   1.329   4.372
 8711SOL    HW127032   1.812   1.396   4.307
 8711SOL    HW227033   1.686   1.298   4.340
 8712SOL     OW27034   3.436   0.504   6.820
 8712SOL    HW127035   3.415   0.548   6.907
 8712SOL    HW227036   3.532   0.477   6.818
 8713SOL     OW27037   6.114   4.759   3.399
 8713SOL    HW127038   6.134   4.749   3.301
 8713SOL    HW227039   6.197   4.741   3.452
 8714SOL     OW27040   2.088   1.165   3.757
 8714SOL    HW127041   2.006   1.133   3.805
 8714SOL    HW227042   2.097   1.264   3.767
 8715SOL     OW27043   5.255   0.787   2.581
 8715SOL    HW127044   5.203   0.808   2.663
 8715SOL    HW227045   5.193   0.760   2.507
 8716SOL     OW27046   0.837   0.706   2.921
 8716SOL    HW127047   0.812   0.622   2.970
 8716SOL    HW227048   0.907   0.685   2.852
 8717SOL     OW27049   4.483   3.982   0.958
 8717SOL    HW127050   4.533   3.962   0.874
 8717SOL    HW227051   4.454   4.078   0.957
 8718SOL     OW27052   6.611   2.597   5.947
 8718SOL    HW127053   6.654   2.570   6.033
 8718SOL    HW227054   6.521   2.638   5.966
 8719SOL     OW27055   6.553   1.064   5.956
 8719SOL    HW127056   6.645   1.068   5.996
 8719SOL    HW227057   6.509   1.153   5.965
 8720SOL     OW27058   5.317   3.138   4.897
 8720SOL    HW127059   5.350   3.044   4.890
 8720SOL    HW227060   5.245   3.153   4.828
 8721SOL     OW27061   6.805   0.898   5.209
 8721SOL    HW127062   6.892   0.858   5.238
 8721SOL    HW227063   6.731   0.833   5.225
 8722SOL     OW27064   3.303   2.434   0.678
 8722SOL    HW127065   3.304   2.415   0.776
 8722SOL    HW227066   3.213   2.468   0.652
 8723SOL     OW27067   0.447   6.302   0.521
 8723SOL    HW127068   0.509   6.279   0.595
 8723SOL    HW227069   0.493   6.361   0.455
 8724SOL     OW27070   4.717   5.952   6.514
 8724SOL    HW127071   4.650   5.945   6.440
 8724SOL    HW227072   4.801   5.993   6.479
 8725SOL     OW27073   2.845   6.817   0.962
 8725SOL    HW127074   2.860   6.721   0.984
 8725SOL    HW227075   2.825   6.826   0.864
 8726SOL     OW27076   7.007   0.182   0.695
 8726SOL    HW127077   6.932   0.240   0.666
 8726SOL    HW227078   7.020   0.189   0.794
 8727SOL     OW27079   5.553   6.193   1.492
 8727SOL    HW127080   5.546   6.289   1.521
 8727SOL    HW227081   5.644   6.158   1.514
 8728SOL     OW27082   2.420   5.414   5.600
 8728SOL    HW127083   2.473   5.365   5.669
 8728SOL    HW227084   2.363   5.483   5.644
 8729SOL     OW27085   4.734   5.996   4.247
 8729SOL    HW127086   4.781   5.927   4.193
 8729SOL    HW227087   4.747   6.086   4.207
 8730SOL     OW27088   6.514   6.334   1.187
 8730SOL    HW127089   6.464   6.285   1.258
 8730SOL    HW227090   6.542   6.270   1.115
 8731SOL     OW27091   0.773   1.945   2.856
 8731SOL    HW127092   0.684   1.990   2.860
 8731SOL    HW227093   0.770   1.872   2.787
 8732SOL     OW27094   6.470   6.610   2.041
 8732SOL    HW127095   6.379   6.622   2.080
 8732SOL    HW227096   6.516   6.533   2.086
 8733SOL     OW27097   6.999   0.909   0.808
 8733SOL    HW127098   6.988   0.837   0.739
 8733SOL    HW227099   0.024   0.986   0.768
 8734SOL     OW27100   6.376   6.914   0.981
 8734SOL    HW127101   6.303   6.967   1.024
 8734SOL    HW227102   6.345   6.820   0.968
 8735SOL     OW27103   0.907   2.852   5.825
 8735SOL    HW127104   0.914   2.759   5.790
 8735SOL    HW227105   0.857   2.909   5.760
 8736SOL     OW27106   0.326   4.939   5.664
 8736SOL    HW127107   0.413   4.900   5.634
 8736SOL    HW227108   0.329   4.957   5.762
 8737SOL     OW27109   4.199   5.718   6.808
 8737SOL    HW127110   4.166   5.756   6.722
 8737SOL    HW227111   4.149   5.634   6.829
 8738SOL     OW27112   1.130   4.329   5.349
 8738SOL    HW127113   1.212   4.357   5.400
 8738SOL    HW227114   1.153   4.251   5.290
 8739SOL     OW27115   1.480   3.428   5.206
 8739SOL    HW127116   1.533   3.377   5.138
 8739SOL    HW227117   1.454   3.366   5.281
 8740SOL     OW27118   1.425   6.015   0.285
 8740SOL    HW127119   1.514   5.975   0.307
 8740SOL    HW227120   1.438   6.109   0.253
 8741SOL     OW27121   1.540   3.709   1.987
 8741SOL    HW127122   1.445   3.681   1.993
 8741SOL    HW227123   1.545   3.809   1.984
 8742SOL     OW27124   4.702   5.199   1.818
 8742SOL    HW127125   4.656   5.111   1.830
 8742SOL    HW227126   4.638   5.273   1.842
 8743SOL     OW27127   3.003   5.036   2.662
 8743SOL    HW127128   3.071   5.031   2.588
 8743SOL    HW227129   2.987   5.132   2.684
 8744SOL     OW27130   3.144   3.703   5.282
 8744SOL    HW127131   3.119   3.607   5.268
 8744SOL    HW227132   3.063   3.761   5.271
 8745SOL     OW27133   5.327   1.681   6.223
 8745SOL    HW127134   5.399   1.617   6.199
 8745SOL    HW227135   5.238   1.640   6.204
 8746SOL     OW27136   5.345   3.404   4.255
 8746SOL    HW127137   5.388   3.481   4.302
 8746SOL    HW227138   5.283   3.438   4.184
 8747SOL     OW27139   0.804   1.501   4.186
 8747SOL    HW127140   0.800   1.439   4.108
 8747SOL    HW227141   0.828   1.449   4.268
 8748SOL     OW27142   3.278   0.396   6.335
 8748SOL    HW127143   3.376   0.390   6.355
 8748SOL    HW227144   3.227   0.401   6.421
 8749SOL     OW27145   4.006   1.706   3.310
 8749SOL    HW127146   4.040   1.687   3.402
 8749SOL    HW227147   4.071   1.670   3.243
 8750SOL     OW27148   1.890   6.982   4.689
 8750SOL    HW127149   1.951   6.955   4.764
 8750SOL    HW227150   1.942   0.011   4.622
 8751SOL     OW27151   2.296   6.224   2.833
 8751SOL    HW127152   2.293   6.187   2.925
 8751SOL    HW227153   2.327   6.153   2.769
 8752SOL     OW27154   2.254   0.911   6.172
 8752SOL    HW127155   2.343   0.957   6.172
 8752SOL    HW227156   2.266   0.816   6.143
 8753SOL     OW27157   5.099   1.956   4.934
 8753SOL    HW127158   5.196   1.932   4.940
 8753SOL    HW227159   5.064   1.975   5.026
 8754SOL     OW27160   1.718   1.146   5.955
 8754SOL    HW127161   1.639   1.206   5.939
 8754SOL    HW227162   1.765   1.130   5.868
 8755SOL     OW27163   2.116   1.980   0.472
 8755SOL    HW127164   2.056   1.979   0.551
 8755SOL    HW227165   2.081   2.043   0.403
 8756SOL     OW27166   3.018   4.963   4.868
 8756SOL    HW127167   3.005   4.914   4.954
 8756SOL    HW227168   3.013   5.061   4.885
 8757SOL     OW27169   2.987   5.344   3.270
 8757SOL    HW127170   3.047   5.269   3.245
 8757SOL    HW227171   3.011   5.376   3.362
 8758SOL     OW27172   5.206   6.440   2.761
 8758SOL    HW127173   5.213   6.538   2.781
 8758SOL    HW227174   5.297   6.404   2.741
 8759SOL     OW27175   5.475   0.297   5.888
 8759SOL    HW127176   5.492   0.383   5.841
 8759SOL    HW227177   5.405   0.310   5.959
 8760SOL     OW27178   1.941   2.623   3.649
 8760SOL    HW127179   1.923   2.719   3.668
 8760SOL    HW227180   1.882   2.566   3.705
 8761SOL     OW27181   5.172   6.001   1.506
 8761SOL    HW127182   5.182   5.905   1.531
 8761SOL    HW227183   5.158   6.056   1.588
 8762SOL     OW27184   1.579   4.775   1.291
 8762SOL    HW127185   1.510   4.845   1.304
 8762SOL    HW227186   1.544   4.687   1.322
 8763SOL     OW27187   6.975   6.009   6.759
 8763SOL    HW127188   0.047   5.988   6.775
 8763SOL    HW227189   6.924   6.000   6.844
 8764SOL     OW27190   2.885   2.021   6.563
 8764SOL    HW127191   2.851   2.077   6.639
 8764SOL    HW227192   2.907   2.081   6.485
 8765SOL     OW27193   5.807   0.774   4.878
 8765SOL    HW127194   5.824   0.859   4.827
 8765SOL    HW227195   5.714   0.776   4.914
 8766SOL     OW27196   2.507   4.439   2.461
 8766SOL    HW127197   2.504   4.450   2.362
 8766SOL    HW227198   2.580   4.497   2.498
 8767SOL     OW27199   4.054   0.400   4.927
 8767SOL    HW127200   3.969   0.350   4.911
 8767SOL    HW227201   4.070   0.408   5.026
 8768SOL     OW27202   0.541   4.194   1.034
 8768SOL    HW127203   0.565   4.267   0.970
 8768SOL    HW227204   0.449   4.161   1.013
 8769SOL     OW27205   1.989   0.797   6.146
 8769SOL    HW127206   1.942   0.885   6.151
 8769SOL    HW227207   2.080   0.805   6.187
 8770SOL     OW27208   5.855   1.702   2.848
 8770SOL    HW127209   5.798   1.716   2.767
 8770SOL    HW227210   5.926   1.771   2.851
 8771SOL     OW27211   2.905   3.545   5.072
 8771SOL    HW127212   2.851   3.492   5.137
 8771SOL    HW227213   2.994   3.500   5.057
 8772SOL     OW27214   6.874   6.756   7.003
 8772SOL    HW127215   6.800   6.819   6.979
 8772SOL    HW227216   6.960   6.790   6.968
 8773SOL     OW27217   2.757   1.703   3.420
 8773SOL    HW127218   2.782   1.611   3.449
 8773SOL    HW227219   2.835   1.764   3.428
 8774SOL     OW27220   1.236   1.139   0.399
 8774SOL    HW127221   1.236   1.233   0.362
 8774SOL    HW227222   1.284   1.079   0.335
 8775SOL     OW27223   6.194   6.164   4.190
 8775SOL    HW127224   6.171   6.101   4.117
 8775SOL    HW227225   6.171   6.123   4.279
 8776SOL     OW27226   2.982   3.681   5.631
 8776SOL    HW127227   3.044   3.612   5.593
 8776SOL    HW227228   3.010   3.772   5.601
 8777SOL     OW27229   6.013   5.730   3.210
 8777SOL    HW127230   5.997   5.751   3.114
 8777SOL    HW227231   6.071   5.649   3.217
 8778SOL     OW27232   1.010   2.923   2.885
 8778SOL    HW127233   0.916   2.896   2.907
 8778SOL    HW227234   1.062   2.843   2.854
 8779SOL     OW27235   2.029   4.820   1.191
 8779SOL    HW127236   2.121   4.833   1.226
 8779SOL    HW227237   1.969   4.786   1.263
 8780SOL     OW27238   1.990   5.700   5.365
 8780SOL    HW127239   1.949   5.782   5.325
 8780SOL    HW227240   2.086   5.716   5.384
 8781SOL     OW27241   1.033   2.538   2.426
 8781SOL    HW127242   1.117   2.527   2.373
 8781SOL    HW227243   1.036   2.625   2.475
 8782SOL     OW27244   5.575   1.193   4.369
 8782SOL    HW127245   5.482   1.177   4.403
 8782SOL    HW227246   5.622   1.105   4.357
 8783SOL     OW27247   5.819   2.413   6.015
 8783SOL    HW127248   5.912   2.446   6.034
 8783SOL    HW227249   5.759   2.435   6.092
 8784SOL     OW27250   5.270   3.856   6.108
 8784SOL    HW127251   5.245   3.927   6.175
 8784SOL    HW227252   5.214   3.775   6.123
 8785SOL     OW27253   5.183   4.007   6.342
 8785SOL    HW127254   5.117   4.082   6.345
 8785SOL    HW227255   5.185   3.962   6.431
 8786SOL     OW27256   1.771   5.858   6.767
 8786SOL    HW127257   1.862   5.857   6.807
 8786SOL    HW227258   1.774   5.820   6.674
 8787SOL     OW27259   1.182   2.782   6.554
 8787SOL    HW127260   1.095   2.747   6.591
 8787SOL    HW227261   1.210   2.726   6.477
 8788SOL     OW27262   1.536   1.789   5.159
 8788SOL    HW127263   1.618   1.840   5.184
 8788SOL    HW227264   1.542   1.696   5.196
 8789SOL     OW27265   6.486   1.290   0.152
 8789SOL    HW127266   6.490   1.364   0.219
 8789SOL    HW227267   6.478   1.202   0.199
 8790SOL     OW27268   4.048   1.354   6.463
 8790SOL    HW127269   3.998   1.359   6.377
 8790SOL    HW227270   4.087   1.444   6.485
 8791SOL     OW27271   5.753   5.996   5.242
 8791SOL    HW127272   5.670   5.960   5.283
 8791SOL    HW227273   5.831   5.938   5.268
 8792SOL     OW27274   5.340   6.858   2.579
 8792SOL    HW127275   5.435   6.885   2.560
 8792SOL    HW227276   5.318   6.775   2.528
 8793SOL     OW27277   1.204   4.702   3.131
 8793SOL    HW127278   1.132   4.711   3.201
 8793SOL    HW227279   1.289   4.673   3.175
 8794SOL     OW27280   2.732   6.886   2.352
 8794SOL    HW127281   2.831   6.884   2.343
 8794SOL    HW227282   2.703   6.975   2.387
 8795SOL     OW27283   3.150   6.581   4.638
 8795SOL    HW127284   3.169   6.647   4.566
 8795SOL    HW227285   3.190   6.493   4.615
 8796SOL     OW27286   4.677   2.385   4.365
 8796SOL    HW127287   4.776   2.374   4.371
 8796SOL    HW227288   4.655   2.454   4.296
 8797SOL     OW27289   0.129   5.609   6.505
 8797SOL    HW127290   0.051   5.665   6.477
 8797SOL    HW227291   0.096   5.520   6.537
 8798SOL     OW27292   3.426   3.463   5.365
 8798SOL    HW127293   3.432   3.383   5.306
 8798SOL    HW227294   3.484   3.536   5.328
 8799SOL     OW27295   3.567   0.875   1.680
 8799SOL    HW127296   3.652   0.830   1.707
 8799SOL    HW227297   3.509   0.888   1.760
 8800SOL     OW27298   3.910   3.986   0.552
 8800SOL    HW127299   3.914   4.006   0.454
 8800SOL    HW227300   4.001   3.995   0.592
 8801SOL     OW27301   3.202   6.472   5.520
 8801SOL    HW127302   3.298   6.453   5.539
 8801SOL    HW227303   3.151   6.475   5.606
 8802SOL     OW27304   1.710   6.658   1.435
 8802SOL    HW127305   1.613   6.658   1.409
 8802SOL    HW227306   1.730   6.573   1.485
 8803SOL     OW27307   3.650   5.764   2.307
 8803SOL    HW127308   3.640   5.776   2.208
 8803SOL    HW227309   3.715   5.690   2.325
 8804SOL     OW27310   3.084   0.868   1.502
 8804SOL    HW127311   3.184   0.864   1.500
 8804SOL    HW227312   3.047   0.776   1.514
 8805SOL     OW27313   0.143   0.005   3.811
 8805SOL    HW127314   0.123   0.102   3.825
 8805SOL    HW227315   0.168   6.988   3.898
 8806SOL     OW27316   1.759   5.124   6.941
 8806SOL    HW127317   1.772   5.056   7.014
 8806SOL    HW227318   1.817   5.100   6.863
 8807SOL     OW27319   1.828   4.684   6.680
 8807SOL    HW127320   1.813   4.602   6.734
 8807SOL    HW227321   1.759   4.690   6.607
 8808SOL     OW27322   6.172   2.420   0.727
 8808SOL    HW127323   6.085   2.468   0.730
 8808SOL    HW227324   6.239   2.469   0.783
 8809SOL     OW27325   6.156   4.309   6.948
 8809SOL    HW127326   6.121   4.237   7.007
 8809SOL    HW227327   6.108   4.395   6.968
 8810SOL     OW27328   4.862   1.572   4.236
 8810SOL    HW127329   4.918   1.650   4.264
 8810SOL    HW227330   4.919   1.503   4.194
 8811SOL     OW27331   0.473   0.504   3.543
 8811SOL    HW127332   0.409   0.532   3.615
 8811SOL    HW227333   0.548   0.569   3.539
 8812SOL     OW27334   2.653   0.958   0.507
 8812SOL    HW127335   2.665   1.004   0.419
 8812SOL    HW227336   2.636   0.860   0.491
 8813SOL     OW27337   0.731   5.326   0.774
 8813SOL    HW127338   0.791   5.251   0.744
 8813SOL    HW227339   0.743   5.404   0.713
 8814SOL     OW27340   5.572   6.898   6.352
 8814SOL    HW127341   5.593   6.842   6.433
 8814SOL    HW227342   5.507   6.850   6.294
 8815SOL     OW27343   6.417   4.478   3.618
 8815SOL    HW127344   6.336   4.536   3.609
 8815SOL    HW227345   6.389   4.385   3.642
 8816SOL     OW27346   0.849   5.922   2.287
 8816SOL    HW127347   0.829   5.992   2.218
 8816SOL    HW227348   0.881   5.966   2.371
 8817SOL     OW27349   2.052   3.970   5.071
 8817SOL    HW127350   2.142   3.974   5.028
 8817SOL    HW227351   2.062   3.976   5.171
 8818SOL     OW27352   6.740   5.074   5.264
 8818SOL    HW127353   6.831   5.061   5.305
 8818SOL    HW227354   6.678   5.112   5.332
 8819SOL     OW27355   0.476   1.035   4.768
 8819SOL    HW127356   0.382   1.041   4.801
 8819SOL    HW227357   0.527   0.970   4.824
 8820SOL     OW27358   1.320   2.297   3.363
 8820SOL    HW127359   1.268   2.343   3.291
 8820SOL    HW227360   1.318   2.198   3.347
 8821SOL     OW27361   1.348   6.893   6.892
 8821SOL    HW127362   1.284   6.847   6.831
 8821SOL    HW227363   1.423   6.830   6.915
 8822SOL     OW27364   1.132   2.460   3.794
 8822SOL    HW127365   1.130   2.554   3.761
 8822SOL    HW227366   1.043   2.418   3.779
 8823SOL     OW27367   2.615   5.493   0.793
 8823SOL    HW127368   2.573   5.403   0.805
 8823SOL    HW227369   2.681   5.508   0.867
 8824SOL     OW27370   5.159   4.407   1.645
 8824SOL    HW127371   5.119   4.386   1.734
 8824SOL    HW227372   5.088   4.401   1.575
 8825SOL     OW27373   2.600   2.095   6.748
 8825SOL    HW127374   2.586   2.039   6.667
 8825SOL    HW227375   2.664   2.169   6.726
 8826SOL     OW27376   5.311   0.325   1.073
 8826SOL    HW127377   5.260   0.241   1.093
 8826SOL    HW227378   5.274   0.400   1.129
 8827SOL     OW27379   6.614   1.423   3.838
 8827SOL    HW127380   6.679   1.383   3.902
 8827SOL    HW227381   6.521   1.413   3.873
 8828SOL     OW27382   1.558   5.579   3.153
 8828SOL    HW127383   1.555   5.541   3.061
 8828SOL    HW227384   1.599   5.670   3.151
 8829SOL     OW27385   0.583   0.499   1.158
 8829SOL    HW127386   0.601   0.576   1.098
 8829SOL    HW227387   0.633   0.510   1.244
 8830SOL     OW27388   1.547   1.411   1.165
 8830SOL    HW127389   1.633   1.380   1.125
 8830SOL    HW227390   1.483   1.434   1.092
 8831SOL     OW27391   0.380   0.325   1.255
 8831SOL    HW127392   0.461   0.375   1.222
 8831SOL    HW227393   0.300   0.384   1.250
 8832SOL     OW27394   6.687   0.733   1.957
 8832SOL    HW127395   6.699   0.731   2.056
 8832SOL    HW227396   6.663   0.826   1.929
 8833SOL     OW27397   0.454   5.306   1.600
 8833SOL    HW127398   0.491   5.399   1.590
 8833SOL    HW227399   0.505   5.257   1.670
 8834SOL     OW27400   6.537   4.533   4.360
 8834SOL    HW127401   6.441   4.505   4.362
 8834SOL    HW227402   6.591   4.462   4.315
 8835SOL     OW27403   0.666   1.738   0.714
 8835SOL    HW127404   0.580   1.759   0.668
 8835SOL    HW227405   0.663   1.645   0.751
 8836SOL     OW27406   4.712   2.112   1.635
 8836SOL    HW127407   4.762   2.188   1.593
 8836SOL    HW227408   4.761   2.026   1.616
 8837SOL     OW27409   0.565   3.048   2.295
 8837SOL    HW127410   0.640   3.027   2.233
 8837SOL    HW227411   0.493   2.980   2.285
 8838SOL     OW27412   1.466   6.890   3.415
 8838SOL    HW127413   1.472   6.821   3.343
 8838SOL    HW227414   1.546   6.951   3.411
 8839SOL     OW27415   6.066   5.260   4.862
 8839SOL    HW127416   6.132   5.313   4.809
 8839SOL    HW227417   5.978   5.258   4.814
 8840SOL     OW27418   4.354   0.556   1.750
 8840SOL    HW127419   4.299   0.617   1.692
 8840SOL    HW227420   4.296   0.516   1.820
 8841SOL     OW27421   4.110   6.967   3.236
 8841SOL    HW127422   4.206   6.996   3.246
 8841SOL    HW227423   4.088   6.959   3.139
 8842SOL     OW27424   1.682   1.272   1.957
 8842SOL    HW127425   1.725   1.362   1.959
 8842SOL    HW227426   1.683   1.235   1.864
 8843SOL     OW27427   6.973   2.810   4.232
 8843SOL    HW127428   0.017   2.742   4.204
 8843SOL    HW227429   6.883   2.769   4.235
 8844SOL     OW27430   5.798   2.013   6.949
 8844SOL    HW127431   5.825   1.928   6.993
 8844SOL    HW227432   5.877   2.074   6.943
 8845SOL     OW27433   5.291   2.580   0.037
 8845SOL    HW127434   5.355   2.655   0.055
 8845SOL    HW227435   5.209   2.616   7.016
 8846SOL     OW27436   3.201   4.865   4.161
 8846SOL    HW127437   3.202   4.778   4.210
 8846SOL    HW227438   3.106   4.896   4.149
 8847SOL     OW27439   1.091   1.504   3.629
 8847SOL    HW127440   1.065   1.428   3.570
 8847SOL    HW227441   1.102   1.471   3.723
 8848SOL     OW27442   0.631   1.185   3.777
 8848SOL    HW127443   0.647   1.097   3.822
 8848SOL    HW227444   0.654   1.177   3.680
 8849SOL     OW27445   3.235   0.004   1.687
 8849SOL    HW127446   3.211   6.953   1.626
 8849SOL    HW227447   3.153   0.057   1.709
 8850SOL     OW27448   3.386   1.698   6.908
 8850SOL    HW127449   3.391   1.754   6.826
 8850SOL    HW227450   3.310   1.730   6.965
 8851SOL     OW27451   2.193   3.765   1.314
 8851SOL    HW127452   2.117   3.702   1.301
 8851SOL    HW227453   2.279   3.718   1.299
 8852SOL     OW27454   0.768   2.397   4.951
 8852SOL    HW127455   0.766   2.384   4.852
 8852SOL    HW227456   0.800   2.313   4.995
 8853SOL     OW27457   4.764   0.535   1.731
 8853SOL    HW127458   4.723   0.444   1.734
 8853SOL    HW227459   4.722   0.593   1.799
 8854SOL     OW27460   7.012   2.418   4.813
 8854SOL    HW127461   0.012   2.412   4.716
 8854SOL    HW227462   0.040   2.350   4.865
 8855SOL     OW27463   4.952   4.889   1.353
 8855SOL    HW127464   4.948   4.789   1.344
 8855SOL    HW227465   4.918   4.931   1.269
 8856SOL     OW27466   6.309   1.061   5.685
 8856SOL    HW127467   6.345   1.153   5.693
 8856SOL    HW227468   6.358   1.012   5.612
 8857SOL     OW27469   0.230   2.517   6.403
 8857SOL    HW127470   0.257   2.476   6.490
 8857SOL    HW227471   0.264   2.461   6.327
 8858SOL     OW27472   6.969   5.342   4.953
 8858SOL    HW127473   6.939   5.287   4.875
 8858SOL    HW227474   6.899   5.411   4.974
 8859SOL     OW27475   0.399   6.030   3.065
 8859SOL    HW127476   0.299   6.017   3.065
 8859SOL    HW227477   0.441   5.958   3.009
 8860SOL     OW27478   6.584   2.134   2.704
 8860SOL    HW127479   6.612   2.191   2.782
 8860SOL    HW227480   6.498   2.089   2.725
 8861SOL     OW27481   2.956   2.776   1.217
 8861SOL    HW127482   2.995   2.853   1.165
 8861SOL    HW227483   3.029   2.730   1.267
 8862SOL     OW27484   4.326   4.632   4.683
 8862SOL    HW127485   4.226   4.631   4.679
 8862SOL    HW227486   4.356   4.590   4.768
 8863SOL     OW27487   1.646   3.491   1.654
 8863SOL    HW127488   1.546   3.499   1.658
 8863SOL    HW227489   1.674   3.406   1.698
 8864SOL     OW27490   7.011   1.650   4.408
 8864SOL    HW127491   7.021   1.556   4.440
 8864SOL    HW227492   6.935   1.656   4.344
 8865SOL     OW27493   2.832   1.239   0.447
 8865SOL    HW127494   2.884   1.166   0.492
 8865SOL    HW227495   2.764   1.198   0.386
 8866SOL     OW27496   6.472   0.540   1.941
 8866SOL    HW127497   6.535   0.617   1.940
 8866SOL    HW227498   6.452   0.512   1.847
 8867SOL     OW27499   5.713   2.397   3.297
 8867SOL    HW127500   5.753   2.431   3.212
 8867SOL    HW227501   5.617   2.376   3.283
 8868SOL     OW27502   0.430   2.969   3.577
 8868SOL    HW127503   0.399   3.051   3.528
 8868SOL    HW227504   0.506   2.927   3.528
 8869SOL     OW27505   4.118   0.248   3.284
 8869SOL    HW127506   4.203   0.298   3.268
 8869SOL    HW227507   4.123   0.160   3.236
 8870SOL     OW27508   0.978   0.663   1.553
 8870SOL    HW127509   0.971   0.757   1.587
 8870SOL    HW227510   0.997   0.601   1.629
 8871SOL     OW27511   0.033   6.731   0.876
 8871SOL    HW127512   0.003   6.647   0.831
 8871SOL    HW227513   7.012   6.810   0.835
 8872SOL     OW27514   6.804   5.245   3.641
 8872SOL    HW127515   6.816   5.344   3.648
 8872SOL    HW227516   6.752   5.223   3.558
 8873SOL     OW27517   1.910   1.440   3.538
 8873SOL    HW127518   1.962   1.413   3.457
 8873SOL    HW227519   1.812   1.431   3.520
 8874SOL     OW27520   2.703   6.159   0.419
 8874SOL    HW127521   2.690   6.214   0.502
 8874SOL    HW227522   2.786   6.104   0.428
 8875SOL     OW27523   6.798   2.323   4.253
 8875SOL    HW127524   6.723   2.278   4.206
 8875SOL    HW227525   6.885   2.292   4.215
 8876SOL     OW27526   4.884   0.028   0.589
 8876SOL    HW127527   4.910   0.122   0.564
 8876SOL    HW227528   4.807   0.031   0.652
 8877SOL     OW27529   1.151   4.422   1.872
 8877SOL    HW127530   1.186   4.488   1.806
 8877SOL    HW227531   1.228   4.372   1.913
 8878SOL     OW27532   5.102   3.611   2.601
 8878SOL    HW127533   5.031   3.625   2.532
 8878SOL    HW227534   5.128   3.514   2.603
 8879SOL     OW27535   6.626   4.333   4.184
 8879SOL    HW127536   6.617   4.269   4.108
 8879SOL    HW227537   6.717   4.375   4.182
 8880SOL     OW27538   3.945   1.772   2.579
 8880SOL    HW127539   3.933   1.815   2.669
 8880SOL    HW227540   4.037   1.791   2.546
 8881SOL     OW27541   3.966   5.664   2.929
 8881SOL    HW127542   3.912   5.655   3.014
 8881SOL    HW227543   3.916   5.620   2.854
 8882SOL     OW27544   4.040   1.540   0.201
 8882SOL    HW127545   4.003   1.461   0.251
 8882SOL    HW227546   4.134   1.521   0.174
 8883SOL     OW27547   0.756   6.694   2.753
 8883SOL    HW127548   0.825   6.632   2.715
 8883SOL    HW227549   0.691   6.719   2.681
 8884SOL     OW27550   4.435   1.801   5.892
 8884SOL    HW127551   4.488   1.876   5.854
 8884SOL    HW227552   4.352   1.787   5.838
 8885SOL     OW27553   5.566   5.125   0.993
 8885SOL    HW127554   5.621   5.204   1.021
 8885SOL    HW227555   5.616   5.073   0.924
 8886SOL     OW27556   4.394   6.566   0.594
 8886SOL    HW127557   4.329   6.506   0.548
 8886SOL    HW227558   4.461   6.600   0.528
 8887SOL     OW27559   4.117   0.795   2.321
 8887SOL    HW127560   4.134   0.878   2.266
 8887SOL    HW227561   4.019   0.779   2.327
 8888SOL     OW27562   4.029   1.917   2.212
 8888SOL    HW127563   4.051   2.001   2.262
 8888SOL    HW227564   3.936   1.888   2.234
 8889SOL     OW27565   1.709   4.455   6.801
 8889SOL    HW127566   1.779   4.384   6.802
 8889SOL    HW227567   1.641   4.433   6.731
 8890SOL     OW27568   1.912   5.829   0.017
 8890SOL    HW127569   1.951   5.821   6.950
 8890SOL    HW227570   1.975   5.882   0.075
 8891SOL     OW27571   5.727   3.425   5.318
 8891SOL    HW127572   5.717   3.524   5.328
 8891SOL    HW227573   5.660   3.379   5.376
 8892SOL     OW27574   2.588   5.121   5.547
 8892SOL    HW127575   2.505   5.117   5.604
 8892SOL    HW227576   2.660   5.065   5.588
 8893SOL     OW27577   0.608   4.640   5.424
 8893SOL    HW127578   0.695   4.683   5.444
 8893SOL    HW227579   0.615   4.589   5.338
 8894SOL     OW27580   5.946   2.048   1.499
 8894SOL    HW127581   5.965   2.139   1.462
 8894SOL    HW227582   6.000   1.980   1.450
 8895SOL     OW27583   6.843   3.460   2.406
 8895SOL    HW127584   6.809   3.471   2.499
 8895SOL    HW227585   6.808   3.534   2.348
 8896SOL     OW27586   0.592   0.415   3.894
 8896SOL    HW127587   0.506   0.463   3.878
 8896SOL    HW227588   0.573   0.324   3.931
 8897SOL     OW27589   1.577   5.243   4.615
 8897SOL    HW127590   1.506   5.218   4.680
 8897SOL    HW227591   1.581   5.176   4.541
 8898SOL     OW27592   5.952   5.016   3.028
 8898SOL    HW127593   5.940   5.068   3.113
 8898SOL    HW227594   6.021   5.060   2.971
 8899SOL     OW27595   2.159   4.643   1.978
 8899SOL    HW127596   2.147   4.553   2.019
 8899SOL    HW227597   2.174   4.711   2.051
 8900SOL     OW27598   4.703   1.636   4.851
 8900SOL    HW127599   4.694   1.711   4.785
 8900SOL    HW227600   4.784   1.651   4.907
 8901SOL     OW27601   1.002   4.584   6.246
 8901SOL    HW127602   1.024   4.629   6.159
 8901SOL    HW227603   1.084   4.581   6.304
 8902SOL     OW27604   1.468   4.095   6.758
 8902SOL    HW127605   1.397   4.054   6.701
 8902SOL    HW227606   1.476   4.193   6.737
 8903SOL     OW27607   0.612   0.859   4.212
 8903SOL    HW127608   0.628   0.760   4.217
 8903SOL    HW227609   0.517   0.876   4.185
 8904SOL     OW27610   6.693   1.077   2.588
 8904SOL    HW127611   6.690   0.977   2.575
 8904SOL    HW227612   6.679   1.122   2.499
 8905SOL     OW27613   1.382   5.226   1.210
 8905SOL    HW127614   1.428   5.273   1.135
 8905SOL    HW227615   1.448   5.207   1.282
 8906SOL     OW27616   6.625   1.206   6.294
 8906SOL    HW127617   6.674   1.156   6.222
 8906SOL    HW227618   6.690   1.237   6.363
 8907SOL     OW27619   2.660   3.148   5.343
 8907SOL    HW127620   2.589   3.103   5.289
 8907SOL    HW227621   2.685   3.089   5.420
 8908SOL     OW27622   1.668   5.613   5.415
 8908SOL    HW127623   1.761   5.649   5.422
 8908SOL    HW227624   1.629   5.604   5.507
 8909SOL     OW27625   2.611   6.370   1.733
 8909SOL    HW127626   2.525   6.323   1.709
 8909SOL    HW227627   2.677   6.358   1.659
 8910SOL     OW27628   1.127   0.980   3.946
 8910SOL    HW127629   1.224   1.005   3.941
 8910SOL    HW227630   1.073   1.045   3.891
 8911SOL     OW27631   4.847   2.887   4.068
 8911SOL    HW127632   4.867   2.825   4.144
 8911SOL    HW227633   4.775   2.849   4.011
 8912SOL     OW27634   3.702   3.288   3.418
 8912SOL    HW127635   3.752   3.285   3.504
 8912SOL    HW227636   3.750   3.233   3.350
 8913SOL     OW27637   4.913   5.504   0.377
 8913SOL    HW127638   4.913   5.556   0.463
 8913SOL    HW227639   4.818   5.492   0.346
 8914SOL     OW27640   5.197   4.674   4.657
 8914SOL    HW127641   5.219   4.767   4.629
 8914SOL    HW227642   5.206   4.666   4.756
 8915SOL     OW27643   2.476   1.063   3.111
 8915SOL    HW127644   2.400   1.107   3.157
 8915SOL    HW227645   2.521   0.999   3.173
 8916SOL     OW27646   6.417   0.098   2.597
 8916SOL    HW127647   6.454   0.023   2.651
 8916SOL    HW227648   6.387   0.064   2.508
 8917SOL     OW27649   5.730   2.559   0.279
 8917SOL    HW127650   5.726   2.460   0.267
 8917SOL    HW227651   5.654   2.588   0.337
 8918SOL     OW27652   1.405   3.075   2.942
 8918SOL    HW127653   1.470   3.008   2.978
 8918SOL    HW227654   1.431   3.099   2.849
 8919SOL     OW27655   6.939   2.153   3.107
 8919SOL    HW127656   6.972   2.069   3.152
 8919SOL    HW227657   6.916   2.133   3.012
 8920SOL     OW27658   1.117   1.777   0.300
 8920SOL    HW127659   1.112   1.705   0.230
 8920SOL    HW227660   1.177   1.850   0.268
 8921SOL     OW27661   0.975   2.421   1.242
 8921SOL    HW127662   1.017   2.381   1.324
 8921SOL    HW227663   0.912   2.355   1.202
 8922SOL     OW27664   3.185   5.647   3.142
 8922SOL    HW127665   3.164   5.709   3.065
 8922SOL    HW227666   3.101   5.629   3.193
 8923SOL     OW27667   2.456   2.256   3.472
 8923SOL    HW127668   2.444   2.220   3.380
 8923SOL    HW227669   2.369   2.291   3.506
 8924SOL     OW27670   6.264   5.304   5.152
 8924SOL    HW127671   6.331   5.239   5.186
 8924SOL    HW227672   6.292   5.339   5.063
 8925SOL     OW27673   0.412   6.497   3.937
 8925SOL    HW127674   0.370   6.456   3.855
 8925SOL    HW227675   0.359   6.471   4.018
 8926SOL     OW27676   6.124   2.498   6.784
 8926SOL    HW127677   6.065   2.423   6.755
 8926SOL    HW227678   6.087   2.539   6.867
 8927SOL     OW27679   1.085   1.738   6.432
 8927SOL    HW127680   1.064   1.723   6.335
 8927SOL    HW227681   1.150   1.669   6.464
 8928SOL     OW27682   0.323   6.457   4.800
 8928SOL    HW127683   0.317   6.375   4.857
 8928SOL    HW227684   0.390   6.520   4.840
 8929SOL     OW27685   6.909   1.562   3.360
 8929SOL    HW127686   7.008   1.568   3.375
 8929SOL    HW227687   6.886   1.472   3.325
 8930SOL     OW27688   2.159   5.146   2.310
 8930SOL    HW127689   2.259   5.151   2.312
 8930SOL    HW227690   2.128   5.141   2.215
 8931SOL     OW27691   4.933   2.949   6.979
 8931SOL    HW127692   4.927   2.925   0.051
 8931SOL    HW227693   5.028   2.968   6.955
 8932SOL     OW27694   0.615   3.556   2.460
 8932SOL    HW127695   0.528   3.562   2.509
 8932SOL    HW227696   0.605   3.494   2.382
 8933SOL     OW27697   5.092   2.493   5.793
 8933SOL    HW127698   5.128   2.551   5.866
 8933SOL    HW227699   5.007   2.449   5.824
 8934SOL     OW27700   2.662   5.893   2.454
 8934SOL    HW127701   2.662   5.989   2.479
 8934SOL    HW227702   2.607   5.881   2.371
 8935SOL     OW27703   6.956   5.858   6.506
 8935SOL    HW127704   6.893   5.924   6.463
 8935SOL    HW227705   6.980   5.890   6.597
 8936SOL     OW27706   4.314   3.537   0.825
 8936SOL    HW127707   4.292   3.633   0.839
 8936SOL    HW227708   4.374   3.505   0.898
 8937SOL     OW27709   6.921   1.697   6.293
 8937SOL    HW127710   6.866   1.649   6.361
 8937SOL    HW227711   6.907   1.656   6.203
 8938SOL     OW27712   5.118   5.288   1.824
 8938SOL    HW127713   5.048   5.255   1.761
 8938SOL    HW227714   5.201   5.310   1.773
 8939SOL     OW27715   5.643   1.960   4.061
 8939SOL    HW127716   5.656   1.863   4.081
 8939SOL    HW227717   5.633   2.011   4.147
 8940SOL     OW27718   5.529   6.728   1.999
 8940SOL    HW127719   5.594   6.804   2.003
 8940SOL    HW227720   5.569   6.652   1.948
 8941SOL     OW27721   4.032   2.209   0.127
 8941SOL    HW127722   4.126   2.238   0.140
 8941SOL    HW227723   4.029   2.130   0.066
 8942SOL     OW27724   1.419   1.906   5.767
 8942SOL    HW127725   1.516   1.884   5.761
 8942SOL    HW227726   1.369   1.829   5.806
 8943SOL     OW27727   4.771   3.377   0.870
 8943SOL    HW127728   4.773   3.405   0.774
 8943SOL    HW227729   4.698   3.426   0.918
 8944SOL     OW27730   4.993   5.436   0.786
 8944SOL    HW127731   5.073   5.415   0.843
 8944SOL    HW227732   5.015   5.420   0.690
 8945SOL     OW27733   2.069   1.052   3.508
 8945SOL    HW127734   2.066   1.085   3.603
 8945SOL    HW227735   2.075   0.952   3.508
 8946SOL     OW27736   3.495   0.286   5.209
 8946SOL    HW127737   3.545   0.277   5.123
 8946SOL    HW227738   3.451   0.199   5.232
 8947SOL     OW27739   3.318   3.794   5.849
 8947SOL    HW127740   3.372   3.733   5.792
 8947SOL    HW227741   3.359   3.885   5.849
 8948SOL     OW27742   5.247   4.794   3.806
 8948SOL    HW127743   5.185   4.738   3.751
 8948SOL    HW227744   5.337   4.797   3.761
 8949SOL     OW27745   1.877   5.549   6.369
 8949SOL    HW127746   1.846   5.551   6.274
 8949SOL    HW227747   1.903   5.456   6.394
 8950SOL     OW27748   4.995   2.765   4.994
 8950SOL    HW127749   4.984   2.697   5.067
 8950SOL    HW227750   4.910   2.816   4.982
 8951SOL     OW27751   2.879   1.846   5.482
 8951SOL    HW127752   2.795   1.798   5.455
 8951SOL    HW227753   2.871   1.877   5.576
 8952SOL     OW27754   5.541   6.666   3.595
 8952SOL    HW127755   5.542   6.696   3.691
 8952SOL    HW227756   5.634   6.649   3.564
 8953SOL     OW27757   1.317   4.867   6.161
 8953SOL    HW127758   1.355   4.957   6.183
 8953SOL    HW227759   1.344   4.842   6.067
 8954SOL     OW27760   2.445   6.825   6.517
 8954SOL    HW127761   2.430   6.821   6.418
 8954SOL    HW227762   2.406   6.743   6.560
 8955SOL     OW27763   6.893   3.171   4.341
 8955SOL    HW127764   6.882   3.229   4.260
 8955SOL    HW227765   6.805   3.132   4.367
 8956SOL     OW27766   1.550   0.442   4.000
 8956SOL    HW127767   1.469   0.390   4.026
 8956SOL    HW227768   1.572   0.508   4.072
 8957SOL     OW27769   3.364   6.358   1.768
 8957SOL    HW127770   3.269   6.349   1.799
 8957SOL    HW227771   3.393   6.272   1.726
 8958SOL     OW27772   3.115   0.529   4.899
 8958SOL    HW127773   3.095   0.591   4.823
 8958SOL    HW227774   3.139   0.582   4.980
 8959SOL     OW27775   3.883   4.674   6.754
 8959SOL    HW127776   3.948   4.689   6.679
 8959SOL    HW227777   3.803   4.732   6.741
 8960SOL     OW27778   4.477   5.430   1.018
 8960SOL    HW127779   4.543   5.503   1.036
 8960SOL    HW227780   4.451   5.432   0.921
 8961SOL     OW27781   0.546   2.715   4.829
 8961SOL    HW127782   0.608   2.671   4.765
 8961SOL    HW227783   0.597   2.782   4.884
 8962SOL     OW27784   4.471   0.469   4.077
 8962SOL    HW127785   4.555   0.495   4.125
 8962SOL    HW227786   4.477   0.497   3.981
 8963SOL     OW27787   1.619   0.702   4.199
 8963SOL    HW127788   1.689   0.757   4.153
 8963SOL    HW227789   1.662   0.639   4.263
 8964SOL     OW27790   0.900   2.324   3.310
 8964SOL    HW127791   0.906   2.224   3.309
 8964SOL    HW227792   0.967   2.361   3.375
 8965SOL     OW27793   1.563   5.291   1.403
 8965SOL    HW127794   1.661   5.283   1.385
 8965SOL    HW227795   1.545   5.273   1.500
 8966SOL     OW27796   3.549   2.068   4.931
 8966SOL    HW127797   3.622   2.016   4.976
 8966SOL    HW227798   3.499   2.122   4.999
 8967SOL     OW27799   5.449   6.514   0.736
 8967SOL    HW127800   5.358   6.541   0.708
 8967SOL    HW227801   5.469   6.423   0.701
 8968SOL     OW27802   6.485   3.827   3.868
 8968SOL    HW127803   6.577   3.864   3.877
 8968SOL    HW227804   6.479   3.741   3.919
 8969SOL     OW27805   6.457   6.818   4.228
 8969SOL    HW127806   6.548   6.778   4.236
 8969SOL    HW227807   6.443   6.849   4.133
 8970SOL     OW27808   3.369   3.125   1.575
 8970SOL    HW127809   3.339   3.059   1.643
 8970SOL    HW227810   3.467   3.111   1.556
 8971SOL     OW27811   3.354   6.831   2.715
 8971SOL    HW127812   3.288   6.796   2.782
 8971SOL    HW227813   3.334   6.792   2.625
 8972SOL     OW27814   5.308   0.352   5.478
 8972SOL    HW127815   5.380   0.417   5.457
 8972SOL    HW227816   5.243   0.347   5.402
 8973SOL     OW27817   2.144   4.679   6.899
 8973SOL    HW127818   2.116   4.615   6.971
 8973SOL    HW227819   2.244   4.683   6.896
 8974SOL     OW27820   0.780   2.538   4.348
 8974SOL    HW127821   0.709   2.493   4.402
 8974SOL    HW227822   0.857   2.476   4.336
 8975SOL     OW27823   3.665   1.154   5.936
 8975SOL    HW127824   3.716   1.228   5.893
 8975SOL    HW227825   3.714   1.122   6.017
 8976SOL     OW27826   1.952   5.845   3.973
 8976SOL    HW127827   1.905   5.845   4.061
 8976SOL    HW227828   2.040   5.799   3.982
 8977SOL     OW27829   5.592   1.522   6.952
 8977SOL    HW127830   5.690   1.531   6.972
 8977SOL    HW227831   5.579   1.459   6.876
 8978SOL     OW27832   5.567   4.817   1.955
 8978SOL    HW127833   5.648   4.849   2.005
 8978SOL    HW227834   5.596   4.763   1.877
 8979SOL     OW27835   1.058   4.634   4.995
 8979SOL    HW127836   1.037   4.695   4.918
 8979SOL    HW227837   1.150   4.597   4.983
 8980SOL     OW27838   3.048   3.121   3.508
 8980SOL    HW127839   3.101   3.078   3.436
 8980SOL    HW227840   3.070   3.219   3.512
 8981SOL     OW27841   2.771   2.223   5.500
 8981SOL    HW127842   2.753   2.318   5.524
 8981SOL    HW227843   2.834   2.219   5.422
 8982SOL     OW27844   2.979   5.330   0.742
 8982SOL    HW127845   2.920   5.257   0.776
 8982SOL    HW227846   2.924   5.411   0.720
 8983SOL     OW27847   5.161   4.282   0.729
 8983SOL    HW127848   5.237   4.274   0.793
 8983SOL    HW227849   5.131   4.377   0.724
 8984SOL     OW27850   1.483   6.568   3.319
 8984SOL    HW127851   1.582   6.554   3.320
 8984SOL    HW227852   1.452   6.589   3.412
 8985SOL     OW27853   2.851   3.233   6.329
 8985SOL    HW127854   2.947   3.212   6.315
 8985SOL    HW227855   2.817   3.288   6.253
 8986SOL     OW27856   2.760   5.992   1.965
 8986SOL    HW127857   2.757   6.024   2.060
 8986SOL    HW227858   2.681   6.028   1.916
 8987SOL     OW27859   5.033   6.511   2.559
 8987SOL    HW127860   4.962   6.442   2.571
 8987SOL    HW227861   5.097   6.506   2.636
 8988SOL     OW27862   0.682   4.372   5.191
 8988SOL    HW127863   0.628   4.320   5.125
 8988SOL    HW227864   0.692   4.466   5.160
 8989SOL     OW27865   2.407   2.434   6.871
 8989SOL    HW127866   2.494   2.472   6.899
 8989SOL    HW227867   2.394   2.345   6.914
 8990SOL     OW27868   0.100   5.066   4.644
 8990SOL    HW127869   0.033   5.068   4.570
 8990SOL    HW227870   0.176   5.006   4.619
 8991SOL     OW27871   0.851   2.672   4.955
 8991SOL    HW127872   0.819   2.578   4.969
 8991SOL    HW227873   0.944   2.671   4.920
 8992SOL     OW27874   6.545   1.136   1.603
 8992SOL    HW127875   6.631   1.184   1.621
 8992SOL    HW227876   6.515   1.156   1.510
 8993SOL     OW27877   4.410   2.173   1.036
 8993SOL    HW127878   4.398   2.107   1.110
 8993SOL    HW227879   4.326   2.226   1.025
 8994SOL     OW27880   2.152   5.676   2.578
 8994SOL    HW127881   2.218   5.680   2.503
 8994SOL    HW227882   2.177   5.743   2.648
 8995SOL     OW27883   0.288   0.075   1.138
 8995SOL    HW127884   0.373   0.038   1.102
 8995SOL    HW227885   0.305   0.165   1.179
 8996SOL     OW27886   4.451   5.412   5.392
 8996SOL    HW127887   4.400   5.328   5.377
 8996SOL    HW227888   4.447   5.469   5.310
 8997SOL     OW27889   5.493   0.173   5.049
 8997SOL    HW127890   5.487   0.146   4.953
 8997SOL    HW227891   5.404   0.159   5.093
 8998SOL     OW27892   6.820   3.872   5.141
 8998SOL    HW127893   6.809   3.968   5.168
 8998SOL    HW227894   6.793   3.813   5.217
 8999SOL     OW27895   4.461   5.781   6.333
 8999SOL    HW127896   4.389   5.712   6.327
 8999SOL    HW227897   4.420   5.872   6.337
 9000SOL     OW27898   1.222   4.191   0.920
 9000SOL    HW127899   1.249   4.122   0.853
 9000SOL    HW227900   1.131   4.168   0.956
 9001SOL     OW27901   1.279   5.588   0.639
 9001SOL    HW127902   1.220   5.664   0.611
 9001SOL    HW227903   1.231   5.501   0.625
 9002SOL     OW27904   6.453   6.390   6.307
 9002SOL    HW127905   6.464   6.329   6.229
 9002SOL    HW227906   6.359   6.385   6.340
 9003SOL     OW27907   4.944   6.355   0.898
 9003SOL    HW127908   5.009   6.429   0.915
 9003SOL    HW227909   4.873   6.386   0.835
 9004SOL     OW27910   6.473   4.904   2.405
 9004SOL    HW127911   6.534   4.845   2.459
 9004SOL    HW227912   6.523   4.942   2.327
 9005SOL     OW27913   4.900   1.063   4.832
 9005SOL    HW127914   4.904   1.127   4.909
 9005SOL    HW227915   4.916   1.113   4.746
 9006SOL     OW27916   3.510   6.168   0.422
 9006SOL    HW127917   3.571   6.121   0.485
 9006SOL    HW227918   3.526   6.267   0.428
 9007SOL     OW27919   0.300   0.544   3.025
 9007SOL    HW127920   0.325   0.521   3.119
 9007SOL    HW227921   0.266   0.638   3.022
 9008SOL     OW27922   6.897   5.083   2.091
 9008SOL    HW127923   6.908   5.016   2.165
 9008SOL    HW227924   6.986   5.102   2.050
 9009SOL     OW27925   3.480   6.864   2.138
 9009SOL    HW127926   3.548   6.797   2.108
 9009SOL    HW227927   3.425   6.826   2.212
 9010SOL     OW27928   2.151   4.942   5.085
 9010SOL    HW127929   2.206   5.013   5.041
 9010SOL    HW227930   2.201   4.856   5.083
 9011SOL     OW27931   2.597   1.979   2.021
 9011SOL    HW127932   2.584   2.046   2.095
 9011SOL    HW227933   2.688   1.990   1.982
 9012SOL     OW27934   2.290   6.228   0.402
 9012SOL    HW127935   2.193   6.206   0.400
 9012SOL    HW227936   2.314   6.268   0.490
 9013SOL     OW27937   1.976   0.358   4.541
 9013SOL    HW127938   2.003   0.451   4.518
 9013SOL    HW227939   1.949   0.354   4.638
 9014SOL     OW27940   5.503   3.333   3.592
 9014SOL    HW127941   5.451   3.295   3.516
 9014SOL    HW227942   5.548   3.418   3.564
 9015SOL     OW27943   3.868   6.452   6.201
 9015SOL    HW127944   3.828   6.446   6.292
 9015SOL    HW227945   3.853   6.544   6.164
 9016SOL     OW27946   4.993   4.156   6.130
 9016SOL    HW127947   4.997   4.205   6.043
 9016SOL    HW227948   5.051   4.075   6.126
 9017SOL     OW27949   2.618   0.109   5.617
 9017SOL    HW127950   2.550   0.086   5.686
 9017SOL    HW227951   2.583   0.182   5.559
 9018SOL     OW27952   3.534   4.943   0.493
 9018SOL    HW127953   3.616   4.915   0.443
 9018SOL    HW227954   3.497   5.026   0.453
 9019SOL     OW27955   0.400   3.821   4.509
 9019SOL    HW127956   0.462   3.871   4.448
 9019SOL    HW227957   0.374   3.880   4.585
 9020SOL     OW27958   5.785   5.123   3.546
 9020SOL    HW127959   5.788   5.040   3.603
 9020SOL    HW227960   5.691   5.139   3.516
 9021SOL     OW27961   0.278   1.265   4.471
 9021SOL    HW127962   0.237   1.177   4.495
 9021SOL    HW227963   0.362   1.249   4.418
 9022SOL     OW27964   4.684   3.281   6.631
 9022SOL    HW127965   4.708   3.203   6.688
 9022SOL    HW227966   4.760   3.346   6.631
 9023SOL     OW27967   0.488   5.042   0.975
 9023SOL    HW127968   0.412   5.048   1.039
 9023SOL    HW227969   0.467   5.096   0.893
 9024SOL     OW27970   2.288   4.901   6.487
 9024SOL    HW127971   2.369   4.882   6.544
 9024SOL    HW227972   2.246   4.815   6.460
 9025SOL     OW27973   0.470   5.814   1.794
 9025SOL    HW127974   0.421   5.858   1.719
 9025SOL    HW227975   0.452   5.863   1.879
 9026SOL     OW27976   5.896   1.140   6.829
 9026SOL    HW127977   5.981   1.193   6.827
 9026SOL    HW227978   5.866   1.122   6.735
 9027SOL     OW27979   0.260   4.099   3.076
 9027SOL    HW127980   0.202   4.019   3.092
 9027SOL    HW227981   0.307   4.089   2.989
 9028SOL     OW27982   3.188   4.921   7.010
 9028SOL    HW127983   3.245   4.922   0.067
 9028SOL    HW227984   3.092   4.927   0.013
 9029SOL     OW27985   4.186   6.145   4.958
 9029SOL    HW127986   4.184   6.127   4.860
 9029SOL    HW227987   4.281   6.142   4.990
 9030SOL     OW27988   2.807   2.200   2.254
 9030SOL    HW127989   2.882   2.134   2.247
 9030SOL    HW227990   2.814   2.266   2.178
 9031SOL     OW27991   5.327   6.634   4.997
 9031SOL    HW127992   5.265   6.711   4.978
 9031SOL    HW227993   5.405   6.667   5.050
 9032SOL     OW27994   4.885   3.068   1.221
 9032SOL    HW127995   4.924   2.986   1.180
 9032SOL    HW227996   4.825   3.043   1.296
 9033SOL     OW27997   1.143   6.060   2.353
 9033SOL    HW127998   1.089   6.060   2.269
 9033SOL    HW227999   1.209   6.135   2.351
 9034SOL     OW28000   3.776   6.696   5.044
 9034SOL    HW128001   3.763   6.679   4.947
 9034SOL    HW228002   3.853   6.642   5.078
 9035SOL     OW28003   2.433   5.511   5.978
 9035SOL    HW128004   2.372   5.518   5.898
 9035SOL    HW228005   2.489   5.593   5.984
 9036SOL     OW28006   0.157   5.286   5.108
 9036SOL    HW128007   0.085   5.311   5.044
 9036SOL    HW228008   0.151   5.189   5.130
 9037SOL     OW28009   6.905   0.890   2.309
 9037SOL    HW128010   6.831   0.844   2.260
 9037SOL    HW228011   6.993   0.853   2.278
 9038SOL     OW28012   3.535   3.603   5.687
 9038SOL    HW128013   3.624   3.627   5.725
 9038SOL    HW228014   3.519   3.505   5.696
 9039SOL     OW28015   4.636   6.487   6.101
 9039SOL    HW128016   4.563   6.516   6.039
 9039SOL    HW228017   4.621   6.525   6.192
 9040SOL     OW28018   2.405   2.275   1.580
 9040SOL    HW128019   2.419   2.176   1.588
 9040SOL    HW228020   2.475   2.314   1.520
 9041SOL     OW28021   6.542   2.335   3.087
 9041SOL    HW128022   6.483   2.256   3.102
 9041SOL    HW228023   6.499   2.395   3.019
 9042SOL     OW28024   6.170   5.731   6.552
 9042SOL    HW128025   6.081   5.770   6.528
 9042SOL    HW228026   6.158   5.667   6.629
 9043SOL     OW28027   2.915   3.038   1.760
 9043SOL    HW128028   2.913   3.094   1.843
 9043SOL    HW228029   2.822   3.020   1.730
 9044SOL     OW28030   2.040   0.830   6.920
 9044SOL    HW128031   1.974   0.879   6.862
 9044SOL    HW228032   1.999   0.745   6.952
 9045SOL     OW28033   3.468   0.586   4.195
 9045SOL    HW128034   3.553   0.615   4.237
 9045SOL    HW228035   3.485   0.563   4.099
 9046SOL     OW28036   4.059   3.616   2.014
 9046SOL    HW128037   4.089   3.550   2.083
 9046SOL    HW228038   3.959   3.623   2.015
 9047SOL     OW28039   0.533   4.410   5.859
 9047SOL    HW128040   0.620   4.359   5.864
 9047SOL    HW228041   0.471   4.377   5.930
 9048SOL     OW28042   0.537   2.215   5.409
 9048SOL    HW128043   0.441   2.189   5.397
 9048SOL    HW228044   0.595   2.159   5.350
 9049SOL     OW28045   0.707   6.671   5.326
 9049SOL    HW128046   0.744   6.756   5.289
 9049SOL    HW228047   0.618   6.653   5.285
 9050SOL     OW28048   1.276   4.562   0.086
 9050SOL    HW128049   1.246   4.622   0.161
 9050SOL    HW228050   1.231   4.473   0.095
 9051SOL     OW28051   2.016   0.715   1.302
 9051SOL    HW128052   2.002   0.809   1.334
 9051SOL    HW228053   2.007   0.652   1.379
 9052SOL     OW28054   2.150   2.640   6.567
 9052SOL    HW128055   2.198   2.553   6.579
 9052SOL    HW228056   2.210   2.706   6.521
 9053SOL     OW28057   0.644   1.384   0.473
 9053SOL    HW128058   0.612   1.299   0.430
 9053SOL    HW228059   0.568   1.448   0.480
 9054SOL     OW28060   1.254   5.493   3.106
 9054SOL    HW128061   1.351   5.484   3.131
 9054SOL    HW228062   1.205   5.538   3.180
 9055SOL     OW28063   0.547   2.557   6.503
 9055SOL    HW128064   0.538   2.613   6.420
 9055SOL    HW228065   0.481   2.587   6.571
 9056SOL     OW28066   4.849   1.434   4.474
 9056SOL    HW128067   4.879   1.497   4.545
 9056SOL    HW228068   4.850   1.480   4.386
 9057SOL     OW28069   4.824   1.429   3.796
 9057SOL    HW128070   4.789   1.457   3.886
 9057SOL    HW228071   4.862   1.509   3.749
 9058SOL     OW28072   2.127   6.776   6.049
 9058SOL    HW128073   2.111   6.875   6.044
 9058SOL    HW228074   2.043   6.730   6.078
 9059SOL     OW28075   1.647   2.130   3.580
 9059SOL    HW128076   1.656   2.175   3.669
 9059SOL    HW228077   1.695   2.042   3.583
 9060SOL     OW28078   5.378   2.502   5.228
 9060SOL    HW128079   5.354   2.575   5.163
 9060SOL    HW228080   5.296   2.455   5.258
 9061SOL     OW28081   2.147   4.687   3.835
 9061SOL    HW128082   2.142   4.590   3.855
 9061SOL    HW228083   2.089   4.708   3.756
 9062SOL     OW28084   1.973   6.436   1.938
 9062SOL    HW128085   1.944   6.341   1.953
 9062SOL    HW228086   2.040   6.462   2.008
 9063SOL     OW28087   2.985   1.648   1.593
 9063SOL    HW128088   2.895   1.691   1.597
 9063SOL    HW228089   3.056   1.718   1.594
 9064SOL     OW28090   4.192   3.643   0.116
 9064SOL    HW128091   4.276   3.693   0.093
 9064SOL    HW228092   4.122   3.708   0.145
 9065SOL     OW28093   2.772   1.221   0.763
 9065SOL    HW128094   2.796   1.133   0.722
 9065SOL    HW228095   2.849   1.285   0.752
 9066SOL     OW28096   5.204   6.825   0.104
 9066SOL    HW128097   5.199   6.732   0.067
 9066SOL    HW228098   5.197   6.891   0.030
 9067SOL     OW28099   0.701   0.182   1.717
 9067SOL    HW128100   0.748   0.246   1.656
 9067SOL    HW228101   0.606   0.172   1.688
 9068SOL     OW28102   1.040   5.902   6.334
 9068SOL    HW128103   1.054   5.930   6.238
 9068SOL    HW228104   1.088   5.966   6.394
 9069SOL     OW28105   1.411   2.517   5.484
 9069SOL    HW128106   1.316   2.485   5.477
 9069SOL    HW228107   1.412   2.610   5.520
 9070SOL     OW28108   0.967   4.395   4.570
 9070SOL    HW128109   0.887   4.446   4.539
 9070SOL    HW228110   1.041   4.406   4.504
 9071SOL     OW28111   5.059   5.560   6.972
 9071SOL    HW128112   5.060   5.601   6.881
 9071SOL    HW228113   5.090   5.465   6.966
 9072SOL     OW28114   5.171   4.525   0.545
 9072SOL    HW128115   5.078   4.550   0.571
 9072SOL    HW228116   5.179   4.528   0.445
 9073SOL     OW28117   2.007   6.978   1.216
 9073SOL    HW128118   1.958   0.004   1.287
 9073SOL    HW228119   2.085   6.929   1.256
 9074SOL     OW28120   0.635   0.885   1.520
 9074SOL    HW128121   0.699   0.960   1.536
 9074SOL    HW228122   0.557   0.918   1.467
 9075SOL     OW28123   6.820   0.307   1.168
 9075SOL    HW128124   6.795   0.275   1.076
 9075SOL    HW228125   6.824   0.407   1.168
 9076SOL     OW28126   1.049   2.693   5.285
 9076SOL    HW128127   1.038   2.677   5.187
 9076SOL    HW228128   0.961   2.681   5.331
 9077SOL     OW28129   5.825   5.825   1.651
 9077SOL    HW128130   5.790   5.916   1.629
 9077SOL    HW228131   5.875   5.828   1.737
 9078SOL     OW28132   4.805   3.077   5.103
 9078SOL    HW128133   4.851   3.162   5.077
 9078SOL    HW228134   4.801   3.017   5.023
 9079SOL     OW28135   2.015   0.281   5.645
 9079SOL    HW128136   1.939   0.343   5.661
 9079SOL    HW228137   2.004   0.199   5.702
 9080SOL     OW28138   4.477   0.651   0.246
 9080SOL    HW128139   4.452   0.727   0.186
 9080SOL    HW228140   4.454   0.564   0.202
 9081SOL     OW28141   5.487   6.957   4.075
 9081SOL    HW128142   5.426   6.892   4.119
 9081SOL    HW228143   5.448   0.025   4.080
 9082SOL     OW28144   2.314   0.512   1.932
 9082SOL    HW128145   2.310   0.415   1.957
 9082SOL    HW228146   2.400   0.531   1.885
 9083SOL     OW28147   4.369   5.298   3.305
 9083SOL    HW128148   4.403   5.337   3.219
 9083SOL    HW228149   4.275   5.329   3.321
 9084SOL     OW28150   3.837   3.719   2.208
 9084SOL    HW128151   3.807   3.714   2.113
 9084SOL    HW228152   3.783   3.788   2.256
 9085SOL     OW28153   1.546   1.681   0.723
 9085SOL    HW128154   1.491   1.704   0.643
 9085SOL    HW228155   1.525   1.745   0.798
 9086SOL     OW28156   6.997   3.494   0.909
 9086SOL    HW128157   0.009   3.426   0.973
 9086SOL    HW228158   6.958   3.571   0.960
 9087SOL     OW28159   5.259   3.885   1.972
 9087SOL    HW128160   5.341   3.828   1.981
 9087SOL    HW228161   5.282   3.980   1.995
 9088SOL     OW28162   6.452   4.722   2.682
 9088SOL    HW128163   6.517   4.693   2.753
 9088SOL    HW228164   6.446   4.822   2.681
 9089SOL     OW28165   4.204   1.231   5.760
 9089SOL    HW128166   4.149   1.203   5.681
 9089SOL    HW228167   4.228   1.327   5.752
 9090SOL     OW28168   6.926   1.930   3.994
 9090SOL    HW128169   6.849   1.921   4.056
 9090SOL    HW228170   6.908   2.003   3.928
 9091SOL     OW28171   4.520   2.924   6.080
 9091SOL    HW128172   4.543   3.018   6.105
 9091SOL    HW228173   4.422   2.909   6.092
 9092SOL     OW28174   6.860   4.148   5.887
 9092SOL    HW128175   6.802   4.148   5.806
 9092SOL    HW228176   6.845   4.064   5.939
 9093SOL     OW28177   2.572   6.295   5.009
 9093SOL    HW128178   2.658   6.245   5.022
 9093SOL    HW228179   2.530   6.312   5.098
 9094SOL     OW28180   1.740   3.772   0.464
 9094SOL    HW128181   1.647   3.739   0.481
 9094SOL    HW228182   1.747   3.867   0.493
 9095SOL     OW28183   0.199   0.187   5.974
 9095SOL    HW128184   0.287   0.201   5.929
 9095SOL    HW228185   0.154   0.106   5.936
 9096SOL     OW28186   6.637   5.558   3.599
 9096SOL    HW128187   6.700   5.537   3.524
 9096SOL    HW228188   6.675   5.526   3.686
 9097SOL     OW28189   0.652   4.003   0.652
 9097SOL    HW128190   0.574   4.019   0.592
 9097SOL    HW228191   0.735   3.994   0.598
 9098SOL     OW28192   2.197   5.375   4.946
 9098SOL    HW128193   2.155   5.457   4.985
 9098SOL    HW228194   2.191   5.379   4.846
 9099SOL     OW28195   2.230   1.290   6.257
 9099SOL    HW128196   2.310   1.258   6.308
 9099SOL    HW228197   2.261   1.336   6.174
 9100SOL     OW28198   1.626   4.853   4.581
 9100SOL    HW128199   1.591   4.871   4.674
 9100SOL    HW228200   1.672   4.764   4.580
 9101SOL     OW28201   6.561   1.872   1.632
 9101SOL    HW128202   6.469   1.858   1.669
 9101SOL    HW228203   6.555   1.904   1.538
 9102SOL     OW28204   3.998   1.032   2.907
 9102SOL    HW128205   3.947   0.964   2.959
 9102SOL    HW228206   4.057   1.084   2.970
 9103SOL     OW28207   5.982   0.680   1.501
 9103SOL    HW128208   5.923   0.761   1.496
 9103SOL    HW228209   6.075   0.709   1.522
 9104SOL     OW28210   5.251   2.248   5.753
 9104SOL    HW128211   5.235   2.199   5.838
 9104SOL    HW228212   5.187   2.325   5.746
 9105SOL     OW28213   3.042   1.019   0.097
 9105SOL    HW128214   3.038   0.976   0.187
 9105SOL    HW228215   3.039   1.118   0.107
 9106SOL     OW28216   2.525   3.020   6.116
 9106SOL    HW128217   2.431   3.027   6.149
 9106SOL    HW228218   2.584   2.984   6.188
 9107SOL     OW28219   4.006   0.344   1.128
 9107SOL    HW128220   4.106   0.338   1.129
 9107SOL    HW228221   3.973   0.362   1.221
 9108SOL     OW28222   6.083   6.674   5.776
 9108SOL    HW128223   6.098   6.727   5.692
 9108SOL    HW228224   6.064   6.579   5.751
 9109SOL     OW28225   5.517   3.742   3.118
 9109SOL    HW128226   5.505   3.644   3.102
 9109SOL    HW228227   5.598   3.756   3.175
 9110SOL     OW28228   1.275   6.344   1.838
 9110SOL    HW128229   1.185   6.314   1.804
 9110SOL    HW228230   1.332   6.264   1.854
 9111SOL     OW28231   4.906   2.961   6.088
 9111SOL    HW128232   4.933   3.056   6.073
 9111SOL    HW228233   4.909   2.912   6.001
 9112SOL     OW28234   0.975   4.847   1.800
 9112SOL    HW128235   0.921   4.914   1.850
 9112SOL    HW228236   1.005   4.886   1.713
 9113SOL     OW28237   5.543   0.752   4.972
 9113SOL    HW128238   5.521   0.702   5.056
 9113SOL    HW228239   5.459   0.789   4.932
 9114SOL     OW28240   6.802   1.031   6.110
 9114SOL    HW128241   6.861   1.109   6.088
 9114SOL    HW228242   6.851   0.946   6.090
 9115SOL     OW28243   5.248   3.772   4.246
 9115SOL    HW128244   5.333   3.722   4.259
 9115SOL    HW228245   5.240   3.800   4.151
 9116SOL     OW28246   0.479   5.283   3.747
 9116SOL    HW128247   0.497   5.223   3.670
 9116SOL    HW228248   0.435   5.231   3.821
 9117SOL     OW28249   2.255   6.628   6.815
 9117SOL    HW128250   2.319   6.562   6.854
 9117SOL    HW228251   2.161   6.600   6.837
 9118SOL     OW28252   0.111   5.001   0.770
 9118SOL    HW128253   0.158   5.035   0.851
 9118SOL    HW228254   0.018   4.973   0.794
 9119SOL     OW28255   3.779   1.961   0.701
 9119SOL    HW128256   3.841   2.024   0.655
 9119SOL    HW228257   3.798   1.961   0.799
 9120SOL     OW28258   6.466   4.257   5.112
 9120SOL    HW128259   6.397   4.200   5.066
 9120SOL    HW228260   6.555   4.213   5.106
 9121SOL     OW28261   4.642   0.960   4.720
 9121SOL    HW128262   4.649   0.887   4.789
 9121SOL    HW228263   4.706   1.033   4.741
 9122SOL     OW28264   0.158   1.576   2.135
 9122SOL    HW128265   0.068   1.544   2.104
 9122SOL    HW228266   0.200   1.506   2.193
 9123SOL     OW28267   0.509   6.011   4.657
 9123SOL    HW128268   0.543   5.995   4.750
 9123SOL    HW228269   0.531   5.931   4.601
 9124SOL     OW28270   3.260   5.636   0.981
 9124SOL    HW128271   3.265   5.695   1.061
 9124SOL    HW228272   3.312   5.552   0.999
 9125SOL     OW28273   4.828   6.591   1.869
 9125SOL    HW128274   4.833   6.626   1.963
 9125SOL    HW228275   4.871   6.657   1.807
 9126SOL     OW28276   3.774   4.889   0.353
 9126SOL    HW128277   3.785   4.853   0.260
 9126SOL    HW228278   3.863   4.913   0.390
 9127SOL     OW28279   6.022   4.285   6.222
 9127SOL    HW128280   6.018   4.198   6.174
 9127SOL    HW228281   6.087   4.346   6.176
 9128SOL     OW28282   5.230   3.379   6.741
 9128SOL    HW128283   5.232   3.290   6.696
 9128SOL    HW228284   5.324   3.409   6.761
 9129SOL     OW28285   0.850   2.615   1.509
 9129SOL    HW128286   0.761   2.659   1.517
 9129SOL    HW228287   0.899   2.652   1.430
 9130SOL     OW28288   2.868   4.131   5.993
 9130SOL    HW128289   2.927   4.055   5.967
 9130SOL    HW228290   2.904   4.175   6.076
 9131SOL     OW28291   6.059   3.143   0.772
 9131SOL    HW128292   6.081   3.046   0.756
 9131SOL    HW228293   5.980   3.169   0.716
 9132SOL     OW28294   0.910   4.353   3.805
 9132SOL    HW128295   0.918   4.306   3.717
 9132SOL    HW228296   0.920   4.451   3.791
 9133SOL     OW28297   5.213   6.323   0.371
 9133SOL    HW128298   5.216   6.238   0.318
 9133SOL    HW228299   5.298   6.373   0.358
 9134SOL     OW28300   5.021   4.167   6.993
 9134SOL    HW128301   5.069   4.210   0.045
 9134SOL    HW228302   4.923   4.165   7.012
 9135SOL     OW28303   6.125   5.166   2.849
 9135SOL    HW128304   6.103   5.123   2.762
 9135SOL    HW228305   6.213   5.133   2.882
 9136SOL     OW28306   0.701   4.814   6.598
 9136SOL    HW128307   0.638   4.745   6.562
 9136SOL    HW228308   0.728   4.875   6.525
 9137SOL     OW28309   5.610   5.460   5.698
 9137SOL    HW128310   5.576   5.372   5.665
 9137SOL    HW228311   5.622   5.455   5.797
 9138SOL     OW28312   1.422   3.885   6.014
 9138SOL    HW128313   1.417   3.826   6.095
 9138SOL    HW228314   1.505   3.864   5.963
 9139SOL     OW28315   0.498   6.966   1.039
 9139SOL    HW128316   0.458   6.876   1.024
 9139SOL    HW228317   0.532   7.002   0.952
 9140SOL     OW28318   0.393   4.050   2.859
 9140SOL    HW128319   0.415   3.971   2.802
 9140SOL    HW228320   0.468   4.116   2.857
 9141SOL     OW28321   0.155   5.670   4.246
 9141SOL    HW128322   0.112   5.631   4.165
 9141SOL    HW228323   0.230   5.612   4.275
 9142SOL     OW28324   1.585   4.924   3.186
 9142SOL    HW128325   1.539   5.013   3.196
 9142SOL    HW228326   1.577   4.892   3.092
 9143SOL     OW28327   5.502   3.148   2.413
 9143SOL    HW128328   5.423   3.209   2.409
 9143SOL    HW228329   5.473   3.053   2.398
 9144SOL     OW28330   2.637   4.614   5.491
 9144SOL    HW128331   2.722   4.645   5.447
 9144SOL    HW228332   2.563   4.677   5.468
 9145SOL     OW28333   2.671   5.421   6.841
 9145SOL    HW128334   2.629   5.511   6.854
 9145SOL    HW228335   2.739   5.427   6.768
 9146SOL     OW28336   5.427   1.612   4.410
 9146SOL    HW128337   5.371   1.676   4.357
 9146SOL    HW228338   5.370   1.535   4.440
 9147SOL     OW28339   3.863   6.937   6.284
 9147SOL    HW128340   3.838   7.017   6.228
 9147SOL    HW228341   3.904   6.968   6.369
 9148SOL     OW28342   3.231   5.426   2.261
 9148SOL    HW128343   3.211   5.455   2.167
 9148SOL    HW228344   3.234   5.505   2.321
 9149SOL     OW28345   1.129   3.880   1.827
 9149SOL    HW128346   1.215   3.917   1.793
 9149SOL    HW228347   1.110   3.916   1.918
 9150SOL     OW28348   4.045   3.437   6.889
 9150SOL    HW128349   4.002   3.519   6.853
 9150SOL    HW228350   3.993   3.404   6.968
 9151SOL     OW28351   1.950   3.933   3.615
 9151SOL    HW128352   2.016   3.880   3.668
 9151SOL    HW228353   1.964   4.030   3.632
 9152SOL     OW28354   1.739   5.524   1.894
 9152SOL    HW128355   1.647   5.549   1.925
 9152SOL    HW228356   1.802   5.600   1.911
 9153SOL     OW28357   0.791   3.528   1.057
 9153SOL    HW128358   0.730   3.603   1.083
 9153SOL    HW228359   0.837   3.550   0.971
 9154SOL     OW28360   4.468   5.641   2.922
 9154SOL    HW128361   4.538   5.709   2.905
 9154SOL    HW228362   4.378   5.681   2.904
 9155SOL     OW28363   0.743   6.501   2.261
 9155SOL    HW128364   0.696   6.556   2.193
 9155SOL    HW228365   0.842   6.515   2.254
 9156SOL     OW28366   6.662   4.696   5.734
 9156SOL    HW128367   6.571   4.699   5.691
 9156SOL    HW228368   6.730   4.733   5.670
 9157SOL     OW28369   2.207   4.666   5.148
 9157SOL    HW128370   2.110   4.675   5.126
 9157SOL    HW228371   2.255   4.622   5.072
 9158SOL     OW28372   7.009   2.535   4.014
 9158SOL    HW128373   0.028   2.601   3.953
 9158SOL    HW228374   6.931   2.493   3.967
 9159SOL     OW28375   2.201   0.820   3.495
 9159SOL    HW128376   2.169   0.747   3.435
 9159SOL    HW228377   2.251   0.780   3.573
 9160SOL     OW28378   0.470   3.535   6.587
 9160SOL    HW128379   0.461   3.436   6.573
 9160SOL    HW228380   0.417   3.562   6.667
 9161SOL     OW28381   5.885   2.967   2.655
 9161SOL    HW128382   5.945   2.908   2.709
 9161SOL    HW228383   5.908   3.063   2.674
 9162SOL     OW28384   5.366   2.283   1.692
 9162SOL    HW128385   5.330   2.301   1.783
 9162SOL    HW228386   5.383   2.185   1.681
 9163SOL     OW28387   1.180   3.348   2.923
 9163SOL    HW128388   1.171   3.267   2.865
 9163SOL    HW228389   1.238   3.415   2.878
 9164SOL     OW28390   4.205   0.700   0.834
 9164SOL    HW128391   4.163   0.753   0.760
 9164SOL    HW228392   4.136   0.679   0.903
 9165SOL     OW28393   6.927   0.442   0.155
 9165SOL    HW128394   6.977   0.443   0.242
 9165SOL    HW228395   6.849   0.380   0.161
 9166SOL     OW28396   4.143   5.669   2.060
 9166SOL    HW128397   4.119   5.651   1.965
 9166SOL    HW228398   4.163   5.583   2.107
 9167SOL     OW28399   0.448   2.500   5.248
 9167SOL    HW128400   0.504   2.477   5.328
 9167SOL    HW228401   0.454   2.599   5.232
 9168SOL     OW28402   5.991   6.089   4.770
 9168SOL    HW128403   5.909   6.146   4.760
 9168SOL    HW228404   6.068   6.135   4.727
 9169SOL     OW28405   5.484   5.873   0.214
 9169SOL    HW128406   5.444   5.796   0.263
 9169SOL    HW228407   5.463   5.865   0.116
 9170SOL     OW28408   1.329   6.566   5.098
 9170SOL    HW128409   1.244   6.561   5.150
 9170SOL    HW228410   1.406   6.576   5.160
 9171SOL     OW28411   4.592   5.908   6.771
 9171SOL    HW128412   4.618   5.973   6.842
 9171SOL    HW228413   4.634   5.934   6.685
 9172SOL     OW28414   5.454   0.564   5.734
 9172SOL    HW128415   5.355   0.570   5.743
 9172SOL    HW228416   5.479   0.567   5.637
 9173SOL     OW28417   5.784   3.826   6.956
 9173SOL    HW128418   5.811   3.831   0.027
 9173SOL    HW228419   5.833   3.895   6.903
 9174SOL     OW28420   5.669   5.172   0.223
 9174SOL    HW128421   5.730   5.226   0.281
 9174SOL    HW228422   5.679   5.075   0.244
 9175SOL     OW28423   2.121   0.905   1.709
 9175SOL    HW128424   2.215   0.928   1.734
 9175SOL    HW228425   2.094   0.821   1.756
 9176SOL     OW28426   1.178   6.692   2.082
 9176SOL    HW128427   1.135   6.769   2.035
 9176SOL    HW228428   1.238   6.643   2.019
 9177SOL     OW28429   0.431   5.614   3.410
 9177SOL    HW128430   0.383   5.528   3.428
 9177SOL    HW228431   0.427   5.672   3.491
 9178SOL     OW28432   0.839   3.278   1.145
 9178SOL    HW128433   0.816   3.371   1.116
 9178SOL    HW228434   0.755   3.222   1.147
 9179SOL     OW28435   3.839   5.816   2.682
 9179SOL    HW128436   3.900   5.862   2.747
 9179SOL    HW228437   3.812   5.880   2.610
 9180SOL     OW28438   0.729   1.128   4.441
 9180SOL    HW128439   0.650   1.149   4.385
 9180SOL    HW228440   0.712   1.044   4.493
 9181SOL     OW28441   3.024   1.782   2.857
 9181SOL    HW128442   2.993   1.797   2.950
 9181SOL    HW228443   3.119   1.750   2.858
 9182SOL     OW28444   6.823   1.244   2.754
 9182SOL    HW128445   6.781   1.332   2.733
 9182SOL    HW228446   6.783   1.173   2.696
 9183SOL     OW28447   3.072   1.656   5.535
 9183SOL    HW128448   3.114   1.621   5.451
 9183SOL    HW228449   3.022   1.740   5.515
 9184SOL     OW28450   2.852   6.485   0.341
 9184SOL    HW128451   2.927   6.422   0.322
 9184SOL    HW228452   2.846   6.554   0.268
 9185SOL     OW28453   0.767   0.968   5.205
 9185SOL    HW128454   0.671   0.996   5.202
 9185SOL    HW228455   0.824   1.048   5.222
 9186SOL     OW28456   5.088   6.603   5.937
 9186SOL    HW128457   4.992   6.576   5.945
 9186SOL    HW228458   5.109   6.624   5.841
 9187SOL     OW28459   5.006   3.400   1.133
 9187SOL    HW128460   4.962   3.337   1.068
 9187SOL    HW228461   4.981   3.494   1.111
 9188SOL     OW28462   1.383   0.878   2.506
 9188SOL    HW128463   1.311   0.809   2.511
 9188SOL    HW228464   1.458   0.853   2.568
 9189SOL     OW28465   3.033   0.544   6.995
 9189SOL    HW128466   3.056   0.616   6.929
 9189SOL    HW228467   3.104   0.473   6.994
 9190SOL     OW28468   3.848   1.065   5.679
 9190SOL    HW128469   3.929   1.122   5.666
 9190SOL    HW228470   3.769   1.110   5.639
 9191SOL     OW28471   5.138   0.067   1.844
 9191SOL    HW128472   5.196   0.109   1.774
 9191SOL    HW228473   5.100   0.138   1.903
 9192SOL     OW28474   4.001   4.808   3.667
 9192SOL    HW128475   4.100   4.816   3.660
 9192SOL    HW228476   3.973   4.817   3.762
 9193SOL     OW28477   3.909   3.966   2.068
 9193SOL    HW128478   3.905   3.974   2.167
 9193SOL    HW228479   4.003   3.943   2.040
 9194SOL     OW28480   2.711   5.487   3.574
 9194SOL    HW128481   2.712   5.581   3.606
 9194SOL    HW228482   2.706   5.425   3.653
 9195SOL     OW28483   0.207   3.276   3.466
 9195SOL    HW128484   0.266   3.289   3.546
 9195SOL    HW228485   0.180   3.365   3.430
 9196SOL     OW28486   5.692   5.340   3.156
 9196SOL    HW128487   5.771   5.302   3.205
 9196SOL    HW228488   5.717   5.428   3.117
 9197SOL     OW28489   4.359   2.269   6.310
 9197SOL    HW128490   4.265   2.293   6.335
 9197SOL    HW228491   4.404   2.226   6.388
 9198SOL     OW28492   6.679   2.410   4.537
 9198SOL    HW128493   6.702   2.415   4.440
 9198SOL    HW228494   6.758   2.379   4.590
 9199SOL     OW28495   0.557   3.573   6.944
 9199SOL    HW128496   0.549   3.658   6.893
 9199SOL    HW228497   0.599   3.590   0.009
 9200SOL     OW28498   4.805   6.075   1.932
 9200SOL    HW128499   4.900   6.098   1.950
 9200SOL    HW228500   4.746   6.150   1.962
 9201SOL     OW28501   0.225   2.879   2.497
 9201SOL    HW128502   0.276   2.889   2.411
 9201SOL    HW228503   0.235   2.785   2.530
 9202SOL     OW28504   2.078   6.026   3.324
 9202SOL    HW128505   2.015   6.090   3.280
 9202SOL    HW228506   2.065   6.030   3.423
 9203SOL     OW28507   5.221   2.044   0.171
 9203SOL    HW128508   5.163   2.058   0.252
 9203SOL    HW228509   5.302   1.993   0.198
 9204SOL     OW28510   4.986   4.344   1.422
 9204SOL    HW128511   5.040   4.290   1.358
 9204SOL    HW228512   4.892   4.352   1.388
 9205SOL     OW28513   4.437   2.771   0.895
 9205SOL    HW128514   4.353   2.720   0.877
 9205SOL    HW228515   4.502   2.756   0.820
 9206SOL     OW28516   6.624   0.691   5.296
 9206SOL    HW128517   6.654   0.616   5.356
 9206SOL    HW228518   6.563   0.654   5.226
 9207SOL     OW28519   5.998   6.307   0.954
 9207SOL    HW128520   5.995   6.380   0.886
 9207SOL    HW228521   5.974   6.220   0.910
 9208SOL     OW28522   6.277   3.865   1.854
 9208SOL    HW128523   6.195   3.809   1.842
 9208SOL    HW228524   6.312   3.893   1.764
 9209SOL     OW28525   5.189   0.778   4.543
 9209SOL    HW128526   5.214   0.857   4.599
 9209SOL    HW228527   5.202   0.799   4.446
 9210SOL     OW28528   1.637   6.708   0.415
 9210SOL    HW128529   1.734   6.688   0.433
 9210SOL    HW228530   1.631   6.784   0.351
 9211SOL     OW28531   5.283   1.065   6.439
 9211SOL    HW128532   5.238   1.120   6.369
 9211SOL    HW228533   5.284   0.969   6.410
 9212SOL     OW28534   5.710   3.693   6.257
 9212SOL    HW128535   5.794   3.745   6.274
 9212SOL    HW228536   5.661   3.681   6.343
 9213SOL     OW28537   0.289   5.842   3.293
 9213SOL    HW128538   0.329   5.933   3.292
 9213SOL    HW228539   0.357   5.775   3.323
 9214SOL     OW28540   1.534   1.200   5.650
 9214SOL    HW128541   1.633   1.189   5.660
 9214SOL    HW228542   1.512   1.215   5.554
 9215SOL     OW28543   6.660   4.390   3.797
 9215SOL    HW128544   6.748   4.389   3.750
 9215SOL    HW228545   6.646   4.302   3.843
 9216SOL     OW28546   1.521   0.176   3.325
 9216SOL    HW128547   1.589   0.103   3.318
 9216SOL    HW228548   1.500   0.193   3.421
 9217SOL     OW28549   3.782   2.544   0.317
 9217SOL    HW128550   3.702   2.568   0.372
 9217SOL    HW228551   3.803   2.619   0.254
 9218SOL     OW28552   5.128   5.652   6.017
 9218SOL    HW128553   5.137   5.705   6.101
 9218SOL    HW228554   5.056   5.691   5.960
 9219SOL     OW28555   3.361   2.976   5.784
 9219SOL    HW128556   3.342   2.910   5.711
 9219SOL    HW228557   3.435   2.942   5.841
 9220SOL     OW28558   0.690   6.498   3.528
 9220SOL    HW128559   0.677   6.576   3.467
 9220SOL    HW228560   0.755   6.522   3.600
 9221SOL     OW28561   2.464   1.265   2.253
 9221SOL    HW128562   2.387   1.321   2.285
 9221SOL    HW228563   2.547   1.321   2.249
 9222SOL     OW28564   2.783   6.165   3.570
 9222SOL    HW128565   2.724   6.239   3.604
 9222SOL    HW228566   2.868   6.204   3.534
 9223SOL     OW28567   5.834   2.490   5.055
 9223SOL    HW128568   5.930   2.480   5.031
 9223SOL    HW228569   5.816   2.586   5.078
 9224SOL     OW28570   1.923   5.601   2.685
 9224SOL    HW128571   2.010   5.602   2.636
 9224SOL    HW228572   1.935   5.646   2.774
 9225SOL     OW28573   0.238   5.937   5.613
 9225SOL    HW128574   0.312   5.896   5.665
 9225SOL    HW228575   0.155   5.940   5.670
 9226SOL     OW28576   0.508   6.562   4.974
 9226SOL    HW128577   0.512   6.540   5.072
 9226SOL    HW228578   0.513   6.661   4.963
 9227SOL     OW28579   4.087   2.907   0.705
 9227SOL    HW128580   4.057   2.893   0.799
 9227SOL    HW228581   4.164   2.970   0.703
 9228SOL     OW28582   3.272   3.645   4.115
 9228SOL    HW128583   3.180   3.672   4.144
 9228SOL    HW228584   3.336   3.719   4.136
 9229SOL     OW28585   0.401   5.995   1.304
 9229SOL    HW128586   0.387   6.016   1.207
 9229SOL    HW228587   0.330   5.932   1.335
 9230SOL     OW28588   3.574   6.642   5.653
 9230SOL    HW128589   3.516   6.561   5.662
 9230SOL    HW228590   3.520   6.724   5.672
 9231SOL     OW28591   5.242   5.973   1.881
 9231SOL    HW128592   5.226   6.003   1.975
 9231SOL    HW228593   5.162   5.921   1.849
 9232SOL     OW28594   1.144   5.156   1.752
 9232SOL    HW128595   1.115   5.078   1.696
 9232SOL    HW228596   1.183   5.227   1.693
 9233SOL     OW28597   0.974   0.540   6.073
 9233SOL    HW128598   1.060   0.590   6.073
 9233SOL    HW228599   0.910   0.585   6.010
 9234SOL     OW28600   2.982   4.215   0.376
 9234SOL    HW128601   3.017   4.292   0.428
 9234SOL    HW228602   2.942   4.248   0.290
 9235SOL     OW28603   1.101   2.457   2.718
 9235SOL    HW128604   1.117   2.486   2.624
 9235SOL    HW228605   1.185   2.418   2.755
 9236SOL     OW28606   1.892   3.918   6.432
 9236SOL    HW128607   1.962   3.870   6.379
 9236SOL    HW228608   1.926   4.008   6.457
 9237SOL     OW28609   6.682   6.208   3.865
 9237SOL    HW128610   6.591   6.242   3.840
 9237SOL    HW228611   6.733   6.281   3.911
 9238SOL     OW28612   2.009   2.880   5.314
 9238SOL    HW128613   2.053   2.804   5.362
 9238SOL    HW228614   2.014   2.864   5.215
 9239SOL     OW28615   2.140   5.936   6.288
 9239SOL    HW128616   2.041   5.941   6.275
 9239SOL    HW228617   2.185   5.999   6.225
 9240SOL     OW28618   3.652   1.605   5.088
 9240SOL    HW128619   3.608   1.581   5.002
 9240SOL    HW228620   3.744   1.638   5.071
 9241SOL     OW28621   5.173   6.299   0.065
 9241SOL    HW128622   5.214   6.370   0.009
 9241SOL    HW228623   5.243   6.255   0.122
 9242SOL     OW28624   2.151   2.540   0.178
 9242SOL    HW128625   2.159   2.553   0.079
 9242SOL    HW228626   2.059   2.563   0.208
 9243SOL     OW28627   2.227   0.035   6.977
 9243SOL    HW128628   2.158   0.068   0.018
 9243SOL    HW228629   2.244   0.105   6.908
 9244SOL     OW28630   3.221   6.429   6.287
 9244SOL    HW128631   3.210   6.485   6.205
 9244SOL    HW228632   3.300   6.461   6.339
 9245SOL     OW28633   0.801   4.172   3.532
 9245SOL    HW128634   0.810   4.083   3.577
 9245SOL    HW228635   0.706   4.186   3.504
 9246SOL     OW28636   5.042   1.873   6.691
 9246SOL    HW128637   5.053   1.891   6.788
 9246SOL    HW228638   5.030   1.959   6.642
 9247SOL     OW28639   3.086   6.471   2.396
 9247SOL    HW128640   3.014   6.498   2.459
 9247SOL    HW228641   3.088   6.371   2.389
 9248SOL     OW28642   3.032   0.143   6.294
 9248SOL    HW128643   2.954   0.182   6.342
 9248SOL    HW228644   3.094   0.216   6.265
 9249SOL     OW28645   2.878   1.451   0.612
 9249SOL    HW128646   2.823   1.530   0.585
 9249SOL    HW228647   2.853   1.372   0.556
 9250SOL     OW28648   0.804   3.774   1.972
 9250SOL    HW128649   0.790   3.691   2.025
 9250SOL    HW228650   0.857   3.839   2.027
 9251SOL     OW28651   4.099   1.491   1.043
 9251SOL    HW128652   4.018   1.464   1.095
 9251SOL    HW228653   4.095   1.451   0.952
 9252SOL     OW28654   5.797   1.408   4.601
 9252SOL    HW128655   5.774   1.405   4.504
 9252SOL    HW228656   5.855   1.487   4.619
 9253SOL     OW28657   2.701   5.274   3.760
 9253SOL    HW128658   2.765   5.202   3.731
 9253SOL    HW228659   2.717   5.295   3.856
 9254SOL     OW28660   6.492   5.478   2.260
 9254SOL    HW128661   6.414   5.541   2.262
 9254SOL    HW228662   6.524   5.468   2.166
 9255SOL     OW28663   0.451   3.233   1.936
 9255SOL    HW128664   0.522   3.301   1.918
 9255SOL    HW228665   0.391   3.265   2.009
 9256SOL     OW28666   1.514   6.212   0.527
 9256SOL    HW128667   1.507   6.309   0.502
 9256SOL    HW228668   1.439   6.189   0.589
 9257SOL     OW28669   6.566   6.732   5.353
 9257SOL    HW128670   6.470   6.719   5.330
 9257SOL    HW228671   6.621   6.732   5.270
 9258SOL     OW28672   5.144   3.436   2.989
 9258SOL    HW128673   5.198   3.519   2.977
 9258SOL    HW228674   5.055   3.446   2.944
 9259SOL     OW28675   1.108   3.055   6.075
 9259SOL    HW128676   1.125   3.147   6.039
 9259SOL    HW228677   1.185   2.996   6.051
 9260SOL     OW28678   5.109   4.764   5.017
 9260SOL    HW128679   5.143   4.756   5.111
 9260SOL    HW228680   5.151   4.692   4.961
 9261SOL     OW28681   1.573   2.777   0.862
 9261SOL    HW128682   1.563   2.740   0.770
 9261SOL    HW228683   1.657   2.743   0.904
 9262SOL     OW28684   6.263   6.268   5.571
 9262SOL    HW128685   6.339   6.319   5.532
 9262SOL    HW228686   6.281   6.170   5.565
 9263SOL     OW28687   2.157   4.545   2.606
 9263SOL    HW128688   2.194   4.486   2.534
 9263SOL    HW228689   2.127   4.488   2.682
 9264SOL     OW28690   6.158   3.969   5.588
 9264SOL    HW128691   6.172   3.928   5.498
 9264SOL    HW228692   6.130   4.065   5.577
 9265SOL     OW28693   4.086   0.505   2.143
 9265SOL    HW128694   4.134   0.435   2.195
 9265SOL    HW228695   4.151   0.556   2.086
 9266SOL     OW28696   6.815   4.637   1.291
 9266SOL    HW128697   6.891   4.626   1.355
 9266SOL    HW228698   6.738   4.680   1.338
 9267SOL     OW28699   6.829   0.926   3.173
 9267SOL    HW128700   6.748   0.879   3.208
 9267SOL    HW228701   6.807   0.968   3.085
 9268SOL     OW28702   0.231   0.299   0.645
 9268SOL    HW128703   0.143   0.253   0.635
 9268SOL    HW228704   0.258   0.298   0.741
 9269SOL     OW28705   3.730   6.518   1.249
 9269SOL    HW128706   3.736   6.617   1.261
 9269SOL    HW228707   3.660   6.481   1.311
 9270SOL     OW28708   1.794   1.191   5.677
 9270SOL    HW128709   1.883   1.180   5.721
 9270SOL    HW228710   1.802   1.256   5.601
 9271SOL     OW28711   1.126   5.128   5.533
 9271SOL    HW128712   1.088   5.191   5.464
 9271SOL    HW228713   1.097   5.158   5.624
 9272SOL     OW28714   6.499   6.743   6.194
 9272SOL    HW128715   6.453   6.654   6.195
 9272SOL    HW228716   6.438   6.812   6.233
 9273SOL     OW28717   6.411   3.905   3.203
 9273SOL    HW128718   6.377   3.935   3.292
 9273SOL    HW228719   6.343   3.926   3.133
 9274SOL     OW28720   6.975   2.991   1.751
 9274SOL    HW128721   0.024   3.021   1.691
 9274SOL    HW228722   6.949   3.065   1.813
 9275SOL     OW28723   4.644   1.527   0.425
 9275SOL    HW128724   4.661   1.429   0.412
 9275SOL    HW228725   4.577   1.539   0.498
 9276SOL     OW28726   1.323   3.971   0.752
 9276SOL    HW128727   1.398   4.024   0.712
 9276SOL    HW228728   1.252   3.956   0.683
 9277SOL     OW28729   3.159   6.193   3.107
 9277SOL    HW128730   3.149   6.284   3.145
 9277SOL    HW228731   3.155   6.125   3.180
 9278SOL     OW28732   1.124   6.656   4.585
 9278SOL    HW128733   1.102   6.561   4.604
 9278SOL    HW228734   1.179   6.693   4.660
 9279SOL     OW28735   4.141   5.858   2.330
 9279SOL    HW128736   4.185   5.824   2.247
 9279SOL    HW228737   4.151   5.791   2.403
 9280SOL     OW28738   1.372   4.307   2.003
 9280SOL    HW128739   1.435   4.364   2.055
 9280SOL    HW228740   1.336   4.235   2.062
 9281SOL     OW28741   1.038   5.722   0.567
 9281SOL    HW128742   0.987   5.780   0.630
 9281SOL    HW228743   1.002   5.734   0.474
 9282SOL     OW28744   1.872   0.771   3.415
 9282SOL    HW128745   1.883   0.696   3.480
 9282SOL    HW228746   1.831   0.737   3.331
 9283SOL     OW28747   5.562   5.033   6.526
 9283SOL    HW128748   5.616   5.078   6.597
 9283SOL    HW228749   5.597   4.941   6.511
 9284SOL     OW28750   4.026   6.329   1.659
 9284SOL    HW128751   4.024   6.238   1.618
 9284SOL    HW228752   4.023   6.399   1.587
 9285SOL     OW28753   6.893   5.745   3.095
 9285SOL    HW128754   6.870   5.666   3.151
 9285SOL    HW228755   6.959   5.803   3.144
 9286SOL     OW28756   5.502   5.763   1.509
 9286SOL    HW128757   5.507   5.819   1.592
 9286SOL    HW228758   5.580   5.700   1.507
 9287SOL     OW28759   4.352   4.149   0.460
 9287SOL    HW128760   4.278   4.211   0.483
 9287SOL    HW228761   4.327   4.056   0.485
 9288SOL     OW28762   3.486   0.977   3.477
 9288SOL    HW128763   3.404   0.993   3.423
 9288SOL    HW228764   3.474   1.013   3.569
 9289SOL     OW28765   4.441   5.903   2.251
 9289SOL    HW128766   4.523   5.863   2.211
 9289SOL    HW228767   4.404   5.840   2.320
 9290SOL     OW28768   5.532   0.284   3.774
 9290SOL    HW128769   5.467   0.253   3.705
 9290SOL    HW228770   5.539   0.384   3.771
 9291SOL     OW28771   0.120   5.081   5.612
 9291SOL    HW128772   0.204   5.027   5.621
 9291SOL    HW228773   0.143   5.178   5.610
 9292SOL     OW28774   1.859   2.144   6.859
 9292SOL    HW128775   1.776   2.120   6.808
 9292SOL    HW228776   1.884   2.068   6.918
 9293SOL     OW28777   3.966   1.421   6.214
 9293SOL    HW128778   3.890   1.442   6.152
 9293SOL    HW228779   4.053   1.434   6.166
 9294SOL     OW28780   5.425   6.495   6.172
 9294SOL    HW128781   5.402   6.426   6.242
 9294SOL    HW228782   5.364   6.574   6.182
 9295SOL     OW28783   6.145   0.706   3.051
 9295SOL    HW128784   6.206   0.645   3.000
 9295SOL    HW228785   6.180   0.799   3.046
 9296SOL     OW28786   2.368   3.075   5.792
 9296SOL    HW128787   2.291   3.128   5.758
 9296SOL    HW228788   2.452   3.105   5.747
 9297SOL     OW28789   0.048   5.258   1.910
 9297SOL    HW128790   6.984   5.296   1.938
 9297SOL    HW228791   0.049   5.245   1.811
 9298SOL     OW28792   6.339   4.646   0.012
 9298SOL    HW128793   6.410   4.577   0.029
 9298SOL    HW228794   6.294   4.626   6.950
 9299SOL     OW28795   3.719   2.121   4.169
 9299SOL    HW128796   3.637   2.163   4.128
 9299SOL    HW228797   3.716   2.131   4.268
 9300SOL     OW28798   2.624   5.933   6.253
 9300SOL    HW128799   2.664   5.998   6.189
 9300SOL    HW228800   2.644   5.961   6.346
 9301SOL     OW28801   0.115   3.340   3.928
 9301SOL    HW128802   0.059   3.277   3.981
 9301SOL    HW228803   0.197   3.363   3.980
 9302SOL     OW28804   2.955   6.254   4.071
 9302SOL    HW128805   3.028   6.257   4.139
 9302SOL    HW228806   2.885   6.187   4.100
 9303SOL     OW28807   2.951   4.237   0.073
 9303SOL    HW128808   2.855   4.263   0.069
 9303SOL    HW228809   2.995   4.261   7.011
 9304SOL     OW28810   6.063   5.908   6.916
 9304SOL    HW128811   6.009   5.965   6.978
 9304SOL    HW228812   6.124   5.966   6.862
 9305SOL     OW28813   2.192   1.573   0.669
 9305SOL    HW128814   2.209   1.669   0.691
 9305SOL    HW228815   2.251   1.544   0.593
 9306SOL     OW28816   6.490   6.453   3.670
 9306SOL    HW128817   6.480   6.354   3.672
 9306SOL    HW228818   6.412   6.496   3.716
 9307SOL     OW28819   1.729   3.952   0.792
 9307SOL    HW128820   1.716   3.933   0.889
 9307SOL    HW228821   1.805   4.016   0.781
 9308SOL     OW28822   2.447   3.239   1.062
 9308SOL    HW128823   2.425   3.329   1.098
 9308SOL    HW228824   2.427   3.236   0.963
 9309SOL     OW28825   3.564   5.188   6.090
 9309SOL    HW128826   3.610   5.123   6.030
 9309SOL    HW228827   3.518   5.138   6.164
 9310SOL     OW28828   6.247   6.746   6.007
 9310SOL    HW128829   6.279   6.832   6.047
 9310SOL    HW228830   6.209   6.763   5.916
 9311SOL     OW28831   5.251   4.530   0.272
 9311SOL    HW128832   5.309   4.609   0.249
 9311SOL    HW228833   5.281   4.450   0.219
 9312SOL     OW28834   6.370   3.393   4.194
 9312SOL    HW128835   6.335   3.403   4.101
 9312SOL    HW228836   6.360   3.298   4.224
 9313SOL     OW28837   0.455   0.268   1.552
 9313SOL    HW128838   0.486   0.289   1.460
 9313SOL    HW228839   0.436   0.352   1.602
 9314SOL     OW28840   5.986   4.725   1.955
 9314SOL    HW128841   5.980   4.777   2.040
 9314SOL    HW228842   5.979   4.787   1.877
 9315SOL     OW28843   5.334   5.590   4.940
 9315SOL    HW128844   5.296   5.645   4.866
 9315SOL    HW228845   5.375   5.651   5.009
 9316SOL     OW28846   5.598   5.942   6.960
 9316SOL    HW128847   5.623   6.007   0.008
 9316SOL    HW228848   5.660   5.864   6.962
 9317SOL     OW28849   2.729   6.804   3.000
 9317SOL    HW128850   2.736   6.903   2.988
 9317SOL    HW228851   2.632   6.778   3.006
 9318SOL     OW28852   3.569   0.450   3.658
 9318SOL    HW128853   3.527   0.500   3.583
 9318SOL    HW228854   3.648   0.399   3.624
 9319SOL     OW28855   4.022   2.384   0.704
 9319SOL    HW128856   3.958   2.439   0.757
 9319SOL    HW228857   4.091   2.443   0.663
 9320SOL     OW28858   6.523   0.112   6.948
 9320SOL    HW128859   6.590   0.164   6.894
 9320SOL    HW228860   6.448   0.172   6.975
 9321SOL     OW28861   1.474   2.507   4.161
 9321SOL    HW128862   1.514   2.551   4.080
 9321SOL    HW228863   1.380   2.480   4.141
 9322SOL     OW28864   5.327   3.700   0.911
 9322SOL    HW128865   5.250   3.657   0.864
 9322SOL    HW228866   5.365   3.771   0.853
 9323SOL     OW28867   0.493   2.802   5.170
 9323SOL    HW128868   0.427   2.862   5.126
 9323SOL    HW228869   0.579   2.803   5.118
 9324SOL     OW28870   1.169   4.174   1.539
 9324SOL    HW128871   1.202   4.179   1.633
 9324SOL    HW228872   1.230   4.117   1.484
 9325SOL     OW28873   0.177   3.926   2.598
 9325SOL    HW128874   0.087   3.892   2.572
 9325SOL    HW228875   0.168   4.013   2.645
 9326SOL     OW28876   3.823   4.874   1.359
 9326SOL    HW128877   3.750   4.914   1.303
 9326SOL    HW228878   3.912   4.907   1.327
 9327SOL     OW28879   1.775   1.940   3.255
 9327SOL    HW128880   1.784   1.860   3.314
 9327SOL    HW228881   1.866   1.981   3.241
 9328SOL     OW28882   0.715   0.078   3.587
 9328SOL    HW128883   0.673   0.058   3.499
 9328SOL    HW228884   0.650   0.130   3.643
 9329SOL     OW28885   1.630   5.053   6.266
 9329SOL    HW128886   1.564   5.100   6.207
 9329SOL    HW228887   1.606   5.069   6.361
 9330SOL     OW28888   0.647   6.294   0.729
 9330SOL    HW128889   0.736   6.299   0.683
 9330SOL    HW228890   0.660   6.297   0.828
 9331SOL     OW28891   2.677   5.137   5.025
 9331SOL    HW128892   2.649   5.113   5.118
 9331SOL    HW228893   2.697   5.054   4.973
 9332SOL     OW28894   6.324   6.145   0.377
 9332SOL    HW128895   6.403   6.121   0.320
 9332SOL    HW228896   6.276   6.062   0.403
 9333SOL     OW28897   0.977   5.497   0.906
 9333SOL    HW128898   1.015   5.410   0.878
 9333SOL    HW228899   0.885   5.483   0.944
 9334SOL     OW28900   0.002   6.530   0.526
 9334SOL    HW128901   6.999   6.542   0.621
 9334SOL    HW228902   0.101   6.515   0.520
 9335SOL     OW28903   0.150   3.630   1.236
 9335SOL    HW128904   0.188   3.556   1.181
 9335SOL    HW228905   0.117   3.703   1.176
 9336SOL     OW28906   4.377   5.601   5.618
 9336SOL    HW128907   4.430   5.522   5.647
 9336SOL    HW228908   4.325   5.578   5.536
 9337SOL     OW28909   2.829   1.860   4.680
 9337SOL    HW128910   2.760   1.794   4.648
 9337SOL    HW228911   2.783   1.945   4.708
 9338SOL     OW28912   4.221   0.381   1.906
 9338SOL    HW128913   4.157   0.304   1.901
 9338SOL    HW228914   4.292   0.360   1.974
 9339SOL     OW28915   0.168   3.660   4.419
 9339SOL    HW128916   0.162   3.578   4.476
 9339SOL    HW228917   0.257   3.703   4.432
 9340SOL     OW28918   2.761   4.688   2.231
 9340SOL    HW128919   2.835   4.681   2.164
 9340SOL    HW228920   2.679   4.643   2.196
 9341SOL     OW28921   5.179   5.730   1.603
 9341SOL    HW128922   5.156   5.725   1.701
 9341SOL    HW228923   5.234   5.651   1.578
 9342SOL     OW28924   3.065   0.698   4.705
 9342SOL    HW128925   3.119   0.721   4.624
 9342SOL    HW228926   2.980   0.752   4.705
 9343SOL     OW28927   5.590   3.869   1.021
 9343SOL    HW128928   5.686   3.883   0.997
 9343SOL    HW228929   5.533   3.882   0.940
 9344SOL     OW28930   5.283   6.415   5.140
 9344SOL    HW128931   5.292   6.335   5.080
 9344SOL    HW228932   5.293   6.498   5.087
 9345SOL     OW28933   6.865   4.963   6.394
 9345SOL    HW128934   6.964   4.953   6.407
 9345SOL    HW228935   6.827   5.019   6.467
 9346SOL     OW28936   4.730   0.969   2.496
 9346SOL    HW128937   4.811   0.987   2.552
 9346SOL    HW228938   4.744   0.886   2.442
 9347SOL     OW28939   4.665   6.598   2.283
 9347SOL    HW128940   4.599   6.671   2.298
 9347SOL    HW228941   4.619   6.509   2.288
 9348SOL     OW28942   2.447   5.216   2.109
 9348SOL    HW128943   2.536   5.257   2.087
 9348SOL    HW228944   2.448   5.119   2.086
 9349SOL     OW28945   0.695   4.710   1.493
 9349SOL    HW128946   0.719   4.622   1.535
 9349SOL    HW228947   0.699   4.782   1.563
 9350SOL     OW28948   6.323   0.749   0.032
 9350SOL    HW128949   6.416   0.724   0.002
 9350SOL    HW228950   6.266   0.763   6.975
 9351SOL     OW28951   4.486   4.031   6.348
 9351SOL    HW128952   4.419   4.053   6.277
 9351SOL    HW228953   4.460   3.946   6.393
 9352SOL     OW28954   2.740   1.715   0.211
 9352SOL    HW128955   2.679   1.642   0.181
 9352SOL    HW228956   2.689   1.800   0.221
 9353SOL     OW28957   1.002   3.137   2.249
 9353SOL    HW128958   0.964   3.195   2.177
 9353SOL    HW228959   1.073   3.078   2.210
 9354SOL     OW28960   5.797   2.056   2.323
 9354SOL    HW128961   5.799   2.120   2.246
 9354SOL    HW228962   5.858   1.979   2.304
 9355SOL     OW28963   0.396   1.959   2.099
 9355SOL    HW128964   0.345   2.040   2.128
 9355SOL    HW228965   0.391   1.951   1.999
 9356SOL     OW28966   4.561   2.422   1.870
 9356SOL    HW128967   4.637   2.369   1.833
 9356SOL    HW228968   4.588   2.518   1.880
 9357SOL     OW28969   2.136   4.315   6.856
 9357SOL    HW128970   2.138   4.265   6.943
 9357SOL    HW228971   2.226   4.310   6.813
 9358SOL     OW28972   5.302   4.464   3.561
 9358SOL    HW128973   5.279   4.561   3.575
 9358SOL    HW228974   5.285   4.439   3.466
 9359SOL     OW28975   4.260   5.154   5.280
 9359SOL    HW128976   4.297   5.218   5.212
 9359SOL    HW228977   4.264   5.061   5.243
 9360SOL     OW28978   0.808   0.513   5.518
 9360SOL    HW128979   0.795   0.588   5.453
 9360SOL    HW228980   0.898   0.472   5.504
 9361SOL     OW28981   1.197   1.631   2.403
 9361SOL    HW128982   1.206   1.621   2.502
 9361SOL    HW228983   1.288   1.632   2.361
 9362SOL     OW28984   1.239   1.646   2.927
 9362SOL    HW128985   1.197   1.732   2.954
 9362SOL    HW228986   1.262   1.593   3.008
 9363SOL     OW28987   1.150   6.426   2.418
 9363SOL    HW128988   1.216   6.433   2.493
 9363SOL    HW228989   1.083   6.355   2.440
 9364SOL     OW28990   5.631   4.090   0.670
 9364SOL    HW128991   5.570   4.080   0.591
 9364SOL    HW228992   5.684   4.174   0.661
 9365SOL     OW28993   2.685   1.211   4.350
 9365SOL    HW128994   2.707   1.123   4.393
 9365SOL    HW228995   2.586   1.216   4.335
 9366SOL     OW28996   2.652   1.471   1.099
 9366SOL    HW128997   2.601   1.507   1.021
 9366SOL    HW228998   2.680   1.377   1.080
 9367SOL     OW28999   5.220   6.489   4.733
 9367SOL    HW129000   5.294   6.556   4.740
 9367SOL    HW229001   5.214   6.455   4.639
 9368SOL     OW29002   5.472   2.988   1.156
 9368SOL    HW129003   5.532   3.004   1.234
 9368SOL    HW229004   5.379   3.014   1.180
 9369SOL     OW29005   0.572   2.460   5.530
 9369SOL    HW129006   0.577   2.369   5.489
 9369SOL    HW229007   0.657   2.479   5.579
 9370SOL     OW29008   5.645   5.510   2.015
 9370SOL    HW129009   5.551   5.477   2.017
 9370SOL    HW229010   5.644   5.610   2.009
 9371SOL     OW29011   2.050   6.891   0.744
 9371SOL    HW129012   1.957   6.916   0.716
 9371SOL    HW229013   2.116   6.925   0.677
 9372SOL     OW29014   5.332   5.418   0.638
 9372SOL    HW129015   5.331   5.465   0.727
 9372SOL    HW229016   5.300   5.481   0.567
 9373SOL     OW29017   4.747   2.921   4.666
 9373SOL    HW129018   4.814   2.933   4.593
 9373SOL    HW229019   4.672   2.862   4.634
 9374SOL     OW29020   5.263   3.917   0.046
 9374SOL    HW129021   5.349   3.932   0.096
 9374SOL    HW229022   5.244   3.997   7.012
 9375SOL     OW29023   6.348   6.602   4.061
 9375SOL    HW129024   6.437   6.566   4.033
 9375SOL    HW229025   6.360   6.693   4.101
 9376SOL     OW29026   2.836   3.527   1.635
 9376SOL    HW129027   2.880   3.526   1.724
 9376SOL    HW229028   2.747   3.571   1.641
 9377SOL     OW29029   6.860   4.684   3.724
 9377SOL    HW129030   6.902   4.601   3.761
 9377SOL    HW229031   6.763   4.668   3.710
 9378SOL     OW29032   4.274   6.010   1.511
 9378SOL    HW129033   4.267   6.110   1.509
 9378SOL    HW229034   4.321   5.978   1.428
 9379SOL     OW29035   4.471   4.569   5.285
 9379SOL    HW129036   4.400   4.563   5.215
 9379SOL    HW229037   4.537   4.495   5.272
 9380SOL     OW29038   0.071   5.640   5.366
 9380SOL    HW129039   7.024   5.707   5.346
 9380SOL    HW229040   0.035   5.547   5.355
 9381SOL     OW29041   0.576   0.666   6.974
 9381SOL    HW129042   0.632   0.726   0.007
 9381SOL    HW229043   0.568   0.576   7.016
 9382SOL     OW29044   6.132   2.115   2.138
 9382SOL    HW129045   6.149   2.044   2.207
 9382SOL    HW229046   6.034   2.134   2.134
 9383SOL     OW29047   6.830   5.725   6.746
 9383SOL    HW129048   6.783   5.808   6.718
 9383SOL    HW229049   6.929   5.740   6.743
 9384SOL     OW29050   3.338   0.042   2.490
 9384SOL    HW129051   3.300   0.134   2.503
 9384SOL    HW229052   3.438   0.047   2.492
 9385SOL     OW29053   3.875   6.205   3.414
 9385SOL    HW129054   3.780   6.200   3.444
 9385SOL    HW229055   3.933   6.159   3.480
 9386SOL     OW29056   3.353   6.757   5.063
 9386SOL    HW129057   3.309   6.703   5.135
 9386SOL    HW229058   3.446   6.725   5.050
 9387SOL     OW29059   4.601   5.850   0.863
 9387SOL    HW129060   4.656   5.785   0.810
 9387SOL    HW229061   4.526   5.883   0.806
 9388SOL     OW29062   6.727   7.016   1.448
 9388SOL    HW129063   6.693   0.014   1.357
 9388SOL    HW229064   6.731   6.917   1.459
 9389SOL     OW29065   3.348   1.129   0.855
 9389SOL    HW129066   3.315   1.040   0.885
 9389SOL    HW229067   3.290   1.201   0.895
 9390SOL     OW29068   3.659   6.282   0.885
 9390SOL    HW129069   3.643   6.227   0.803
 9390SOL    HW229070   3.573   6.293   0.935
 9391SOL     OW29071   5.814   0.278   4.181
 9391SOL    HW129072   5.795   0.181   4.165
 9391SOL    HW229073   5.727   0.328   4.190
 9392SOL     OW29074   0.853   6.894   5.232
 9392SOL    HW129075   0.946   6.886   5.268
 9392SOL    HW229076   0.854   6.881   5.133
 9393SOL     OW29077   4.878   1.604   5.474
 9393SOL    HW129078   4.911   1.536   5.409
 9393SOL    HW229079   4.885   1.568   5.567
 9394SOL     OW29080   6.220   1.605   2.223
 9394SOL    HW129081   6.271   1.559   2.151
 9394SOL    HW229082   6.130   1.633   2.187
 9395SOL     OW29083   1.715   2.940   6.837
 9395SOL    HW129084   1.754   3.028   6.863
 9395SOL    HW229085   1.769   2.866   6.878
 9396SOL     OW29086   0.440   1.073   5.500
 9396SOL    HW129087   0.480   0.986   5.471
 9396SOL    HW229088   0.492   1.148   5.459
 9397SOL     OW29089   1.706   2.097   1.110
 9397SOL    HW129090   1.775   2.055   1.168
 9397SOL    HW229091   1.618   2.098   1.158
 9398SOL     OW29092   2.455   1.748   1.303
 9398SOL    HW129093   2.396   1.704   1.235
 9398SOL    HW229094   2.547   1.709   1.298
 9399SOL     OW29095   0.024   0.778   5.319
 9399SOL    HW129096   0.064   0.853   5.372
 9399SOL    HW229097   7.016   0.707   5.382
 9400SOL     OW29098   4.058   1.461   3.855
 9400SOL    HW129099   4.057   1.373   3.902
 9400SOL    HW229100   3.972   1.509   3.872
 9401SOL     OW29101   4.068   6.749   3.821
 9401SOL    HW129102   4.167   6.741   3.837
 9401SOL    HW229103   4.038   6.674   3.761
 9402SOL     OW29104   2.520   4.674   6.344
 9402SOL    HW129105   2.598   4.638   6.292
 9402SOL    HW229106   2.494   4.764   6.308
 9403SOL     OW29107   6.207   0.510   3.985
 9403SOL    HW129108   6.248   0.481   3.898
 9403SOL    HW229109   6.279   0.520   4.054
 9404SOL     OW29110   1.952   4.680   5.040
 9404SOL    HW129111   1.915   4.625   5.114
 9404SOL    HW229112   1.887   4.753   5.017
 9405SOL     OW29113   0.338   0.713   0.960
 9405SOL    HW129114   0.381   0.788   0.909
 9405SOL    HW229115   0.333   0.736   1.057
 9406SOL     OW29116   6.267   1.519   4.918
 9406SOL    HW129117   6.267   1.470   4.830
 9406SOL    HW229118   6.206   1.598   4.912
 9407SOL     OW29119   3.572   5.474   3.451
 9407SOL    HW129120   3.633   5.531   3.395
 9407SOL    HW229121   3.613   5.460   3.541
 9408SOL     OW29122   3.414   2.037   6.916
 9408SOL    HW129123   3.509   2.045   6.888
 9408SOL    HW229124   3.401   2.078   7.006
 9409SOL     OW29125   6.387   4.026   3.467
 9409SOL    HW129126   6.348   4.062   3.553
 9409SOL    HW229127   6.458   4.088   3.435
 9410SOL     OW29128   4.375   6.865   1.922
 9410SOL    HW129129   4.470   6.853   1.951
 9410SOL    HW229130   4.373   6.895   1.827
 9411SOL     OW29131   5.450   4.560   2.223
 9411SOL    HW129132   5.525   4.582   2.285
 9411SOL    HW229133   5.461   4.465   2.191
 9412SOL     OW29134   6.772   1.964   3.365
 9412SOL    HW129135   6.744   2.053   3.329
 9412SOL    HW229136   6.842   1.925   3.304
 9413SOL     OW29137   4.299   5.580   3.600
 9413SOL    HW129138   4.328   5.539   3.514
 9413SOL    HW229139   4.213   5.537   3.630
 9414SOL     OW29140   2.358   0.273   1.986
 9414SOL    HW129141   2.338   0.236   1.896
 9414SOL    HW229142   2.450   0.244   2.014
 9415SOL     OW29143   1.054   6.953   2.039
 9415SOL    HW129144   0.995   6.911   2.109
 9415SOL    HW229145   1.003   6.964   1.954
 9416SOL     OW29146   1.164   2.038   1.452
 9416SOL    HW129147   1.200   2.027   1.360
 9416SOL    HW229148   1.064   2.035   1.450
 9417SOL     OW29149   1.190   0.368   4.461
 9417SOL    HW129150   1.170   0.452   4.511
 9417SOL    HW229151   1.110   0.307   4.464
 9418SOL     OW29152   3.991   4.347   0.661
 9418SOL    HW129153   4.051   4.427   0.662
 9418SOL    HW229154   4.037   4.271   0.707
 9419SOL     OW29155   2.391   5.921   3.996
 9419SOL    HW129156   2.379   6.020   3.984
 9419SOL    HW229157   2.436   5.903   4.083
 9420SOL     OW29158   1.286   0.474   3.013
 9420SOL    HW129159   1.228   0.448   2.936
 9420SOL    HW229160   1.240   0.543   3.068
 9421SOL     OW29161   1.790   4.485   5.189
 9421SOL    HW129162   1.869   4.424   5.196
 9421SOL    HW229163   1.732   4.456   5.112
 9422SOL     OW29164   3.934   1.300   3.189
 9422SOL    HW129165   4.010   1.269   3.132
 9422SOL    HW229166   3.856   1.239   3.177
 9423SOL     OW29167   4.403   0.165   5.201
 9423SOL    HW129168   4.323   0.220   5.178
 9423SOL    HW229169   4.377   0.093   5.264
 9424SOL     OW29170   2.902   5.752   3.236
 9424SOL    HW129171   2.924   5.799   3.322
 9424SOL    HW229172   2.834   5.681   3.253
 9425SOL     OW29173   0.292   5.795   2.236
 9425SOL    HW129174   0.317   5.698   2.244
 9425SOL    HW229175   0.279   5.834   2.327
 9426SOL     OW29176   3.473   6.037   0.697
 9426SOL    HW129177   3.397   6.097   0.670
 9426SOL    HW229178   3.436   5.956   0.742
 9427SOL     OW29179   2.582   5.331   4.049
 9427SOL    HW129180   2.616   5.381   4.129
 9427SOL    HW229181   2.593   5.233   4.064
 9428SOL     OW29182   4.657   6.310   2.312
 9428SOL    HW129183   4.576   6.253   2.323
 9428SOL    HW229184   4.689   6.305   2.217
 9429SOL     OW29185   0.201   3.789   2.857
 9429SOL    HW129186   0.206   3.841   2.772
 9429SOL    HW229187   0.203   3.691   2.837
 9430SOL     OW29188   6.420   7.019   1.705
 9430SOL    HW129189   6.471   0.071   1.743
 9430SOL    HW229190   6.461   6.933   1.735
 9431SOL     OW29191   6.705   4.596   0.440
 9431SOL    HW129192   6.713   4.551   0.351
 9431SOL    HW229193   6.770   4.671   0.445
 9432SOL     OW29194   6.278   6.841   3.637
 9432SOL    HW129195   6.211   6.838   3.563
 9432SOL    HW229196   6.252   6.776   3.708
 9433SOL     OW29197   2.464   5.363   4.459
 9433SOL    HW129198   2.432   5.274   4.490
 9433SOL    HW229199   2.406   5.435   4.499
 9434SOL     OW29200   6.050   4.653   3.914
 9434SOL    HW129201   6.060   4.752   3.906
 9434SOL    HW229202   5.970   4.633   3.971
 9435SOL     OW29203   2.802   2.331   5.881
 9435SOL    HW129204   2.750   2.353   5.798
 9435SOL    HW229205   2.807   2.412   5.940
 9436SOL     OW29206   3.588   2.232   5.317
 9436SOL    HW129207   3.560   2.295   5.389
 9436SOL    HW229208   3.508   2.207   5.262
 9437SOL     OW29209   0.502   5.898   4.371
 9437SOL    HW129210   0.485   5.996   4.380
 9437SOL    HW229211   0.434   5.859   4.308
 9438SOL     OW29212   0.388   6.261   1.390
 9438SOL    HW129213   0.416   6.172   1.354
 9438SOL    HW229214   0.440   6.282   1.472
 9439SOL     OW29215   1.765   3.060   1.669
 9439SOL    HW129216   1.779   3.155   1.697
 9439SOL    HW229217   1.854   3.015   1.658
 9440SOL     OW29218   3.194   6.243   3.842
 9440SOL    HW129219   3.167   6.326   3.794
 9440SOL    HW229220   3.126   6.222   3.913
 9441SOL     OW29221   0.993   5.224   5.798
 9441SOL    HW129222   0.961   5.308   5.754
 9441SOL    HW229223   0.946   5.212   5.885
 9442SOL     OW29224   0.838   2.891   1.259
 9442SOL    HW129225   0.889   2.805   1.256
 9442SOL    HW229226   0.874   2.948   1.333
 9443SOL     OW29227   1.362   2.141   0.830
 9443SOL    HW129228   1.353   2.214   0.898
 9443SOL    HW229229   1.313   2.060   0.862
 9444SOL     OW29230   1.304   4.125   5.208
 9444SOL    HW129231   1.226   4.126   5.146
 9444SOL    HW229232   1.355   4.211   5.198
 9445SOL     OW29233   5.650   2.003   1.842
 9445SOL    HW129234   5.592   2.005   1.760
 9445SOL    HW229235   5.607   1.945   1.912
 9446SOL     OW29236   5.542   4.777   0.605
 9446SOL    HW129237   5.475   4.717   0.649
 9446SOL    HW229238   5.572   4.736   0.519
 9447SOL     OW29239   5.816   0.976   1.790
 9447SOL    HW129240   5.718   0.982   1.812
 9447SOL    HW229241   5.846   0.881   1.796
 9448SOL     OW29242   6.052   6.504   0.350
 9448SOL    HW129243   6.080   6.561   0.273
 9448SOL    HW229244   6.126   6.442   0.374
 9449SOL     OW29245   5.690   5.389   4.801
 9449SOL    HW129246   5.754   5.347   4.737
 9449SOL    HW229247   5.649   5.470   4.759
 9450SOL     OW29248   2.032   6.107   3.859
 9450SOL    HW129249   1.947   6.160   3.862
 9450SOL    HW229250   2.021   6.023   3.914
 9451SOL     OW29251   4.170   3.723   5.143
 9451SOL    HW129252   4.175   3.809   5.093
 9451SOL    HW229253   4.262   3.692   5.166
 9452SOL     OW29254   3.928   4.724   0.644
 9452SOL    HW129255   3.885   4.681   0.565
 9452SOL    HW229256   3.868   4.715   0.723
 9453SOL     OW29257   3.667   6.163   1.524
 9453SOL    HW129258   3.634   6.258   1.527
 9453SOL    HW229259   3.669   6.131   1.429
 9454SOL     OW29260   2.085   1.824   5.819
 9454SOL    HW129261   2.096   1.892   5.747
 9454SOL    HW229262   2.094   1.732   5.780
 9455SOL     OW29263   1.813   2.345   1.796
 9455SOL    HW129264   1.852   2.254   1.804
 9455SOL    HW229265   1.884   2.410   1.769
 9456SOL     OW29266   1.172   3.209   0.291
 9456SOL    HW129267   1.195   3.182   0.384
 9456SOL    HW229268   1.227   3.156   0.226
 9457SOL     OW29269   5.983   3.968   0.432
 9457SOL    HW129270   5.930   3.951   0.515
 9457SOL    HW229271   6.062   3.907   0.430
 9458SOL     OW29272   0.842   5.842   3.826
 9458SOL    HW129273   0.915   5.892   3.873
 9458SOL    HW229274   0.863   5.838   3.728
 9459SOL     OW29275   4.071   6.401   0.516
 9459SOL    HW129276   4.054   6.463   0.593
 9459SOL    HW229277   4.029   6.312   0.535
 9460SOL     OW29278   1.635   3.605   5.329
 9460SOL    HW129279   1.575   3.557   5.265
 9460SOL    HW229280   1.719   3.551   5.342
 9461SOL     OW29281   1.516   0.461   2.639
 9461SOL    HW129282   1.492   0.524   2.713
 9461SOL    HW229283   1.614   0.464   2.622
 9462SOL     OW29284   0.319   3.394   3.690
 9462SOL    HW129285   0.401   3.411   3.745
 9462SOL    HW229286   0.239   3.395   3.749
 9463SOL     OW29287   5.236   1.946   6.290
 9463SOL    HW129288   5.177   1.955   6.210
 9463SOL    HW229289   5.273   1.853   6.294
 9464SOL     OW29290   4.065   6.834   6.695
 9464SOL    HW129291   4.001   6.792   6.759
 9464SOL    HW229292   4.155   6.791   6.704
 9465SOL     OW29293   4.391   6.299   4.117
 9465SOL    HW129294   4.415   6.204   4.099
 9465SOL    HW229295   4.306   6.303   4.170
 9466SOL     OW29296   3.540   2.106   6.607
 9466SOL    HW129297   3.515   2.011   6.624
 9466SOL    HW229298   3.640   2.115   6.610
 9467SOL     OW29299   1.316   2.924   2.222
 9467SOL    HW129300   1.333   3.014   2.182
 9467SOL    HW229301   1.375   2.856   2.176
 9468SOL     OW29302   0.607   2.350   6.246
 9468SOL    HW129303   0.513   2.383   6.245
 9468SOL    HW229304   0.670   2.427   6.233
 9469SOL     OW29305   0.758   4.326   2.642
 9469SOL    HW129306   0.728   4.230   2.636
 9469SOL    HW229307   0.788   4.356   2.551
 9470SOL     OW29308   6.308   3.897   2.114
 9470SOL    HW129309   6.334   3.989   2.144
 9470SOL    HW229310   6.294   3.896   2.015
 9471SOL     OW29311   6.958   2.415   5.823
 9471SOL    HW129312   7.015   2.335   5.843
 9471SOL    HW229313   7.015   2.487   5.784
 9472SOL     OW29314   6.684   2.249   5.084
 9472SOL    HW129315   6.770   2.235   5.132
 9472SOL    HW229316   6.702   2.282   4.991
 9473SOL     OW29317   2.807   4.763   5.846
 9473SOL    HW129318   2.844   4.671   5.857
 9473SOL    HW229319   2.877   4.824   5.809
 9474SOL     OW29320   4.019   5.673   4.174
 9474SOL    HW129321   4.013   5.772   4.187
 9474SOL    HW229322   4.113   5.648   4.150
 9475SOL     OW29323   2.482   3.399   1.530
 9475SOL    HW129324   2.515   3.486   1.565
 9475SOL    HW229325   2.426   3.354   1.600
 9476SOL     OW29326   2.254   3.557   5.645
 9476SOL    HW129327   2.193   3.635   5.633
 9476SOL    HW229328   2.269   3.513   5.556
 9477SOL     OW29329   1.145   2.802   0.429
 9477SOL    HW129330   1.124   2.860   0.350
 9477SOL    HW229331   1.179   2.714   0.398
 9478SOL     OW29332   5.910   3.851   6.400
 9478SOL    HW129333   5.862   3.927   6.443
 9478SOL    HW229334   6.002   3.880   6.373
 9479SOL     OW29335   5.495   4.757   5.069
 9479SOL    HW129336   5.418   4.696   5.048
 9479SOL    HW229337   5.520   4.808   4.987
 9480SOL     OW29338   6.980   3.372   6.175
 9480SOL    HW129339   6.910   3.408   6.236
 9480SOL    HW229340   0.024   3.443   6.156
 9481SOL     OW29341   0.605   2.271   3.124
 9481SOL    HW129342   0.696   2.230   3.121
 9481SOL    HW229343   0.613   2.368   3.145
 9482SOL     OW29344   4.672   1.660   1.937
 9482SOL    HW129345   4.657   1.721   2.014
 9482SOL    HW229346   4.587   1.613   1.914
 9483SOL     OW29347   1.931   0.833   0.521
 9483SOL    HW129348   1.834   0.826   0.545
 9483SOL    HW229349   1.952   0.928   0.498
 9484SOL     OW29350   6.057   0.195   3.494
 9484SOL    HW129351   6.156   0.177   3.491
 9484SOL    HW229352   6.033   0.232   3.584
 9485SOL     OW29353   0.055   6.829   3.181
 9485SOL    HW129354   6.994   6.828   3.234
 9485SOL    HW229355   0.125   6.880   3.232
 9486SOL     OW29356   3.061   0.162   2.185
 9486SOL    HW129357   3.120   0.129   2.111
 9486SOL    HW229358   3.031   0.255   2.164
 9487SOL     OW29359   3.570   2.959   3.269
 9487SOL    HW129360   3.649   2.975   3.328
 9487SOL    HW229361   3.590   2.988   3.176
 9488SOL     OW29362   1.972   0.532   1.476
 9488SOL    HW129363   2.029   0.525   1.559
 9488SOL    HW229364   1.876   0.538   1.502
 9489SOL     OW29365   2.621   4.647   0.961
 9489SOL    HW129366   2.548   4.658   1.028
 9489SOL    HW229367   2.600   4.700   0.879
 9490SOL     OW29368   4.914   1.564   0.485
 9490SOL    HW129369   4.815   1.560   0.468
 9490SOL    HW229370   4.954   1.635   0.427
 9491SOL     OW29371   5.809   6.099   6.108
 9491SOL    HW129372   5.908   6.095   6.122
 9491SOL    HW229373   5.786   6.057   6.020
 9492SOL     OW29374   2.378   5.672   0.869
 9492SOL    HW129375   2.451   5.624   0.918
 9492SOL    HW229376   2.343   5.746   0.926
 9493SOL     OW29377   5.092   6.027   2.550
 9493SOL    HW129378   5.168   6.062   2.495
 9493SOL    HW229379   5.059   6.098   2.612
 9494SOL     OW29380   3.555   3.360   6.626
 9494SOL    HW129381   3.647   3.343   6.591
 9494SOL    HW229382   3.555   3.349   6.726
 9495SOL     OW29383   5.479   2.692   4.348
 9495SOL    HW129384   5.492   2.785   4.381
 9495SOL    HW229385   5.451   2.633   4.423
 9496SOL     OW29386   6.627   4.328   6.656
 9496SOL    HW129387   6.597   4.233   6.654
 9496SOL    HW229388   6.558   4.384   6.702
 9497SOL     OW29389   1.061   5.951   6.070
 9497SOL    HW129390   1.114   5.952   5.985
 9497SOL    HW229391   0.970   5.913   6.051
 9498SOL     OW29392   4.459   6.408   6.618
 9498SOL    HW129393   4.374   6.430   6.570
 9498SOL    HW229394   4.499   6.492   6.654
 9499SOL     OW29395   5.023   4.067   5.582
 9499SOL    HW129396   5.095   4.032   5.642
 9499SOL    HW229397   5.009   4.165   5.599
 9500SOL     OW29398   4.371   5.818   0.632
 9500SOL    HW129399   4.272   5.809   0.616
 9500SOL    HW229400   4.416   5.731   0.614
 9501SOL     OW29401   3.226   1.722   4.952
 9501SOL    HW129402   3.127   1.720   4.958
 9501SOL    HW229403   3.256   1.810   4.915
 9502SOL     OW29404   3.607   3.232   5.971
 9502SOL    HW129405   3.640   3.265   5.882
 9502SOL    HW229406   3.507   3.232   5.971
 9503SOL     OW29407   1.053   6.807   1.282
 9503SOL    HW129408   1.146   6.790   1.252
 9503SOL    HW229409   1.023   6.897   1.249
 9504SOL     OW29410   0.146   2.837   0.706
 9504SOL    HW129411   0.187   2.795   0.625
 9504SOL    HW229412   0.161   2.936   0.704
 9505SOL     OW29413   4.875   3.175   3.122
 9505SOL    HW129414   4.904   3.271   3.129
 9505SOL    HW229415   4.831   3.160   3.033
 9506SOL     OW29416   6.398   2.190   1.335
 9506SOL    HW129417   6.448   2.276   1.342
 9506SOL    HW229418   6.331   2.197   1.261
 9507SOL     OW29419   1.489   3.313   5.463
 9507SOL    HW129420   1.398   3.306   5.502
 9507SOL    HW229421   1.535   3.224   5.471
 9508SOL     OW29422   4.240   1.104   5.390
 9508SOL    HW129423   4.209   1.040   5.319
 9508SOL    HW229424   4.311   1.164   5.352
 9509SOL     OW29425   3.693   0.073   6.119
 9509SOL    HW129426   3.637   0.044   6.196
 9509SOL    HW229427   3.637   0.076   6.036
 9510SOL     OW29428   6.841   4.584   2.840
 9510SOL    HW129429   6.821   4.538   2.753
 9510SOL    HW229430   6.828   4.520   2.916
 9511SOL     OW29431   2.197   1.600   1.473
 9511SOL    HW129432   2.184   1.502   1.458
 9511SOL    HW229433   2.109   1.643   1.492
 9512SOL     OW29434   1.855   3.780   5.378
 9512SOL    HW129435   1.830   3.782   5.475
 9512SOL    HW229436   1.783   3.735   5.326
 9513SOL     OW29437   2.701   4.736   4.143
 9513SOL    HW129438   2.638   4.676   4.094
 9513SOL    HW229439   2.765   4.777   4.078
 9514SOL     OW29440   2.752   2.939   5.500
 9514SOL    HW129441   2.757   2.891   5.413
 9514SOL    HW229442   2.844   2.966   5.529
 9515SOL     OW29443   2.253   5.573   5.747
 9515SOL    HW129444   2.244   5.666   5.712
 9515SOL    HW229445   2.173   5.519   5.722
 9516SOL     OW29446   6.303   4.113   4.762
 9516SOL    HW129447   6.286   4.107   4.860
 9516SOL    HW229448   6.232   4.169   4.719
 9517SOL     OW29449   0.595   5.521   2.825
 9517SOL    HW129450   0.533   5.585   2.780
 9517SOL    HW229451   0.547   5.436   2.845
 9518SOL     OW29452   0.967   3.095   5.482
 9518SOL    HW129453   0.985   3.192   5.466
 9518SOL    HW229454   1.021   3.063   5.560
 9519SOL     OW29455   3.285   3.615   3.417
 9519SOL    HW129456   3.356   3.670   3.462
 9519SOL    HW229457   3.326   3.534   3.377
 9520SOL     OW29458   4.816   1.279   6.416
 9520SOL    HW129459   4.757   1.318   6.345
 9520SOL    HW229460   4.870   1.351   6.458
 9521SOL     OW29461   3.941   1.340   1.565
 9521SOL    HW129462   3.931   1.276   1.489
 9521SOL    HW229463   3.912   1.431   1.536
 9522SOL     OW29464   3.999   6.951   1.246
 9522SOL    HW129465   3.999   6.910   1.155
 9522SOL    HW229466   4.005   6.878   1.315
 9523SOL     OW29467   2.533   4.553   4.596
 9523SOL    HW129468   2.439   4.529   4.619
 9523SOL    HW229469   2.578   4.592   4.677
 9524SOL     OW29470   1.884   3.394   0.127
 9524SOL    HW129471   1.966   3.448   0.109
 9524SOL    HW229472   1.910   3.300   0.147
 9525SOL     OW29473   2.586   2.767   6.594
 9525SOL    HW129474   2.651   2.758   6.670
 9525SOL    HW229475   2.550   2.860   6.592
 9526SOL     OW29476   5.315   4.738   6.142
 9526SOL    HW129477   5.414   4.744   6.157
 9526SOL    HW229478   5.295   4.656   6.088
 9527SOL     OW29479   3.872   5.928   4.511
 9527SOL    HW129480   3.786   5.876   4.519
 9527SOL    HW229481   3.882   5.987   4.592
 9528SOL     OW29482   4.854   2.135   0.831
 9528SOL    HW129483   4.937   2.086   0.857
 9528SOL    HW229484   4.777   2.102   0.886
 9529SOL     OW29485   6.014   0.179   2.076
 9529SOL    HW129486   6.036   0.173   1.979
 9529SOL    HW229487   5.974   0.268   2.096
 9530SOL     OW29488   0.904   5.843   3.555
 9530SOL    HW129489   0.918   5.839   3.456
 9530SOL    HW229490   0.820   5.892   3.576
 9531SOL     OW29491   3.755   6.203   1.812
 9531SOL    HW129492   3.696   6.192   1.732
 9531SOL    HW229493   3.827   6.269   1.792
 9532SOL     OW29494   6.947   5.146   4.429
 9532SOL    HW129495   7.013   5.187   4.367
 9532SOL    HW229496   6.901   5.219   4.481
 9533SOL     OW29497   1.258   4.068   3.795
 9533SOL    HW129498   1.206   4.119   3.864
 9533SOL    HW229499   1.264   3.972   3.823
 9534SOL     OW29500   5.014   5.945   4.099
 9534SOL    HW129501   5.060   5.866   4.058
 9534SOL    HW229502   5.023   6.024   4.037
 9535SOL     OW29503   0.255   1.619   3.976
 9535SOL    HW129504   0.343   1.667   3.973
 9535SOL    HW229505   0.235   1.590   4.069
 9536SOL     OW29506   3.551   3.769   5.426
 9536SOL    HW129507   3.492   3.850   5.433
 9536SOL    HW229508   3.544   3.715   5.510
 9537SOL     OW29509   0.347   0.546   3.848
 9537SOL    HW129510   0.253   0.524   3.875
 9537SOL    HW229511   0.352   0.642   3.820
 9538SOL     OW29512   5.262   0.854   5.359
 9538SOL    HW129513   5.337   0.852   5.425
 9538SOL    HW229514   5.253   0.765   5.316
 9539SOL     OW29515   3.858   4.013   2.345
 9539SOL    HW129516   3.766   4.051   2.351
 9539SOL    HW229517   3.913   4.045   2.421
 9540SOL     OW29518   4.454   4.823   3.117
 9540SOL    HW129519   4.371   4.775   3.090
 9540SOL    HW229520   4.431   4.908   3.163
 9541SOL     OW29521   1.415   5.429   5.879
 9541SOL    HW129522   1.375   5.513   5.841
 9541SOL    HW229523   1.495   5.403   5.824
 9542SOL     OW29524   6.015   3.776   3.261
 9542SOL    HW129525   6.039   3.836   3.185
 9542SOL    HW229526   6.083   3.786   3.334
 9543SOL     OW29527   2.458   0.543   5.555
 9543SOL    HW129528   2.367   0.570   5.522
 9543SOL    HW229529   2.466   0.443   5.550
 9544SOL     OW29530   6.294   2.941   4.802
 9544SOL    HW129531   6.208   2.909   4.843
 9544SOL    HW229532   6.335   2.868   4.748
 9545SOL     OW29533   6.434   4.176   1.938
 9545SOL    HW129534   6.502   4.146   1.871
 9545SOL    HW229535   6.342   4.168   1.898
 9546SOL     OW29536   3.356   2.770   0.861
 9546SOL    HW129537   3.353   2.760   0.961
 9546SOL    HW229538   3.409   2.696   0.822
 9547SOL     OW29539   4.269   0.520   3.178
 9547SOL    HW129540   4.283   0.439   3.121
 9547SOL    HW229541   4.276   0.602   3.122
 9548SOL     OW29542   0.842   4.741   5.838
 9548SOL    HW129543   0.795   4.824   5.868
 9548SOL    HW229544   0.803   4.662   5.886
 9549SOL     OW29545   4.688   1.092   1.621
 9549SOL    HW129546   4.611   1.120   1.565
 9549SOL    HW229547   4.759   1.162   1.619
 9550SOL     OW29548   6.934   2.247   1.566
 9550SOL    HW129549   6.954   2.150   1.551
 9550SOL    HW229550   6.922   2.264   1.664
 9551SOL     OW29551   6.437   2.922   6.342
 9551SOL    HW129552   6.407   2.831   6.372
 9551SOL    HW229553   6.366   2.989   6.363
 9552SOL     OW29554   3.101   1.784   6.995
 9552SOL    HW129555   3.086   1.706   6.934
 9552SOL    HW229556   3.103   1.868   6.941
 9553SOL     OW29557   5.500   1.039   6.893
 9553SOL    HW129558   5.512   1.045   6.993
 9553SOL    HW229559   5.536   1.121   6.850
 9554SOL     OW29560   2.671   0.941   4.425
 9554SOL    HW129561   2.630   0.956   4.514
 9554SOL    HW229562   2.734   0.864   4.430
 9555SOL     OW29563   0.467   6.390   2.729
 9555SOL    HW129564   0.425   6.468   2.683
 9555SOL    HW229565   0.395   6.331   2.765
 9556SOL     OW29566   2.311   4.381   6.647
 9556SOL    HW129567   2.223   4.429   6.649
 9556SOL    HW229568   2.354   4.393   6.558
 9557SOL     OW29569   5.756   1.191   0.734
 9557SOL    HW129570   5.658   1.206   0.748
 9557SOL    HW229571   5.805   1.214   0.818
 9558SOL     OW29572   5.368   5.942   5.686
 9558SOL    HW129573   5.446   5.945   5.624
 9558SOL    HW229574   5.307   6.019   5.667
 9559SOL     OW29575   2.327   4.431   0.153
 9559SOL    HW129576   2.294   4.506   0.210
 9559SOL    HW229577   2.251   4.367   0.135
 9560SOL     OW29578   2.450   0.657   1.691
 9560SOL    HW129579   2.547   0.668   1.669
 9560SOL    HW229580   2.406   0.746   1.699
 9561SOL     OW29581   0.242   1.005   0.356
 9561SOL    HW129582   0.310   1.058   0.406
 9561SOL    HW229583   0.261   1.009   0.258
 9562SOL     OW29584   1.901   5.761   2.927
 9562SOL    HW129585   1.862   5.714   3.006
 9562SOL    HW229586   1.913   5.858   2.949
 9563SOL     OW29587   0.581   5.516   6.626
 9563SOL    HW129588   0.665   5.485   6.671
 9563SOL    HW229589   0.603   5.575   6.549
 9564SOL     OW29590   1.037   1.652   0.535
 9564SOL    HW129591   1.072   1.693   0.450
 9564SOL    HW229592   1.002   1.560   0.515
 9565SOL     OW29593   2.070   2.070   4.350
 9565SOL    HW129594   2.079   2.136   4.276
 9565SOL    HW229595   2.103   2.109   4.435
 9566SOL     OW29596   2.772   0.438   0.062
 9566SOL    HW129597   2.870   0.456   0.054
 9566SOL    HW229598   2.757   0.342   0.086
 9567SOL     OW29599   0.076   4.636   0.943
 9567SOL    HW129600   0.119   4.681   0.864
 9567SOL    HW229601   0.069   4.538   0.925
 9568SOL     OW29602   4.598   2.212   5.534
 9568SOL    HW129603   4.686   2.260   5.531
 9568SOL    HW229604   4.612   2.119   5.567
 9569SOL     OW29605   5.892   0.462   1.837
 9569SOL    HW129606   5.919   0.461   1.934
 9569SOL    HW229607   5.866   0.370   1.810
 9570SOL     OW29608   0.931   3.591   2.253
 9570SOL    HW129609   0.876   3.508   2.262
 9570SOL    HW229610   1.026   3.567   2.234
 9571SOL     OW29611   1.704   1.194   6.387
 9571SOL    HW129612   1.765   1.147   6.451
 9571SOL    HW229613   1.746   1.281   6.360
 9572SOL     OW29614   2.617   4.739   4.391
 9572SOL    HW129615   2.583   4.657   4.437
 9572SOL    HW229616   2.654   4.714   4.302
 9573SOL     OW29617   5.943   0.158   4.458
 9573SOL    HW129618   5.993   0.072   4.470
 9573SOL    HW229619   5.945   0.185   4.361
 9574SOL     OW29620   4.454   2.764   0.558
 9574SOL    HW129621   4.437   2.736   0.463
 9574SOL    HW229622   4.511   2.696   0.603
 9575SOL     OW29623   5.273   0.300   1.729
 9575SOL    HW129624   5.323   0.320   1.644
 9575SOL    HW229625   5.240   0.385   1.769
 9576SOL     OW29626   1.210   1.272   5.475
 9576SOL    HW129627   1.181   1.199   5.538
 9576SOL    HW229628   1.131   1.329   5.451
 9577SOL     OW29629   0.315   5.363   2.933
 9577SOL    HW129630   0.319   5.265   2.915
 9577SOL    HW229631   0.267   5.379   3.018
 9578SOL     OW29632   2.145   3.385   3.085
 9578SOL    HW129633   2.105   3.376   2.994
 9578SOL    HW229634   2.153   3.295   3.127
 9579SOL     OW29635   5.396   4.985   2.460
 9579SOL    HW129636   5.350   5.069   2.490
 9579SOL    HW229637   5.352   4.906   2.502
 9580SOL     OW29638   4.943   3.754   3.829
 9580SOL    HW129639   4.935   3.766   3.927
 9580SOL    HW229640   4.931   3.657   3.805
 9581SOL     OW29641   5.084   2.084   6.489
 9581SOL    HW129642   5.160   2.031   6.451
 9581SOL    HW229643   5.112   2.180   6.497
 9582SOL     OW29644   3.962   6.524   5.069
 9582SOL    HW129645   4.029   6.488   5.133
 9582SOL    HW229646   3.964   6.469   4.985
 9583SOL     OW29647   2.738   5.390   1.313
 9583SOL    HW129648   2.712   5.487   1.317
 9583SOL    HW229649   2.721   5.347   1.402
 9584SOL     OW29650   2.345   5.108   4.471
 9584SOL    HW129651   2.248   5.094   4.493
 9584SOL    HW229652   2.373   5.042   4.401
 9585SOL     OW29653   4.640   6.666   1.051
 9585SOL    HW129654   4.553   6.639   1.092
 9585SOL    HW229655   4.623   6.709   0.963
 9586SOL     OW29656   3.213   5.171   3.212
 9586SOL    HW129657   3.236   5.078   3.242
 9586SOL    HW229658   3.278   5.236   3.253
 9587SOL     OW29659   3.661   6.634   7.023
 9587SOL    HW129660   3.654   6.558   0.064
 9587SOL    HW229661   3.585   6.696   0.011
 9588SOL     OW29662   6.768   5.828   0.764
 9588SOL    HW129663   6.686   5.815   0.709
 9588SOL    HW229664   6.824   5.745   0.761
 9589SOL     OW29665   1.249   1.692   5.839
 9589SOL    HW129666   1.257   1.664   5.744
 9589SOL    HW229667   1.153   1.710   5.861
 9590SOL     OW29668   5.835   0.911   1.132
 9590SOL    HW129669   5.910   0.960   1.175
 9590SOL    HW229670   5.869   0.861   1.052
 9591SOL     OW29671   5.139   0.478   7.012
 9591SOL    HW129672   5.158   0.575   0.002
 9591SOL    HW229673   5.040   0.462   7.014
 9592SOL     OW29674   1.819   5.591   5.685
 9592SOL    HW129675   1.819   5.657   5.759
 9592SOL    HW229676   1.894   5.612   5.622
 9593SOL     OW29677   2.203   2.391   3.872
 9593SOL    HW129678   2.188   2.302   3.830
 9593SOL    HW229679   2.218   2.459   3.801
 9594SOL     OW29680   0.095   6.385   3.357
 9594SOL    HW129681   0.136   6.299   3.386
 9594SOL    HW229682   0.001   6.390   3.391
 9595SOL     OW29683   0.398   3.523   3.387
 9595SOL    HW129684   0.437   3.522   3.295
 9595SOL    HW229685   0.471   3.526   3.454
 9596SOL     OW29686   1.611   6.492   1.055
 9596SOL    HW129687   1.568   6.410   1.017
 9596SOL    HW229688   1.547   6.536   1.119
 9597SOL     OW29689   1.224   3.568   2.229
 9597SOL    HW129690   1.232   3.660   2.268
 9597SOL    HW229691   1.287   3.506   2.276
 9598SOL     OW29692   2.390   4.405   3.730
 9598SOL    HW129693   2.303   4.408   3.779
 9598SOL    HW229694   2.462   4.444   3.787
 9599SOL     OW29695   4.768   0.133   4.974
 9599SOL    HW129696   4.849   0.154   5.028
 9599SOL    HW229697   4.704   0.210   4.979
 9600SOL     OW29698   3.956   0.938   0.459
 9600SOL    HW129699   4.027   0.941   0.388
 9600SOL    HW229700   3.880   0.881   0.427
 9601SOL     OW29701   0.269   3.850   0.432
 9601SOL    HW129702   0.317   3.928   0.473
 9601SOL    HW229703   0.184   3.834   0.481
 9602SOL     OW29704   4.030   4.310   5.845
 9602SOL    HW129705   4.094   4.261   5.904
 9602SOL    HW229706   3.936   4.288   5.871
 9603SOL     OW29707   5.380   6.871   5.805
 9603SOL    HW129708   5.305   6.848   5.867
 9603SOL    HW229709   5.466   6.835   5.842
 9604SOL     OW29710   4.790   6.654   1.477
 9604SOL    HW129711   4.694   6.680   1.492
 9604SOL    HW229712   4.796   6.590   1.401
 9605SOL     OW29713   4.957   4.972   1.630
 9605SOL    HW129714   4.994   4.986   1.539
 9605SOL    HW229715   4.933   5.060   1.671
 9606SOL     OW29716   1.630   1.806   6.621
 9606SOL    HW129717   1.664   1.876   6.683
 9606SOL    HW229718   1.553   1.843   6.568
 9607SOL     OW29719   1.427   2.533   6.774
 9607SOL    HW129720   1.513   2.506   6.730
 9607SOL    HW229721   1.354   2.472   6.745
 9608SOL     OW29722   6.405   2.102   4.365
 9608SOL    HW129723   6.356   2.135   4.446
 9608SOL    HW229724   6.494   2.066   4.392
 9609SOL     OW29725   4.891   3.153   0.963
 9609SOL    HW129726   4.843   3.236   0.936
 9609SOL    HW229727   4.868   3.131   1.058
 9610SOL     OW29728   1.046   4.738   2.798
 9610SOL    HW129729   0.956   4.780   2.784
 9610SOL    HW229730   1.117   4.808   2.788
 9611SOL     OW29731   2.608   0.622   0.680
 9611SOL    HW129732   2.578   0.548   0.621
 9611SOL    HW229733   2.672   0.587   0.749
 9612SOL     OW29734   0.091   1.500   3.648
 9612SOL    HW129735   0.110   1.440   3.726
 9612SOL    HW229736   7.017   1.519   3.643
 9613SOL     OW29737   5.901   4.663   4.537
 9613SOL    HW129738   5.832   4.708   4.593
 9613SOL    HW229739   5.951   4.731   4.483
 9614SOL     OW29740   4.014   1.981   3.250
 9614SOL    HW129741   4.114   1.986   3.252
 9614SOL    HW229742   3.985   1.892   3.285
 9615SOL     OW29743   1.687   4.048   1.074
 9615SOL    HW129744   1.612   3.986   1.050
 9615SOL    HW229745   1.750   4.002   1.136
 9616SOL     OW29746   4.354   3.935   5.969
 9616SOL    HW129747   4.324   3.840   5.960
 9616SOL    HW229748   4.452   3.941   5.951
 9617SOL     OW29749   1.113   3.139   2.754
 9617SOL    HW129750   1.056   3.182   2.684
 9617SOL    HW229751   1.060   3.069   2.802
 9618SOL     OW29752   2.429   2.216   0.860
 9618SOL    HW129753   2.389   2.203   0.951
 9618SOL    HW229754   2.474   2.306   0.857
 9619SOL     OW29755   2.278   0.182   6.739
 9619SOL    HW129756   2.343   0.252   6.769
 9619SOL    HW229757   2.323   0.122   6.672
 9620SOL     OW29758   5.454   1.161   5.138
 9620SOL    HW129759   5.551   1.181   5.148
 9620SOL    HW229760   5.404   1.194   5.217
 9621SOL     OW29761   1.828   3.581   3.099
 9621SOL    HW129762   1.755   3.522   3.134
 9621SOL    HW229763   1.865   3.637   3.174
 9622SOL     OW29764   4.314   6.944   0.170
 9622SOL    HW129765   4.289   6.986   0.258
 9622SOL    HW229766   4.337   6.848   0.185
 9623SOL     OW29767   1.179   3.220   6.787
 9623SOL    HW129768   1.079   3.221   6.789
 9623SOL    HW229769   1.212   3.285   6.719
 9624SOL     OW29770   6.439   3.276   3.678
 9624SOL    HW129771   6.479   3.201   3.626
 9624SOL    HW229772   6.355   3.306   3.634
 9625SOL     OW29773   5.801   6.141   1.548
 9625SOL    HW129774   5.817   6.231   1.590
 9625SOL    HW229775   5.884   6.086   1.552
 9626SOL     OW29776   3.797   0.437   0.614
 9626SOL    HW129777   3.835   0.482   0.533
 9626SOL    HW229778   3.862   0.368   0.647
 9627SOL     OW29779   0.803   0.454   0.386
 9627SOL    HW129780   0.714   0.498   0.374
 9627SOL    HW229781   0.796   0.358   0.360
 9628SOL     OW29782   3.666   6.659   2.074
 9628SOL    HW129783   3.614   6.599   2.013
 9628SOL    HW229784   3.763   6.657   2.049
 9629SOL     OW29785   2.272   0.307   0.808
 9629SOL    HW129786   2.288   0.388   0.865
 9629SOL    HW229787   2.288   0.331   0.712
 9630SOL     OW29788   0.302   2.350   6.164
 9630SOL    HW129789   0.212   2.307   6.160
 9630SOL    HW229790   0.317   2.403   6.080
 9631SOL     OW29791   6.845   5.578   0.676
 9631SOL    HW129792   6.830   5.522   0.595
 9631SOL    HW229793   6.887   5.523   0.748
 9632SOL     OW29794   1.637   5.634   2.655
 9632SOL    HW129795   1.719   5.578   2.666
 9632SOL    HW229796   1.656   5.712   2.596
 9633SOL     OW29797   0.364   4.909   6.829
 9633SOL    HW129798   0.278   4.857   6.829
 9633SOL    HW229799   0.441   4.845   6.839
 9634SOL     OW29800   7.005   5.866   5.754
 9634SOL    HW129801   6.907   5.879   5.743
 9634SOL    HW229802   7.022   5.812   5.837
 9635SOL     OW29803   6.786   6.040   5.544
 9635SOL    HW129804   6.739   6.121   5.580
 9635SOL    HW229805   6.756   6.022   5.451
 9636SOL     OW29806   4.146   1.433   0.552
 9636SOL    HW129807   4.057   1.400   0.521
 9636SOL    HW229808   4.218   1.393   0.495
 9637SOL     OW29809   2.509   0.864   0.160
 9637SOL    HW129810   2.439   0.794   0.175
 9637SOL    HW229811   2.595   0.821   0.134
 9638SOL     OW29812   6.628   2.538   6.931
 9638SOL    HW129813   6.637   2.473   6.856
 9638SOL    HW229814   6.540   2.525   6.976
 9639SOL     OW29815   3.506   0.659   2.704
 9639SOL    HW129816   3.483   0.701   2.616
 9639SOL    HW229817   3.549   0.570   2.688
 9640SOL     OW29818   1.505   1.885   3.179
 9640SOL    HW129819   1.591   1.914   3.220
 9640SOL    HW229820   1.514   1.884   3.079
 9641SOL     OW29821   5.033   5.740   6.486
 9641SOL    HW129822   5.051   5.644   6.505
 9641SOL    HW229823   4.969   5.777   6.553
 9642SOL     OW29824   3.315   6.779   3.231
 9642SOL    HW129825   3.312   6.679   3.233
 9642SOL    HW229826   3.228   6.814   3.198
 9643SOL     OW29827   3.802   4.840   2.396
 9643SOL    HW129828   3.874   4.772   2.409
 9643SOL    HW229829   3.797   4.866   2.299
 9644SOL     OW29830   2.697   0.887   0.786
 9644SOL    HW129831   2.685   0.911   0.689
 9644SOL    HW229832   2.693   0.788   0.797
 9645SOL     OW29833   2.891   5.297   5.560
 9645SOL    HW129834   2.858   5.211   5.521
 9645SOL    HW229835   2.965   5.277   5.624
 9646SOL     OW29836   3.415   5.168   3.741
 9646SOL    HW129837   3.405   5.121   3.654
 9646SOL    HW229838   3.422   5.101   3.815
 9647SOL     OW29839   6.600   3.177   6.045
 9647SOL    HW129840   6.610   3.190   5.947
 9647SOL    HW229841   6.670   3.230   6.093
 9648SOL     OW29842   4.173   3.958   0.694
 9648SOL    HW129843   4.165   3.890   0.766
 9648SOL    HW229844   4.176   4.050   0.735
 9649SOL     OW29845   2.035   4.785   1.552
 9649SOL    HW129846   1.982   4.757   1.472
 9649SOL    HW229847   1.973   4.805   1.628
 9650SOL     OW29848   1.841   0.554   1.163
 9650SOL    HW129849   1.776   0.625   1.136
 9650SOL    HW229850   1.906   0.591   1.229
 9651SOL     OW29851   0.786   1.936   7.016
 9651SOL    HW129852   0.843   1.949   0.073
 9651SOL    HW229853   0.834   1.972   6.936
 9652SOL     OW29854   1.850   4.732   1.332
 9652SOL    HW129855   1.752   4.753   1.329
 9652SOL    HW229856   1.865   4.637   1.305
 9653SOL     OW29857   6.221   6.173   4.670
 9653SOL    HW129858   6.298   6.232   4.696
 9653SOL    HW229859   6.256   6.095   4.617
 9654SOL     OW29860   2.012   2.841   2.191
 9654SOL    HW129861   1.940   2.889   2.142
 9654SOL    HW229862   2.086   2.818   2.128
 9655SOL     OW29863   6.549   1.905   0.403
 9655SOL    HW129864   6.573   1.833   0.338
 9655SOL    HW229865   6.615   1.906   0.478
 9656SOL     OW29866   2.351   1.848   2.544
 9656SOL    HW129867   2.369   1.935   2.498
 9656SOL    HW229868   2.253   1.833   2.549
 9657SOL     OW29869   0.401   0.376   4.808
 9657SOL    HW129870   0.403   0.473   4.784
 9657SOL    HW229871   0.465   0.359   4.884
 9658SOL     OW29872   5.699   1.161   2.703
 9658SOL    HW129873   5.621   1.100   2.716
 9658SOL    HW229874   5.728   1.157   2.607
 9659SOL     OW29875   1.535   5.033   6.530
 9659SOL    HW129876   1.562   4.942   6.499
 9659SOL    HW229877   1.519   5.031   6.629
 9660SOL     OW29878   0.871   4.750   0.473
 9660SOL    HW129879   0.912   4.779   0.560
 9660SOL    HW229880   0.867   4.650   0.469
 9661SOL     OW29881   3.995   0.842   0.707
 9661SOL    HW129882   3.994   0.876   0.613
 9661SOL    HW229883   3.911   0.790   0.724
 9662SOL     OW29884   5.236   2.369   3.957
 9662SOL    HW129885   5.243   2.458   4.002
 9662SOL    HW229886   5.195   2.380   3.867
 9663SOL     OW29887   3.135   5.614   2.507
 9663SOL    HW129888   3.107   5.521   2.532
 9663SOL    HW229889   3.146   5.669   2.589
 9664SOL     OW29890   3.029   6.068   1.592
 9664SOL    HW129891   2.962   5.994   1.584
 9664SOL    HW229892   3.118   6.029   1.617
 9665SOL     OW29893   5.663   4.084   3.545
 9665SOL    HW129894   5.641   4.042   3.457
 9665SOL    HW229895   5.733   4.154   3.533
 9666SOL     OW29896   5.971   4.887   4.875
 9666SOL    HW129897   6.066   4.918   4.878
 9666SOL    HW229898   5.916   4.941   4.938
 9667SOL     OW29899   2.966   3.513   3.101
 9667SOL    HW129900   2.973   3.464   3.188
 9667SOL    HW229901   2.992   3.609   3.115
 9668SOL     OW29902   0.466   1.741   5.070
 9668SOL    HW129903   0.407   1.668   5.102
 9668SOL    HW229904   0.443   1.762   4.975
 9669SOL     OW29905   1.757   6.835   6.887
 9669SOL    HW129906   1.758   6.935   6.875
 9669SOL    HW229907   1.826   6.810   6.956
 9670SOL     OW29908   6.420   4.046   6.841
 9670SOL    HW129909   6.374   4.134   6.848
 9670SOL    HW229910   6.358   3.980   6.798
 9671SOL     OW29911   6.825   1.531   0.113
 9671SOL    HW129912   6.922   1.519   0.134
 9671SOL    HW229913   6.784   1.596   0.176
 9672SOL     OW29914   0.600   6.682   5.589
 9672SOL    HW129915   0.645   6.691   5.500
 9672SOL    HW229916   0.549   6.766   5.609
 9673SOL     OW29917   2.018   2.607   5.749
 9673SOL    HW129918   2.076   2.680   5.712
 9673SOL    HW229919   2.076   2.528   5.774
 9674SOL     OW29920   2.618   6.332   2.211
 9674SOL    HW129921   2.671   6.247   2.213
 9674SOL    HW229922   2.641   6.384   2.130
 9675SOL     OW29923   6.662   2.150   2.124
 9675SOL    HW129924   6.761   2.149   2.138
 9675SOL    HW229925   6.616   2.130   2.210
 9676SOL     OW29926   0.012   2.976   4.582
 9676SOL    HW129927   0.002   3.022   4.493
 9676SOL    HW229928   7.015   3.040   4.655
 9677SOL     OW29929   1.846   3.456   5.332
 9677SOL    HW129930   1.875   3.419   5.243
 9677SOL    HW229931   1.855   3.385   5.401
 9678SOL     OW29932   3.778   3.482   3.071
 9678SOL    HW129933   3.853   3.435   3.118
 9678SOL    HW229934   3.811   3.518   2.984
 9679SOL     OW29935   0.442   3.413   1.544
 9679SOL    HW129936   0.459   3.485   1.477
 9679SOL    HW229937   0.511   3.342   1.536
 9680SOL     OW29938   4.492   5.292   2.563
 9680SOL    HW129939   4.419   5.279   2.631
 9680SOL    HW229940   4.487   5.219   2.495
 9681SOL     OW29941   1.031   0.696   3.882
 9681SOL    HW129942   0.981   0.707   3.797
 9681SOL    HW229943   1.069   0.784   3.911
 9682SOL     OW29944   0.618   4.161   2.257
 9682SOL    HW129945   0.625   4.139   2.355
 9682SOL    HW229946   0.549   4.103   2.215
 9683SOL     OW29947   4.233   6.723   5.135
 9683SOL    HW129948   4.278   6.796   5.187
 9683SOL    HW229949   4.226   6.641   5.191
 9684SOL     OW29950   0.894   4.011   3.194
 9684SOL    HW129951   0.888   3.931   3.255
 9684SOL    HW229952   0.959   4.076   3.231
 9685SOL     OW29953   1.667   1.581   6.474
 9685SOL    HW129954   1.613   1.606   6.394
 9685SOL    HW229955   1.667   1.656   6.540
 9686SOL     OW29956   5.984   2.444   2.167
 9686SOL    HW129957   5.908   2.406   2.115
 9686SOL    HW229958   6.046   2.493   2.104
 9687SOL     OW29959   3.255   1.504   4.803
 9687SOL    HW129960   3.243   1.593   4.848
 9687SOL    HW229961   3.181   1.490   4.737
 9688SOL     OW29962   5.340   1.886   4.344
 9688SOL    HW129963   5.288   1.912   4.263
 9688SOL    HW229964   5.415   1.950   4.357
 9689SOL     OW29965   3.139   5.262   5.727
 9689SOL    HW129966   3.160   5.342   5.783
 9689SOL    HW229967   3.197   5.262   5.646
 9690SOL     OW29968   6.475   3.515   0.052
 9690SOL    HW129969   6.563   3.561   0.065
 9690SOL    HW229970   6.430   3.552   6.994
 9691SOL     OW29971   1.465   4.716   0.776
 9691SOL    HW129972   1.497   4.671   0.860
 9691SOL    HW229973   1.470   4.652   0.700
 9692SOL     OW29974   3.397   5.664   0.604
 9692SOL    HW129975   3.331   5.589   0.612
 9692SOL    HW229976   3.367   5.742   0.659
 9693SOL     OW29977   5.863   5.161   1.219
 9693SOL    HW129978   5.850   5.248   1.171
 9693SOL    HW229979   5.872   5.178   1.317
 9694SOL     OW29980   1.032   1.040   0.142
 9694SOL    HW129981   1.012   0.943   0.127
 9694SOL    HW229982   1.130   1.056   0.139
 9695SOL     OW29983   6.440   4.931   0.040
 9695SOL    HW129984   6.407   4.836   0.036
 9695SOL    HW229985   6.485   4.953   6.978
 9696SOL     OW29986   4.120   4.103   6.764
 9696SOL    HW129987   4.045   4.062   6.816
 9696SOL    HW229988   4.091   4.192   6.728
 9697SOL     OW29989   0.257   5.926   6.735
 9697SOL    HW129990   0.312   5.957   6.813
 9697SOL    HW229991   0.250   6.000   6.668
 9698SOL     OW29992   4.844   1.459   5.703
 9698SOL    HW129993   4.922   1.397   5.715
 9698SOL    HW229994   4.769   1.410   5.659
 9699SOL     OW29995   1.319   2.302   6.240
 9699SOL    HW129996   1.320   2.334   6.145
 9699SOL    HW229997   1.400   2.245   6.256
 9700SOL     OW29998   3.818   2.988   3.466
 9700SOL    HW129999   3.848   3.052   3.396
 9700SOL    HW230000   3.877   2.996   3.546
 9701SOL     OW30001   3.955   4.824   3.986
 9701SOL    HW130002   4.016   4.889   4.032
 9701SOL    HW230003   3.884   4.795   4.050
 9702SOL     OW30004   5.414   0.548   0.077
 9702SOL    HW130005   5.353   0.482   0.122
 9702SOL    HW230006   5.389   0.555   7.005
 9703SOL     OW30007   2.665   5.837   4.738
 9703SOL    HW130008   2.659   5.737   4.731
 9703SOL    HW230009   2.744   5.869   4.686
 9704SOL     OW30010   2.822   1.388   4.219
 9704SOL    HW130011   2.762   1.314   4.249
 9704SOL    HW230012   2.779   1.436   4.142
 9705SOL     OW30013   3.471   4.312   0.508
 9705SOL    HW130014   3.548   4.369   0.481
 9705SOL    HW230015   3.467   4.232   0.448
 9706SOL     OW30016   0.066   2.071   3.531
 9706SOL    HW130017   0.042   1.980   3.565
 9706SOL    HW230018   7.007   2.124   3.516
 9707SOL     OW30019   3.278   5.330   1.195
 9707SOL    HW130020   3.364   5.324   1.245
 9707SOL    HW230021   3.282   5.269   1.115
 9708SOL     OW30022   1.705   1.679   1.517
 9708SOL    HW130023   1.633   1.684   1.586
 9708SOL    HW230024   1.698   1.591   1.469
 9709SOL     OW30025   1.600   6.326   3.746
 9709SOL    HW130026   1.526   6.319   3.812
 9709SOL    HW230027   1.563   6.319   3.653
 9710SOL     OW30028   1.400   0.142   3.814
 9710SOL    HW130029   1.433   0.194   3.735
 9710SOL    HW230030   1.378   0.205   3.888
 9711SOL     OW30031   2.283   2.993   6.207
 9711SOL    HW130032   2.234   2.952   6.284
 9711SOL    HW230033   2.263   2.941   6.124
 9712SOL     OW30034   4.969   3.822   4.685
 9712SOL    HW130035   5.007   3.804   4.776
 9712SOL    HW230036   4.943   3.736   4.642
 9713SOL     OW30037   0.296   5.385   3.503
 9713SOL    HW130038   0.375   5.339   3.544
 9713SOL    HW230039   0.235   5.317   3.462
 9714SOL     OW30040   2.661   1.825   2.266
 9714SOL    HW130041   2.668   1.883   2.185
 9714SOL    HW230042   2.571   1.780   2.267
 9715SOL     OW30043   5.728   5.845   6.257
 9715SOL    HW130044   5.660   5.864   6.186
 9715SOL    HW230045   5.714   5.754   6.294
 9716SOL     OW30046   3.558   0.899   5.740
 9716SOL    HW130047   3.606   0.905   5.653
 9716SOL    HW230048   3.621   0.865   5.811
 9717SOL     OW30049   6.162   5.495   3.242
 9717SOL    HW130050   6.260   5.491   3.258
 9717SOL    HW230051   6.115   5.435   3.306
 9718SOL     OW30052   5.722   2.402   2.000
 9718SOL    HW130053   5.735   2.501   2.002
 9718SOL    HW230054   5.723   2.370   1.905
 9719SOL     OW30055   0.296   1.326   0.267
 9719SOL    HW130056   0.327   1.296   0.357
 9719SOL    HW230057   0.342   1.273   0.196
 9720SOL     OW30058   0.829   0.668   0.780
 9720SOL    HW130059   0.837   0.595   0.713
 9720SOL    HW230060   0.898   0.655   0.852
 9721SOL     OW30061   0.327   2.285   3.582
 9721SOL    HW130062   0.241   2.284   3.633
 9721SOL    HW230063   0.348   2.193   3.549
 9722SOL     OW30064   0.163   0.286   4.954
 9722SOL    HW130065   0.141   0.238   5.039
 9722SOL    HW230066   0.263   0.294   4.945
 9723SOL     OW30067   6.871   0.900   4.371
 9723SOL    HW130068   6.849   0.834   4.443
 9723SOL    HW230069   6.918   0.853   4.296
 9724SOL     OW30070   3.798   2.601   1.694
 9724SOL    HW130071   3.788   2.655   1.610
 9724SOL    HW230072   3.721   2.538   1.702
 9725SOL     OW30073   4.033   2.669   6.014
 9725SOL    HW130074   4.117   2.617   6.027
 9725SOL    HW230075   4.056   2.766   6.001
 9726SOL     OW30076   4.799   6.238   4.934
 9726SOL    HW130077   4.866   6.242   4.860
 9726SOL    HW230078   4.755   6.148   4.935
 9727SOL     OW30079   0.470   0.753   6.536
 9727SOL    HW130080   0.518   0.684   6.590
 9727SOL    HW230081   0.444   0.829   6.595
 9728SOL     OW30082   3.045   5.904   6.336
 9728SOL    HW130083   3.041   6.004   6.341
 9728SOL    HW230084   2.992   5.872   6.257
 9729SOL     OW30085   3.398   5.398   2.575
 9729SOL    HW130086   3.342   5.343   2.514
 9729SOL    HW230087   3.371   5.382   2.670
 9730SOL     OW30088   5.286   3.940   2.778
 9730SOL    HW130089   5.317   4.022   2.825
 9730SOL    HW230090   5.188   3.927   2.792
 9731SOL     OW30091   4.943   4.546   0.709
 9731SOL    HW130092   4.960   4.620   0.774
 9731SOL    HW230093   4.914   4.464   0.758
 9732SOL     OW30094   4.962   6.614   4.793
 9732SOL    HW130095   4.919   6.586   4.879
 9732SOL    HW230096   5.043   6.557   4.777
 9733SOL     OW30097   5.010   4.527   4.238
 9733SOL    HW130098   5.051   4.444   4.200
 9733SOL    HW230099   4.996   4.593   4.165
 9734SOL     OW30100   6.423   2.286   5.980
 9734SOL    HW130101   6.509   2.257   6.022
 9734SOL    HW230102   6.414   2.242   5.890
 9735SOL     OW30103   3.069   4.875   0.942
 9735SOL    HW130104   3.036   4.930   1.018
 9735SOL    HW230105   3.169   4.866   0.947
 9736SOL     OW30106   3.794   2.041   1.813
 9736SOL    HW130107   3.841   2.088   1.738
 9736SOL    HW230108   3.733   2.106   1.860
 9737SOL     OW30109   4.264   1.643   4.922
 9737SOL    HW130110   4.290   1.726   4.972
 9737SOL    HW230111   4.214   1.668   4.839
 9738SOL     OW30112   2.522   0.579   2.152
 9738SOL    HW130113   2.480   0.503   2.202
 9738SOL    HW230114   2.613   0.552   2.121
 9739SOL     OW30115   5.313   4.777   2.628
 9739SOL    HW130116   5.270   4.725   2.554
 9739SOL    HW230117   5.247   4.791   2.702
 9740SOL     OW30118   6.686   2.963   3.113
 9740SOL    HW130119   6.733   2.901   3.176
 9740SOL    HW230120   6.595   2.926   3.091
 9741SOL     OW30121   3.827   2.114   2.584
 9741SOL    HW130122   3.727   2.113   2.579
 9741SOL    HW230123   3.863   2.140   2.494
 9742SOL     OW30124   3.797   1.533   3.246
 9742SOL    HW130125   3.861   1.605   3.271
 9742SOL    HW230126   3.840   1.444   3.257
 9743SOL     OW30127   1.177   1.158   5.718
 9743SOL    HW130128   1.079   1.178   5.713
 9743SOL    HW230129   1.224   1.230   5.769
 9744SOL     OW30130   2.746   0.393   1.386
 9744SOL    HW130131   2.720   0.302   1.354
 9744SOL    HW230132   2.673   0.458   1.362
 9745SOL     OW30133   0.694   0.918   4.605
 9745SOL    HW130134   0.668   0.930   4.701
 9745SOL    HW230135   0.759   0.842   4.598
 9746SOL     OW30136   5.816   6.968   4.841
 9746SOL    HW130137   5.911   6.950   4.866
 9746SOL    HW230138   5.796   0.041   4.852
 9747SOL     OW30139   6.607   0.068   6.215
 9747SOL    HW130140   6.548   0.020   6.280
 9747SOL    HW230141   6.665   0.002   6.167
 9748SOL     OW30142   1.908   4.555   4.804
 9748SOL    HW130143   1.947   4.463   4.800
 9748SOL    HW230144   1.963   4.612   4.865
 9749SOL     OW30145   0.309   4.937   4.910
 9749SOL    HW130146   0.345   4.952   5.002
 9749SOL    HW230147   0.355   4.860   4.867
 9750SOL     OW30148   2.557   5.502   2.242
 9750SOL    HW130149   2.610   5.446   2.178
 9750SOL    HW230150   2.567   5.467   2.335
 9751SOL     OW30151   1.392   1.767   0.512
 9751SOL    HW130152   1.307   1.808   0.545
 9751SOL    HW230153   1.399   1.780   0.413
 9752SOL     OW30154   3.240   6.731   5.937
 9752SOL    HW130155   3.203   6.705   5.847
 9752SOL    HW230156   3.327   6.779   5.924
 9753SOL     OW30157   0.049   0.112   6.931
 9753SOL    HW130158   0.019   0.058   7.010
 9753SOL    HW230159   0.074   0.050   6.857
 9754SOL     OW30160   0.145   3.561   6.196
 9754SOL    HW130161   0.092   3.585   6.277
 9754SOL    HW230162   0.243   3.563   6.219
 9755SOL     OW30163   3.985   5.503   4.778
 9755SOL    HW130164   4.044   5.570   4.733
 9755SOL    HW230165   4.041   5.434   4.823
 9756SOL     OW30166   4.515   3.194   6.127
 9756SOL    HW130167   4.528   3.275   6.069
 9756SOL    HW230168   4.427   3.201   6.175
 9757SOL     OW30169   6.075   1.021   4.296
 9757SOL    HW130170   5.986   1.046   4.257
 9757SOL    HW230171   6.104   0.933   4.260
 9758SOL     OW30172   3.429   0.666   0.300
 9758SOL    HW130173   3.419   0.760   0.335
 9758SOL    HW230174   3.404   0.601   0.372
 9759SOL     OW30175   2.875   5.824   1.738
 9759SOL    HW130176   2.782   5.843   1.707
 9759SOL    HW230177   2.883   5.851   1.834
 9760SOL     OW30178   5.040   3.835   6.551
 9760SOL    HW130179   5.095   3.802   6.627
 9760SOL    HW230180   4.957   3.780   6.544
 9761SOL     OW30181   5.108   5.475   3.162
 9761SOL    HW130182   5.073   5.525   3.083
 9761SOL    HW230183   5.053   5.498   3.243
 9762SOL     OW30184   3.350   1.105   2.335
 9762SOL    HW130185   3.262   1.058   2.339
 9762SOL    HW230186   3.424   1.041   2.355
 9763SOL     OW30187   1.949   2.098   1.765
 9763SOL    HW130188   2.045   2.097   1.793
 9763SOL    HW230189   1.897   2.036   1.824
 9764SOL     OW30190   0.587   2.556   4.118
 9764SOL    HW130191   0.591   2.466   4.074
 9764SOL    HW230192   0.658   2.561   4.189
 9765SOL     OW30193   0.550   1.113   5.748
 9765SOL    HW130194   0.496   1.095   5.830
 9765SOL    HW230195   0.504   1.074   5.669
 9766SOL     OW30196   2.852   0.803   1.901
 9766SOL    HW130197   2.771   0.858   1.923
 9766SOL    HW230198   2.931   0.863   1.889
 9767SOL     OW30199   4.050   0.146   5.211
 9767SOL    HW130200   4.067   0.244   5.223
 9767SOL    HW230201   3.952   0.128   5.222
 9768SOL     OW30202   4.444   2.139   3.172
 9768SOL    HW130203   4.457   2.238   3.162
 9768SOL    HW230204   4.452   2.095   3.082
 9769SOL     OW30205   6.977   2.288   0.293
 9769SOL    HW130206   0.040   2.265   0.250
 9769SOL    HW230207   6.939   2.369   0.248
 9770SOL     OW30208   0.551   3.147   4.869
 9770SOL    HW130209   0.588   3.162   4.961
 9770SOL    HW230210   0.453   3.129   4.875
 9771SOL     OW30211   1.818   6.286   3.916
 9771SOL    HW130212   1.736   6.293   3.859
 9771SOL    HW230213   1.844   6.377   3.948
 9772SOL     OW30214   5.675   6.491   1.402
 9772SOL    HW130215   5.771   6.462   1.404
 9772SOL    HW230216   5.635   6.477   1.492
 9773SOL     OW30217   5.417   5.250   4.218
 9773SOL    HW130218   5.323   5.219   4.205
 9773SOL    HW230219   5.427   5.292   4.308
 9774SOL     OW30220   6.669   5.883   4.158
 9774SOL    HW130221   6.639   5.849   4.068
 9774SOL    HW230222   6.604   5.951   4.190
 9775SOL     OW30223   2.677   1.668   4.572
 9775SOL    HW130224   2.616   1.591   4.554
 9775SOL    HW230225   2.751   1.667   4.505
 9776SOL     OW30226   0.596   4.646   4.517
 9776SOL    HW130227   0.647   4.562   4.534
 9776SOL    HW230228   0.498   4.626   4.511
 9777SOL     OW30229   4.767   5.979   5.952
 9777SOL    HW130230   4.700   5.913   5.916
 9777SOL    HW230231   4.800   6.037   5.878
 9778SOL     OW30232   3.301   0.997   4.901
 9778SOL    HW130233   3.210   1.030   4.924
 9778SOL    HW230234   3.317   0.908   4.946
 9779SOL     OW30235   3.357   2.268   6.730
 9779SOL    HW130236   3.426   2.212   6.684
 9779SOL    HW230237   3.351   2.357   6.686
 9780SOL     OW30238   1.513   3.364   1.414
 9780SOL    HW130239   1.486   3.291   1.478
 9780SOL    HW230240   1.565   3.433   1.464
 9781SOL     OW30241   0.489   0.047   4.234
 9781SOL    HW130242   0.445   6.988   4.268
 9781SOL    HW230243   0.571   0.066   4.287
 9782SOL     OW30244   5.842   0.493   1.113
 9782SOL    HW130245   5.761   0.478   1.055
 9782SOL    HW230246   5.921   0.510   1.055
 9783SOL     OW30247   5.893   6.844   3.626
 9783SOL    HW130248   5.913   6.793   3.710
 9783SOL    HW230249   5.880   6.941   3.648
 9784SOL     OW30250   4.885   0.791   4.783
 9784SOL    HW130251   4.878   0.791   4.683
 9784SOL    HW230252   4.920   0.880   4.814
 9785SOL     OW30253   1.213   1.893   0.799
 9785SOL    HW130254   1.138   1.941   0.753
 9785SOL    HW230255   1.176   1.819   0.855
 9786SOL     OW30256   1.805   0.304   3.480
 9786SOL    HW130257   1.760   0.238   3.420
 9786SOL    HW230258   1.904   0.300   3.465
 9787SOL     OW30259   5.998   4.022   1.291
 9787SOL    HW130260   5.931   4.080   1.245
 9787SOL    HW230261   6.090   4.058   1.276
 9788SOL     OW30262   6.995   6.998   6.488
 9788SOL    HW130263   6.943   6.948   6.558
 9788SOL    HW230264   6.976   6.957   6.399
 9789SOL     OW30265   1.740   4.564   4.572
 9789SOL    HW130266   1.809   4.568   4.644
 9789SOL    HW230267   1.783   4.581   4.484
 9790SOL     OW30268   0.605   0.798   3.585
 9790SOL    HW130269   0.578   0.855   3.508
 9790SOL    HW230270   0.535   0.802   3.656
 9791SOL     OW30271   1.318   2.737   0.633
 9791SOL    HW130272   1.410   2.728   0.595
 9791SOL    HW230273   1.260   2.789   0.570
 9792SOL     OW30274   4.733   5.398   2.511
 9792SOL    HW130275   4.762   5.357   2.424
 9792SOL    HW230276   4.641   5.366   2.533
 9793SOL     OW30277   5.429   6.189   1.765
 9793SOL    HW130278   5.400   6.224   1.676
 9793SOL    HW230279   5.348   6.173   1.822
 9794SOL     OW30280   3.595   4.199   0.027
 9794SOL    HW130281   3.606   4.109   7.009
 9794SOL    HW230282   3.646   4.267   6.999
 9795SOL     OW30283   2.088   4.909   2.840
 9795SOL    HW130284   2.155   4.871   2.775
 9795SOL    HW230285   2.081   5.008   2.825
 9796SOL     OW30286   4.344   5.149   6.093
 9796SOL    HW130287   4.273   5.138   6.022
 9796SOL    HW230288   4.300   5.157   6.182
 9797SOL     OW30289   6.086   3.149   5.139
 9797SOL    HW130290   6.028   3.230   5.130
 9797SOL    HW230291   6.173   3.175   5.181
 9798SOL     OW30292   3.295   1.342   1.962
 9798SOL    HW130293   3.212   1.285   1.965
 9798SOL    HW230294   3.281   1.418   1.899
 9799SOL     OW30295   4.137   3.521   3.325
 9799SOL    HW130296   4.078   3.595   3.359
 9799SOL    HW230297   4.164   3.462   3.401
 9800SOL     OW30298   4.212   6.768   0.642
 9800SOL    HW130299   4.220   6.699   0.714
 9800SOL    HW230300   4.297   6.770   0.590
 9801SOL     OW30301   6.312   4.904   1.526
 9801SOL    HW130302   6.350   4.848   1.600
 9801SOL    HW230303   6.361   4.990   1.520
 9802SOL     OW30304   0.708   5.781   2.103
 9802SOL    HW130305   0.766   5.809   2.180
 9802SOL    HW230306   0.759   5.790   2.018
 9803SOL     OW30307   5.463   0.341   6.489
 9803SOL    HW130308   5.497   0.253   6.521
 9803SOL    HW230309   5.363   0.340   6.488
 9804SOL     OW30310   4.864   5.712   4.180
 9804SOL    HW130311   4.946   5.740   4.130
 9804SOL    HW230312   4.796   5.679   4.115
 9805SOL     OW30313   3.743   4.452   0.684
 9805SOL    HW130314   3.732   4.489   0.591
 9805SOL    HW230315   3.835   4.415   0.694
 9806SOL     OW30316   0.052   1.184   2.807
 9806SOL    HW130317   6.977   1.196   2.809
 9806SOL    HW230318   0.096   1.274   2.812
 9807SOL     OW30319   2.266   3.831   0.915
 9807SOL    HW130320   2.359   3.799   0.934
 9807SOL    HW230321   2.207   3.753   0.896
 9808SOL     OW30322   2.501   2.108   2.961
 9808SOL    HW130323   2.585   2.093   2.909
 9808SOL    HW230324   2.428   2.052   2.923
 9809SOL     OW30325   0.701   0.061   4.396
 9809SOL    HW130326   0.698   0.150   4.440
 9809SOL    HW230327   0.729   7.016   4.464
 9810SOL     OW30328   4.820   1.769   2.915
 9810SOL    HW130329   4.789   1.842   2.854
 9810SOL    HW230330   4.757   1.762   2.992
 9811SOL     OW30331   0.929   0.365   2.942
 9811SOL    HW130332   0.854   0.299   2.933
 9811SOL    HW230333   0.971   0.356   3.032
 9812SOL     OW30334   5.972   2.866   6.486
 9812SOL    HW130335   5.951   2.770   6.501
 9812SOL    HW230336   5.956   2.917   6.571
 9813SOL     OW30337   6.384   4.361   0.200
 9813SOL    HW130338   6.306   4.303   0.176
 9813SOL    HW230339   6.368   4.403   0.289
 9814SOL     OW30340   6.571   1.607   6.057
 9814SOL    HW130341   6.477   1.582   6.034
 9814SOL    HW230342   6.597   1.688   6.005
 9815SOL     OW30343   0.152   5.217   2.315
 9815SOL    HW130344   0.162   5.176   2.406
 9815SOL    HW230345   0.064   5.264   2.310
 9816SOL     OW30346   6.982   1.924   4.980
 9816SOL    HW130347   6.926   1.854   4.935
 9816SOL    HW230348   6.922   1.985   5.032
 9817SOL     OW30349   2.286   1.858   0.205
 9817SOL    HW130350   2.248   1.767   0.223
 9817SOL    HW230351   2.259   1.920   0.279
 9818SOL     OW30352   0.247   6.922   2.699
 9818SOL    HW130353   0.318   6.908   2.767
 9818SOL    HW230354   0.276   6.882   2.612
 9819SOL     OW30355   5.970   1.363   4.895
 9819SOL    HW130356   6.033   1.298   4.852
 9819SOL    HW230357   5.913   1.406   4.825
 9820SOL     OW30358   3.401   0.741   6.319
 9820SOL    HW130359   3.478   0.680   6.299
 9820SOL    HW230360   3.331   0.731   6.248
 9821SOL     OW30361   5.079   4.097   6.707
 9821SOL    HW130362   5.036   4.128   6.792
 9821SOL    HW230363   5.019   4.031   6.661
 9822SOL     OW30364   3.437   6.721   3.853
 9822SOL    HW130365   3.411   6.649   3.918
 9822SOL    HW230366   3.443   6.682   3.761
 9823SOL     OW30367   4.222   5.768   2.901
 9823SOL    HW130368   4.127   5.735   2.901
 9823SOL    HW230369   4.241   5.813   2.989
 9824SOL     OW30370   1.450   6.163   5.634
 9824SOL    HW130371   1.352   6.157   5.616
 9824SOL    HW230372   1.498   6.092   5.581
 9825SOL     OW30373   0.558   6.223   4.466
 9825SOL    HW130374   0.501   6.304   4.479
 9825SOL    HW230375   0.544   6.160   4.542
 9826SOL     OW30376   1.641   6.037   5.488
 9826SOL    HW130377   1.736   6.005   5.486
 9826SOL    HW230378   1.598   6.020   5.399
 9827SOL     OW30379   1.316   4.632   1.724
 9827SOL    HW130380   1.338   4.719   1.768
 9827SOL    HW230381   1.277   4.649   1.633
 9828SOL     OW30382   4.941   2.312   4.355
 9828SOL    HW130383   5.014   2.367   4.314
 9828SOL    HW230384   4.936   2.331   4.453
 9829SOL     OW30385   5.448   3.757   5.722
 9829SOL    HW130386   5.422   3.846   5.685
 9829SOL    HW230387   5.512   3.769   5.797
 9830SOL     OW30388   5.847   1.054   3.515
 9830SOL    HW130389   5.897   1.137   3.491
 9830SOL    HW230390   5.795   1.070   3.599
 9831SOL     OW30391   0.816   4.979   1.291
 9831SOL    HW130392   0.746   4.935   1.235
 9831SOL    HW230393   0.795   4.965   1.387
 9832SOL     OW30394   5.395   6.002   5.306
 9832SOL    HW130395   5.417   6.093   5.340
 9832SOL    HW230396   5.306   5.974   5.340
 9833SOL     OW30397   3.716   3.150   4.236
 9833SOL    HW130398   3.662   3.214   4.181
 9833SOL    HW230399   3.789   3.199   4.282
 9834SOL     OW30400   3.303   5.899   5.939
 9834SOL    HW130401   3.357   5.873   6.019
 9834SOL    HW230402   3.365   5.931   5.867
 9835SOL     OW30403   3.612   2.882   3.929
 9835SOL    HW130404   3.634   2.814   3.859
 9835SOL    HW230405   3.697   2.927   3.958
 9836SOL     OW30406   6.831   3.008   6.667
 9836SOL    HW130407   6.909   2.979   6.611
 9836SOL    HW230408   6.747   2.966   6.632
 9837SOL     OW30409   6.242   0.787   4.610
 9837SOL    HW130410   6.238   0.721   4.685
 9837SOL    HW230411   6.240   0.738   4.523
 9838SOL     OW30412   0.570   6.055   0.650
 9838SOL    HW130413   0.479   6.043   0.688
 9838SOL    HW230414   0.609   6.141   0.682
 9839SOL     OW30415   3.750   6.422   3.786
 9839SOL    HW130416   3.727   6.506   3.836
 9839SOL    HW230417   3.740   6.344   3.847
 9840SOL     OW30418   6.267   2.212   6.176
 9840SOL    HW130419   6.299   2.223   6.082
 9840SOL    HW230420   6.328   2.260   6.238
 9841SOL     OW30421   6.784   5.648   2.165
 9841SOL    HW130422   6.872   5.685   2.135
 9841SOL    HW230423   6.768   5.672   2.260
 9842SOL     OW30424   4.432   0.230   0.244
 9842SOL    HW130425   4.440   0.130   0.236
 9842SOL    HW230426   4.427   0.270   0.152
 9843SOL     OW30427   0.613   0.290   0.667
 9843SOL    HW130428   0.578   0.302   0.574
 9843SOL    HW230429   0.554   0.339   0.732
 9844SOL     OW30430   5.659   1.192   4.700
 9844SOL    HW130431   5.583   1.215   4.761
 9844SOL    HW230432   5.712   1.275   4.680
 9845SOL     OW30433   1.129   3.304   2.421
 9845SOL    HW130434   1.065   3.249   2.367
 9845SOL    HW230435   1.219   3.259   2.421
 9846SOL     OW30436   6.061   2.072   2.835
 9846SOL    HW130437   6.016   2.068   2.745
 9846SOL    HW230438   6.044   2.161   2.877
 9847SOL     OW30439   3.981   3.664   6.761
 9847SOL    HW130440   4.067   3.715   6.761
 9847SOL    HW230441   3.976   3.606   6.680
 9848SOL     OW30442   2.805   3.875   5.832
 9848SOL    HW130443   2.743   3.923   5.893
 9848SOL    HW230444   2.755   3.804   5.782
 9849SOL     OW30445   1.429   1.647   2.269
 9849SOL    HW130446   1.416   1.596   2.184
 9849SOL    HW230447   1.502   1.605   2.323
 9850SOL     OW30448   2.066   0.759   4.007
 9850SOL    HW130449   2.054   0.685   3.941
 9850SOL    HW230450   2.145   0.739   4.066
 9851SOL     OW30451   3.330   6.006   3.729
 9851SOL    HW130452   3.277   6.087   3.754
 9851SOL    HW230453   3.269   5.935   3.694
 9852SOL     OW30454   2.434   0.373   6.778
 9852SOL    HW130455   2.392   0.443   6.720
 9852SOL    HW230456   2.509   0.414   6.830
 9853SOL     OW30457   0.080   4.243   3.871
 9853SOL    HW130458   0.027   4.204   3.796
 9853SOL    HW230459   0.019   4.293   3.933
 9854SOL     OW30460   6.321   3.804   0.133
 9854SOL    HW130461   6.418   3.824   0.147
 9854SOL    HW230462   6.311   3.733   0.064
 9855SOL     OW30463   0.726   6.628   0.680
 9855SOL    HW130464   0.764   6.540   0.649
 9855SOL    HW230465   0.664   6.612   0.757
 9856SOL     OW30466   4.701   4.781   2.943
 9856SOL    HW130467   4.703   4.702   2.882
 9856SOL    HW230468   4.615   4.782   2.993
 9857SOL     OW30469   4.574   6.724   5.680
 9857SOL    HW130470   4.674   6.732   5.680
 9857SOL    HW230471   4.537   6.773   5.601
 9858SOL     OW30472   6.606   5.632   2.997
 9858SOL    HW130473   6.611   5.701   2.924
 9858SOL    HW230474   6.517   5.636   3.041
 9859SOL     OW30475   0.301   6.775   3.005
 9859SOL    HW130476   0.227   6.767   2.938
 9859SOL    HW230477   0.275   6.841   3.075
 9860SOL     OW30478   0.909   3.839   3.650
 9860SOL    HW130479   0.935   3.743   3.643
 9860SOL    HW230480   0.856   3.854   3.733
 9861SOL     OW30481   4.124   2.177   4.370
 9861SOL    HW130482   4.197   2.245   4.368
 9861SOL    HW230483   4.114   2.136   4.279
 9862SOL     OW30484   1.368   2.968   6.541
 9862SOL    HW130485   1.321   2.882   6.560
 9862SOL    HW230486   1.325   3.013   6.463
 9863SOL     OW30487   3.935   5.905   2.063
 9863SOL    HW130488   3.963   5.816   2.100
 9863SOL    HW230489   3.993   5.928   1.984
 9864SOL     OW30490   3.201   5.873   5.278
 9864SOL    HW130491   3.129   5.911   5.222
 9864SOL    HW230492   3.162   5.807   5.343
 9865SOL     OW30493   2.402   4.980   6.234
 9865SOL    HW130494   2.345   4.982   6.316
 9865SOL    HW230495   2.497   4.961   6.261
 9866SOL     OW30496   0.544   5.658   5.372
 9866SOL    HW130497   0.628   5.612   5.344
 9866SOL    HW230498   0.471   5.636   5.308
 9867SOL     OW30499   5.027   1.559   2.966
 9867SOL    HW130500   4.950   1.623   2.964
 9867SOL    HW230501   5.080   1.568   2.881
 9868SOL     OW30502   2.449   5.051   2.945
 9868SOL    HW130503   2.392   5.076   3.024
 9868SOL    HW230504   2.393   5.056   2.862
 9869SOL     OW30505   5.601   1.595   2.624
 9869SOL    HW130506   5.540   1.516   2.628
 9869SOL    HW230507   5.546   1.678   2.614
 9870SOL     OW30508   2.252   2.883   2.720
 9870SOL    HW130509   2.234   2.884   2.819
 9870SOL    HW230510   2.183   2.939   2.673
 9871SOL     OW30511   5.901   5.205   3.262
 9871SOL    HW130512   6.001   5.210   3.266
 9871SOL    HW230513   5.865   5.182   3.353
 9872SOL     OW30514   0.638   6.449   4.683
 9872SOL    HW130515   0.551   6.440   4.634
 9872SOL    HW230516   0.621   6.488   4.773
 9873SOL     OW30517   0.687   0.547   5.053
 9873SOL    HW130518   0.676   0.546   5.152
 9873SOL    HW230519   0.769   0.495   5.028
 9874SOL     OW30520   6.771   1.831   3.651
 9874SOL    HW130521   6.802   1.889   3.576
 9874SOL    HW230522   6.705   1.880   3.708
 9875SOL     OW30523   5.826   5.764   0.748
 9875SOL    HW130524   5.756   5.760   0.676
 9875SOL    HW230525   5.794   5.711   0.827
 9876SOL     OW30526   0.418   0.083   3.036
 9876SOL    HW130527   0.330   0.114   2.999
 9876SOL    HW230528   0.445   7.022   2.991
 9877SOL     OW30529   1.559   5.466   5.216
 9877SOL    HW130530   1.461   5.485   5.206
 9877SOL    HW230531   1.594   5.512   5.297
 9878SOL     OW30532   4.618   4.184   0.557
 9878SOL    HW130533   4.616   4.254   0.628
 9878SOL    HW230534   4.528   4.175   0.516
 9879SOL     OW30535   5.634   5.739   4.236
 9879SOL    HW130536   5.587   5.650   4.234
 9879SOL    HW230537   5.728   5.726   4.269
 9880SOL     OW30538   2.531   1.341   0.717
 9880SOL    HW130539   2.628   1.330   0.738
 9880SOL    HW230540   2.496   1.257   0.676
 9881SOL     OW30541   6.215   0.315   2.957
 9881SOL    HW130542   6.118   0.335   2.943
 9881SOL    HW230543   6.228   0.269   3.044
 9882SOL     OW30544   2.961   3.844   4.379
 9882SOL    HW130545   2.981   3.875   4.472
 9882SOL    HW230546   2.862   3.831   4.369
 9883SOL     OW30547   1.210   5.349   2.880
 9883SOL    HW130548   1.281   5.280   2.873
 9883SOL    HW230549   1.221   5.401   2.965
 9884SOL     OW30550   3.245   2.697   5.267
 9884SOL    HW130551   3.220   2.741   5.180
 9884SOL    HW230552   3.199   2.608   5.274
 9885SOL     OW30553   4.967   2.235   5.151
 9885SOL    HW130554   4.951   2.137   5.154
 9885SOL    HW230555   4.880   2.283   5.142
 9886SOL     OW30556   2.535   6.249   1.421
 9886SOL    HW130557   2.533   6.267   1.323
 9886SOL    HW230558   2.629   6.254   1.454
 9887SOL     OW30559   3.797   1.568   0.029
 9887SOL    HW130560   3.881   1.563   0.083
 9887SOL    HW230561   3.764   1.475   0.012
 9888SOL     OW30562   6.260   6.460   4.267
 9888SOL    HW130563   6.279   6.530   4.198
 9888SOL    HW230564   6.222   6.379   4.223
 9889SOL     OW30565   6.583   6.001   2.046
 9889SOL    HW130566   6.642   6.081   2.033
 9889SOL    HW230567   6.612   5.929   1.983
 9890SOL     OW30568   2.170   3.110   3.273
 9890SOL    HW130569   2.180   3.201   3.313
 9890SOL    HW230570   2.084   3.070   3.304
 9891SOL     OW30571   3.808   0.214   1.978
 9891SOL    HW130572   3.772   0.203   1.885
 9891SOL    HW230573   3.749   0.164   2.042
 9892SOL     OW30574   2.552   5.847   3.187
 9892SOL    HW130575   2.452   5.858   3.182
 9892SOL    HW230576   2.588   5.905   3.260
 9893SOL     OW30577   5.754   4.884   4.713
 9893SOL    HW130578   5.767   4.933   4.627
 9893SOL    HW230579   5.831   4.903   4.774
 9894SOL     OW30580   4.431   3.557   5.750
 9894SOL    HW130581   4.400   3.501   5.673
 9894SOL    HW230582   4.490   3.630   5.716
 9895SOL     OW30583   5.213   2.651   6.012
 9895SOL    HW130584   5.198   2.691   6.102
 9895SOL    HW230585   5.307   2.619   6.004
 9896SOL     OW30586   3.938   3.921   6.873
 9896SOL    HW130587   3.941   3.828   6.837
 9896SOL    HW230588   3.870   3.974   6.823
 9897SOL     OW30589   1.053   1.093   2.503
 9897SOL    HW130590   1.010   1.005   2.486
 9897SOL    HW230591   1.150   1.089   2.478
 9898SOL     OW30592   0.440   5.157   6.712
 9898SOL    HW130593   0.397   5.089   6.772
 9898SOL    HW230594   0.468   5.113   6.627
 9899SOL     OW30595   3.534   4.922   0.764
 9899SOL    HW130596   3.529   4.918   0.665
 9899SOL    HW230597   3.618   4.969   0.792
 9900SOL     OW30598   2.658   5.555   2.788
 9900SOL    HW130599   2.623   5.532   2.879
 9900SOL    HW230600   2.595   5.618   2.742
 9901SOL     OW30601   3.157   1.664   6.387
 9901SOL    HW130602   3.079   1.672   6.325
 9901SOL    HW230603   3.205   1.578   6.369
 9902SOL     OW30604   4.243   4.478   6.880
 9902SOL    HW130605   4.315   4.498   6.947
 9902SOL    HW230606   4.284   4.463   6.790
 9903SOL     OW30607   3.032   1.041   0.555
 9903SOL    HW130608   3.040   0.949   0.594
 9903SOL    HW230609   3.121   1.071   0.521
 9904SOL     OW30610   6.235   6.053   1.770
 9904SOL    HW130611   6.240   6.076   1.868
 9904SOL    HW230612   6.326   6.030   1.737
 9905SOL     OW30613   2.433   6.900   6.985
 9905SOL    HW130614   2.350   6.953   6.970
 9905SOL    HW230615   2.470   6.920   0.052
 9906SOL     OW30616   3.429   3.533   6.455
 9906SOL    HW130617   3.466   3.461   6.514
 9906SOL    HW230618   3.402   3.611   6.512
 9907SOL     OW30619   1.232   0.121   3.172
 9907SOL    HW130620   1.274   0.179   3.102
 9907SOL    HW230621   1.301   0.096   3.240
 9908SOL     OW30622   6.853   2.820   6.268
 9908SOL    HW130623   6.947   2.807   6.234
 9908SOL    HW230624   6.827   2.916   6.256
 9909SOL     OW30625   2.609   6.170   3.058
 9909SOL    HW130626   2.536   6.179   3.125
 9909SOL    HW230627   2.689   6.129   3.101
 9910SOL     OW30628   0.789   5.567   0.662
 9910SOL    HW130629   0.884   5.594   0.654
 9910SOL    HW230630   0.743   5.625   0.729
 9911SOL     OW30631   3.059   4.791   1.912
 9911SOL    HW130632   2.982   4.728   1.907
 9911SOL    HW230633   3.144   4.742   1.898
 9912SOL     OW30634   5.859   6.298   0.417
 9912SOL    HW130635   5.891   6.240   0.491
 9912SOL    HW230636   5.935   6.350   0.380
 9913SOL     OW30637   6.568   1.667   2.167
 9913SOL    HW130638   6.622   1.662   2.083
 9913SOL    HW230639   6.487   1.724   2.151
 9914SOL     OW30640   2.162   5.677   3.391
 9914SOL    HW130641   2.155   5.583   3.356
 9914SOL    HW230642   2.229   5.680   3.465
 9915SOL     OW30643   6.202   5.391   3.918
 9915SOL    HW130644   6.236   5.412   4.010
 9915SOL    HW230645   6.280   5.378   3.857
 9916SOL     OW30646   1.604   3.481   0.945
 9916SOL    HW130647   1.672   3.452   0.877
 9916SOL    HW230648   1.532   3.413   0.951
 9917SOL     OW30649   1.901   4.090   4.453
 9917SOL    HW130650   1.963   4.126   4.383
 9917SOL    HW230651   1.817   4.058   4.410
 9918SOL     OW30652   2.234   1.979   3.938
 9918SOL    HW130653   2.254   2.019   4.028
 9918SOL    HW230654   2.193   1.889   3.951
 9919SOL     OW30655   0.641   5.959   1.460
 9919SOL    HW130656   0.588   5.979   1.542
 9919SOL    HW230657   0.587   5.982   1.379
 9920SOL     OW30658   3.409   0.584   3.136
 9920SOL    HW130659   3.397   0.678   3.167
 9920SOL    HW230660   3.348   0.566   3.059
 9921SOL     OW30661   4.677   0.301   2.373
 9921SOL    HW130662   4.678   0.222   2.311
 9921SOL    HW230663   4.762   0.351   2.365
 9922SOL     OW30664   6.260   2.922   2.187
 9922SOL    HW130665   6.307   2.905   2.100
 9922SOL    HW230666   6.315   2.887   2.262
 9923SOL     OW30667   5.605   0.110   6.501
 9923SOL    HW130668   5.584   0.031   6.444
 9923SOL    HW230669   5.699   0.139   6.484
 9924SOL     OW30670   5.718   6.823   4.032
 9924SOL    HW130671   5.634   6.875   4.046
 9924SOL    HW230672   5.710   6.734   4.077
 9925SOL     OW30673   4.074   2.174   5.138
 9925SOL    HW130674   4.125   2.255   5.111
 9925SOL    HW230675   4.002   2.199   5.203
 9926SOL     OW30676   1.268   1.344   5.996
 9926SOL    HW130677   1.274   1.381   5.903
 9926SOL    HW230678   1.255   1.419   6.061
 9927SOL     OW30679   2.242   4.165   4.104
 9927SOL    HW130680   2.149   4.188   4.131
 9927SOL    HW230681   2.293   4.248   4.084
 9928SOL     OW30682   6.690   3.280   3.084
 9928SOL    HW130683   6.715   3.258   3.178
 9928SOL    HW230684   6.654   3.198   3.039
 9929SOL     OW30685   1.096   4.949   5.116
 9929SOL    HW130686   1.002   4.914   5.125
 9929SOL    HW230687   1.160   4.884   5.159
 9930SOL     OW30688   6.693   6.534   6.898
 9930SOL    HW130689   6.738   6.456   6.853
 9930SOL    HW230690   6.763   6.596   6.934
 9931SOL     OW30691   1.386   4.052   0.208
 9931SOL    HW130692   1.418   3.985   0.141
 9931SOL    HW230693   1.461   4.074   0.270
 9932SOL     OW30694   1.666   1.749   1.114
 9932SOL    HW130695   1.731   1.804   1.166
 9932SOL    HW230696   1.588   1.726   1.171
 9933SOL     OW30697   1.780   1.888   3.597
 9933SOL    HW130698   1.830   1.827   3.535
 9933SOL    HW230699   1.692   1.847   3.620
 9934SOL     OW30700   4.725   0.109   5.759
 9934SOL    HW130701   4.627   0.096   5.775
 9934SOL    HW230702   4.777   0.063   5.831
 9935SOL     OW30703   3.469   2.621   0.073
 9935SOL    HW130704   3.381   2.636   0.029
 9935SOL    HW230705   3.508   2.535   0.038
 9936SOL     OW30706   4.680   5.918   0.494
 9936SOL    HW130707   4.676   5.837   0.553
 9936SOL    HW230708   4.643   5.895   0.404
 9937SOL     OW30709   1.268   0.161   5.053
 9937SOL    HW130710   1.203   0.129   5.123
 9937SOL    HW230711   1.257   0.105   4.971
 9938SOL     OW30712   1.031   1.606   3.354
 9938SOL    HW130713   1.072   1.598   3.446
 9938SOL    HW230714   1.070   1.685   3.307
 9939SOL     OW30715   3.184   3.872   0.667
 9939SOL    HW130716   3.264   3.856   0.610
 9939SOL    HW230717   3.132   3.787   0.677
 9940SOL     OW30718   6.409   1.111   2.814
 9940SOL    HW130719   6.458   1.025   2.804
 9940SOL    HW230720   6.416   1.143   2.909
 9941SOL     OW30721   5.587   3.359   0.454
 9941SOL    HW130722   5.666   3.412   0.426
 9941SOL    HW230723   5.532   3.411   0.519
 9942SOL     OW30724   5.343   4.569   2.903
 9942SOL    HW130725   5.262   4.531   2.948
 9942SOL    HW230726   5.341   4.668   2.909
 9943SOL     OW30727   1.475   4.662   4.934
 9943SOL    HW130728   1.387   4.615   4.930
 9943SOL    HW230729   1.549   4.594   4.933
 9944SOL     OW30730   1.927   5.481   6.819
 9944SOL    HW130731   1.961   5.406   6.876
 9944SOL    HW230732   1.891   5.444   6.733
 9945SOL     OW30733   6.057   3.480   5.672
 9945SOL    HW130734   6.047   3.382   5.689
 9945SOL    HW230735   5.969   3.525   5.684
 9946SOL     OW30736   5.879   1.807   0.822
 9946SOL    HW130737   5.973   1.779   0.806
 9946SOL    HW230738   5.877   1.891   0.875
 9947SOL     OW30739   6.881   0.555   3.256
 9947SOL    HW130740   6.947   0.629   3.265
 9947SOL    HW230741   6.819   0.575   3.180
 9948SOL     OW30742   4.712   1.291   5.475
 9948SOL    HW130743   4.630   1.296   5.532
 9948SOL    HW230744   4.753   1.200   5.485
 9949SOL     OW30745   6.534   2.861   2.619
 9949SOL    HW130746   6.612   2.913   2.652
 9949SOL    HW230747   6.531   2.865   2.519
 9950SOL     OW30748   5.341   4.410   6.399
 9950SOL    HW130749   5.281   4.342   6.441
 9950SOL    HW230750   5.320   4.500   6.436
 9951SOL     OW30751   6.655   2.238   2.475
 9951SOL    HW130752   6.645   2.222   2.573
 9951SOL    HW230753   6.666   2.335   2.457
 9952SOL     OW30754   1.743   4.500   1.452
 9952SOL    HW130755   1.644   4.492   1.454
 9952SOL    HW230756   1.781   4.428   1.394
 9953SOL     OW30757   6.251   4.096   5.015
 9953SOL    HW130758   6.201   4.013   5.042
 9953SOL    HW230759   6.228   4.171   5.077
 9954SOL     OW30760   4.297   2.450   1.834
 9954SOL    HW130761   4.397   2.450   1.828
 9954SOL    HW230762   4.261   2.541   1.811
 9955SOL     OW30763   6.225   4.774   2.344
 9955SOL    HW130764   6.255   4.693   2.394
 9955SOL    HW230765   6.301   4.839   2.337
 9956SOL     OW30766   1.309   4.573   3.485
 9956SOL    HW130767   1.396   4.524   3.490
 9956SOL    HW230768   1.258   4.542   3.405
 9957SOL     OW30769   6.003   6.759   0.841
 9957SOL    HW130770   6.037   6.849   0.814
 9957SOL    HW230771   5.925   6.770   0.903
 9958SOL     OW30772   6.494   6.425   5.477
 9958SOL    HW130773   6.569   6.386   5.530
 9958SOL    HW230774   6.517   6.519   5.451
 9959SOL     OW30775   6.097   5.412   0.055
 9959SOL    HW130776   6.110   5.322   0.096
 9959SOL    HW230777   6.155   5.421   6.999
 9960SOL     OW30778   6.583   6.947   6.646
 9960SOL    HW130779   6.672   6.972   6.684
 9960SOL    HW230780   6.513   6.956   6.717
 9961SOL     OW30781   2.809   6.931   0.147
 9961SOL    HW130782   2.859   6.957   0.230
 9961SOL    HW230783   2.867   6.870   0.091
 9962SOL     OW30784   4.089   1.042   1.673
 9962SOL    HW130785   4.043   1.058   1.760
 9962SOL    HW230786   4.085   1.125   1.617
 9963SOL     OW30787   0.156   0.011   6.692
 9963SOL    HW130788   0.166   0.111   6.685
 9963SOL    HW230789   0.104   7.001   6.614
 9964SOL     OW30790   4.720   5.382   4.933
 9964SOL    HW130791   4.765   5.294   4.952
 9964SOL    HW230792   4.737   5.445   5.009
 9965SOL     OW30793   2.322   5.122   4.983
 9965SOL    HW130794   2.275   5.210   4.981
 9965SOL    HW230795   2.405   5.126   4.928
 9966SOL     OW30796   1.870   4.197   1.947
 9966SOL    HW130797   1.969   4.202   1.959
 9966SOL    HW230798   1.846   4.229   1.856
 9967SOL     OW30799   6.881   0.594   2.359
 9967SOL    HW130800   6.980   0.605   2.366
 9967SOL    HW230801   6.858   0.497   2.355
 9968SOL     OW30802   4.283   6.167   0.136
 9968SOL    HW130803   4.306   6.265   0.139
 9968SOL    HW230804   4.303   6.131   0.045
 9969SOL     OW30805   0.921   0.006   2.930
 9969SOL    HW130806   0.956   0.004   2.836
 9969SOL    HW230807   0.922   6.938   2.968
 9970SOL     OW30808   0.920   3.304   1.511
 9970SOL    HW130809   0.993   3.297   1.443
 9970SOL    HW230810   0.943   3.376   1.577
 9971SOL     OW30811   0.458   5.564   5.956
 9971SOL    HW130812   0.394   5.565   6.033
 9971SOL    HW230813   0.440   5.484   5.898
 9972SOL     OW30814   3.081   4.539   5.814
 9972SOL    HW130815   3.072   4.471   5.742
 9972SOL    HW230816   3.149   4.607   5.787
 9973SOL     OW30817   3.139   2.128   2.607
 9973SOL    HW130818   3.179   2.115   2.516
 9973SOL    HW230819   3.201   2.091   2.676
 9974SOL     OW30820   0.536   3.575   3.146
 9974SOL    HW130821   0.519   3.670   3.117
 9974SOL    HW230822   0.626   3.546   3.113
 9975SOL     OW30823   1.532   4.735   6.885
 9975SOL    HW130824   1.583   4.733   6.798
 9975SOL    HW230825   1.462   4.664   6.883
 9976SOL     OW30826   4.413   5.573   4.652
 9976SOL    HW130827   4.322   5.561   4.613
 9976SOL    HW230828   4.408   5.636   4.730
 9977SOL     OW30829   3.918   0.296   5.775
 9977SOL    HW130830   3.844   0.264   5.716
 9977SOL    HW230831   3.889   0.288   5.871
 9978SOL     OW30832   6.397   3.279   6.987
 9978SOL    HW130833   6.435   3.361   0.006
 9978SOL    HW230834   6.466   3.207   6.986
 9979SOL     OW30835   3.513   4.025   3.702
 9979SOL    HW130836   3.591   4.046   3.760
 9979SOL    HW230837   3.429   4.032   3.755
 9980SOL     OW30838   0.046   6.785   6.789
 9980SOL    HW130839   0.142   6.807   6.774
 9980SOL    HW230840   0.017   6.717   6.722
 9981SOL     OW30841   5.304   1.128   1.452
 9981SOL    HW130842   5.216   1.165   1.422
 9981SOL    HW230843   5.313   1.140   1.551
 9982SOL     OW30844   2.554   1.428   5.368
 9982SOL    HW130845   2.601   1.460   5.285
 9982SOL    HW230846   2.455   1.430   5.353
 9983SOL     OW30847   0.649   2.617   1.770
 9983SOL    HW130848   0.742   2.651   1.781
 9983SOL    HW230849   0.606   2.607   1.860
 9984SOL     OW30850   1.271   4.949   0.878
 9984SOL    HW130851   1.201   4.878   0.871
 9984SOL    HW230852   1.254   5.004   0.960
 9985SOL     OW30853   5.576   4.749   6.211
 9985SOL    HW130854   5.570   4.765   6.310
 9985SOL    HW230855   5.636   4.671   6.194
 9986SOL     OW30856   5.785   4.338   0.043
 9986SOL    HW130857   5.852   4.321   0.116
 9986SOL    HW230858   5.811   4.420   7.017
 9987SOL     OW30859   5.069   1.661   0.707
 9987SOL    HW130860   5.152   1.704   0.671
 9987SOL    HW230861   5.024   1.609   0.634
 9988SOL     OW30862   5.304   6.735   4.120
 9988SOL    HW130863   5.214   6.696   4.098
 9988SOL    HW230864   5.356   6.669   4.174
 9989SOL     OW30865   6.576   5.023   2.155
 9989SOL    HW130866   6.672   5.032   2.128
 9989SOL    HW230867   6.544   5.110   2.194
 9990SOL     OW30868   0.236   6.238   2.780
 9990SOL    HW130869   0.232   6.139   2.794
 9990SOL    HW230870   0.183   6.283   2.851
 9991SOL     OW30871   1.969   3.441   1.892
 9991SOL    HW130872   1.921   3.529   1.894
 9991SOL    HW230873   2.048   3.444   1.954
 9992SOL     OW30874   2.235   4.224   0.484
 9992SOL    HW130875   2.232   4.254   0.580
 9992SOL    HW230876   2.300   4.148   0.475
 9993SOL     OW30877   3.679   6.820   4.240
 9993SOL    HW130878   3.610   6.884   4.204
 9993SOL    HW230879   3.749   6.804   4.171
 9994SOL     OW30880   5.939   4.871   5.437
 9994SOL    HW130881   5.915   4.822   5.353
 9994SOL    HW230882   5.920   4.969   5.425
 9995SOL     OW30883   4.473   1.822   6.166
 9995SOL    HW130884   4.470   1.798   6.070
 9995SOL    HW230885   4.544   1.891   6.182
 9996SOL     OW30886   2.474   4.531   1.317
 9996SOL    HW130887   2.425   4.447   1.340
 9996SOL    HW230888   2.570   4.511   1.301
 9997SOL     OW30889   5.606   0.211   3.026
 9997SOL    HW130890   5.637   0.269   3.102
 9997SOL    HW230891   5.601   0.266   2.943
 9998SOL     OW30892   5.587   3.967   2.472
 9998SOL    HW130893   5.508   4.002   2.421
 9998SOL    HW230894   5.556   3.915   2.551
 9999SOL     OW30895   0.951   0.480   4.633
 9999SOL    HW130896   1.016   0.430   4.690
 9999SOL    HW230897   0.870   0.504   4.687
10000SOL     OW30898   4.651   3.431   1.714
10000SOL    HW130899   4.607   3.395   1.631
10000SOL    HW230900   4.587   3.492   1.761
10001SOL     OW30901   4.064   6.728   1.379
10001SOL    HW130902   4.047   6.689   1.470
10001SOL    HW230903   4.062   6.654   1.311
10002SOL     OW30904   2.117   6.480   2.746
10002SOL    HW130905   2.062   6.534   2.681
10002SOL    HW230906   2.079   6.388   2.752
10003SOL     OW30907   0.402   1.318   2.817
10003SOL    HW130908   0.363   1.226   2.813
10003SOL    HW230909   0.419   1.342   2.912
10004SOL     OW30910   0.214   2.725   3.416
10004SOL    HW130911   0.284   2.770   3.362
10004SOL    HW230912   0.210   2.628   3.393
10005SOL     OW30913   2.619   6.160   2.498
10005SOL    HW130914   2.688   6.202   2.558
10005SOL    HW230915   2.542   6.223   2.489
10006SOL     OW30916   5.513   1.823   6.530
10006SOL    HW130917   5.569   1.809   6.612
10006SOL    HW230918   5.442   1.753   6.526
10007SOL     OW30919   1.847   4.895   3.255
10007SOL    HW130920   1.877   4.920   3.347
10007SOL    HW230921   1.747   4.906   3.249
10008SOL     OW30922   4.057   0.690   5.956
10008SOL    HW130923   4.099   0.652   5.874
10008SOL    HW230924   4.003   0.770   5.931
10009SOL     OW30925   1.244   5.473   1.876
10009SOL    HW130926   1.169   5.446   1.937
10009SOL    HW230927   1.215   5.462   1.781
10010SOL     OW30928   2.050   5.174   0.971
10010SOL    HW130929   1.998   5.104   1.021
10010SOL    HW230930   2.002   5.196   0.886
10011SOL     OW30931   3.046   3.376   0.047
10011SOL    HW130932   3.029   3.397   0.144
10011SOL    HW230933   3.143   3.351   0.035
10012SOL     OW30934   5.655   1.903   2.985
10012SOL    HW130935   5.612   1.879   2.898
10012SOL    HW230936   5.713   1.827   3.015
10013SOL     OW30937   0.107   6.213   5.774
10013SOL    HW130938   0.078   6.179   5.684
10013SOL    HW230939   0.163   6.144   5.819
10014SOL     OW30940   1.136   1.193   3.147
10014SOL    HW130941   1.093   1.269   3.195
10014SOL    HW230942   1.088   1.176   3.061
10015SOL     OW30943   4.040   0.763   0.107
10015SOL    HW130944   4.079   0.727   0.192
10015SOL    HW230945   3.979   0.839   0.127
10016SOL     OW30946   2.736   1.153   4.840
10016SOL    HW130947   2.787   1.233   4.811
10016SOL    HW230948   2.658   1.180   4.896
10017SOL     OW30949   3.260   1.624   2.965
10017SOL    HW130950   3.203   1.546   2.940
10017SOL    HW230951   3.338   1.630   2.903
10018SOL     OW30952   6.734   4.677   5.384
10018SOL    HW130953   6.822   4.721   5.394
10018SOL    HW230954   6.663   4.732   5.428
10019SOL     OW30955   0.082   1.887   2.866
10019SOL    HW130956   0.144   1.933   2.930
10019SOL    HW230957   0.136   1.825   2.808
10020SOL     OW30958   6.548   1.224   3.107
10020SOL    HW130959   6.505   1.151   3.160
10020SOL    HW230960   6.484   1.301   3.099
10021SOL     OW30961   2.076   3.936   1.502
10021SOL    HW130962   2.137   3.889   1.439
10021SOL    HW230963   2.046   3.874   1.574
10022SOL     OW30964   0.921   6.426   5.797
10022SOL    HW130965   0.854   6.500   5.805
10022SOL    HW230966   0.969   6.415   5.883
10023SOL     OW30967   1.068   1.535   4.844
10023SOL    HW130968   1.038   1.446   4.879
10023SOL    HW230969   0.999   1.572   4.782
10024SOL     OW30970   1.817   3.821   3.253
10024SOL    HW130971   1.738   3.760   3.266
10024SOL    HW230972   1.850   3.852   3.341
10025SOL     OW30973   0.486   2.607   1.332
10025SOL    HW130974   0.398   2.618   1.379
10025SOL    HW230975   0.558   2.652   1.384
10026SOL     OW30976   6.396   1.333   4.668
10026SOL    HW130977   6.305   1.358   4.634
10026SOL    HW230978   6.454   1.415   4.668
10027SOL     OW30979   3.410   1.508   5.857
10027SOL    HW130980   3.418   1.483   5.760
10027SOL    HW230981   3.319   1.545   5.875
10028SOL     OW30982   3.645   6.177   2.105
10028SOL    HW130983   3.689   6.244   2.165
10028SOL    HW230984   3.678   6.190   2.012
10029SOL     OW30985   0.026   5.144   4.015
10029SOL    HW130986   0.125   5.160   4.018
10029SOL    HW230987   0.005   5.056   4.058
10030SOL     OW30988   2.717   6.818   4.157
10030SOL    HW130989   2.735   6.778   4.067
10030SOL    HW230990   2.791   6.881   4.181
10031SOL     OW30991   1.651   6.698   3.779
10031SOL    HW130992   1.594   6.666   3.704
10031SOL    HW230993   1.604   6.773   3.827
10032SOL     OW30994   2.711   5.566   4.733
10032SOL    HW130995   2.663   5.484   4.762
10032SOL    HW230996   2.800   5.570   4.778
10033SOL     OW30997   1.948   1.367   4.570
10033SOL    HW130998   2.027   1.317   4.535
10033SOL    HW230999   1.874   1.363   4.502
10034SOL     OW31000   2.308   1.264   1.873
10034SOL    HW131001   2.370   1.340   1.852
10034SOL    HW231002   2.361   1.184   1.901
10035SOL     OW31003   0.335   2.884   2.254
10035SOL    HW131004   0.355   2.933   2.169
10035SOL    HW231005   0.340   2.786   2.238
10036SOL     OW31006   0.503   1.512   0.245
10036SOL    HW131007   0.424   1.451   0.243
10036SOL    HW231008   0.473   1.607   0.241
10037SOL     OW31009   6.065   0.742   6.070
10037SOL    HW131010   6.095   0.646   6.071
10037SOL    HW231011   6.058   0.775   6.164
10038SOL     OW31012   4.477   0.234   6.842
10038SOL    HW131013   4.411   0.205   6.772
10038SOL    HW231014   4.478   0.168   6.917
10039SOL     OW31015   0.093   4.886   1.423
10039SOL    HW131016   0.160   4.947   1.465
10039SOL    HW231017   0.111   4.880   1.325
10040SOL     OW31018   2.987   0.608   0.490
10040SOL    HW131019   3.039   0.529   0.523
10040SOL    HW231020   3.003   0.620   0.392
10041SOL     OW31021   5.912   4.438   5.386
10041SOL    HW131022   5.968   4.513   5.351
10041SOL    HW231023   5.822   4.473   5.413
10042SOL     OW31024   6.264   0.738   5.197
10042SOL    HW131025   6.176   0.708   5.159
10042SOL    HW231026   6.281   0.690   5.283
10043SOL     OW31027   0.563   0.333   2.944
10043SOL    HW131028   0.516   0.371   2.864
10043SOL    HW231029   0.529   0.241   2.962
10044SOL     OW31030   3.086   2.222   6.616
10044SOL    HW131031   3.059   2.316   6.638
10044SOL    HW231032   3.185   2.212   6.627
10045SOL     OW31033   4.004   6.962   4.272
10045SOL    HW131034   3.970   0.008   4.209
10045SOL    HW231035   3.983   6.989   4.366
10046SOL     OW31036   6.660   2.029   1.188
10046SOL    HW131037   6.583   1.968   1.171
10046SOL    HW231038   6.666   2.050   1.285
10047SOL     OW31039   0.882   2.771   3.114
10047SOL    HW131040   0.864   2.687   3.063
10047SOL    HW231041   0.912   2.747   3.207
10048SOL     OW31042   3.032   2.216   1.790
10048SOL    HW131043   2.999   2.305   1.824
10048SOL    HW231044   3.113   2.190   1.842
10049SOL     OW31045   1.144   5.398   4.808
10049SOL    HW131046   1.111   5.305   4.824
10049SOL    HW231047   1.244   5.398   4.809
10050SOL     OW31048   5.842   1.224   5.377
10050SOL    HW131049   5.883   1.295   5.434
10050SOL    HW231050   5.886   1.136   5.396
10051SOL     OW31051   6.224   1.713   0.459
10051SOL    HW131052   6.282   1.714   0.540
10051SOL    HW231053   6.159   1.637   0.465
10052SOL     OW31054   1.772   5.446   1.002
10052SOL    HW131055   1.740   5.351   1.011
10052SOL    HW231056   1.793   5.464   0.906
10053SOL     OW31057   3.066   6.674   3.574
10053SOL    HW131058   3.103   6.766   3.560
10053SOL    HW231059   2.974   6.669   3.534
10054SOL     OW31060   4.867   4.593   3.828
10054SOL    HW131061   4.793   4.548   3.778
10054SOL    HW231062   4.830   4.643   3.906
10055SOL     OW31063   5.098   2.733   6.907
10055SOL    HW131064   5.147   2.808   6.950
10055SOL    HW231065   5.000   2.743   6.921
10056SOL     OW31066   4.860   3.768   2.987
10056SOL    HW131067   4.850   3.743   3.084
10056SOL    HW231068   4.856   3.685   2.931
10057SOL     OW31069   2.262   2.326   2.662
10057SOL    HW131070   2.221   2.410   2.699
10057SOL    HW231071   2.199   2.285   2.597
10058SOL     OW31072   0.994   4.903   3.902
10058SOL    HW131073   0.915   4.918   3.961
10058SOL    HW231074   1.052   4.984   3.903
10059SOL     OW31075   4.575   6.489   1.843
10059SOL    HW131076   4.669   6.521   1.828
10059SOL    HW231077   4.554   6.415   1.779
10060SOL     OW31078   2.155   2.177   2.442
10060SOL    HW131079   2.248   2.142   2.430
10060SOL    HW231080   2.089   2.105   2.419
10061SOL     OW31081   0.241   1.769   5.531
10061SOL    HW131082   0.206   1.823   5.455
10061SOL    HW231083   0.286   1.687   5.495
10062SOL     OW31084   5.467   5.641   3.203
10062SOL    HW131085   5.425   5.633   3.112
10062SOL    HW231086   5.566   5.629   3.196
10063SOL     OW31087   0.701   2.778   2.309
10063SOL    HW131088   0.712   2.828   2.223
10063SOL    HW231089   0.790   2.768   2.354
10064SOL     OW31090   5.036   4.980   5.769
10064SOL    HW131091   5.023   4.931   5.682
10064SOL    HW231092   4.992   4.929   5.842
10065SOL     OW31093   0.208   0.251   2.939
10065SOL    HW131094   0.219   0.343   2.977
10065SOL    HW231095   0.157   0.256   2.853
10066SOL     OW31096   6.948   0.547   4.193
10066SOL    HW131097   6.873   0.489   4.225
10066SOL    HW231098   6.974   0.611   4.264
10067SOL     OW31099   4.714   6.473   3.535
10067SOL    HW131100   4.669   6.557   3.503
10067SOL    HW231101   4.649   6.419   3.588
10068SOL     OW31102   5.338   3.426   5.477
10068SOL    HW131103   5.433   3.397   5.469
10068SOL    HW231104   5.277   3.349   5.459
10069SOL     OW31105   4.678   1.752   4.391
10069SOL    HW131106   4.735   1.683   4.348
10069SOL    HW231107   4.683   1.837   4.338
10070SOL     OW31108   1.293   6.957   4.444
10070SOL    HW131109   1.388   6.925   4.448
10070SOL    HW231110   1.231   6.879   4.453
10071SOL     OW31111   4.971   4.556   5.334
10071SOL    HW131112   4.958   4.558   5.433
10071SOL    HW231113   5.064   4.526   5.313
10072SOL     OW31114   0.634   6.129   4.217
10072SOL    HW131115   0.628   6.202   4.149
10072SOL    HW231116   0.612   6.166   4.308
10073SOL     OW31117   6.803   6.331   6.070
10073SOL    HW131118   6.847   6.335   5.980
10073SOL    HW231119   6.709   6.364   6.063
10074SOL     OW31120   2.311   6.650   4.596
10074SOL    HW131121   2.286   6.698   4.511
10074SOL    HW231122   2.230   6.603   4.632
10075SOL     OW31123   0.736   2.659   4.624
10075SOL    HW131124   0.725   2.562   4.601
10075SOL    HW231125   0.834   2.679   4.635
10076SOL     OW31126   5.824   0.076   3.700
10076SOL    HW131127   5.851   0.172   3.697
10076SOL    HW231128   5.780   0.057   3.788
10077SOL     OW31129   2.579   1.367   5.934
10077SOL    HW131130   2.565   1.390   5.837
10077SOL    HW231131   2.595   1.269   5.943
10078SOL     OW31132   5.371   6.294   5.383
10078SOL    HW131133   5.459   6.335   5.407
10078SOL    HW231134   5.350   6.313   5.287
10079SOL     OW31135   0.650   2.825   6.018
10079SOL    HW131136   0.595   2.783   5.945
10079SOL    HW231137   0.744   2.836   5.987
10080SOL     OW31138   1.228   2.869   5.326
10080SOL    HW131139   1.151   2.810   5.300
10080SOL    HW231140   1.310   2.840   5.277
10081SOL     OW31141   0.641   0.971   0.455
10081SOL    HW131142   0.736   0.967   0.424
10081SOL    HW231143   0.582   0.931   0.385
10082SOL     OW31144   6.740   0.665   0.446
10082SOL    HW131145   6.717   0.742   0.387
10082SOL    HW231146   6.834   0.674   0.479
10083SOL     OW31147   5.195   1.503   4.839
10083SOL    HW131148   5.276   1.449   4.860
10083SOL    HW231149   5.113   1.455   4.872
10084SOL     OW31150   2.873   0.877   6.447
10084SOL    HW131151   2.783   0.834   6.450
10084SOL    HW231152   2.938   0.815   6.403
10085SOL     OW31153   1.066   5.789   2.924
10085SOL    HW131154   1.063   5.884   2.892
10085SOL    HW231155   0.974   5.751   2.924
10086SOL     OW31156   6.898   2.829   2.420
10086SOL    HW131157   6.800   2.849   2.421
10086SOL    HW231158   6.917   2.755   2.356
10087SOL     OW31159   2.127   0.637   3.312
10087SOL    HW131160   2.063   0.694   3.260
10087SOL    HW231161   2.099   0.541   3.305
10088SOL     OW31162   5.880   0.334   4.657
10088SOL    HW131163   5.924   0.287   4.582
10088SOL    HW231164   5.785   0.355   4.632
10089SOL     OW31165   2.262   2.678   2.158
10089SOL    HW131166   2.261   2.716   2.251
10089SOL    HW231167   2.308   2.589   2.160
10090SOL     OW31168   0.702   5.454   2.245
10090SOL    HW131169   0.760   5.394   2.190
10090SOL    HW231170   0.708   5.547   2.210
10091SOL     OW31171   0.825   1.383   4.693
10091SOL    HW131172   0.736   1.338   4.700
10091SOL    HW231173   0.847   1.399   4.597
10092SOL     OW31174   1.902   2.972   5.605
10092SOL    HW131175   1.975   2.928   5.658
10092SOL    HW231176   1.938   3.004   5.518
10093SOL     OW31177   6.553   6.833   5.854
10093SOL    HW131178   6.597   6.847   5.943
10093SOL    HW231179   6.558   6.917   5.801
10094SOL     OW31180   1.661   0.420   1.760
10094SOL    HW131181   1.593   0.473   1.811
10094SOL    HW231182   1.669   0.456   1.667
10095SOL     OW31183   0.458   2.021   5.132
10095SOL    HW131184   0.421   1.943   5.081
10095SOL    HW231185   0.424   2.106   5.091
10096SOL     OW31186   6.241   5.789   2.866
10096SOL    HW131187   6.276   5.814   2.776
10096SOL    HW231188   6.156   5.738   2.857
10097SOL     OW31189   1.424   2.734   5.831
10097SOL    HW131190   1.402   2.743   5.734
10097SOL    HW231191   1.363   2.668   5.874
10098SOL     OW31192   3.587   5.660   6.488
10098SOL    HW131193   3.615   5.583   6.545
10098SOL    HW231194   3.638   5.742   6.516
10099SOL     OW31195   0.221   3.794   3.901
10099SOL    HW131196   0.275   3.754   3.826
10099SOL    HW231197   0.219   3.730   3.978
10100SOL     OW31198   4.709   0.393   5.901
10100SOL    HW131199   4.626   0.445   5.923
10100SOL    HW231200   4.685   0.297   5.885
10101SOL     OW31201   0.089   4.537   2.524
10101SOL    HW131202   0.026   4.478   2.574
10101SOL    HW231203   0.064   4.633   2.540
10102SOL     OW31204   4.031   1.001   4.366
10102SOL    HW131205   4.039   1.098   4.388
10102SOL    HW231206   3.937   0.971   4.376
10103SOL     OW31207   0.309   2.792   0.465
10103SOL    HW131208   0.328   2.713   0.408
10103SOL    HW231209   0.393   2.821   0.511
10104SOL     OW31210   2.098   5.391   5.595
10104SOL    HW131211   2.025   5.403   5.528
10104SOL    HW231212   2.116   5.294   5.608
10105SOL     OW31213   3.746   0.595   0.175
10105SOL    HW131214   3.824   0.607   0.236
10105SOL    HW231215   3.691   0.517   0.207
10106SOL     OW31216   4.681   5.601   1.040
10106SOL    HW131217   4.680   5.576   1.137
10106SOL    HW231218   4.656   5.697   1.030
10107SOL     OW31219   5.880   1.149   6.061
10107SOL    HW131220   5.885   1.135   5.962
10107SOL    HW231221   5.953   1.098   6.106
10108SOL     OW31222   4.987   6.262   6.109
10108SOL    HW131223   5.081   6.232   6.097
10108SOL    HW231224   4.949   6.289   6.021
10109SOL     OW31225   5.110   5.687   3.464
10109SOL    HW131226   5.202   5.648   3.463
10109SOL    HW231227   5.049   5.629   3.411
10110SOL     OW31228   3.262   2.289   5.662
10110SOL    HW131229   3.335   2.224   5.644
10110SOL    HW231230   3.187   2.273   5.597
10111SOL     OW31231   6.584   2.563   1.485
10111SOL    HW131232   6.622   2.555   1.577
10111SOL    HW231233   6.503   2.622   1.487
10112SOL     OW31234   4.857   3.897   5.744
10112SOL    HW131235   4.804   3.843   5.678
10112SOL    HW231236   4.932   3.943   5.697
10113SOL     OW31237   3.311   0.041   1.396
10113SOL    HW131238   3.301   0.106   1.472
10113SOL    HW231239   3.294   6.973   1.429
10114SOL     OW31240   4.857   1.690   1.671
10114SOL    HW131241   4.955   1.676   1.684
10114SOL    HW231242   4.806   1.632   1.734
10115SOL     OW31243   1.211   1.598   4.597
10115SOL    HW131244   1.161   1.512   4.597
10115SOL    HW231245   1.309   1.579   4.612
10116SOL     OW31246   0.491   0.492   0.831
10116SOL    HW131247   0.505   0.412   0.889
10116SOL    HW231248   0.435   0.559   0.879
10117SOL     OW31249   4.194   6.973   6.190
10117SOL    HW131250   4.235   6.962   6.280
10117SOL    HW231251   4.144   0.035   6.186
10118SOL     OW31252   5.408   5.283   2.664
10118SOL    HW131253   5.318   5.263   2.626
10118SOL    HW231254   5.445   5.202   2.709
10119SOL     OW31255   1.902   0.045   6.234
10119SOL    HW131256   1.829   7.003   6.247
10119SOL    HW231257   1.964   0.042   6.314
10120SOL     OW31258   5.663   3.456   3.370
10120SOL    HW131259   5.763   3.456   3.378
10120SOL    HW231260   5.626   3.535   3.418
10121SOL     OW31261   5.764   4.832   3.935
10121SOL    HW131262   5.781   4.737   3.962
10121SOL    HW231263   5.671   4.858   3.962
10122SOL     OW31264   5.210   2.577   1.042
10122SOL    HW131265   5.130   2.541   0.994
10122SOL    HW231266   5.283   2.508   1.042
10123SOL     OW31267   0.229   6.721   0.456
10123SOL    HW131268   0.238   6.820   0.464
10123SOL    HW231269   0.259   6.677   0.541
10124SOL     OW31270   3.193   4.163   0.749
10124SOL    HW131271   3.158   4.183   0.841
10124SOL    HW231272   3.175   4.067   0.727
10125SOL     OW31273   2.446   0.433   0.081
10125SOL    HW131274   2.389   0.514   0.093
10125SOL    HW231275   2.542   0.460   0.079
10126SOL     OW31276   5.737   5.488   5.986
10126SOL    HW131277   5.677   5.414   6.018
10126SOL    HW231278   5.804   5.509   6.058
10127SOL     OW31279   4.165   4.824   5.179
10127SOL    HW131280   4.155   4.734   5.221
10127SOL    HW231281   4.080   4.849   5.134
10128SOL     OW31282   1.248   0.925   0.995
10128SOL    HW131283   1.316   0.998   0.997
10128SOL    HW231284   1.245   0.880   1.084
10129SOL     OW31285   5.552   2.601   2.970
10129SOL    HW131286   5.569   2.656   2.889
10129SOL    HW231287   5.457   2.612   2.999
10130SOL     OW31288   5.899   5.432   1.040
10130SOL    HW131289   5.939   5.391   0.957
10130SOL    HW231290   5.965   5.495   1.081
10131SOL     OW31291   0.609   6.919   0.376
10131SOL    HW131292   0.526   6.967   0.405
10131SOL    HW231293   0.583   6.836   0.327
10132SOL     OW31294   2.532   6.811   2.709
10132SOL    HW131295   2.540   6.712   2.712
10132SOL    HW231296   2.483   6.838   2.626
10133SOL     OW31297   6.190   4.315   2.573
10133SOL    HW131298   6.163   4.266   2.656
10133SOL    HW231299   6.139   4.279   2.495
10134SOL     OW31300   0.428   1.601   1.333
10134SOL    HW131301   0.505   1.644   1.380
10134SOL    HW231302   0.353   1.587   1.398
10135SOL     OW31303   3.272   6.166   2.659
10135SOL    HW131304   3.301   6.071   2.666
10135SOL    HW231305   3.242   6.186   2.565
10136SOL     OW31306   6.175   6.564   2.669
10136SOL    HW131307   6.126   6.652   2.672
10136SOL    HW231308   6.226   6.558   2.583
10137SOL     OW31309   5.525   4.793   4.550
10137SOL    HW131310   5.500   4.733   4.475
10137SOL    HW231311   5.564   4.738   4.625
10138SOL     OW31312   5.840   3.094   5.949
10138SOL    HW131313   5.797   3.031   6.014
10138SOL    HW231314   5.769   3.151   5.907
10139SOL     OW31315   4.117   3.332   3.534
10139SOL    HW131316   4.157   3.356   3.622
10139SOL    HW231317   4.034   3.278   3.549
10140SOL     OW31318   1.077   4.919   4.316
10140SOL    HW131319   1.033   5.004   4.286
10140SOL    HW231320   1.136   4.938   4.395
10141SOL     OW31321   2.359   0.509   3.293
10141SOL    HW131322   2.428   0.579   3.306
10141SOL    HW231323   2.268   0.547   3.312
10142SOL     OW31324   5.399   5.858   4.383
10142SOL    HW131325   5.498   5.871   4.380
10142SOL    HW231326   5.355   5.928   4.326
10143SOL     OW31327   4.598   6.366   1.330
10143SOL    HW131328   4.537   6.428   1.381
10143SOL    HW231329   4.684   6.413   1.311
10144SOL     OW31330   2.893   4.778   2.687
10144SOL    HW131331   2.819   4.756   2.623
10144SOL    HW231332   2.922   4.872   2.673
10145SOL     OW31333   2.881   0.291   6.073
10145SOL    HW131334   2.887   0.288   5.973
10145SOL    HW231335   2.908   0.202   6.110
10146SOL     OW31336   4.456   4.907   3.909
10146SOL    HW131337   4.555   4.922   3.916
10146SOL    HW231338   4.436   4.810   3.923
10147SOL     OW31339   4.869   5.819   4.562
10147SOL    HW131340   4.931   5.857   4.631
10147SOL    HW231341   4.785   5.871   4.559
10148SOL     OW31342   6.231   5.785   0.855
10148SOL    HW131343   6.176   5.746   0.929
10148SOL    HW231344   6.209   5.882   0.844
10149SOL     OW31345   3.832   2.726   1.403
10149SOL    HW131346   3.902   2.785   1.363
10149SOL    HW231347   3.743   2.748   1.362
10150SOL     OW31348   5.733   4.321   0.846
10150SOL    HW131349   5.738   4.390   0.918
10150SOL    HW231350   5.733   4.366   0.757
10151SOL     OW31351   0.456   5.219   6.007
10151SOL    HW131352   0.439   5.260   6.097
10151SOL    HW231353   0.402   5.265   5.938
10152SOL     OW31354   0.417   5.654   3.965
10152SOL    HW131355   0.484   5.605   4.021
10152SOL    HW231356   0.462   5.727   3.914
10153SOL     OW31357   5.467   5.430   4.011
10153SOL    HW131358   5.417   5.515   4.029
10153SOL    HW231359   5.458   5.369   4.090
10154SOL     OW31360   6.290   6.067   5.357
10154SOL    HW131361   6.213   6.025   5.307
10154SOL    HW231362   6.352   6.110   5.292
10155SOL     OW31363   3.772   1.381   5.815
10155SOL    HW131364   3.805   1.466   5.772
10155SOL    HW231365   3.732   1.402   5.904
10156SOL     OW31366   5.512   0.315   2.427
10156SOL    HW131367   5.582   0.381   2.455
10156SOL    HW231368   5.543   0.223   2.449
10157SOL     OW31369   5.217   0.605   4.025
10157SOL    HW131370   5.189   0.550   4.104
10157SOL    HW231371   5.315   0.593   4.009
10158SOL     OW31372   4.809   3.477   6.054
10158SOL    HW131373   4.876   3.548   6.035
10158SOL    HW231374   4.825   3.399   5.993
10159SOL     OW31375   1.347   0.957   6.431
10159SOL    HW131376   1.359   1.041   6.483
10159SOL    HW231377   1.436   0.923   6.400
10160SOL     OW31378   0.639   6.360   4.062
10160SOL    HW131379   0.732   6.395   4.056
10160SOL    HW231380   0.577   6.422   4.014
10161SOL     OW31381   2.943   5.584   4.875
10161SOL    HW131382   3.041   5.597   4.859
10161SOL    HW231383   2.929   5.505   4.935
10162SOL     OW31384   2.742   2.514   6.299
10162SOL    HW131385   2.747   2.494   6.201
10162SOL    HW231386   2.833   2.535   6.334
10163SOL     OW31387   0.665   3.614   5.551
10163SOL    HW131388   0.578   3.658   5.529
10163SOL    HW231389   0.735   3.647   5.488
10164SOL     OW31390   1.737   2.371   5.910
10164SOL    HW131391   1.826   2.396   5.948
10164SOL    HW231392   1.669   2.369   5.983
10165SOL     OW31393   6.951   2.542   3.338
10165SOL    HW131394   6.937   2.520   3.434
10165SOL    HW231395   0.021   2.519   3.312
10166SOL     OW31396   0.642   0.967   2.289
10166SOL    HW131397   0.579   0.962   2.367
10166SOL    HW231398   0.687   1.056   2.288
10167SOL     OW31399   4.851   0.485   0.865
10167SOL    HW131400   4.840   0.554   0.936
10167SOL    HW231401   4.939   0.439   0.878
10168SOL     OW31402   6.796   4.602   4.876
10168SOL    HW131403   6.733   4.575   4.803
10168SOL    HW231404   6.744   4.639   4.953
10169SOL     OW31405   6.710   4.157   5.115
10169SOL    HW131406   6.754   4.200   5.037
10169SOL    HW231407   6.756   4.184   5.199
10170SOL     OW31408   1.303   4.485   4.871
10170SOL    HW131409   1.320   4.391   4.901
10170SOL    HW231410   1.311   4.491   4.772
10171SOL     OW31411   6.322   2.686   6.404
10171SOL    HW131412   6.259   2.717   6.475
10171SOL    HW231413   6.274   2.685   6.316
10172SOL     OW31414   5.010   0.677   5.026
10172SOL    HW131415   5.012   0.747   5.098
10172SOL    HW231416   4.944   0.704   4.956
10173SOL     OW31417   1.843   2.739   2.600
10173SOL    HW131418   1.807   2.669   2.661
10173SOL    HW231419   1.916   2.699   2.544
10174SOL     OW31420   6.346   4.367   1.155
10174SOL    HW131421   6.324   4.399   1.063
10174SOL    HW231422   6.389   4.440   1.207
10175SOL     OW31423   5.715   2.568   5.660
10175SOL    HW131424   5.673   2.497   5.717
10175SOL    HW231425   5.645   2.608   5.600
10176SOL     OW31426   2.689   3.128   0.799
10176SOL    HW131427   2.613   3.076   0.761
10176SOL    HW231428   2.654   3.207   0.849
10177SOL     OW31429   1.073   6.901   5.413
10177SOL    HW131430   1.081   6.958   5.495
10177SOL    HW231431   1.148   6.835   5.411
10178SOL     OW31432   5.448   2.900   4.681
10178SOL    HW131433   5.460   2.834   4.754
10178SOL    HW231434   5.505   2.980   4.698
10179SOL     OW31435   6.972   3.444   0.282
10179SOL    HW131436   6.974   3.471   0.186
10179SOL    HW231437   6.921   3.359   0.292
10180SOL     OW31438   1.842   6.674   6.171
10180SOL    HW131439   1.808   6.590   6.213
10180SOL    HW231440   1.793   6.752   6.209
10181SOL     OW31441   6.173   3.706   2.222
10181SOL    HW131442   6.235   3.641   2.265
10181SOL    HW231443   6.227   3.776   2.174
10182SOL     OW31444   4.097   1.677   0.643
10182SOL    HW131445   4.029   1.706   0.575
10182SOL    HW231446   4.130   1.586   0.620
10183SOL     OW31447   1.581   1.391   5.911
10183SOL    HW131448   1.646   1.390   5.835
10183SOL    HW231449   1.490   1.416   5.876
10184SOL     OW31450   4.800   7.019   6.878
10184SOL    HW131451   4.706   0.027   6.884
10184SOL    HW231452   4.859   0.054   6.933
10185SOL     OW31453   4.280   0.990   0.272
10185SOL    HW131454   4.223   1.058   0.227
10185SOL    HW231455   4.338   0.945   0.204
10186SOL     OW31456   4.776   2.380   3.091
10186SOL    HW131457   4.698   2.431   3.128
10186SOL    HW231458   4.774   2.287   3.127
10187SOL     OW31459   0.409   2.608   2.340
10187SOL    HW131460   0.355   2.595   2.423
10187SOL    HW231461   0.506   2.603   2.363
10188SOL     OW31462   4.079   5.586   0.355
10188SOL    HW131463   4.136   5.643   0.297
10188SOL    HW231464   4.019   5.529   0.298
10189SOL     OW31465   0.895   6.636   4.811
10189SOL    HW131466   0.827   6.564   4.823
10189SOL    HW231467   0.986   6.598   4.827
10190SOL     OW31468   5.787   2.953   7.018
10190SOL    HW131469   5.731   3.011   0.053
10190SOL    HW231470   5.765   2.857   0.011
10191SOL     OW31471   6.636   4.636   6.668
10191SOL    HW131472   6.710   4.579   6.706
10191SOL    HW231473   6.649   4.645   6.569
10192SOL     OW31474   3.589   1.737   0.099
10192SOL    HW131475   3.513   1.721   0.036
10192SOL    HW231476   3.659   1.667   0.086
10193SOL     OW31477   5.053   4.027   0.695
10193SOL    HW131478   5.076   4.124   0.702
10193SOL    HW231479   4.960   4.017   0.660
10194SOL     OW31480   5.073   2.673   4.751
10194SOL    HW131481   4.995   2.614   4.730
10194SOL    HW231482   5.068   2.702   4.847
10195SOL     OW31483   5.917   4.517   2.665
10195SOL    HW131484   5.976   4.583   2.620
10195SOL    HW231485   5.825   4.522   2.626
10196SOL     OW31486   0.567   1.602   4.234
10196SOL    HW131487   0.660   1.566   4.227
10196SOL    HW231488   0.566   1.699   4.209
10197SOL     OW31489   5.207   0.765   6.980
10197SOL    HW131490   5.297   0.750   6.939
10197SOL    HW231491   5.219   0.805   0.047
10198SOL     OW31492   4.098   0.069   2.680
10198SOL    HW131493   4.073   0.158   2.719
10198SOL    HW231494   4.070   0.065   2.584
10199SOL     OW31495   0.839   2.221   5.808
10199SOL    HW131496   0.867   2.133   5.770
10199SOL    HW231497   0.767   2.207   5.876
10200SOL     OW31498   5.494   2.322   2.163
10200SOL    HW131499   5.560   2.354   2.095
10200SOL    HW231500   5.402   2.326   2.124
10201SOL     OW31501   1.768   3.387   0.734
10201SOL    HW131502   1.774   3.289   0.712
10201SOL    HW231503   1.843   3.436   0.688
10202SOL     OW31504   5.420   0.202   3.514
10202SOL    HW131505   5.323   0.217   3.493
10202SOL    HW231506   5.467   0.169   3.433
10203SOL     OW31507   0.138   3.003   5.472
10203SOL    HW131508   0.127   3.091   5.519
10203SOL    HW231509   0.204   3.013   5.398
10204SOL     OW31510   5.117   4.312   6.511
10204SOL    HW131511   5.048   4.285   6.578
10204SOL    HW231512   5.073   4.337   6.425
10205SOL     OW31513   0.049   1.437   6.708
10205SOL    HW131514   0.121   1.463   6.644
10205SOL    HW231515   0.087   1.430   6.800
10206SOL     OW31516   2.064   1.876   4.598
10206SOL    HW131517   2.099   1.864   4.505
10206SOL    HW231518   2.017   1.964   4.605
10207SOL     OW31519   2.274   2.483   6.120
10207SOL    HW131520   2.309   2.390   6.117
10207SOL    HW231521   2.307   2.528   6.203
10208SOL     OW31522   6.750   0.219   5.924
10208SOL    HW131523   6.670   0.159   5.917
10208SOL    HW231524   6.732   0.304   5.875
10209SOL     OW31525   6.783   6.739   5.165
10209SOL    HW131526   6.861   6.677   5.178
10209SOL    HW231527   6.803   6.827   5.207
10210SOL     OW31528   3.635   0.367   1.768
10210SOL    HW131529   3.594   0.433   1.832
10210SOL    HW231530   3.734   0.376   1.770
10211SOL     OW31531   5.239   5.435   6.146
10211SOL    HW131532   5.188   5.498   6.087
10211SOL    HW231533   5.174   5.379   6.198
10212SOL     OW31534   0.396   0.057   0.490
10212SOL    HW131535   0.313   0.010   0.521
10212SOL    HW231536   0.398   0.149   0.528
10213SOL     OW31537   6.658   3.119   1.208
10213SOL    HW131538   6.715   3.098   1.129
10213SOL    HW231539   6.680   3.211   1.242
10214SOL     OW31540   1.602   2.682   0.578
10214SOL    HW131541   1.600   2.605   0.641
10214SOL    HW231542   1.633   2.650   0.488
10215SOL     OW31543   3.337   3.862   2.153
10215SOL    HW131544   3.372   3.954   2.136
10215SOL    HW231545   3.355   3.836   2.248
10216SOL     OW31546   0.385   6.293   1.702
10216SOL    HW131547   0.440   6.321   1.780
10216SOL    HW231548   0.294   6.332   1.709
10217SOL     OW31549   3.945   1.726   5.177
10217SOL    HW131550   3.922   1.755   5.269
10217SOL    HW231551   4.029   1.772   5.147
10218SOL     OW31552   1.174   2.702   2.832
10218SOL    HW131553   1.259   2.717   2.780
10218SOL    HW231554   1.134   2.614   2.805
10219SOL     OW31555   6.289   6.273   2.805
10219SOL    HW131556   6.260   6.270   2.901
10219SOL    HW231557   6.347   6.353   2.791
10220SOL     OW31558   3.329   3.446   6.998
10220SOL    HW131559   3.309   3.514   6.928
10220SOL    HW231560   3.346   3.493   0.061
10221SOL     OW31561   1.226   5.620   2.783
10221SOL    HW131562   1.186   5.686   2.846
10221SOL    HW231563   1.188   5.529   2.801
10222SOL     OW31564   3.166   3.359   3.593
10222SOL    HW131565   3.150   3.410   3.678
10222SOL    HW231566   3.264   3.353   3.577
10223SOL     OW31567   2.863   6.948   0.659
10223SOL    HW131568   2.782   6.892   0.678
10223SOL    HW231569   2.945   6.892   0.672
10224SOL     OW31570   6.737   3.193   3.371
10224SOL    HW131571   6.697   3.105   3.397
10224SOL    HW231572   6.837   3.184   3.369
10225SOL     OW31573   1.950   3.966   5.962
10225SOL    HW131574   2.025   3.968   5.896
10225SOL    HW231575   1.963   3.889   6.025
10226SOL     OW31576   4.477   4.271   6.541
10226SOL    HW131577   4.525   4.236   6.621
10226SOL    HW231578   4.460   4.196   6.477
10227SOL     OW31579   5.418   4.137   1.106
10227SOL    HW131580   5.430   4.038   1.113
10227SOL    HW231581   5.466   4.171   1.025
10228SOL     OW31582   5.626   0.331   0.252
10228SOL    HW131583   5.645   0.233   0.253
10228SOL    HW231584   5.709   0.381   0.229
10229SOL     OW31585   0.294   1.884   4.546
10229SOL    HW131586   0.390   1.909   4.535
10229SOL    HW231587   0.244   1.909   4.463
10230SOL     OW31588   6.044   5.992   1.584
10230SOL    HW131589   6.005   5.900   1.576
10230SOL    HW231590   6.102   5.997   1.665
10231SOL     OW31591   0.301   4.069   2.379
10231SOL    HW131592   0.341   4.000   2.319
10231SOL    HW231593   0.201   4.064   2.373
10232SOL     OW31594   4.804   4.709   2.546
10232SOL    HW131595   4.752   4.713   2.461
10232SOL    HW231596   4.826   4.803   2.576
10233SOL     OW31597   3.256   3.478   6.244
10233SOL    HW131598   3.303   3.516   6.323
10233SOL    HW231599   3.311   3.493   6.162
10234SOL     OW31600   0.666   0.518   2.045
10234SOL    HW131601   0.627   0.525   2.136
10234SOL    HW231602   0.660   0.607   1.999
10235SOL     OW31603   0.809   0.495   3.301
10235SOL    HW131604   0.740   0.511   3.230
10235SOL    HW231605   0.870   0.574   3.305
10236SOL     OW31606   1.105   0.332   2.731
10236SOL    HW131607   1.157   0.260   2.776
10236SOL    HW231608   1.019   0.346   2.780
10237SOL     OW31609   6.733   3.811   5.687
10237SOL    HW131610   6.716   3.844   5.594
10237SOL    HW231611   6.704   3.881   5.752
10238SOL     OW31612   2.689   0.137   1.281
10238SOL    HW131613   2.621   0.143   1.208
10238SOL    HW231614   2.766   0.082   1.250
10239SOL     OW31615   1.413   2.307   5.127
10239SOL    HW131616   1.369   2.250   5.057
10239SOL    HW231617   1.350   2.380   5.154
10240SOL     OW31618   1.665   6.272   1.310
10240SOL    HW131619   1.750   6.319   1.289
10240SOL    HW231620   1.605   6.332   1.363
10241SOL     OW31621   4.202   3.747   1.819
10241SOL    HW131622   4.155   3.704   1.896
10241SOL    HW231623   4.172   3.843   1.812
10242SOL     OW31624   0.382   3.817   1.545
10242SOL    HW131625   0.441   3.772   1.478
10242SOL    HW231626   0.287   3.791   1.529
10243SOL     OW31627   3.659   5.349   2.124
10243SOL    HW131628   3.588   5.307   2.068
10243SOL    HW231629   3.665   5.300   2.211
10244SOL     OW31630   2.006   5.632   1.401
10244SOL    HW131631   2.036   5.544   1.365
10244SOL    HW231632   1.964   5.685   1.327
10245SOL     OW31633   6.369   4.168   1.467
10245SOL    HW131634   6.467   4.185   1.463
10245SOL    HW231635   6.335   4.153   1.374
10246SOL     OW31636   3.888   3.269   3.630
10246SOL    HW131637   3.840   3.328   3.696
10246SOL    HW231638   3.928   3.191   3.679
10247SOL     OW31639   0.565   3.657   4.688
10247SOL    HW131640   0.481   3.700   4.655
10247SOL    HW231641   0.601   3.710   4.765
10248SOL     OW31642   0.865   1.355   4.418
10248SOL    HW131643   0.960   1.344   4.449
10248SOL    HW231644   0.822   1.265   4.412
10249SOL     OW31645   2.543   4.300   6.112
10249SOL    HW131646   2.605   4.222   6.122
10249SOL    HW231647   2.463   4.272   6.060
10250SOL     OW31648   3.138   2.772   0.415
10250SOL    HW131649   3.228   2.741   0.385
10250SOL    HW231650   3.145   2.865   0.450
10251SOL     OW31651   1.228   0.641   5.282
10251SOL    HW131652   1.250   0.707   5.211
10251SOL    HW231653   1.165   0.572   5.246
10252SOL     OW31654   5.298   4.126   6.014
10252SOL    HW131655   5.316   4.135   6.112
10252SOL    HW231656   5.385   4.117   5.965
10253SOL     OW31657   3.676   5.869   0.327
10253SOL    HW131658   3.685   5.921   0.412
10253SOL    HW231659   3.580   5.841   0.315
10254SOL     OW31660   6.400   1.451   6.687
10254SOL    HW131661   6.462   1.502   6.747
10254SOL    HW231662   6.326   1.412   6.742
10255SOL     OW31663   4.005   4.680   1.569
10255SOL    HW131664   3.984   4.767   1.612
10255SOL    HW231665   3.929   4.616   1.584
10256SOL     OW31666   2.433   1.234   4.522
10256SOL    HW131667   2.477   1.319   4.550
10256SOL    HW231668   2.461   1.160   4.582
10257SOL     OW31669   3.414   5.894   3.445
10257SOL    HW131670   3.513   5.909   3.454
10257SOL    HW231671   3.370   5.903   3.534
10258SOL     OW31672   3.021   1.614   2.262
10258SOL    HW131673   2.940   1.627   2.318
10258SOL    HW231674   3.060   1.524   2.281
10259SOL     OW31675   1.632   3.864   3.743
10259SOL    HW131676   1.594   3.907   3.661
10259SOL    HW231677   1.608   3.919   3.823
10260SOL     OW31678   0.374   6.972   3.694
10260SOL    HW131679   0.451   0.003   3.727
10260SOL    HW231680   0.289   7.010   3.729
10261SOL     OW31681   6.882   4.195   1.608
10261SOL    HW131682   6.898   4.100   1.635
10261SOL    HW231683   6.968   4.245   1.608
10262SOL     OW31684   3.824   0.663   6.861
10262SOL    HW131685   3.795   0.681   6.955
10262SOL    HW231686   3.894   0.592   6.860
10263SOL     OW31687   5.535   6.978   3.025
10263SOL    HW131688   5.547   0.053   3.028
10263SOL    HW231689   5.438   6.956   3.009
10264SOL     OW31690   6.609   0.829   6.167
10264SOL    HW131691   6.657   0.885   6.099
10264SOL    HW231692   6.676   0.787   6.228
10265SOL     OW31693   1.673   1.113   2.635
10265SOL    HW131694   1.639   1.021   2.651
10265SOL    HW231695   1.770   1.109   2.608
10266SOL     OW31696   2.469   3.791   1.317
10266SOL    HW131697   2.553   3.736   1.324
10266SOL    HW231698   2.468   3.860   1.389
10267SOL     OW31699   6.348   0.767   0.808
10267SOL    HW131700   6.380   0.717   0.727
10267SOL    HW231701   6.346   0.706   0.887
10268SOL     OW31702   3.294   5.798   2.723
10268SOL    HW131703   3.317   5.801   2.626
10268SOL    HW231704   3.230   5.872   2.744
10269SOL     OW31705   2.326   1.669   7.023
10269SOL    HW131706   2.425   1.671   7.006
10269SOL    HW231707   2.295   1.760   0.027
10270SOL     OW31708   2.538   0.022   3.474
10270SOL    HW131709   2.553   0.091   3.402
10270SOL    HW231710   2.504   6.962   3.432
10271SOL     OW31711   2.092   1.173   6.867
10271SOL    HW131712   2.191   1.166   6.880
10271SOL    HW231713   2.073   1.216   6.779
10272SOL     OW31714   5.846   6.822   5.211
10272SOL    HW131715   5.853   6.791   5.306
10272SOL    HW231716   5.923   6.785   5.158
10273SOL     OW31717   2.341   5.581   2.933
10273SOL    HW131718   2.426   5.576   2.986
10273SOL    HW231719   2.265   5.601   2.994
10274SOL     OW31720   1.073   4.148   5.028
10274SOL    HW131721   1.006   4.077   5.049
10274SOL    HW231722   1.036   4.208   4.958
10275SOL     OW31723   0.292   0.882   1.805
10275SOL    HW131724   0.296   0.914   1.900
10275SOL    HW231725   0.321   0.956   1.745
10276SOL     OW31726   3.452   4.655   5.374
10276SOL    HW131727   3.439   4.575   5.316
10276SOL    HW231728   3.363   4.692   5.399
10277SOL     OW31729   0.526   5.552   3.691
10277SOL    HW131730   0.516   5.458   3.723
10277SOL    HW231731   0.617   5.565   3.652
10278SOL     OW31732   6.365   0.005   4.369
10278SOL    HW131733   6.397   6.946   4.325
10278SOL    HW231734   6.300   7.007   4.442
10279SOL     OW31735   1.155   4.781   4.114
10279SOL    HW131736   1.109   4.844   4.177
10279SOL    HW231737   1.119   4.794   4.021
10280SOL     OW31738   6.444   5.569   1.042
10280SOL    HW131739   6.349   5.578   1.013
10280SOL    HW231740   6.497   5.646   1.007
10281SOL     OW31741   5.983   0.391   5.088
10281SOL    HW131742   5.890   0.391   5.124
10281SOL    HW231743   6.005   0.302   5.050
10282SOL     OW31744   5.021   2.484   3.136
10282SOL    HW131745   5.044   2.450   3.227
10282SOL    HW231746   4.926   2.461   3.116
10283SOL     OW31747   0.074   2.574   0.671
10283SOL    HW131748   0.072   2.670   0.696
10283SOL    HW231749   7.014   2.530   0.700
10284SOL     OW31750   0.755   4.883   5.108
10284SOL    HW131751   0.752   4.880   5.008
10284SOL    HW231752   0.742   4.791   5.145
10285SOL     OW31753   6.727   6.430   6.332
10285SOL    HW131754   6.629   6.453   6.327
10285SOL    HW231755   6.754   6.381   6.249
10286SOL     OW31756   3.072   0.936   1.784
10286SOL    HW131757   3.038   0.952   1.691
10286SOL    HW231758   3.171   0.926   1.782
10287SOL     OW31759   0.199   5.978   2.477
10287SOL    HW131760   0.297   5.962   2.462
10287SOL    HW231761   0.178   5.970   2.574
10288SOL     OW31762   4.024   5.943   4.279
10288SOL    HW131763   4.066   6.030   4.305
10288SOL    HW231764   3.952   5.920   4.345
10289SOL     OW31765   4.170   6.349   6.754
10289SOL    HW131766   4.164   6.412   6.831
10289SOL    HW231767   4.165   6.401   6.668
10290SOL     OW31768   3.238   3.365   2.486
10290SOL    HW131769   3.226   3.432   2.413
10290SOL    HW231770   3.267   3.277   2.447
10291SOL     OW31771   3.286   2.117   2.376
10291SOL    HW131772   3.278   2.216   2.359
10291SOL    HW231773   3.323   2.073   2.294
10292SOL     OW31774   0.079   0.221   5.617
10292SOL    HW131775   0.101   0.130   5.652
10292SOL    HW231776   7.020   0.254   5.661
10293SOL     OW31777   1.637   3.094   5.478
10293SOL    HW131778   1.629   3.008   5.528
10293SOL    HW231779   1.734   3.120   5.473
10294SOL     OW31780   1.296   6.915   1.709
10294SOL    HW131781   1.271   7.005   1.674
10294SOL    HW231782   1.377   6.923   1.767
10295SOL     OW31783   2.143   1.345   0.800
10295SOL    HW131784   2.126   1.434   0.758
10295SOL    HW231785   2.196   1.357   0.883
10296SOL     OW31786   6.741   2.674   4.925
10296SOL    HW131787   6.783   2.740   4.862
10296SOL    HW231788   6.647   2.702   4.945
10297SOL     OW31789   4.453   1.114   1.040
10297SOL    HW131790   4.394   1.041   1.005
10297SOL    HW231791   4.450   1.192   0.978
10298SOL     OW31792   1.149   1.636   1.764
10298SOL    HW131793   1.155   1.658   1.862
10298SOL    HW231794   1.194   1.548   1.748
10299SOL     OW31795   5.340   0.070   2.716
10299SOL    HW131796   5.332   7.003   2.676
10299SOL    HW231797   5.300   0.138   2.654
10300SOL     OW31798   1.278   2.999   0.730
10300SOL    HW131799   1.252   2.903   0.732
10300SOL    HW231800   1.376   3.007   0.752
10301SOL     OW31801   4.434   1.628   7.003
10301SOL    HW131802   4.517   1.645   6.950
10301SOL    HW231803   4.355   1.621   6.942
10302SOL     OW31804   3.439   5.947   5.395
10302SOL    HW131805   3.364   5.937   5.329
10302SOL    HW231806   3.496   6.025   5.369
10303SOL     OW31807   0.774   4.233   5.426
10303SOL    HW131808   0.716   4.278   5.494
10303SOL    HW231809   0.768   4.283   5.339
10304SOL     OW31810   5.233   5.954   1.187
10304SOL    HW131811   5.215   5.992   1.278
10304SOL    HW231812   5.147   5.921   1.148
10305SOL     OW31813   2.673   3.633   5.336
10305SOL    HW131814   2.767   3.605   5.354
10305SOL    HW231815   2.613   3.554   5.346
10306SOL     OW31816   4.066   1.047   1.163
10306SOL    HW131817   4.153   1.028   1.207
10306SOL    HW231818   4.081   1.066   1.066
10307SOL     OW31819   1.822   6.813   5.009
10307SOL    HW131820   1.904   6.791   4.957
10307SOL    HW231821   1.843   6.882   5.078
10308SOL     OW31822   2.686   4.612   1.677
10308SOL    HW131823   2.605   4.631   1.734
10308SOL    HW231824   2.766   4.604   1.736
10309SOL     OW31825   0.179   0.642   5.145
10309SOL    HW131826   0.124   0.713   5.189
10309SOL    HW231827   0.120   0.587   5.085
10310SOL     OW31828   3.289   4.178   6.094
10310SOL    HW131829   3.331   4.227   6.171
10310SOL    HW231830   3.205   4.134   6.124
10311SOL     OW31831   5.567   6.474   7.021
10311SOL    HW131832   5.542   6.569   7.004
10311SOL    HW231833   5.661   6.458   6.990
10312SOL     OW31834   3.012   6.924   2.241
10312SOL    HW131835   3.023   7.019   2.211
10312SOL    HW231836   3.068   6.907   2.322
10313SOL     OW31837   5.170   6.420   3.359
10313SOL    HW131838   5.262   6.433   3.396
10313SOL    HW231839   5.175   6.403   3.261
10314SOL     OW31840   1.027   6.923   0.542
10314SOL    HW131841   1.080   6.864   0.481
10314SOL    HW231842   0.932   6.890   0.546
10315SOL     OW31843   4.768   4.847   3.914
10315SOL    HW131844   4.771   4.776   3.984
10315SOL    HW231845   4.801   4.934   3.952
10316SOL     OW31846   1.240   2.008   0.199
10316SOL    HW131847   1.261   2.046   0.109
10316SOL    HW231848   1.301   2.047   0.267
10317SOL     OW31849   4.159   6.235   4.273
10317SOL    HW131850   4.227   6.162   4.277
10317SOL    HW231851   4.119   6.249   4.363
10318SOL     OW31852   6.024   0.165   6.990
10318SOL    HW131853   5.969   0.085   6.968
10318SOL    HW231854   6.015   0.185   0.064
10319SOL     OW31855   0.756   4.380   4.170
10319SOL    HW131856   0.838   4.399   4.224
10319SOL    HW231857   0.675   4.397   4.225
10320SOL     OW31858   6.648   6.944   3.097
10320SOL    HW131859   6.555   6.920   3.072
10320SOL    HW231860   6.709   6.928   3.019
10321SOL     OW31861   6.034   2.343   2.913
10321SOL    HW131862   6.077   2.380   2.831
10321SOL    HW231863   6.029   2.414   2.983
10322SOL     OW31864   4.647   4.498   4.892
10322SOL    HW131865   4.705   4.527   4.969
10322SOL    HW231866   4.551   4.515   4.914
10323SOL     OW31867   1.323   4.402   6.262
10323SOL    HW131868   1.333   4.409   6.163
10323SOL    HW231869   1.270   4.320   6.285
10324SOL     OW31870   3.002   3.354   2.870
10324SOL    HW131871   2.959   3.409   2.942
10324SOL    HW231872   3.048   3.414   2.805
10325SOL     OW31873   5.714   6.138   4.930
10325SOL    HW131874   5.743   6.109   5.021
10325SOL    HW231875   5.635   6.083   4.901
10326SOL     OW31876   5.454   3.579   0.083
10326SOL    HW131877   5.468   3.643   0.007
10326SOL    HW231878   5.366   3.532   0.071
10327SOL     OW31879   1.708   5.342   6.597
10327SOL    HW131880   1.645   5.418   6.609
10327SOL    HW231881   1.657   5.256   6.606
10328SOL     OW31882   5.801   2.251   2.577
10328SOL    HW131883   5.787   2.340   2.620
10328SOL    HW231884   5.823   2.264   2.481
10329SOL     OW31885   3.477   2.139   1.774
10329SOL    HW131886   3.546   2.204   1.805
10329SOL    HW231887   3.398   2.142   1.836
10330SOL     OW31888   5.320   6.720   1.851
10330SOL    HW131889   5.253   6.713   1.925
10330SOL    HW231890   5.412   6.727   1.890
10331SOL     OW31891   5.330   5.320   5.786
10331SOL    HW131892   5.389   5.389   5.827
10331SOL    HW231893   5.293   5.261   5.857
10332SOL     OW31894   2.187   1.612   6.668
10332SOL    HW131895   2.223   1.603   6.575
10332SOL    HW231896   2.139   1.700   6.676
10333SOL     OW31897   1.732   3.666   4.491
10333SOL    HW131898   1.734   3.578   4.539
10333SOL    HW231899   1.824   3.706   4.492
10334SOL     OW31900   3.393   1.407   4.381
10334SOL    HW131901   3.316   1.344   4.394
10334SOL    HW231902   3.358   1.501   4.373
10335SOL     OW31903   2.168   3.386   4.125
10335SOL    HW131904   2.158   3.287   4.132
10335SOL    HW231905   2.246   3.416   4.180
10336SOL     OW31906   5.487   6.230   3.427
10336SOL    HW131907   5.451   6.143   3.393
10336SOL    HW231908   5.582   6.240   3.397
10337SOL     OW31909   6.489   6.077   0.174
10337SOL    HW131910   6.413   6.024   0.137
10337SOL    HW231911   6.524   6.139   0.104
10338SOL     OW31912   0.790   6.460   1.627
10338SOL    HW131913   0.860   6.505   1.572
10338SOL    HW231914   0.817   6.365   1.644
10339SOL     OW31915   5.406   2.490   5.805
10339SOL    HW131916   5.356   2.404   5.790
10339SOL    HW231917   5.503   2.469   5.818
10340SOL     OW31918   3.007   4.208   6.251
10340SOL    HW131919   3.051   4.277   6.309
10340SOL    HW231920   2.982   4.129   6.308
10341SOL     OW31921   2.651   4.919   3.464
10341SOL    HW131922   2.671   5.005   3.416
10341SOL    HW231923   2.552   4.910   3.475
10342SOL     OW31924   0.697   1.192   3.508
10342SOL    HW131925   0.643   1.128   3.453
10342SOL    HW231926   0.685   1.284   3.473
10343SOL     OW31927   4.177   5.466   1.746
10343SOL    HW131928   4.120   5.548   1.756
10343SOL    HW231929   4.258   5.489   1.692
10344SOL     OW31930   4.787   6.774   6.735
10344SOL    HW131931   4.762   6.859   6.783
10344SOL    HW231932   4.852   6.795   6.662
10345SOL     OW31933   1.096   4.233   4.747
10345SOL    HW131934   1.041   4.284   4.681
10345SOL    HW231935   1.178   4.198   4.702
10346SOL     OW31936   0.398   5.994   0.395
10346SOL    HW131937   0.441   6.050   0.466
10346SOL    HW231938   0.461   5.981   0.319
10347SOL     OW31939   6.645   1.786   5.188
10347SOL    HW131940   6.703   1.771   5.108
10347SOL    HW231941   6.612   1.880   5.189
10348SOL     OW31942   0.375   5.018   1.734
10348SOL    HW131943   0.429   5.096   1.766
10348SOL    HW231944   0.374   5.016   1.635
10349SOL     OW31945   6.785   6.485   6.604
10349SOL    HW131946   6.759   6.581   6.608
10349SOL    HW231947   6.784   6.454   6.509
10350SOL     OW31948   3.941   0.548   6.187
10350SOL    HW131949   3.996   0.531   6.105
10350SOL    HW231950   3.898   0.463   6.217
10351SOL     OW31951   4.296   6.039   5.716
10351SOL    HW131952   4.341   6.045   5.627
10351SOL    HW231953   4.275   6.131   5.749
10352SOL     OW31954   4.609   5.254   6.106
10352SOL    HW131955   4.518   5.214   6.106
10352SOL    HW231956   4.608   5.340   6.054
10353SOL     OW31957   0.700   3.759   5.119
10353SOL    HW131958   0.770   3.705   5.164
10353SOL    HW231959   0.610   3.717   5.133
10354SOL     OW31960   5.204   1.516   0.895
10354SOL    HW131961   5.152   1.577   0.835
10354SOL    HW231962   5.159   1.426   0.898
10355SOL     OW31963   1.099   4.146   2.935
10355SOL    HW131964   1.104   4.047   2.942
10355SOL    HW231965   1.024   4.171   2.874
10356SOL     OW31966   0.759   2.526   5.221
10356SOL    HW131967   0.714   2.470   5.151
10356SOL    HW231968   0.843   2.480   5.250
10357SOL     OW31969   2.761   3.356   6.117
10357SOL    HW131970   2.731   3.268   6.078
10357SOL    HW231971   2.689   3.424   6.101
10358SOL     OW31972   0.765   0.648   2.469
10358SOL    HW131973   0.685   0.605   2.510
10358SOL    HW231974   0.798   0.591   2.394
10359SOL     OW31975   1.196   1.562   0.755
10359SOL    HW131976   1.153   1.603   0.674
10359SOL    HW231977   1.134   1.494   0.794
10360SOL     OW31978   6.773   4.817   3.958
10360SOL    HW131979   6.693   4.756   3.959
10360SOL    HW231980   6.824   4.804   3.873
10361SOL     OW31981   2.768   5.487   0.565
10361SOL    HW131982   2.720   5.427   0.501
10361SOL    HW231983   2.719   5.489   0.652
10362SOL     OW31984   0.974   4.579   5.670
10362SOL    HW131985   0.922   4.627   5.740
10362SOL    HW231986   1.071   4.577   5.695
10363SOL     OW31987   5.258   0.779   4.919
10363SOL    HW131988   5.298   0.708   4.860
10363SOL    HW231989   5.181   0.741   4.969
10364SOL     OW31990   1.552   4.139   0.650
10364SOL    HW131991   1.553   4.146   0.550
10364SOL    HW231992   1.617   4.070   0.679
10365SOL     OW31993   5.479   5.162   7.006
10365SOL    HW131994   5.535   5.223   0.038
10365SOL    HW231995   5.447   5.212   6.926
10366SOL     OW31996   4.222   6.994   4.096
10366SOL    HW131997   4.152   6.996   4.167
10366SOL    HW231998   4.303   6.945   4.130
10367SOL     OW31999   6.202   1.585   2.930
10367SOL    HW132000   6.170   1.549   2.843
10367SOL    HW232001   6.123   1.600   2.990
10368SOL     OW32002   2.604   0.409   1.009
10368SOL    HW132003   2.573   0.317   0.988
10368SOL    HW232004   2.683   0.432   0.952
10369SOL     OW32005   4.395   2.613   6.609
10369SOL    HW132006   4.468   2.681   6.612
10369SOL    HW232007   4.308   2.656   6.634
10370SOL     OW32008   2.593   0.571   5.286
10370SOL    HW132009   2.549   0.581   5.375
10370SOL    HW232010   2.568   0.484   5.245
10371SOL     OW32011   4.783   6.665   5.438
10371SOL    HW132012   4.820   6.744   5.389
10371SOL    HW232013   4.750   6.598   5.372
10372SOL     OW32014   0.400   0.876   3.799
10372SOL    HW132015   0.397   0.834   3.889
10372SOL    HW232016   0.307   0.880   3.761
10373SOL     OW32017   1.312   6.289   5.309
10373SOL    HW132018   1.297   6.231   5.389
10373SOL    HW232019   1.252   6.369   5.314
10374SOL     OW32020   3.634   1.400   3.044
10374SOL    HW132021   3.681   1.462   3.107
10374SOL    HW232022   3.683   1.398   2.957
10375SOL     OW32023   6.994   2.219   0.713
10375SOL    HW132024   6.974   2.300   0.767
10375SOL    HW232025   0.067   2.197   0.722
10376SOL     OW32026   6.069   0.780   4.155
10376SOL    HW132027   6.103   0.772   4.061
10376SOL    HW232028   6.010   0.701   4.176
10377SOL     OW32029   6.700   6.555   3.336
10377SOL    HW132030   6.601   6.547   3.330
10377SOL    HW232031   6.725   6.648   3.363
10378SOL     OW32032   6.076   6.417   5.700
10378SOL    HW132033   6.081   6.374   5.790
10378SOL    HW232034   6.140   6.371   5.637
10379SOL     OW32035   4.353   1.164   3.882
10379SOL    HW132036   4.357   1.119   3.793
10379SOL    HW232037   4.283   1.121   3.938
10380SOL     OW32038   3.273   0.758   4.504
10380SOL    HW132039   3.210   0.829   4.471
10380SOL    HW232040   3.346   0.744   4.438
10381SOL     OW32041   3.363   5.159   4.870
10381SOL    HW132042   3.276   5.192   4.831
10381SOL    HW232043   3.413   5.107   4.800
10382SOL     OW32044   0.030   5.142   1.665
10382SOL    HW132045   0.005   5.048   1.687
10382SOL    HW232046   0.091   5.144   1.587
10383SOL     OW32047   5.571   3.426   1.218
10383SOL    HW132048   5.658   3.446   1.173
10383SOL    HW232049   5.586   3.358   1.290
10384SOL     OW32050   5.269   1.220   6.695
10384SOL    HW132051   5.340   1.247   6.631
10384SOL    HW232052   5.269   1.120   6.705
10385SOL     OW32053   0.225   2.931   6.701
10385SOL    HW132054   0.202   3.028   6.697
10385SOL    HW232055   0.225   2.901   6.797
10386SOL     OW32056   0.560   1.896   5.945
10386SOL    HW132057   0.528   1.872   5.853
10386SOL    HW232058   0.503   1.851   6.013
10387SOL     OW32059   1.795   3.791   2.720
10387SOL    HW132060   1.790   3.874   2.775
10387SOL    HW232061   1.769   3.713   2.776
10388SOL     OW32062   1.520   4.502   2.120
10388SOL    HW132063   1.605   4.454   2.099
10388SOL    HW232064   1.534   4.601   2.114
10389SOL     OW32065   1.480   5.181   3.212
10389SOL    HW132066   1.545   5.222   3.275
10389SOL    HW232067   1.517   5.182   3.119
10390SOL     OW32068   2.131   3.407   3.352
10390SOL    HW132069   2.157   3.480   3.415
10390SOL    HW232070   2.146   3.437   3.258
10391SOL     OW32071   3.635   5.430   4.349
10391SOL    HW132072   3.579   5.350   4.327
10391SOL    HW232073   3.682   5.461   4.266
10392SOL     OW32074   0.034   5.675   5.941
10392SOL    HW132075   0.110   5.700   6.001
10392SOL    HW232076   7.006   5.600   5.983
10393SOL     OW32077   1.370   1.944   4.302
10393SOL    HW132078   1.379   2.044   4.305
10393SOL    HW232079   1.279   1.919   4.335
10394SOL     OW32080   3.161   7.014   1.171
10394SOL    HW132081   3.223   0.016   1.245
10394SOL    HW232082   3.121   0.071   1.130
10395SOL     OW32083   1.380   0.538   3.552
10395SOL    HW132084   1.303   0.477   3.532
10395SOL    HW232085   1.376   0.566   3.648
10396SOL     OW32086   0.452   0.604   4.667
10396SOL    HW132087   0.428   0.693   4.627
10396SOL    HW232088   0.500   0.549   4.598
10397SOL     OW32089   4.651   2.642   2.467
10397SOL    HW132090   4.725   2.587   2.507
10397SOL    HW232091   4.567   2.588   2.463
10398SOL     OW32092   6.931   2.568   2.301
10398SOL    HW132093   6.942   2.480   2.348
10398SOL    HW232094   7.002   2.577   2.232
10399SOL     OW32095   6.781   2.874   5.926
10399SOL    HW132096   6.797   2.777   5.946
10399SOL    HW232097   6.683   2.888   5.907
10400SOL     OW32098   1.807   5.310   2.512
10400SOL    HW132099   1.775   5.225   2.471
10400SOL    HW232100   1.804   5.303   2.611
10401SOL     OW32101   1.128   5.835   1.125
10401SOL    HW132102   1.113   5.883   1.211
10401SOL    HW232103   1.182   5.752   1.142
10402SOL     OW32104   1.387   2.314   4.569
10402SOL    HW132105   1.406   2.286   4.475
10402SOL    HW232106   1.466   2.292   4.627
10403SOL     OW32107   5.458   1.314   3.636
10403SOL    HW132108   5.425   1.241   3.696
10403SOL    HW232109   5.528   1.368   3.684
10404SOL     OW32110   6.461   0.369   4.688
10404SOL    HW132111   6.461   0.296   4.620
10404SOL    HW232112   6.368   0.403   4.701
10405SOL     OW32113   3.080   6.825   6.525
10405SOL    HW132114   3.068   6.820   6.426
10405SOL    HW232115   3.166   6.780   6.551
10406SOL     OW32116   1.108   6.452   4.856
10406SOL    HW132117   1.112   6.399   4.771
10406SOL    HW232118   1.200   6.479   4.883
10407SOL     OW32119   3.407   0.646   0.022
10407SOL    HW132120   3.316   0.686   0.014
10407SOL    HW232121   3.428   0.626   0.118
10408SOL     OW32122   3.160   0.250   2.841
10408SOL    HW132123   3.205   0.161   2.844
10408SOL    HW232124   3.072   0.242   2.794
10409SOL     OW32125   0.658   5.329   2.469
10409SOL    HW132126   0.724   5.256   2.484
10409SOL    HW232127   0.678   5.374   2.382
10410SOL     OW32128   5.229   5.667   0.547
10410SOL    HW132129   5.289   5.694   0.472
10410SOL    HW232130   5.246   5.726   0.626
10411SOL     OW32131   2.288   4.887   1.890
10411SOL    HW132132   2.302   4.788   1.884
10411SOL    HW232133   2.195   4.910   1.862
10412SOL     OW32134   0.765   3.642   6.540
10412SOL    HW132135   0.675   3.606   6.566
10412SOL    HW232136   0.836   3.574   6.562
10413SOL     OW32137   6.441   0.959   4.523
10413SOL    HW132138   6.408   1.008   4.442
10413SOL    HW232139   6.364   0.913   4.568
10414SOL     OW32140   5.707   5.395   5.346
10414SOL    HW132141   5.629   5.445   5.309
10414SOL    HW232142   5.774   5.460   5.383
10415SOL     OW32143   0.091   4.544   3.163
10415SOL    HW132144   0.143   4.516   3.082
10415SOL    HW232145   0.100   4.643   3.175
10416SOL     OW32146   4.934   0.496   0.229
10416SOL    HW132147   4.934   0.596   0.227
10416SOL    HW232148   4.847   0.462   0.194
10417SOL     OW32149   4.688   4.727   4.579
10417SOL    HW132150   4.637   4.644   4.558
10417SOL    HW232151   4.759   4.741   4.510
10418SOL     OW32152   5.703   3.034   0.246
10418SOL    HW132153   5.725   2.967   0.317
10418SOL    HW232154   5.606   3.057   0.252
10419SOL     OW32155   1.164   6.919   4.786
10419SOL    HW132156   1.201   7.007   4.755
10419SOL    HW232157   1.237   6.866   4.829
10420SOL     OW32158   6.299   4.206   3.951
10420SOL    HW132159   6.272   4.227   4.045
10420SOL    HW232160   6.313   4.291   3.900
10421SOL     OW32161   6.841   3.476   4.375
10421SOL    HW132162   6.754   3.431   4.354
10421SOL    HW232163   6.903   3.469   4.297
10422SOL     OW32164   6.050   3.221   5.784
10422SOL    HW132165   6.133   3.182   5.824
10422SOL    HW232166   5.971   3.198   5.841
10423SOL     OW32167   2.592   5.854   1.700
10423SOL    HW132168   2.558   5.937   1.744
10423SOL    HW232169   2.620   5.875   1.606
10424SOL     OW32170   4.754   0.675   2.416
10424SOL    HW132171   4.807   0.594   2.392
10424SOL    HW232172   4.693   0.654   2.493
10425SOL     OW32173   0.441   4.455   1.255
10425SOL    HW132174   0.440   4.358   1.232
10425SOL    HW232175   0.375   4.504   1.198
10426SOL     OW32176   6.362   2.230   0.042
10426SOL    HW132177   6.370   2.135   0.012
10426SOL    HW232178   6.352   2.232   0.142
10427SOL     OW32179   6.408   0.381   4.282
10427SOL    HW132180   6.399   0.469   4.330
10427SOL    HW232181   6.405   0.306   4.349
10428SOL     OW32182   1.906   0.451   4.819
10428SOL    HW132183   1.813   0.425   4.845
10428SOL    HW232184   1.971   0.397   4.873
10429SOL     OW32185   1.994   4.508   1.740
10429SOL    HW132186   2.052   4.526   1.819
10429SOL    HW232187   1.953   4.594   1.708
10430SOL     OW32188   3.188   1.269   4.513
10430SOL    HW132189   3.254   1.203   4.548
10430SOL    HW232190   3.152   1.324   4.589
10431SOL     OW32191   4.379   2.299   3.526
10431SOL    HW132192   4.407   2.366   3.595
10431SOL    HW232193   4.458   2.274   3.470
10432SOL     OW32194   1.500   4.530   0.985
10432SOL    HW132195   1.470   4.447   0.938
10432SOL    HW232196   1.486   4.520   1.083
10433SOL     OW32197   3.010   6.586   4.177
10433SOL    HW132198   3.036   6.635   4.094
10433SOL    HW232199   3.049   6.632   4.256
10434SOL     OW32200   4.363   1.948   0.467
10434SOL    HW132201   4.400   1.856   0.485
10434SOL    HW232202   4.263   1.945   0.474
10435SOL     OW32203   2.504   1.336   1.661
10435SOL    HW132204   2.572   1.362   1.592
10435SOL    HW232205   2.447   1.416   1.683
10436SOL     OW32206   1.310   3.735   4.837
10436SOL    HW132207   1.284   3.668   4.906
10436SOL    HW232208   1.283   3.826   4.868
10437SOL     OW32209   6.627   0.038   5.260
10437SOL    HW132210   6.576   0.118   5.229
10437SOL    HW232211   6.611   0.024   5.358
10438SOL     OW32212   6.815   6.116   6.554
10438SOL    HW132213   6.886   6.148   6.492
10438SOL    HW232214   6.857   6.089   6.641
10439SOL     OW32215   5.590   5.136   5.293
10439SOL    HW132216   5.658   5.209   5.281
10439SOL    HW232217   5.538   5.153   5.377
10440SOL     OW32218   6.043   2.431   1.614
10440SOL    HW132219   6.126   2.375   1.621
10440SOL    HW232220   5.963   2.372   1.611
10441SOL     OW32221   5.153   1.351   5.728
10441SOL    HW132222   5.173   1.356   5.826
10441SOL    HW232223   5.109   1.263   5.707
10442SOL     OW32224   2.727   0.766   6.032
10442SOL    HW132225   2.655   0.757   5.963
10442SOL    HW232226   2.811   0.797   5.988
10443SOL     OW32227   0.752   1.115   6.953
10443SOL    HW132228   0.724   1.053   6.880
10443SOL    HW232229   0.749   1.209   6.919
10444SOL     OW32230   4.451   5.796   3.595
10444SOL    HW132231   4.478   5.819   3.502
10444SOL    HW232232   4.438   5.697   3.602
10445SOL     OW32233   1.392   3.384   4.047
10445SOL    HW132234   1.386   3.453   4.118
10445SOL    HW232235   1.304   3.376   4.001
10446SOL     OW32236   2.937   4.869   5.105
10446SOL    HW132237   2.862   4.899   5.165
10446SOL    HW232238   2.922   4.774   5.078
10447SOL     OW32239   1.305   2.030   2.803
10447SOL    HW132240   1.377   1.978   2.850
10447SOL    HW232241   1.345   2.109   2.758
10448SOL     OW32242   1.001   5.340   2.390
10448SOL    HW132243   0.998   5.349   2.490
10448SOL    HW232244   1.034   5.426   2.351
10449SOL     OW32245   3.841   5.135   4.266
10449SOL    HW132246   3.806   5.187   4.188
10449SOL    HW232247   3.783   5.056   4.283
10450SOL     OW32248   0.409   2.294   4.287
10450SOL    HW132249   0.311   2.312   4.288
10450SOL    HW232250   0.433   2.242   4.205
10451SOL     OW32251   2.071   2.160   4.946
10451SOL    HW132252   2.072   2.165   5.046
10451SOL    HW232253   1.984   2.122   4.915
10452SOL     OW32254   6.876   2.156   4.477
10452SOL    HW132255   6.974   2.137   4.470
10452SOL    HW232256   6.853   2.235   4.421
10453SOL     OW32257   2.745   5.826   4.264
10453SOL    HW132258   2.715   5.764   4.336
10453SOL    HW232259   2.677   5.828   4.191
10454SOL     OW32260   6.877   1.726   6.914
10454SOL    HW132261   6.861   1.736   6.816
10454SOL    HW232262   6.822   1.651   6.949
10455SOL     OW32263   0.790   5.847   3.069
10455SOL    HW132264   0.776   5.917   2.999
10455SOL    HW232265   0.704   5.798   3.085
10456SOL     OW32266   1.358   5.142   6.196
10456SOL    HW132267   1.363   5.227   6.247
10456SOL    HW232268   1.306   5.156   6.112
10457SOL     OW32269   4.363   1.546   1.052
10457SOL    HW132270   4.365   1.645   1.070
10457SOL    HW232271   4.268   1.515   1.046
10458SOL     OW32272   1.919   0.126   6.954
10458SOL    HW132273   1.830   0.151   6.992
10458SOL    HW232274   1.947   0.194   6.886
10459SOL     OW32275   5.609   6.084   0.934
10459SOL    HW132276   5.704   6.056   0.946
10459SOL    HW232277   5.574   6.122   1.020
10460SOL     OW32278   6.560   1.055   6.659
10460SOL    HW132279   6.629   0.984   6.641
10460SOL    HW232280   6.492   1.055   6.585
10461SOL     OW32281   6.712   4.189   5.676
10461SOL    HW132282   6.674   4.147   5.594
10461SOL    HW232283   6.749   4.280   5.654
10462SOL     OW32284   4.487   3.384   0.055
10462SOL    HW132285   4.562   3.448   0.064
10462SOL    HW232286   4.451   3.362   0.146
10463SOL     OW32287   4.577   2.723   5.167
10463SOL    HW132288   4.666   2.685   5.190
10463SOL    HW232289   4.561   2.806   5.222
10464SOL     OW32290   6.419   4.823   2.030
10464SOL    HW132291   6.472   4.872   2.101
10464SOL    HW232292   6.325   4.855   2.031
10465SOL     OW32293   5.253   4.238   0.451
10465SOL    HW132294   5.173   4.233   0.391
10465SOL    HW232295   5.224   4.265   0.543
10466SOL     OW32296   6.463   3.729   5.771
10466SOL    HW132297   6.479   3.709   5.675
10466SOL    HW232298   6.434   3.824   5.781
10467SOL     OW32299   0.474   3.317   6.879
10467SOL    HW132300   0.521   3.404   6.895
10467SOL    HW232301   0.388   3.316   6.930
10468SOL     OW32302   1.520   4.040   3.941
10468SOL    HW132303   1.461   4.004   4.013
10468SOL    HW232304   1.477   4.122   3.901
10469SOL     OW32305   1.358   0.760   4.246
10469SOL    HW132306   1.340   0.834   4.182
10469SOL    HW232307   1.442   0.713   4.219
10470SOL     OW32308   2.564   3.992   1.493
10470SOL    HW132309   2.566   4.059   1.418
10470SOL    HW232310   2.648   3.998   1.545
10471SOL     OW32311   2.172   4.476   5.846
10471SOL    HW132312   2.211   4.503   5.758
10471SOL    HW232313   2.072   4.475   5.839
10472SOL     OW32314   4.011   5.350   5.967
10472SOL    HW132315   3.998   5.435   5.916
10472SOL    HW232316   3.934   5.336   6.030
10473SOL     OW32317   6.049   5.687   0.589
10473SOL    HW132318   6.009   5.616   0.531
10473SOL    HW232319   5.983   5.716   0.658
10474SOL     OW32320   6.174   6.035   4.970
10474SOL    HW132321   6.121   6.065   4.891
10474SOL    HW232322   6.185   5.936   4.968
10475SOL     OW32323   0.039   5.827   1.665
10475SOL    HW132324   0.067   5.883   1.742
10475SOL    HW232325   6.983   5.868   1.621
10476SOL     OW32326   5.166   6.636   1.313
10476SOL    HW132327   5.217   6.550   1.312
10476SOL    HW232328   5.204   6.696   1.383
10477SOL     OW32329   6.838   5.877   3.554
10477SOL    HW132330   6.778   5.899   3.477
10477SOL    HW232331   6.928   5.851   3.519
10478SOL     OW32332   6.771   1.243   0.202
10478SOL    HW132333   6.836   1.167   0.199
10478SOL    HW232334   6.737   1.254   0.296
10479SOL     OW32335   0.236   4.491   2.940
10479SOL    HW132336   0.199   4.401   2.915
10479SOL    HW232337   0.276   4.534   2.859
10480SOL     OW32338   2.507   0.935   3.425
10480SOL    HW132339   2.539   1.030   3.428
10480SOL    HW232340   2.466   0.911   3.513
10481SOL     OW32341   5.971   0.445   2.104
10481SOL    HW132342   5.908   0.485   2.172
10481SOL    HW232343   6.065   0.470   2.127
10482SOL     OW32344   4.839   4.284   4.382
10482SOL    HW132345   4.928   4.278   4.336
10482SOL    HW232346   4.821   4.198   4.430
10483SOL     OW32347   6.232   1.105   6.612
10483SOL    HW132348   6.210   1.017   6.655
10483SOL    HW232349   6.290   1.090   6.532
10484SOL     OW32350   6.342   0.542   1.621
10484SOL    HW132351   6.260   0.595   1.597
10484SOL    HW232352   6.328   0.446   1.596
10485SOL     OW32353   5.654   3.307   5.786
10485SOL    HW132354   5.624   3.309   5.882
10485SOL    HW232355   5.714   3.385   5.768
10486SOL     OW32356   6.071   2.822   2.792
10486SOL    HW132357   6.048   2.731   2.828
10486SOL    HW232358   6.163   2.848   2.823
10487SOL     OW32359   3.957   6.909   2.948
10487SOL    HW132360   3.954   6.972   2.870
10487SOL    HW232361   3.866   6.904   2.990
10488SOL     OW32362   4.216   3.820   6.686
10488SOL    HW132363   4.258   3.816   6.595
10488SOL    HW232364   4.217   3.914   6.720
10489SOL     OW32365   1.798   5.202   5.276
10489SOL    HW132366   1.837   5.110   5.271
10489SOL    HW232367   1.795   5.242   5.184
10490SOL     OW32368   6.007   0.555   4.785
10490SOL    HW132369   5.952   0.481   4.745
10490SOL    HW232370   5.947   0.624   4.825
10491SOL     OW32371   6.680   5.860   5.077
10491SOL    HW132372   6.770   5.833   5.040
10491SOL    HW232373   6.658   5.953   5.047
10492SOL     OW32374   5.024   3.618   5.550
10492SOL    HW132375   5.037   3.542   5.487
10492SOL    HW232376   4.988   3.697   5.500
10493SOL     OW32377   3.479   1.424   0.238
10493SOL    HW132378   3.483   1.514   0.282
10493SOL    HW232379   3.387   1.387   0.246
10494SOL     OW32380   5.617   1.437   5.039
10494SOL    HW132381   5.568   1.397   4.961
10494SOL    HW232382   5.607   1.377   5.119
10495SOL     OW32383   0.883   0.322   0.045
10495SOL    HW132384   0.913   0.342   0.139
10495SOL    HW232385   0.927   0.239   0.013
10496SOL     OW32386   6.882   6.940   5.308
10496SOL    HW132387   6.814   7.010   5.286
10496SOL    HW232388   6.954   6.941   5.239
10497SOL     OW32389   2.354   1.122   6.670
10497SOL    HW132390   2.321   1.216   6.674
10497SOL    HW232391   2.446   1.117   6.709
10498SOL     OW32392   3.440   5.730   5.538
10498SOL    HW132393   3.443   5.801   5.468
10498SOL    HW232394   3.362   5.745   5.598
10499SOL     OW32395   3.657   6.051   2.525
10499SOL    HW132396   3.721   6.126   2.504
10499SOL    HW232397   3.594   6.039   2.449
10500SOL     OW32398   2.216   2.060   6.660
10500SOL    HW132399   2.152   1.983   6.665
10500SOL    HW232400   2.215   2.109   6.747
10501SOL     OW32401   1.648   3.431   3.243
10501SOL    HW132402   1.565   3.376   3.233
10501SOL    HW232403   1.713   3.383   3.301
10502SOL     OW32404   2.874   6.487   5.022
10502SOL    HW132405   2.969   6.476   5.048
10502SOL    HW232406   2.815   6.479   5.102
10503SOL     OW32407   2.540   3.400   6.751
10503SOL    HW132408   2.447   3.362   6.744
10503SOL    HW232409   2.602   3.346   6.694
10504SOL     OW32410   2.125   3.112   0.514
10504SOL    HW132411   2.215   3.149   0.490
10504SOL    HW232412   2.116   3.107   0.614
10505SOL     OW32413   0.018   6.051   0.106
10505SOL    HW132414   0.081   5.992   0.055
10505SOL    HW232415   0.024   6.030   0.204
10506SOL     OW32416   6.887   5.260   5.991
10506SOL    HW132417   6.820   5.197   6.030
10506SOL    HW232418   6.864   5.279   5.896
10507SOL     OW32419   3.179   1.152   3.576
10507SOL    HW132420   3.263   1.168   3.627
10507SOL    HW232421   3.103   1.140   3.640
10508SOL     OW32422   5.160   5.127   3.255
10508SOL    HW132423   5.138   5.217   3.294
10508SOL    HW232424   5.260   5.118   3.248
10509SOL     OW32425   2.239   1.076   5.221
10509SOL    HW132426   2.338   1.083   5.232
10509SOL    HW232427   2.211   1.120   5.136
10510SOL     OW32428   5.809   0.532   6.281
10510SOL    HW132429   5.727   0.476   6.263
10510SOL    HW232430   5.882   0.472   6.315
10511SOL     OW32431   6.726   2.582   1.733
10511SOL    HW132432   6.825   2.599   1.733
10511SOL    HW232433   6.687   2.615   1.819
10512SOL     OW32434   2.138   6.880   6.768
10512SOL    HW132435   2.176   6.919   6.852
10512SOL    HW232436   2.156   6.781   6.767
10513SOL     OW32437   6.655   2.535   0.918
10513SOL    HW132438   6.666   2.572   0.825
10513SOL    HW232439   6.658   2.610   0.984
10514SOL     OW32440   1.982   2.857   1.553
10514SOL    HW132441   2.021   2.770   1.523
10514SOL    HW232442   2.014   2.877   1.646
10515SOL     OW32443   0.156   3.619   4.824
10515SOL    HW132444   0.061   3.594   4.841
10515SOL    HW232445   0.166   3.719   4.832
10516SOL     OW32446   2.736   6.775   0.437
10516SOL    HW132447   2.747   6.715   0.358
10516SOL    HW232448   2.751   6.722   0.521
10517SOL     OW32449   0.471   2.554   3.610
10517SOL    HW132450   0.554   2.551   3.666
10517SOL    HW232451   0.423   2.467   3.615
10518SOL     OW32452   0.573   6.340   2.987
10518SOL    HW132453   0.530   6.366   2.901
10518SOL    HW232454   0.502   6.331   3.058
10519SOL     OW32455   3.998   3.211   5.304
10519SOL    HW132456   4.054   3.145   5.354
10519SOL    HW232457   4.058   3.279   5.261
10520SOL     OW32458   3.031   4.879   6.775
10520SOL    HW132459   3.083   4.908   6.694
10520SOL    HW232460   3.089   4.883   6.856
10521SOL     OW32461   6.456   5.232   2.373
10521SOL    HW132462   6.473   5.321   2.331
10521SOL    HW232463   6.507   5.226   2.459
10522SOL     OW32464   6.006   6.778   2.645
10522SOL    HW132465   5.911   6.750   2.648
10522SOL    HW232466   6.013   6.874   2.672
10523SOL     OW32467   5.870   6.962   6.541
10523SOL    HW132468   5.786   6.930   6.584
10523SOL    HW232469   5.903   0.019   6.590
10524SOL     OW32470   4.696   1.092   5.227
10524SOL    HW132471   4.624   1.151   5.263
10524SOL    HW232472   4.765   1.077   5.298
10525SOL     OW32473   2.030   0.456   5.373
10525SOL    HW132474   1.943   0.502   5.351
10525SOL    HW232475   2.012   0.363   5.404
10526SOL     OW32476   4.419   5.621   2.420
10526SOL    HW132477   4.508   5.648   2.457
10526SOL    HW232478   4.348   5.638   2.489
10527SOL     OW32479   1.866   2.871   4.018
10527SOL    HW132480   1.922   2.792   3.994
10527SOL    HW232481   1.814   2.852   4.101
10528SOL     OW32482   5.834   4.476   6.317
10528SOL    HW132483   5.766   4.448   6.385
10528SOL    HW232484   5.899   4.401   6.303
10529SOL     OW32485   6.944   5.755   5.063
10529SOL    HW132486   7.012   5.719   4.999
10529SOL    HW232487   6.875   5.685   5.081
10530SOL     OW32488   1.321   1.535   4.930
10530SOL    HW132489   1.237   1.555   4.879
10530SOL    HW232490   1.315   1.444   4.970
10531SOL     OW32491   2.653   2.315   4.507
10531SOL    HW132492   2.667   2.338   4.411
10531SOL    HW232493   2.740   2.325   4.557
10532SOL     OW32494   3.550   3.411   4.479
10532SOL    HW132495   3.632   3.457   4.445
10532SOL    HW232496   3.545   3.421   4.579
10533SOL     OW32497   3.716   0.716   6.208
10533SOL    HW132498   3.735   0.791   6.272
10533SOL    HW232499   3.790   0.648   6.215
10534SOL     OW32500   5.719   4.411   2.065
10534SOL    HW132501   5.744   4.428   1.969
10534SOL    HW232502   5.802   4.401   2.120
10535SOL     OW32503   0.482   1.435   1.678
10535SOL    HW132504   0.532   1.363   1.727
10535SOL    HW232505   0.524   1.524   1.697
10536SOL     OW32506   5.858   5.827   2.946
10536SOL    HW132507   5.871   5.921   2.916
10536SOL    HW232508   5.935   5.771   2.914
10537SOL     OW32509   6.382   5.434   1.367
10537SOL    HW132510   6.441   5.481   1.433
10537SOL    HW232511   6.310   5.497   1.337
10538SOL     OW32512   4.401   3.377   6.573
10538SOL    HW132513   4.498   3.359   6.559
10538SOL    HW232514   4.381   3.380   6.671
10539SOL     OW32515   1.122   2.943   5.072
10539SOL    HW132516   1.192   2.919   5.005
10539SOL    HW232517   1.148   3.028   5.118
10540SOL     OW32518   3.544   1.009   0.697
10540SOL    HW132519   3.475   1.058   0.752
10540SOL    HW232520   3.564   0.922   0.741
10541SOL     OW32521   2.964   2.257   1.520
10541SOL    HW132522   2.866   2.239   1.509
10541SOL    HW232523   2.991   2.237   1.614
10542SOL     OW32524   2.179   2.219   0.660
10542SOL    HW132525   2.244   2.181   0.726
10542SOL    HW232526   2.153   2.148   0.595
10543SOL     OW32527   2.564   0.368   4.175
10543SOL    HW132528   2.655   0.368   4.217
10543SOL    HW232529   2.570   0.324   4.085
10544SOL     OW32530   0.240   2.147   1.023
10544SOL    HW132531   0.223   2.132   1.121
10544SOL    HW232532   0.246   2.245   1.005
10545SOL     OW32533   4.169   1.194   3.035
10545SOL    HW132534   4.216   1.264   3.088
10545SOL    HW232535   4.210   1.188   2.944
10546SOL     OW32536   4.664   0.371   5.010
10546SOL    HW132537   4.564   0.365   5.019
10546SOL    HW232538   4.697   0.451   5.061
10547SOL     OW32539   4.975   6.355   1.874
10547SOL    HW132540   4.960   6.317   1.965
10547SOL    HW232541   4.923   6.440   1.864
10548SOL     OW32542   4.476   4.074   5.366
10548SOL    HW132543   4.430   4.162   5.360
10548SOL    HW232544   4.571   4.088   5.394
10549SOL     OW32545   0.756   1.140   2.056
10549SOL    HW132546   0.785   1.063   1.998
10549SOL    HW232547   0.834   1.172   2.109
10550SOL     OW32548   4.576   6.953   5.035
10550SOL    HW132549   4.533   6.995   5.115
10550SOL    HW232550   4.622   7.024   4.981
10551SOL     OW32551   1.899   2.963   6.129
10551SOL    HW132552   1.842   2.882   6.147
10551SOL    HW232553   1.949   2.951   6.044
10552SOL     OW32554   3.118   1.213   5.533
10552SOL    HW132555   3.162   1.124   5.520
10552SOL    HW232556   3.033   1.201   5.585
10553SOL     OW32557   2.700   4.699   6.581
10553SOL    HW132558   2.673   4.622   6.522
10553SOL    HW232559   2.755   4.665   6.657
10554SOL     OW32560   6.117   3.496   6.102
10554SOL    HW132561   6.180   3.501   6.025
10554SOL    HW232562   6.082   3.403   6.112
10555SOL     OW32563   3.387   2.367   0.919
10555SOL    HW132564   3.318   2.390   0.988
10555SOL    HW232565   3.446   2.294   0.953
10556SOL     OW32566   1.810   5.109   3.951
10556SOL    HW132567   1.890   5.048   3.945
10556SOL    HW232568   1.736   5.072   3.895
10557SOL     OW32569   5.392   1.499   2.909
10557SOL    HW132570   5.340   1.584   2.909
10557SOL    HW232571   5.395   1.462   2.817
10558SOL     OW32572   5.904   5.662   5.826
10558SOL    HW132573   5.979   5.606   5.794
10558SOL    HW232574   5.851   5.612   5.894
10559SOL     OW32575   4.208   2.910   1.383
10559SOL    HW132576   4.294   2.936   1.340
10559SOL    HW232577   4.207   2.944   1.477
10560SOL     OW32578   0.187   1.951   4.034
10560SOL    HW132579   0.245   1.938   3.953
10560SOL    HW232580   0.091   1.960   4.005
10561SOL     OW32581   2.058   3.746   6.675
10561SOL    HW132582   1.970   3.732   6.631
10561SOL    HW232583   2.085   3.842   6.666
10562SOL     OW32584   4.407   2.021   0.756
10562SOL    HW132585   4.444   2.074   0.680
10562SOL    HW232586   4.426   2.068   0.842
10563SOL     OW32587   1.517   2.355   2.102
10563SOL    HW132588   1.434   2.402   2.133
10563SOL    HW232589   1.583   2.423   2.071
10564SOL     OW32590   0.106   2.001   2.557
10564SOL    HW132591   0.120   1.966   2.464
10564SOL    HW232592   0.065   1.930   2.613
10565SOL     OW32593   5.197   2.315   5.019
10565SOL    HW132594   5.134   2.283   5.090
10565SOL    HW232595   5.291   2.294   5.046
10566SOL     OW32596   5.053   5.680   0.204
10566SOL    HW132597   5.011   5.606   0.256
10566SOL    HW232598   5.069   5.650   0.110
10567SOL     OW32599   2.595   5.510   5.135
10567SOL    HW132600   2.564   5.488   5.043
10567SOL    HW232601   2.535   5.465   5.202
10568SOL     OW32602   3.871   0.526   3.752
10568SOL    HW132603   3.854   0.573   3.666
10568SOL    HW232604   3.789   0.528   3.809
10569SOL     OW32605   6.474   1.955   3.960
10569SOL    HW132606   6.504   1.861   3.975
10569SOL    HW232607   6.508   1.987   3.871
10570SOL     OW32608   1.224   3.578   1.487
10570SOL    HW132609   1.215   3.652   1.420
10570SOL    HW232610   1.237   3.491   1.440
10571SOL     OW32611   6.734   6.814   4.279
10571SOL    HW132612   6.765   6.720   4.297
10571SOL    HW232613   6.770   6.875   4.349
10572SOL     OW32614   6.122   3.506   2.894
10572SOL    HW132615   6.156   3.488   2.801
10572SOL    HW232616   6.068   3.590   2.894
10573SOL     OW32617   6.305   5.220   5.658
10573SOL    HW132618   6.234   5.149   5.651
10573SOL    HW232619   6.343   5.218   5.751
10574SOL     OW32620   0.528   2.135   2.357
10574SOL    HW132621   0.599   2.205   2.365
10574SOL    HW232622   0.566   2.046   2.380
10575SOL     OW32623   6.976   7.024   6.032
10575SOL    HW132624   6.902   6.979   5.982
10575SOL    HW232625   6.942   0.086   6.071
10576SOL     OW32626   0.488   5.811   3.706
10576SOL    HW132627   0.392   5.828   3.683
10576SOL    HW232628   0.511   5.715   3.687
10577SOL     OW32629   0.153   2.730   5.906
10577SOL    HW132630   0.233   2.785   5.884
10577SOL    HW232631   0.124   2.678   5.826
10578SOL     OW32632   5.003   0.856   5.449
10578SOL    HW132633   5.082   0.852   5.388
10578SOL    HW232634   5.035   0.861   5.544
10579SOL     OW32635   5.771   6.395   1.064
10579SOL    HW132636   5.866   6.364   1.054
10579SOL    HW232637   5.720   6.329   1.119
10580SOL     OW32638   0.788   5.353   0.274
10580SOL    HW132639   0.835   5.271   0.307
10580SOL    HW232640   0.736   5.331   0.191
10581SOL     OW32641   4.233   2.280   2.806
10581SOL    HW132642   4.300   2.355   2.806
10581SOL    HW232643   4.163   2.299   2.875
10582SOL     OW32644   3.401   4.095   6.789
10582SOL    HW132645   3.438   4.173   6.738
10582SOL    HW232646   3.397   4.118   6.886
10583SOL     OW32647   4.905   0.974   1.212
10583SOL    HW132648   4.878   0.884   1.248
10583SOL    HW232649   4.829   1.038   1.221
10584SOL     OW32650   5.731   6.779   1.407
10584SOL    HW132651   5.740   6.680   1.397
10584SOL    HW232652   5.775   6.824   1.329
10585SOL     OW32653   3.030   4.442   6.692
10585SOL    HW132654   3.083   4.387   6.756
10585SOL    HW232655   3.081   4.453   6.606
10586SOL     OW32656   5.077   2.148   1.698
10586SOL    HW132657   5.087   2.222   1.765
10586SOL    HW232658   5.092   2.184   1.606
10587SOL     OW32659   7.006   3.685   0.429
10587SOL    HW132660   7.022   3.600   0.379
10587SOL    HW232661   0.008   3.672   0.525
10588SOL     OW32662   2.062   5.425   3.503
10588SOL    HW132663   2.069   5.512   3.551
10588SOL    HW232664   1.966   5.395   3.502
10589SOL     OW32665   6.332   1.137   4.355
10589SOL    HW132666   6.383   1.180   4.280
10589SOL    HW232667   6.240   1.112   4.322
10590SOL     OW32668   0.969   0.151   4.563
10590SOL    HW132669   0.968   0.070   4.505
10590SOL    HW232670   0.894   0.145   4.629
10591SOL     OW32671   1.460   2.533   1.371
10591SOL    HW132672   1.544   2.585   1.366
10591SOL    HW232673   1.480   2.440   1.402
10592SOL     OW32674   4.916   1.763   5.910
10592SOL    HW132675   4.881   1.856   5.916
10592SOL    HW232676   4.840   1.698   5.913
10593SOL     OW32677   1.724   3.715   2.314
10593SOL    HW132678   1.781   3.752   2.240
10593SOL    HW232679   1.631   3.751   2.305
10594SOL     OW32680   1.524   1.521   4.606
10594SOL    HW132681   1.554   1.616   4.602
10594SOL    HW232682   1.543   1.476   4.518
10595SOL     OW32683   1.807   5.669   4.905
10595SOL    HW132684   1.848   5.640   4.818
10595SOL    HW232685   1.720   5.621   4.917
10596SOL     OW32686   2.748   1.207   1.044
10596SOL    HW132687   2.679   1.134   1.040
10596SOL    HW232688   2.816   1.193   0.972
10597SOL     OW32689   1.678   0.870   3.861
10597SOL    HW132690   1.678   0.794   3.796
10597SOL    HW232691   1.726   0.843   3.944
10598SOL     OW32692   3.063   0.801   0.692
10598SOL    HW132693   3.026   0.780   0.782
10598SOL    HW232694   3.026   0.737   0.625
10599SOL     OW32695   4.638   0.109   6.138
10599SOL    HW132696   4.712   0.087   6.073
10599SOL    HW232697   4.674   0.104   6.232
10600SOL     OW32698   1.894   3.058   5.034
10600SOL    HW132699   1.977   3.065   4.979
10600SOL    HW232700   1.861   2.964   5.033
10601SOL     OW32701   4.197   6.023   5.306
10601SOL    HW132702   4.199   5.950   5.238
10601SOL    HW232703   4.123   6.087   5.284
10602SOL     OW32704   4.911   2.588   2.173
10602SOL    HW132705   4.957   2.639   2.100
10602SOL    HW232706   4.846   2.648   2.220
10603SOL     OW32707   0.805   5.525   5.322
10603SOL    HW132708   0.880   5.591   5.319
10603SOL    HW232709   0.779   5.508   5.417
10604SOL     OW32710   0.106   4.493   6.473
10604SOL    HW132711   0.150   4.511   6.385
10604SOL    HW232712   0.154   4.543   6.545
10605SOL     OW32713   1.122   5.068   0.141
10605SOL    HW132714   1.042   5.019   0.174
10605SOL    HW232715   1.177   5.007   0.083
10606SOL     OW32716   1.299   1.071   2.095
10606SOL    HW132717   1.371   1.141   2.097
10606SOL    HW232718   1.335   0.987   2.053
10607SOL     OW32719   5.506   3.941   0.194
10607SOL    HW132720   5.563   3.860   0.205
10607SOL    HW232721   5.564   4.022   0.185
10608SOL     OW32722   5.601   5.913   2.712
10608SOL    HW132723   5.596   5.814   2.702
10608SOL    HW232724   5.695   5.943   2.695
10609SOL     OW32725   3.878   6.513   2.994
10609SOL    HW132726   3.952   6.580   3.005
10609SOL    HW232727   3.915   6.428   2.956
10610SOL     OW32728   2.450   4.481   5.166
10610SOL    HW132729   2.357   4.451   5.146
10610SOL    HW232730   2.498   4.409   5.216
10611SOL     OW32731   5.004   2.200   6.003
10611SOL    HW132732   5.005   2.225   6.100
10611SOL    HW232733   5.087   2.148   5.982
10612SOL     OW32734   2.369   0.254   1.515
10612SOL    HW132735   2.353   0.215   1.424
10612SOL    HW232736   2.349   0.352   1.513
10613SOL     OW32737   1.223   6.507   6.851
10613SOL    HW132738   1.165   6.577   6.810
10613SOL    HW232739   1.290   6.550   6.911
10614SOL     OW32740   0.620   1.039   2.604
10614SOL    HW132741   0.536   1.036   2.658
10614SOL    HW232742   0.627   1.126   2.556
10615SOL     OW32743   0.341   6.530   5.969
10615SOL    HW132744   0.321   6.497   5.877
10615SOL    HW232745   0.268   6.591   6.000
10616SOL     OW32746   3.702   5.459   1.664
10616SOL    HW132747   3.737   5.376   1.620
10616SOL    HW232748   3.737   5.466   1.757
10617SOL     OW32749   6.270   2.053   6.503
10617SOL    HW132750   6.210   2.037   6.425
10617SOL    HW232751   6.306   2.147   6.499
10618SOL     OW32752   6.418   4.334   0.866
10618SOL    HW132753   6.443   4.237   0.862
10618SOL    HW232754   6.495   4.386   0.903
10619SOL     OW32755   0.162   3.657   3.455
10619SOL    HW132756   0.226   3.586   3.427
10619SOL    HW232757   0.069   3.619   3.456
10620SOL     OW32758   1.687   5.459   3.886
10620SOL    HW132759   1.647   5.514   3.813
10620SOL    HW232760   1.621   5.389   3.914
10621SOL     OW32761   3.777   0.695   0.727
10621SOL    HW132762   3.684   0.721   0.754
10621SOL    HW232763   3.774   0.606   0.682
10622SOL     OW32764   3.932   2.154   0.575
10622SOL    HW132765   3.968   2.236   0.620
10622SOL    HW232766   3.882   2.180   0.493
10623SOL     OW32767   0.444   1.414   4.081
10623SOL    HW132768   0.453   1.492   4.144
10623SOL    HW232769   0.510   1.424   4.006
10624SOL     OW32770   2.364   1.442   3.605
10624SOL    HW132771   2.421   1.505   3.657
10624SOL    HW232772   2.277   1.429   3.653
10625SOL     OW32773   0.636   2.714   1.125
10625SOL    HW132774   0.707   2.776   1.158
10625SOL    HW232775   0.576   2.689   1.201
10626SOL     OW32776   0.471   2.064   3.272
10626SOL    HW132777   0.521   2.121   3.206
10626SOL    HW232778   0.491   1.967   3.254
10627SOL     OW32779   3.767   5.321   4.556
10627SOL    HW132780   3.692   5.361   4.502
10627SOL    HW232781   3.843   5.386   4.560
10628SOL     OW32782   0.081   6.622   5.197
10628SOL    HW132783   0.050   6.527   5.198
10628SOL    HW232784   0.176   6.626   5.229
10629SOL     OW32785   3.399   4.534   6.699
10629SOL    HW132786   3.312   4.519   6.652
10629SOL    HW232787   3.382   4.554   6.795
10630SOL     OW32788   5.548   1.442   1.691
10630SOL    HW132789   5.627   1.476   1.744
10630SOL    HW232790   5.578   1.369   1.630
10631SOL     OW32791   1.492   0.009   4.140
10631SOL    HW132792   1.397   0.035   4.156
10631SOL    HW232793   1.552   0.074   4.187
10632SOL     OW32794   6.537   2.788   0.342
10632SOL    HW132795   6.540   2.691   0.321
10632SOL    HW232796   6.535   2.840   0.256
10633SOL     OW32797   1.517   5.079   6.817
10633SOL    HW132798   1.463   5.021   6.878
10633SOL    HW232799   1.606   5.097   6.858
10634SOL     OW32800   3.411   6.446   2.204
10634SOL    HW132801   3.465   6.461   2.287
10634SOL    HW232802   3.470   6.412   2.132
10635SOL     OW32803   0.952   0.539   1.248
10635SOL    HW132804   0.863   0.585   1.252
10635SOL    HW232805   0.991   0.550   1.157
10636SOL     OW32806   5.110   1.872   7.006
10636SOL    HW132807   5.161   1.933   0.042
10636SOL    HW232808   5.019   1.855   0.020
10637SOL     OW32809   3.404   3.747   6.601
10637SOL    HW132810   3.499   3.772   6.618
10637SOL    HW232811   3.347   3.829   6.600
10638SOL     OW32812   0.032   1.494   5.493
10638SOL    HW132813   0.041   1.566   5.562
10638SOL    HW232814   6.959   1.474   5.478
10639SOL     OW32815   3.468   2.113   4.511
10639SOL    HW132816   3.555   2.161   4.503
10639SOL    HW232817   3.471   2.030   4.454
10640SOL     OW32818   4.774   6.142   0.963
10640SOL    HW132819   4.753   6.113   0.869
10640SOL    HW232820   4.856   6.198   0.963
10641SOL     OW32821   3.454   6.826   6.856
10641SOL    HW132822   3.458   6.821   6.956
10641SOL    HW232823   3.360   6.809   6.826
10642SOL     OW32824   0.465   5.896   2.044
10642SOL    HW132825   0.384   5.870   2.097
10642SOL    HW232826   0.540   5.834   2.067
10643SOL     OW32827   3.336   3.549   5.985
10643SOL    HW132828   3.321   3.647   5.973
10643SOL    HW232829   3.300   3.500   5.905
10644SOL     OW32830   4.051   1.223   5.533
10644SOL    HW132831   4.120   1.170   5.483
10644SOL    HW232832   3.974   1.243   5.472
10645SOL     OW32833   1.633   0.506   3.183
10645SOL    HW132834   1.553   0.548   3.226
10645SOL    HW232835   1.678   0.447   3.250
10646SOL     OW32836   6.760   5.185   6.584
10646SOL    HW132837   6.710   5.243   6.647
10646SOL    HW232838   6.760   5.226   6.493
10647SOL     OW32839   6.667   6.037   1.409
10647SOL    HW132840   6.732   6.097   1.362
10647SOL    HW232841   6.670   5.946   1.369
10648SOL     OW32842   4.897   4.049   6.434
10648SOL    HW132843   4.890   4.012   6.342
10648SOL    HW232844   4.944   3.983   6.493
10649SOL     OW32845   6.712   5.086   6.117
10649SOL    HW132846   6.723   5.141   6.200
10649SOL    HW232847   6.743   4.993   6.135
10650SOL     OW32848   1.948   0.043   5.781
10650SOL    HW132849   2.015   0.010   5.848
10650SOL    HW232850   1.909   6.990   5.732
10651SOL     OW32851   1.674   0.550   5.601
10651SOL    HW132852   1.626   0.592   5.678
10651SOL    HW232853   1.746   0.611   5.569
10652SOL     OW32854   4.803   0.035   0.273
10652SOL    HW132855   4.901   0.029   0.296
10652SOL    HW232856   4.782   6.993   0.201
10653SOL     OW32857   5.910   3.969   3.983
10653SOL    HW132858   5.851   3.955   3.903
10653SOL    HW232859   5.975   3.893   3.991
10654SOL     OW32860   5.059   0.238   1.503
10654SOL    HW132861   5.129   0.231   1.574
10654SOL    HW232862   5.035   0.334   1.489
10655SOL     OW32863   2.881   6.000   0.829
10655SOL    HW132864   2.788   5.965   0.833
10655SOL    HW232865   2.906   6.041   0.917
10656SOL     OW32866   0.080   2.757   6.186
10656SOL    HW132867   0.156   2.768   6.250
10656SOL    HW232868   0.109   2.784   6.094
10657SOL     OW32869   5.996   0.222   0.272
10657SOL    HW132870   5.985   0.312   0.315
10657SOL    HW232871   5.951   0.153   0.328
10658SOL     OW32872   0.067   6.315   4.033
10658SOL    HW132873   0.135   6.370   4.081
10658SOL    HW232874   0.098   6.220   4.029
10659SOL     OW32875   5.636   1.239   1.513
10659SOL    HW132876   5.664   1.259   1.419
10659SOL    HW232877   5.568   1.166   1.513
10660SOL     OW32878   4.900   4.798   5.221
10660SOL    HW132879   4.985   4.847   5.203
10660SOL    HW232880   4.920   4.714   5.271
10661SOL     OW32881   0.130   0.671   1.996
10661SOL    HW132882   0.156   0.697   1.903
10661SOL    HW232883   0.084   0.582   1.993
10662SOL     OW32884   0.533   2.513   0.536
10662SOL    HW132885   0.560   2.417   0.530
10662SOL    HW232886   0.613   2.571   0.523
10663SOL     OW32887   0.899   2.434   1.923
10663SOL    HW132888   0.936   2.360   1.867
10663SOL    HW232889   0.833   2.397   1.988
10664SOL     OW32890   2.303   5.249   6.430
10664SOL    HW132891   2.249   5.309   6.489
10664SOL    HW232892   2.336   5.301   6.352
10665SOL     OW32893   5.528   2.292   6.582
10665SOL    HW132894   5.441   2.302   6.632
10665SOL    HW232895   5.513   2.242   6.498
10666SOL     OW32896   0.294   6.620   0.679
10666SOL    HW132897   0.224   6.657   0.740
10666SOL    HW232898   0.376   6.597   0.732
10667SOL     OW32899   3.112   2.262   5.441
10667SOL    HW132900   3.093   2.166   5.418
10667SOL    HW232901   3.135   2.312   5.358
10668SOL     OW32902   1.348   0.352   6.204
10668SOL    HW132903   1.296   0.373   6.286
10668SOL    HW232904   1.388   0.436   6.168
10669SOL     OW32905   2.429   5.474   6.622
10669SOL    HW132906   2.389   5.550   6.674
10669SOL    HW232907   2.410   5.388   6.669
10670SOL     OW32908   5.921   4.102   5.347
10670SOL    HW132909   5.999   4.128   5.404
10670SOL    HW232910   5.884   4.184   5.304
10671SOL     OW32911   2.406   2.676   3.328
10671SOL    HW132912   2.438   2.626   3.409
10671SOL    HW232913   2.338   2.743   3.356
10672SOL     OW32914   6.620   2.454   0.585
10672SOL    HW132915   6.571   2.475   0.500
10672SOL    HW232916   6.719   2.452   0.567
10673SOL     OW32917   3.396   4.193   3.386
10673SOL    HW132918   3.328   4.263   3.410
10673SOL    HW232919   3.351   4.117   3.341
10674SOL     OW32920   4.010   1.381   2.681
10674SOL    HW132921   4.039   1.286   2.669
10674SOL    HW232922   4.083   1.442   2.650
10675SOL     OW32923   1.127   1.913   5.160
10675SOL    HW132924   1.190   1.885   5.088
10675SOL    HW232925   1.165   1.889   5.249
10676SOL     OW32926   6.179   0.920   6.839
10676SOL    HW132927   6.125   0.879   6.912
10676SOL    HW232928   6.243   0.853   6.802
10677SOL     OW32929   4.762   0.953   6.680
10677SOL    HW132930   4.829   1.026   6.664
10677SOL    HW232931   4.810   0.866   6.691
10678SOL     OW32932   2.356   5.409   3.970
10678SOL    HW132933   2.286   5.354   4.015
10678SOL    HW232934   2.447   5.378   3.999
10679SOL     OW32935   5.928   5.609   3.980
10679SOL    HW132936   5.838   5.643   3.953
10679SOL    HW232937   5.977   5.577   3.899
10680SOL     OW32938   0.279   2.675   3.753
10680SOL    HW132939   0.344   2.622   3.698
10680SOL    HW232940   0.211   2.716   3.692
10681SOL     OW32941   0.475   3.267   6.611
10681SOL    HW132942   0.533   3.188   6.590
10681SOL    HW232943   0.484   3.289   6.708
10682SOL     OW32944   6.130   2.170   3.609
10682SOL    HW132945   6.221   2.174   3.568
10682SOL    HW232946   6.096   2.263   3.622
10683SOL     OW32947   0.574   0.265   4.608
10683SOL    HW132948   0.523   0.304   4.685
10683SOL    HW232949   0.521   0.278   4.524
10684SOL     OW32950   5.120   6.130   0.864
10684SOL    HW132951   5.046   6.198   0.865
10684SOL    HW232952   5.119   6.079   0.951
10685SOL     OW32953   6.739   2.264   3.291
10685SOL    HW132954   6.803   2.230   3.222
10685SOL    HW232955   6.658   2.301   3.246
10686SOL     OW32956   5.593   4.566   1.511
10686SOL    HW132957   5.500   4.580   1.544
10686SOL    HW232958   5.596   4.575   1.412
10687SOL     OW32959   0.283   5.398   1.001
10687SOL    HW132960   0.232   5.464   0.946
10687SOL    HW232961   0.376   5.431   1.016
10688SOL     OW32962   1.614   4.919   0.990
10688SOL    HW132963   1.591   4.877   1.078
10688SOL    HW232964   1.539   4.901   0.925
10689SOL     OW32965   0.140   0.698   1.702
10689SOL    HW132966   0.045   0.729   1.710
10689SOL    HW232967   0.201   0.770   1.734
10690SOL     OW32968   3.637   0.686   2.950
10690SOL    HW132969   3.586   0.697   2.864
10690SOL    HW232970   3.574   0.657   3.022
10691SOL     OW32971   5.285   1.630   1.409
10691SOL    HW132972   5.236   1.714   1.386
10691SOL    HW232973   5.352   1.648   1.481
10692SOL     OW32974   5.651   6.437   4.018
10692SOL    HW132975   5.605   6.351   4.039
10692SOL    HW232976   5.687   6.434   3.925
10693SOL     OW32977   4.386   2.284   4.460
10693SOL    HW132978   4.417   2.362   4.407
10693SOL    HW232979   4.391   2.306   4.558
10694SOL     OW32980   3.045   6.312   0.124
10694SOL    HW132981   3.025   6.228   0.174
10694SOL    HW232982   3.086   6.378   0.186
10695SOL     OW32983   6.110   2.738   5.841
10695SOL    HW132984   6.048   2.755   5.918
10695SOL    HW232985   6.204   2.755   5.869
10696SOL     OW32986   6.805   0.593   1.107
10696SOL    HW132987   6.741   0.590   1.183
10696SOL    HW232988   6.799   0.682   1.062
10697SOL     OW32989   3.069   5.945   2.758
10697SOL    HW132990   3.042   6.029   2.807
10697SOL    HW232991   2.997   5.876   2.768
10698SOL     OW32992   3.863   6.898   3.691
10698SOL    HW132993   3.959   6.879   3.708
10698SOL    HW232994   3.834   6.852   3.607
10699SOL     OW32995   0.045   4.271   3.179
10699SOL    HW132996   0.069   4.367   3.191
10699SOL    HW232997   0.124   4.220   3.145
10700SOL     OW32998   0.674   2.948   3.039
10700SOL    HW132999   0.682   2.932   2.941
10700SOL    HW233000   0.749   2.903   3.087
10701SOL     OW33001   2.468   6.758   1.465
10701SOL    HW133002   2.492   6.712   1.550
10701SOL    HW233003   2.505   6.851   1.465
10702SOL     OW33004   4.941   1.722   0.964
10702SOL    HW133005   4.965   1.690   0.873
10702SOL    HW233006   4.844   1.748   0.965
10703SOL     OW33007   3.563   4.172   4.065
10703SOL    HW133008   3.623   4.168   4.145
10703SOL    HW233009   3.619   4.172   3.982
10704SOL     OW33010   5.257   4.824   1.410
10704SOL    HW133011   5.164   4.843   1.379
10704SOL    HW233012   5.288   4.896   1.471
10705SOL     OW33013   1.091   2.910   0.004
10705SOL    HW133014   1.169   2.957   0.046
10705SOL    HW233015   1.122   2.864   6.945
10706SOL     OW33016   3.096   3.611   0.687
10706SOL    HW133017   3.019   3.563   0.729
10706SOL    HW233018   3.177   3.553   0.691
10707SOL     OW33019   6.304   0.717   6.731
10707SOL    HW133020   6.247   0.639   6.708
10707SOL    HW233021   6.391   0.711   6.683
10708SOL     OW33022   4.507   3.274   1.505
10708SOL    HW133023   4.447   3.351   1.483
10708SOL    HW233024   4.464   3.219   1.577
10709SOL     OW33025   1.096   1.487   6.173
10709SOL    HW133026   1.025   1.433   6.219
10709SOL    HW233027   1.073   1.584   6.179
10710SOL     OW33028   6.695   6.938   3.597
10710SOL    HW133029   6.635   6.867   3.561
10710SOL    HW233030   6.774   6.895   3.641
10711SOL     OW33031   2.013   4.010   5.346
10711SOL    HW133032   1.991   4.080   5.414
10711SOL    HW233033   1.947   3.935   5.354
10712SOL     OW33034   3.855   2.232   5.809
10712SOL    HW133035   3.824   2.281   5.890
10712SOL    HW233036   3.952   2.253   5.792
10713SOL     OW33037   2.845   0.265   0.382
10713SOL    HW133038   2.812   0.236   0.472
10713SOL    HW233039   2.847   0.365   0.377
10714SOL     OW33040   4.899   5.589   4.436
10714SOL    HW133041   4.891   5.675   4.485
10714SOL    HW233042   4.848   5.595   4.349
10715SOL     OW33043   5.753   0.105   2.516
10715SOL    HW133044   5.814   0.174   2.552
10715SOL    HW233045   5.709   0.055   2.591
10716SOL     OW33046   6.559   2.032   2.343
10716SOL    HW133047   6.595   1.942   2.369
10716SOL    HW233048   6.596   2.102   2.404
10717SOL     OW33049   0.543   6.469   1.143
10717SOL    HW133050   0.537   6.551   1.201
10717SOL    HW233051   0.452   6.430   1.131
10718SOL     OW33052   0.475   4.950   5.137
10718SOL    HW133053   0.563   4.912   5.107
10718SOL    HW233054   0.437   4.894   5.210
10719SOL     OW33055   3.577   6.206   3.458
10719SOL    HW133056   3.517   6.174   3.385
10719SOL    HW233057   3.578   6.306   3.458
10720SOL     OW33058   1.187   3.285   5.944
10720SOL    HW133059   1.185   3.385   5.943
10720SOL    HW233060   1.128   3.250   5.871
10721SOL     OW33061   5.322   1.116   4.402
10721SOL    HW133062   5.306   1.125   4.500
10721SOL    HW233063   5.259   1.175   4.352
10722SOL     OW33064   0.524   4.998   0.322
10722SOL    HW133065   0.520   4.932   0.247
10722SOL    HW233066   0.560   4.953   0.404
10723SOL     OW33067   0.073   4.272   6.239
10723SOL    HW133068   7.021   4.288   6.176
10723SOL    HW233069   0.109   4.180   6.224
10724SOL     OW33070   3.938   6.408   5.834
10724SOL    HW133071   3.872   6.481   5.850
10724SOL    HW233072   4.020   6.425   5.888
10725SOL     OW33073   6.787   0.255   5.501
10725SOL    HW133074   6.741   0.343   5.505
10725SOL    HW233075   6.845   0.252   5.419
10726SOL     OW33076   0.148   0.519   3.604
10726SOL    HW133077   0.164   0.580   3.527
10726SOL    HW233078   0.209   0.440   3.597
10727SOL     OW33079   5.135   5.804   6.236
10727SOL    HW133080   5.121   5.902   6.253
10727SOL    HW233081   5.108   5.752   6.318
10728SOL     OW33082   4.893   6.257   4.626
10728SOL    HW133083   4.937   6.305   4.550
10728SOL    HW233084   4.799   6.234   4.601
10729SOL     OW33085   6.630   3.106   4.418
10729SOL    HW133086   6.574   3.062   4.348
10729SOL    HW233087   6.612   3.205   4.418
10730SOL     OW33088   1.163   6.003   4.091
10730SOL    HW133089   1.132   5.981   3.998
10730SOL    HW233090   1.098   5.967   4.157
10731SOL     OW33091   5.044   4.246   5.179
10731SOL    HW133092   5.090   4.224   5.093
10731SOL    HW233093   4.946   4.234   5.168
10732SOL     OW33094   5.931   5.719   2.536
10732SOL    HW133095   5.939   5.787   2.609
10732SOL    HW233096   5.896   5.764   2.454
10733SOL     OW33097   0.778   1.613   6.160
10733SOL    HW133098   0.724   1.556   6.099
10733SOL    HW233099   0.722   1.641   6.238
10734SOL     OW33100   0.421   0.856   4.524
10734SOL    HW133101   0.510   0.891   4.555
10734SOL    HW233102   0.351   0.925   4.540
10735SOL     OW33103   0.547   0.771   1.929
10735SOL    HW133104   0.509   0.719   1.852
10735SOL    HW233105   0.473   0.822   1.974
10736SOL     OW33106   5.195   6.089   4.564
10736SOL    HW133107   5.293   6.072   4.550
10736SOL    HW233108   5.142   6.016   4.521
10737SOL     OW33109   6.193   0.966   0.109
10737SOL    HW133110   6.227   1.045   0.059
10737SOL    HW233111   6.251   0.887   0.091
10738SOL     OW33112   0.532   6.090   2.267
10738SOL    HW133113   0.530   6.023   2.193
10738SOL    HW233114   0.612   6.149   2.258
10739SOL     OW33115   5.040   2.635   4.129
10739SOL    HW133116   5.049   2.723   4.083
10739SOL    HW233117   5.132   2.597   4.145
10740SOL     OW33118   3.406   1.220   6.178
10740SOL    HW133119   3.406   1.200   6.080
10740SOL    HW233120   3.386   1.136   6.228
10741SOL     OW33121   2.259   2.949   3.937
10741SOL    HW133122   2.223   2.960   3.845
10741SOL    HW233123   2.220   3.019   3.997
10742SOL     OW33124   6.683   0.223   2.642
10742SOL    HW133125   6.717   0.243   2.734
10742SOL    HW233126   6.609   0.287   2.619
10743SOL     OW33127   3.494   2.501   5.846
10743SOL    HW133128   3.450   2.413   5.829
10743SOL    HW233129   3.591   2.495   5.823
10744SOL     OW33130   1.753   1.398   0.721
10744SOL    HW133131   1.661   1.367   0.696
10744SOL    HW233132   1.746   1.481   0.776
10745SOL     OW33133   3.790   5.512   2.310
10745SOL    HW133134   3.885   5.480   2.309
10745SOL    HW233135   3.745   5.485   2.225
10746SOL     OW33136   2.695   5.481   5.558
10746SOL    HW133137   2.755   5.402   5.546
10746SOL    HW233138   2.599   5.451   5.555
10747SOL     OW33139   6.677   0.339   4.916
10747SOL    HW133140   6.622   0.360   4.836
10747SOL    HW233141   6.746   0.270   4.892
10748SOL     OW33142   3.914   6.241   2.497
10748SOL    HW133143   3.919   6.155   2.447
10748SOL    HW233144   4.007   6.276   2.512
10749SOL     OW33145   5.109   2.429   2.351
10749SOL    HW133146   5.146   2.428   2.258
10749SOL    HW233147   5.084   2.522   2.376
10750SOL     OW33148   3.306   1.711   4.347
10750SOL    HW133149   3.313   1.731   4.445
10750SOL    HW233150   3.371   1.768   4.297
10751SOL     OW33151   5.780   6.067   3.771
10751SOL    HW133152   5.790   5.993   3.705
10751SOL    HW233153   5.693   6.114   3.756
10752SOL     OW33154   0.175   6.108   6.522
10752SOL    HW133155   0.143   6.070   6.436
10752SOL    HW233156   0.118   6.187   6.547
10753SOL     OW33157   4.575   6.705   4.892
10753SOL    HW133158   4.572   6.780   4.959
10753SOL    HW233159   4.628   6.629   4.930
10754SOL     OW33160   6.593   5.511   2.002
10754SOL    HW133161   6.553   5.520   1.910
10754SOL    HW233162   6.640   5.595   2.027
10755SOL     OW33163   0.774   1.451   2.253
10755SOL    HW133164   0.737   1.469   2.162
10755SOL    HW233165   0.812   1.535   2.291
10756SOL     OW33166   0.790   0.024   6.983
10756SOL    HW133167   0.829   7.023   6.894
10756SOL    HW233168   0.862   0.021   0.029
10757SOL     OW33169   0.084   2.617   2.104
10757SOL    HW133170   0.072   2.558   2.023
10757SOL    HW233171   0.074   2.713   2.077
10758SOL     OW33172   0.248   1.422   1.154
10758SOL    HW133173   0.266   1.518   1.173
10758SOL    HW233174   0.312   1.365   1.206
10759SOL     OW33175   3.402   5.432   5.654
10759SOL    HW133176   3.353   5.367   5.596
10759SOL    HW233177   3.492   5.451   5.614
10760SOL     OW33178   1.191   4.341   6.789
10760SOL    HW133179   1.115   4.297   6.839
10760SOL    HW233180   1.168   4.345   6.692
10761SOL     OW33181   1.526   1.420   6.658
10761SOL    HW133182   1.563   1.450   6.570
10761SOL    HW233183   1.588   1.354   6.701
10762SOL     OW33184   1.219   5.616   0.908
10762SOL    HW133185   1.124   5.589   0.922
10762SOL    HW233186   1.252   5.579   0.821
10763SOL     OW33187   5.002   1.510   2.301
10763SOL    HW133188   5.038   1.477   2.214
10763SOL    HW233189   4.928   1.575   2.285
10764SOL     OW33190   5.142   6.935   4.243
10764SOL    HW133191   5.052   6.954   4.201
10764SOL    HW233192   5.186   6.860   4.194
10765SOL     OW33193   7.001   2.871   1.991
10765SOL    HW133194   6.996   2.926   1.908
10765SOL    HW233195   0.036   2.915   2.058
10766SOL     OW33196   3.451   5.452   0.018
10766SOL    HW133197   3.409   5.475   6.955
10766SOL    HW233198   3.524   5.385   0.003
10767SOL     OW33199   1.530   5.548   6.616
10767SOL    HW133200   1.554   5.543   6.713
10767SOL    HW233201   1.436   5.581   6.607
10768SOL     OW33202   6.171   6.463   6.870
10768SOL    HW133203   6.229   6.506   6.939
10768SOL    HW233204   6.106   6.531   6.834
10769SOL     OW33205   3.006   3.875   4.667
10769SOL    HW133206   2.998   3.815   4.746
10769SOL    HW233207   3.049   3.961   4.695
10770SOL     OW33208   4.541   0.457   4.574
10770SOL    HW133209   4.610   0.461   4.647
10770SOL    HW233210   4.452   0.484   4.610
10771SOL     OW33211   5.070   6.300   5.746
10771SOL    HW133212   5.072   6.389   5.701
10771SOL    HW233213   5.124   6.304   5.830
10772SOL     OW33214   4.938   3.265   3.906
10772SOL    HW133215   4.895   3.312   3.983
10772SOL    HW233216   4.877   3.193   3.872
10773SOL     OW33217   0.834   3.483   0.453
10773SOL    HW133218   0.774   3.550   0.498
10773SOL    HW233219   0.894   3.442   0.522
10774SOL     OW33220   6.453   2.995   0.848
10774SOL    HW133221   6.369   2.967   0.894
10774SOL    HW233222   6.472   3.091   0.869
10775SOL     OW33223   2.155   4.665   6.437
10775SOL    HW133224   2.198   4.597   6.376
10775SOL    HW233225   2.158   4.631   6.531
10776SOL     OW33226   6.970   3.652   3.223
10776SOL    HW133227   6.940   3.635   3.316
10776SOL    HW233228   0.002   3.575   3.192
10777SOL     OW33229   1.003   6.325   1.877
10777SOL    HW133230   0.954   6.401   1.920
10777SOL    HW233231   0.938   6.252   1.855
10778SOL     OW33232   4.947   6.824   3.609
10778SOL    HW133233   4.908   6.907   3.649
10778SOL    HW233234   4.995   6.773   3.680
10779SOL     OW33235   5.830   2.816   5.316
10779SOL    HW133236   5.762   2.743   5.316
10779SOL    HW233237   5.820   2.872   5.398
10780SOL     OW33238   1.290   5.776   4.965
10780SOL    HW133239   1.377   5.820   4.988
10780SOL    HW233240   1.280   5.773   4.865
10781SOL     OW33241   5.972   2.536   5.494
10781SOL    HW133242   5.894   2.559   5.551
10781SOL    HW233243   6.050   2.594   5.520
10782SOL     OW33244   1.469   3.416   4.841
10782SOL    HW133245   1.531   3.380   4.910
10782SOL    HW233246   1.384   3.446   4.885
10783SOL     OW33247   1.395   3.993   4.174
10783SOL    HW133248   1.360   4.083   4.147
10783SOL    HW233249   1.443   4.000   4.261
10784SOL     OW33250   4.918   5.626   3.786
10784SOL    HW133251   4.887   5.719   3.803
10784SOL    HW233252   4.878   5.592   3.701
10785SOL     OW33253   1.664   5.815   1.951
10785SOL    HW133254   1.682   5.785   2.044
10785SOL    HW233255   1.591   5.760   1.911
10786SOL     OW33256   4.865   1.370   2.776
10786SOL    HW133257   4.868   1.394   2.680
10786SOL    HW233258   4.883   1.451   2.832
10787SOL     OW33259   2.929   1.286   3.747
10787SOL    HW133260   2.838   1.296   3.788
10787SOL    HW233261   2.995   1.341   3.797
10788SOL     OW33262   1.603   3.096   6.611
10788SOL    HW133263   1.521   3.052   6.575
10788SOL    HW233264   1.640   3.041   6.686
10789SOL     OW33265   6.819   2.660   2.940
10789SOL    HW133266   6.805   2.568   2.975
10789SOL    HW233267   6.909   2.693   2.966
10790SOL     OW33268   7.011   2.946   5.155
10790SOL    HW133269   6.976   3.011   5.223
10790SOL    HW233270   6.974   2.855   5.175
10791SOL     OW33271   2.342   2.539   3.069
10791SOL    HW133272   2.351   2.564   3.165
10791SOL    HW233273   2.262   2.584   3.030
10792SOL     OW33274   3.594   0.837   2.026
10792SOL    HW133275   3.649   0.804   2.102
10792SOL    HW233276   3.596   0.937   2.023
10793SOL     OW33277   3.502   1.922   3.571
10793SOL    HW133278   3.496   1.838   3.626
10793SOL    HW233279   3.574   1.912   3.503
10794SOL     OW33280   4.941   2.818   0.201
10794SOL    HW133281   4.922   2.721   0.215
10794SOL    HW233282   5.034   2.839   0.234
10795SOL     OW33283   6.309   2.381   3.320
10795SOL    HW133284   6.364   2.311   3.365
10795SOL    HW233285   6.235   2.338   3.269
10796SOL     OW33286   6.641   2.366   6.734
10796SOL    HW133287   6.598   2.275   6.738
10796SOL    HW233288   6.590   2.424   6.672
10797SOL     OW33289   5.586   4.466   6.736
10797SOL    HW133290   5.513   4.487   6.801
10797SOL    HW233291   5.670   4.513   6.763
10798SOL     OW33292   2.794   5.775   0.597
10798SOL    HW133293   2.856   5.705   0.633
10798SOL    HW233294   2.835   5.819   0.518
10799SOL     OW33295   1.827   0.703   3.143
10799SOL    HW133296   1.744   0.648   3.156
10799SOL    HW233297   1.846   0.710   3.045
10800SOL     OW33298   1.117   0.098   5.268
10800SOL    HW133299   1.101   0.010   5.315
10800SOL    HW233300   1.035   0.155   5.278
10801SOL     OW33301   2.773   6.138   6.927
10801SOL    HW133302   2.793   6.228   6.966
10801SOL    HW233303   2.715   6.087   6.991
10802SOL     OW33304   1.038   4.740   3.361
10802SOL    HW133305   1.035   4.808   3.434
10802SOL    HW233306   1.057   4.650   3.400
10803SOL     OW33307   0.128   4.226   4.440
10803SOL    HW133308   0.138   4.325   4.427
10803SOL    HW233309   0.218   4.184   4.448
10804SOL     OW33310   5.028   5.039   6.466
10804SOL    HW133311   5.053   5.119   6.412
10804SOL    HW233312   4.965   4.981   6.413
10805SOL     OW33313   5.825   6.067   6.418
10805SOL    HW133314   5.789   6.044   6.328
10805SOL    HW233315   5.749   6.089   6.479
10806SOL     OW33316   6.400   3.029   5.199
10806SOL    HW133317   6.342   3.054   5.276
10806SOL    HW233318   6.412   3.107   5.139
10807SOL     OW33319   4.454   2.543   5.014
10807SOL    HW133320   4.356   2.561   5.007
10807SOL    HW233321   4.500   2.621   5.056
10808SOL     OW33322   0.514   2.341   1.163
10808SOL    HW133323   0.457   2.324   1.082
10808SOL    HW233324   0.536   2.438   1.168
10809SOL     OW33325   0.797   0.954   2.839
10809SOL    HW133326   0.819   0.859   2.859
10809SOL    HW233327   0.775   0.964   2.742
10810SOL     OW33328   1.888   2.049   6.504
10810SOL    HW133329   1.880   2.017   6.410
10810SOL    HW233330   1.926   2.141   6.505
10811SOL     OW33331   4.701   5.305   6.368
10811SOL    HW133332   4.688   5.246   6.288
10811SOL    HW233333   4.676   5.399   6.344
10812SOL     OW33334   6.609   2.948   2.347
10812SOL    HW133335   6.621   2.912   2.254
10812SOL    HW233336   6.596   3.047   2.343
10813SOL     OW33337   2.806   6.121   2.198
10813SOL    HW133338   2.822   6.113   2.296
10813SOL    HW233339   2.870   6.187   2.159
10814SOL     OW33340   1.829   6.041   4.383
10814SOL    HW133341   1.816   6.069   4.478
10814SOL    HW233342   1.781   5.955   4.367
10815SOL     OW33343   5.562   3.008   5.913
10815SOL    HW133344   5.629   2.940   5.884
10815SOL    HW233345   5.525   3.055   5.833
10816SOL     OW33346   2.239   2.788   1.262
10816SOL    HW133347   2.337   2.805   1.268
10816SOL    HW233348   2.207   2.745   1.347
10817SOL     OW33349   3.708   1.565   1.907
10817SOL    HW133350   3.742   1.635   1.970
10817SOL    HW233351   3.692   1.606   1.817
10818SOL     OW33352   4.359   3.399   5.531
10818SOL    HW133353   4.277   3.444   5.566
10818SOL    HW233354   4.353   3.392   5.431
10819SOL     OW33355   2.122   3.365   4.780
10819SOL    HW133356   2.138   3.458   4.814
10819SOL    HW233357   2.082   3.370   4.688
10820SOL     OW33358   0.723   6.296   5.170
10820SOL    HW133359   0.792   6.327   5.105
10820SOL    HW233360   0.669   6.223   5.129
10821SOL     OW33361   6.891   0.502   6.483
10821SOL    HW133362   6.896   0.406   6.511
10821SOL    HW233363   6.924   0.560   6.557
10822SOL     OW33364   0.145   5.618   5.705
10822SOL    HW133365   0.233   5.663   5.690
10822SOL    HW233366   0.104   5.653   5.789
10823SOL     OW33367   2.527   2.379   0.456
10823SOL    HW133368   2.549   2.282   0.457
10823SOL    HW233369   2.610   2.432   0.440
10824SOL     OW33370   5.049   1.651   4.620
10824SOL    HW133371   5.043   1.656   4.720
10824SOL    HW233372   5.034   1.741   4.580
10825SOL     OW33373   4.600   1.478   2.316
10825SOL    HW133374   4.587   1.449   2.411
10825SOL    HW233375   4.511   1.498   2.275
10826SOL     OW33376   0.029   3.308   0.713
10826SOL    HW133377   0.127   3.308   0.691
10826SOL    HW233378   0.008   3.386   0.772
10827SOL     OW33379   6.960   2.836   4.823
10827SOL    HW133380   6.980   2.880   4.735
10827SOL    HW233381   6.959   2.905   4.895
10828SOL     OW33382   3.322   4.665   6.925
10828SOL    HW133383   3.278   4.749   6.956
10828SOL    HW233384   3.297   4.590   6.986
10829SOL     OW33385   1.572   3.804   0.994
10829SOL    HW133386   1.575   3.716   1.041
10829SOL    HW233387   1.547   3.790   0.898
10830SOL     OW33388   6.301   0.451   3.761
10830SOL    HW133389   6.381   0.396   3.736
10830SOL    HW233390   6.244   0.464   3.680
10831SOL     OW33391   5.329   2.931   2.328
10831SOL    HW133392   5.234   2.904   2.348
10831SOL    HW233393   5.390   2.854   2.348
10832SOL     OW33394   1.529   2.633   2.457
10832SOL    HW133395   1.464   2.630   2.382
10832SOL    HW233396   1.613   2.678   2.427
10833SOL     OW33397   3.104   0.230   4.626
10833SOL    HW133398   3.125   0.163   4.698
10833SOL    HW233399   3.008   0.256   4.631
10834SOL     OW33400   6.645   2.321   5.704
10834SOL    HW133401   6.657   2.420   5.698
10834SOL    HW233402   6.731   2.278   5.730
10835SOL     OW33403   0.688   0.949   0.717
10835SOL    HW133404   0.737   0.862   0.717
10835SOL    HW233405   0.677   0.980   0.622
10836SOL     OW33406   0.089   1.247   1.029
10836SOL    HW133407   0.008   1.292   0.993
10836SOL    HW233408   0.148   1.315   1.074
10837SOL     OW33409   1.543   5.555   0.694
10837SOL    HW133410   1.592   5.638   0.670
10837SOL    HW233411   1.446   5.567   0.673
10838SOL     OW33412   6.390   6.586   1.212
10838SOL    HW133413   6.427   6.493   1.208
10838SOL    HW233414   6.380   6.615   1.307
10839SOL     OW33415   2.734   1.520   6.489
10839SOL    HW133416   2.786   1.606   6.481
10839SOL    HW233417   2.638   1.538   6.470
10840SOL     OW33418   0.885   0.476   3.576
10840SOL    HW133419   0.824   0.453   3.501
10840SOL    HW233420   0.980   0.468   3.546
10841SOL     OW33421   4.432   4.506   0.042
10841SOL    HW133422   4.529   4.520   0.021
10841SOL    HW233423   4.423   4.442   0.118
10842SOL     OW33424   5.717   1.690   2.206
10842SOL    HW133425   5.672   1.756   2.266
10842SOL    HW233426   5.697   1.597   2.236
10843SOL     OW33427   0.969   2.214   1.028
10843SOL    HW133428   0.991   2.292   0.969
10843SOL    HW233429   0.933   2.139   0.972
10844SOL     OW33430   4.407   6.576   3.581
10844SOL    HW133431   4.442   6.488   3.550
10844SOL    HW233432   4.346   6.613   3.511
10845SOL     OW33433   2.399   3.482   1.264
10845SOL    HW133434   2.467   3.555   1.257
10845SOL    HW233435   2.397   3.449   1.359
10846SOL     OW33436   3.195   1.824   1.627
10846SOL    HW133437   3.225   1.906   1.579
10846SOL    HW233438   3.275   1.775   1.663
10847SOL     OW33439   5.247   1.738   5.469
10847SOL    HW133440   5.321   1.736   5.402
10847SOL    HW233441   5.206   1.829   5.471
10848SOL     OW33442   2.654   0.156   6.189
10848SOL    HW133443   2.623   0.140   6.283
10848SOL    HW233444   2.737   0.211   6.189
10849SOL     OW33445   0.616   4.622   4.916
10849SOL    HW133446   0.662   4.542   4.877
10849SOL    HW233447   0.565   4.594   4.997
10850SOL     OW33448   5.756   0.884   3.130
10850SOL    HW133449   5.843   0.879   3.179
10850SOL    HW233450   5.736   0.979   3.106
10851SOL     OW33451   5.066   2.826   0.550
10851SOL    HW133452   5.056   2.761   0.625
10851SOL    HW233453   5.162   2.854   0.543
10852SOL     OW33454   6.207   1.411   5.712
10852SOL    HW133455   6.134   1.351   5.745
10852SOL    HW233456   6.168   1.476   5.646
10853SOL     OW33457   1.524   6.747   5.814
10853SOL    HW133458   1.620   6.743   5.842
10853SOL    HW233459   1.485   6.835   5.839
10854SOL     OW33460   5.762   6.646   6.856
10854SOL    HW133461   5.732   6.740   6.874
10854SOL    HW233462   5.859   6.646   6.833
10855SOL     OW33463   1.018   5.449   6.630
10855SOL    HW133464   0.946   5.470   6.696
10855SOL    HW233465   0.976   5.428   6.542
10856SOL     OW33466   4.264   6.955   6.477
10856SOL    HW133467   4.175   6.913   6.490
10856SOL    HW233468   4.274   0.009   6.539
10857SOL     OW33469   6.126   6.897   4.869
10857SOL    HW133470   6.183   6.846   4.933
10857SOL    HW233471   6.167   6.892   4.778
10858SOL     OW33472   1.721   2.708   1.642
10858SOL    HW133473   1.807   2.736   1.683
10858SOL    HW233474   1.739   2.665   1.553
10859SOL     OW33475   1.999   4.840   1.865
10859SOL    HW133476   2.044   4.756   1.895
10859SOL    HW233477   1.932   4.868   1.934
10860SOL     OW33478   5.475   1.399   2.260
10860SOL    HW133479   5.574   1.383   2.257
10860SOL    HW233480   5.437   1.361   2.344
10861SOL     OW33481   2.504   4.778   1.428
10861SOL    HW133482   2.502   4.682   1.402
10861SOL    HW233483   2.586   4.797   1.482
10862SOL     OW33484   3.969   4.971   5.477
10862SOL    HW133485   3.897   5.031   5.440
10862SOL    HW233486   3.943   4.876   5.462
10863SOL     OW33487   0.351   0.257   4.398
10863SOL    HW133488   0.372   0.184   4.332
10863SOL    HW233489   0.255   0.282   4.391
10864SOL     OW33490   3.005   3.748   2.664
10864SOL    HW133491   3.078   3.679   2.668
10864SOL    HW233492   3.009   3.804   2.746
10865SOL     OW33493   3.794   2.131   2.291
10865SOL    HW133494   3.754   2.167   2.207
10865SOL    HW233495   3.765   2.036   2.304
10866SOL     OW33496   0.413   3.683   5.159
10866SOL    HW133497   0.316   3.664   5.147
10866SOL    HW233498   0.426   3.776   5.192
10867SOL     OW33499   5.075   3.072   0.437
10867SOL    HW133500   5.077   3.149   0.500
10867SOL    HW233501   5.061   2.987   0.488
10868SOL     OW33502   6.676   0.331   6.222
10868SOL    HW133503   6.650   0.237   6.239
10868SOL    HW233504   6.710   0.339   6.128
10869NA      NA33505   6.675   1.364   0.014
10870NA      NA33506   4.807   4.695   4.782
10871NA      NA33507   1.095   4.562   2.937
10872NA      NA33508   6.557   3.517   3.680
10873NA      NA33509   4.372   2.396   5.215
10874NA      NA33510   2.636   3.477   6.965
10875NA      NA33511   1.474   5.431   0.307
10876NA      NA33512   4.231   4.840   2.036
10877NA      NA33513   5.480   3.658   1.112
10878NA      NA33514   3.615   1.827   0.590
10879NA      NA33515   4.837   6.092   1.454
10880NA      NA33516   2.602   6.403   4.398
10881NA      NA33517   3.476   5.753   2.858
10882NA      NA33518   4.728   5.153   5.705
   7.02421   7.02421   7.02421
