Generated by trjconv : CNT in water t= 526.00000
33518
    1C        C    1   2.848   2.776   4.747
    1C        C    2   2.900   2.725   4.868
    1C        C    3   2.846   2.778   4.985
    1C        C    4   2.850   2.773   4.262
    1C        C    5   2.899   2.723   4.385
    1C        C    6   2.843   2.771   4.506
    1C        C    7   3.011   2.638   4.627
    1C        C    8   2.896   2.720   4.627
    1C        C    9   3.078   2.605   4.747
    1C        C   10   3.009   2.636   4.866
    1C        C   11   3.181   2.486   4.974
    1C        C   12   3.061   2.559   4.972
    1C        C   13   2.853   2.773   3.775
    1C        C   14   2.905   2.725   3.897
    1C        C   15   2.855   2.777   4.019
    1C        C   16   3.021   2.647   4.138
    1C        C   17   2.905   2.727   4.141
    1C        C   18   3.082   2.617   4.262
    1C        C   19   3.017   2.645   4.384
    1C        C   20   3.209   2.557   4.503
    1C        C   21   3.077   2.607   4.506
    1C        C   22   3.279   2.535   4.624
    1C        C   23   3.209   2.550   4.745
    1C        C   24   3.414   2.486   4.866
    1C        C   25   3.272   2.503   4.864
    1C        C   26   3.490   2.484   4.983
    1C        C   27   2.857   2.773   3.284
    1C        C   28   2.913   2.732   3.407
    1C        C   29   2.859   2.778   3.529
    1C        C   30   3.020   2.643   3.653
    1C        C   31   2.906   2.727   3.653
    1C        C   32   3.081   2.607   3.775
    1C        C   33   3.021   2.645   3.897
    1C        C   34   3.214   2.553   4.019
    1C        C   35   3.084   2.607   4.018
    1C        C   36   3.282   2.534   4.141
    1C        C   37   3.213   2.564   4.261
    1C        C   38   3.418   2.509   4.384
    1C        C   39   3.279   2.536   4.383
    1C        C   40   3.488   2.497   4.506
    1C        C   41   3.417   2.506   4.628
    1C        C   42   3.633   2.482   4.749
    1C        C   43   3.491   2.484   4.746
    1C        C   44   3.708   2.482   4.869
    1C        C   45   3.629   2.471   4.984
    1C        C   46   2.840   2.754   2.796
    1C        C   47   2.898   2.710   2.917
    1C        C   48   2.846   2.761   3.039
    1C        C   49   3.016   2.636   3.161
    1C        C   50   2.904   2.722   3.161
    1C        C   51   3.079   2.604   3.283
    1C        C   52   3.027   2.648   3.407
    1C        C   53   3.211   2.549   3.530
    1C        C   54   3.082   2.609   3.531
    1C        C   55   3.280   2.529   3.651
    1C        C   56   3.210   2.551   3.773
    1C        C   57   3.417   2.503   3.897
    1C        C   58   3.279   2.533   3.895
    1C        C   59   3.489   2.497   4.018
    1C        C   60   3.420   2.505   4.141
    1C        C   61   3.632   2.499   4.261
    1C        C   62   3.491   2.497   4.264
    1C        C   63   3.701   2.508   4.384
    1C        C   64   3.629   2.502   4.505
    1C        C   65   3.838   2.539   4.625
    1C        C   66   3.702   2.501   4.626
    1C        C   67   3.902   2.562   4.748
    1C        C   68   3.843   2.523   4.870
    1C        C   69   4.052   2.586   4.979
    1C        C   70   3.925   2.529   4.983
    1C        C   71   2.822   2.734   2.308
    1C        C   72   2.886   2.697   2.429
    1C        C   73   2.833   2.747   2.550
    1C        C   74   3.004   2.624   2.676
    1C        C   75   2.886   2.702   2.673
    1C        C   76   3.073   2.595   2.795
    1C        C   77   3.014   2.630   2.918
    1C        C   78   3.210   2.546   3.037
    1C        C   79   3.078   2.597   3.040
    1C        C   80   3.275   2.526   3.161
    1C        C   81   3.211   2.554   3.284
    1C        C   82   3.415   2.499   3.404
    1C        C   83   3.277   2.530   3.407
    1C        C   84   3.486   2.501   3.527
    1C        C   85   3.420   2.509   3.651
    1C        C   86   3.628   2.493   3.771
    1C        C   87   3.487   2.496   3.775
    1C        C   88   3.700   2.505   3.892
    1C        C   89   3.630   2.500   4.015
    1C        C   90   3.836   2.546   4.137
    1C        C   91   3.700   2.510   4.137
    1C        C   92   3.902   2.571   4.259
    1C        C   93   3.837   2.546   4.382
    1C        C   94   4.030   2.636   4.502
    1C        C   95   3.906   2.568   4.504
    1C        C   96   4.092   2.669   4.625
    1C        C   97   4.028   2.630   4.744
    1C        C   98   4.190   2.768   4.863
    1C        C   99   4.096   2.660   4.865
    1C        C  100   4.209   2.849   4.976
    1C        C  101   2.823   2.735   2.072
    1C        C  102   2.993   2.595   2.193
    1C        C  103   2.880   2.683   2.189
    1C        C  104   3.063   2.572   2.315
    1C        C  105   3.004   2.620   2.434
    1C        C  106   3.199   2.534   2.552
    1C        C  107   3.068   2.587   2.555
    1C        C  108   3.272   2.520   2.672
    1C        C  109   3.202   2.537   2.794
    1C        C  110   3.412   2.495   2.915
    1C        C  111   3.273   2.518   2.914
    1C        C  112   3.484   2.489   3.037
    1C        C  113   3.413   2.499   3.158
    1C        C  114   3.625   2.498   3.280
    1C        C  115   3.483   2.494   3.281
    1C        C  116   3.694   2.505   3.403
    1C        C  117   3.627   2.500   3.527
    1C        C  118   3.835   2.538   3.647
    1C        C  119   3.699   2.501   3.648
    1C        C  120   3.900   2.567   3.769
    1C        C  121   3.836   2.544   3.893
    1C        C  122   4.026   2.640   4.015
    1C        C  123   3.902   2.574   4.014
    1C        C  124   4.087   2.677   4.137
    1C        C  125   4.028   2.634   4.258
    1C        C  126   4.196   2.766   4.377
    1C        C  127   4.087   2.676   4.380
    1C        C  128   4.237   2.823   4.500
    1C        C  129   4.190   2.770   4.622
    1C        C  130   4.324   2.938   4.741
    1C        C  131   4.244   2.820   4.742
    1C        C  132   4.356   3.005   4.861
    1C        C  133   4.284   2.966   4.975
    1C        C  134   3.170   2.466   2.085
    1C        C  135   3.037   2.511   2.087
    1C        C  136   3.260   2.477   2.192
    1C        C  137   3.194   2.518   2.310
    1C        C  138   3.405   2.483   2.427
    1C        C  139   3.265   2.502   2.431
    1C        C  140   3.480   2.481   2.547
    1C        C  141   3.410   2.491   2.669
    1C        C  142   3.622   2.491   2.793
    1C        C  143   3.480   2.485   2.792
    1C        C  144   3.695   2.505   2.913
    1C        C  145   3.625   2.493   3.035
    1C        C  146   3.833   2.537   3.158
    1C        C  147   3.696   2.503   3.158
    1C        C  148   3.898   2.564   3.280
    1C        C  149   3.831   2.542   3.402
    1C        C  150   4.023   2.631   3.525
    1C        C  151   3.899   2.563   3.523
    1C        C  152   4.085   2.669   3.646
    1C        C  153   4.026   2.632   3.769
    1C        C  154   4.192   2.765   3.889
    1C        C  155   4.083   2.675   3.890
    1C        C  156   4.242   2.817   4.011
    1C        C  157   4.197   2.765   4.134
    1C        C  158   4.337   2.924   4.254
    1C        C  159   4.252   2.811   4.256
    1C        C  160   4.368   2.990   4.376
    1C        C  161   4.321   2.937   4.498
    1C        C  162   4.438   3.116   4.616
    1C        C  163   4.365   2.995   4.619
    1C        C  164   4.467   3.187   4.735
    1C        C  165   4.433   3.122   4.856
    1C        C  166   4.504   3.327   4.974
    1C        C  167   4.480   3.190   4.970
    1C        C  168   3.473   2.428   2.073
    1C        C  169   3.399   2.453   2.190
    1C        C  170   3.619   2.468   2.305
    1C        C  171   3.477   2.462   2.307
    1C        C  172   3.691   2.486   2.425
    1C        C  173   3.622   2.484   2.548
    1C        C  174   3.828   2.535   2.669
    1C        C  175   3.691   2.499   2.670
    1C        C  176   3.895   2.562   2.790
    1C        C  177   3.832   2.541   2.915
    1C        C  178   4.028   2.623   3.034
    1C        C  179   3.901   2.561   3.036
    1C        C  180   4.086   2.663   3.156
    1C        C  181   4.025   2.627   3.278
    1C        C  182   4.189   2.758   3.401
    1C        C  183   4.082   2.665   3.401
    1C        C  184   4.238   2.812   3.522
    1C        C  185   4.192   2.762   3.646
    1C        C  186   4.335   2.921   3.764
    1C        C  187   4.246   2.811   3.767
    1C        C  188   4.377   2.977   3.886
    1C        C  189   4.335   2.923   4.010
    1C        C  190   4.443   3.107   4.129
    1C        C  191   4.377   2.982   4.132
    1C        C  192   4.470   3.175   4.250
    1C        C  193   4.438   3.113   4.372
    1C        C  194   4.509   3.315   4.494
    1C        C  195   4.464   3.181   4.493
    1C        C  196   4.523   3.389   4.613
    1C        C  197   4.509   3.323   4.737
    1C        C  198   4.555   3.538   4.848
    1C        C  199   4.529   3.398   4.856
    1C        C  200   4.587   3.623   4.960
    1C        C  201   3.613   2.421   2.072
    1C        C  202   3.828   2.512   2.183
    1C        C  203   3.691   2.469   2.182
    1C        C  204   3.895   2.543   2.304
    1C        C  205   3.827   2.522   2.427
    1C        C  206   4.022   2.615   2.545
    1C        C  207   3.896   2.551   2.547
    1C        C  208   4.085   2.655   2.665
    1C        C  209   4.021   2.627   2.788
    1C        C  210   4.194   2.749   2.908
    1C        C  211   4.083   2.661   2.909
    1C        C  212   4.243   2.799   3.031
    1C        C  213   4.196   2.752   3.156
    1C        C  214   4.330   2.915   3.271
    1C        C  215   4.243   2.803   3.279
    1C        C  216   4.367   2.974   3.394
    1C        C  217   4.331   2.919   3.519
    1C        C  218   4.430   3.108   3.638
    1C        C  219   4.369   2.980   3.640
    1C        C  220   4.457   3.172   3.761
    1C        C  221   4.438   3.104   3.884
    1C        C  222   4.499   3.309   4.006
    1C        C  223   4.467   3.171   4.005
    1C        C  224   4.513   3.381   4.127
    1C        C  225   4.508   3.311   4.249
    1C        C  226   4.526   3.523   4.366
    1C        C  227   4.522   3.382   4.370
    1C        C  228   4.519   3.599   4.485
    1C        C  229   4.524   3.530   4.608
    1C        C  230   4.503   3.746   4.729
    1C        C  231   4.536   3.608   4.726
    1C        C  232   4.505   3.824   4.847
    1C        C  233   4.546   3.757   4.963
    1C        C  234   4.023   2.609   2.064
    1C        C  235   3.898   2.548   2.067
    1C        C  236   4.085   2.649   2.184
    1C        C  237   4.020   2.609   2.303
    1C        C  238   4.199   2.732   2.421
    1C        C  239   4.084   2.648   2.423
    1C        C  240   4.248   2.789   2.541
    1C        C  241   4.197   2.741   2.664
    1C        C  242   4.330   2.909   2.785
    1C        C  243   4.243   2.797   2.785
    1C        C  244   4.371   2.968   2.907
    1C        C  245   4.326   2.913   3.028
    1C        C  246   4.432   3.100   3.148
    1C        C  247   4.369   2.973   3.149
    1C        C  248   4.457   3.164   3.272
    1C        C  249   4.432   3.100   3.395
    1C        C  250   4.496   3.306   3.516
    1C        C  251   4.459   3.170   3.515
    1C        C  252   4.514   3.374   3.639
    1C        C  253   4.500   3.307   3.763
    1C        C  254   4.524   3.519   3.879
    1C        C  255   4.510   3.379   3.884
    1C        C  256   4.522   3.591   4.001
    1C        C  257   4.520   3.522   4.124
    1C        C  258   4.493   3.734   4.242
    1C        C  259   4.520   3.596   4.245
    1C        C  260   4.478   3.807   4.362
    1C        C  261   4.498   3.739   4.484
    1C        C  262   4.433   3.943   4.605
    1C        C  263   4.481   3.810   4.605
    1C        C  264   4.407   4.013   4.725
    1C        C  265   4.442   3.950   4.847
    1C        C  266   4.319   4.131   4.958
    1C        C  267   4.398   4.016   4.962
    1C        C  268   4.259   2.780   2.064
    1C        C  269   4.195   2.737   2.181
    1C        C  270   4.342   2.894   2.300
    1C        C  271   4.253   2.783   2.301
    1C        C  272   4.378   2.958   2.421
    1C        C  273   4.338   2.898   2.542
    1C        C  274   4.438   3.090   2.662
    1C        C  275   4.369   2.966   2.662
    1C        C  276   4.469   3.157   2.782
    1C        C  277   4.440   3.092   2.904
    1C        C  278   4.504   3.297   3.026
    1C        C  279   4.465   3.161   3.025
    1C        C  280   4.511   3.368   3.147
    1C        C  281   4.500   3.298   3.270
    1C        C  282   4.523   3.511   3.391
    1C        C  283   4.511   3.370   3.391
    1C        C  284   4.522   3.583   3.512
    1C        C  285   4.520   3.515   3.636
    1C        C  286   4.502   3.728   3.752
    1C        C  287   4.524   3.588   3.756
    1C        C  288   4.484   3.797   3.874
    1C        C  289   4.496   3.730   3.998
    1C        C  290   4.439   3.937   4.115
    1C        C  291   4.482   3.802   4.118
    1C        C  292   4.407   4.003   4.236
    1C        C  293   4.433   3.941   4.360
    1C        C  294   4.330   4.126   4.479
    1C        C  295   4.403   4.005   4.482
    1C        C  296   4.292   4.191   4.598
    1C        C  297   4.335   4.135   4.721
    1C        C  298   4.200   4.312   4.837
    1C        C  299   4.289   4.199   4.840
    1C        C  300   4.167   4.399   4.946
    1C        C  301   4.353   2.883   2.061
    1C        C  302   4.469   3.069   2.178
    1C        C  303   4.396   2.946   2.179
    1C        C  304   4.483   3.143   2.298
    1C        C  305   4.447   3.081   2.419
    1C        C  306   4.508   3.288   2.537
    1C        C  307   4.471   3.151   2.540
    1C        C  308   4.517   3.360   2.658
    1C        C  309   4.505   3.294   2.782
    1C        C  310   4.531   3.505   2.900
    1C        C  311   4.523   3.364   2.903
    1C        C  312   4.528   3.579   3.021
    1C        C  313   4.524   3.509   3.144
    1C        C  314   4.493   3.717   3.263
    1C        C  315   4.522   3.578   3.266
    1C        C  316   4.476   3.787   3.385
    1C        C  317   4.495   3.722   3.509
    1C        C  318   4.430   3.927   3.628
    1C        C  319   4.479   3.794   3.629
    1C        C  320   4.404   3.993   3.751
    1C        C  321   4.435   3.929   3.873
    1C        C  322   4.323   4.114   3.993
    1C        C  323   4.401   3.996   3.993
    1C        C  324   4.283   4.172   4.115
    1C        C  325   4.336   4.125   4.237
    1C        C  326   4.188   4.283   4.354
    1C        C  327   4.289   4.184   4.357
    1C        C  328   4.140   4.338   4.475
    1C        C  329   4.196   4.294   4.597
    1C        C  330   4.024   4.431   4.715
    1C        C  331   4.141   4.351   4.714
    1C        C  332   3.971   4.495   4.830
    1C        C  333   4.053   4.480   4.943
    1C        C  334   4.556   3.268   2.065
    1C        C  335   4.531   3.130   2.064
    1C        C  336   4.537   3.352   2.175
    1C        C  337   4.517   3.281   2.296
    1C        C  338   4.526   3.498   2.411
    1C        C  339   4.525   3.356   2.415
    1C        C  340   4.528   3.570   2.532
    1C        C  341   4.529   3.501   2.656
    1C        C  342   4.504   3.713   2.773
    1C        C  343   4.526   3.574   2.777
    1C        C  344   4.481   3.782   2.895
    1C        C  345   4.501   3.717   3.019
    1C        C  346   4.425   3.916   3.140
    1C        C  347   4.477   3.785   3.141
    1C        C  348   4.394   3.982   3.261
    1C        C  349   4.431   3.920   3.383
    1C        C  350   4.328   4.108   3.503
    1C        C  351   4.401   3.987   3.504
    1C        C  352   4.280   4.166   3.623
    1C        C  353   4.323   4.108   3.745
    1C        C  354   4.182   4.265   3.868
    1C        C  355   4.280   4.163   3.867
    1C        C  356   4.123   4.308   3.989
    1C        C  357   4.176   4.265   4.112
    1C        C  358   4.009   4.399   4.232
    1C        C  359   4.126   4.319   4.233
    1C        C  360   3.950   4.437   4.354
    1C        C  361   4.019   4.413   4.475
    1C        C  362   3.830   4.518   4.593
    1C        C  363   3.958   4.458   4.593
    1C        C  364   3.762   4.548   4.714
    1C        C  365   3.840   4.547   4.832
    1C        C  366   3.629   4.594   4.950
    1C        C  367   3.766   4.570   4.949
    1C        C  368   4.516   3.565   2.051
    1C        C  369   4.523   3.493   2.171
    1C        C  370   4.501   3.709   2.288
    1C        C  371   4.516   3.569   2.290
    1C        C  372   4.491   3.780   2.410
    1C        C  373   4.507   3.710   2.531
    1C        C  374   4.431   3.911   2.649
    1C        C  375   4.489   3.782   2.651
    1C        C  376   4.393   3.971   2.771
    1C        C  377   4.431   3.914   2.895
    1C        C  378   4.328   4.101   3.013
    1C        C  379   4.399   3.979   3.016
    1C        C  380   4.278   4.156   3.133
    1C        C  381   4.321   4.103   3.256
    1C        C  382   4.180   4.256   3.380
    1C        C  383   4.282   4.158   3.380
    1C        C  384   4.125   4.306   3.500
    1C        C  385   4.178   4.263   3.624
    1C        C  386   4.006   4.386   3.743
    1C        C  387   4.125   4.309   3.746
    1C        C  388   3.946   4.423   3.865
    1C        C  389   4.006   4.388   3.988
    1C        C  390   3.815   4.482   4.109
    1C        C  391   3.944   4.425   4.109
    1C        C  392   3.751   4.512   4.232
    1C        C  393   3.822   4.496   4.353
    1C        C  394   3.617   4.558   4.474
    1C        C  395   3.755   4.527   4.474
    1C        C  396   3.545   4.566   4.596
    1C        C  397   3.622   4.564   4.715
    1C        C  398   3.411   4.553   4.842
    1C        C  399   3.550   4.577   4.836
    1C        C  400   3.342   4.517   4.958
    1C        C  401   4.511   3.704   2.050
    1C        C  402   4.453   3.916   2.165
    1C        C  403   4.493   3.780   2.166
    1C        C  404   4.414   3.978   2.285
    1C        C  405   4.440   3.912   2.407
    1C        C  406   4.331   4.098   2.529
    1C        C  407   4.403   3.977   2.527
    1C        C  408   4.278   4.150   2.649
    1C        C  409   4.315   4.089   2.771
    1C        C  410   4.175   4.250   2.891
    1C        C  411   4.278   4.153   2.891
    1C        C  412   4.120   4.296   3.012
    1C        C  413   4.174   4.252   3.135
    1C        C  414   4.003   4.375   3.256
    1C        C  415   4.123   4.299   3.258
    1C        C  416   3.940   4.408   3.378
    1C        C  417   4.005   4.381   3.500
    1C        C  418   3.812   4.472   3.619
    1C        C  419   3.944   4.421   3.621
    1C        C  420   3.746   4.495   3.742
    1C        C  421   3.815   4.476   3.864
    1C        C  422   3.610   4.531   3.985
    1C        C  423   3.749   4.505   3.986
    1C        C  424   3.542   4.544   4.109
    1C        C  425   3.613   4.541   4.231
    1C        C  426   3.403   4.551   4.356
    1C        C  427   3.544   4.553   4.354
    1C        C  428   3.331   4.552   4.478
    1C        C  429   3.404   4.561   4.599
    1C        C  430   3.196   4.527   4.723
    1C        C  431   3.336   4.552   4.722
    1C        C  432   3.127   4.496   4.843
    1C        C  433   3.205   4.491   4.959
    1C        C  434   4.386   4.121   2.052
    1C        C  435   4.447   3.995   2.049
    1C        C  436   4.310   4.166   2.164
    1C        C  437   4.344   4.102   2.287
    1C        C  438   4.183   4.247   2.403
    1C        C  439   4.286   4.151   2.406
    1C        C  440   4.126   4.295   2.523
    1C        C  441   4.181   4.252   2.646
    1C        C  442   4.005   4.372   2.766
    1C        C  443   4.126   4.298   2.768
    1C        C  444   3.941   4.406   2.887
    1C        C  445   4.001   4.373   3.010
    1C        C  446   3.809   4.459   3.131
    1C        C  447   3.941   4.409   3.133
    1C        C  448   3.743   4.485   3.253
    1C        C  449   3.811   4.464   3.375
    1C        C  450   3.607   4.526   3.494
    1C        C  451   3.745   4.494   3.497
    1C        C  452   3.541   4.539   3.618
    1C        C  453   3.610   4.531   3.741
    1C        C  454   3.399   4.546   3.865
    1C        C  455   3.540   4.544   3.863
    1C        C  456   3.331   4.542   3.989
    1C        C  457   3.401   4.549   4.111
    1C        C  458   3.195   4.506   4.235
    1C        C  459   3.333   4.540   4.234
    1C        C  460   3.131   4.486   4.359
    1C        C  461   3.195   4.515   4.482
    1C        C  462   2.999   4.437   4.604
    1C        C  463   3.125   4.501   4.604
    1C        C  464   2.935   4.402   4.725
    1C        C  465   2.992   4.448   4.847
    1C        C  466   2.803   4.337   4.960
    1C        C  467   2.905   4.433   4.960
    1C        C  468   4.126   4.287   2.046
    1C        C  469   4.192   4.246   2.163
    1C        C  470   4.006   4.365   2.278
    1C        C  471   4.128   4.292   2.281
    1C        C  472   3.944   4.399   2.401
    1C        C  473   4.008   4.372   2.524
    1C        C  474   3.812   4.460   2.645
    1C        C  475   3.943   4.407   2.644
    1C        C  476   3.744   4.484   2.767
    1C        C  477   3.811   4.462   2.889
    1C        C  478   3.606   4.523   3.009
    1C        C  479   3.743   4.487   3.010
    1C        C  480   3.533   4.531   3.130
    1C        C  481   3.606   4.519   3.251
    1C        C  482   3.394   4.537   3.377
    1C        C  483   3.535   4.531   3.373
    1C        C  484   3.325   4.538   3.501
    1C        C  485   3.400   4.546   3.621
    1C        C  486   3.192   4.504   3.745
    1C        C  487   3.329   4.539   3.743
    1C        C  488   3.127   4.483   3.869
    1C        C  489   3.193   4.512   3.990
    1C        C  490   3.001   4.424   4.115
    1C        C  491   3.127   4.487   4.113
    1C        C  492   2.943   4.388   4.239
    1C        C  493   3.003   4.427   4.361
    1C        C  494   2.830   4.305   4.486
    1C        C  495   2.938   4.395   4.483
    1C        C  496   2.777   4.254   4.606
    1C        C  497   2.825   4.313   4.725
    1C        C  498   2.672   4.162   4.848
    1C        C  499   2.755   4.277   4.843
    1C        C  500   2.601   4.120   4.961
    1C        C  501   4.006   4.357   2.040
    1C        C  502   3.814   4.460   2.157
    1C        C  503   3.943   4.401   2.157
    1C        C  504   3.745   4.477   2.279
    1C        C  505   3.812   4.448   2.400
    1C        C  506   3.607   4.505   2.523
    1C        C  507   3.745   4.474   2.522
    1C        C  508   3.535   4.518   2.644
    1C        C  509   3.606   4.513   2.766
    1C        C  510   3.394   4.530   2.887
    1C        C  511   3.535   4.530   2.887
    1C        C  512   3.323   4.524   3.009
    1C        C  513   3.392   4.532   3.132
    1C        C  514   3.186   4.499   3.256
    1C        C  515   3.323   4.535   3.255
    1C        C  516   3.120   4.478   3.379
    1C        C  517   3.188   4.506   3.500
    1C        C  518   2.997   4.419   3.623
    1C        C  519   3.124   4.481   3.623
    1C        C  520   2.941   4.379   3.747
    1C        C  521   3.003   4.416   3.868
    1C        C  522   2.842   4.285   3.997
    1C        C  523   2.947   4.379   3.993
    1C        C  524   2.792   4.239   4.121
    1C        C  525   2.835   4.297   4.242
    1C        C  526   2.702   4.133   4.365
    1C        C  527   2.785   4.248   4.365
    1C        C  528   2.663   4.074   4.487
    1C        C  529   2.691   4.142   4.608
    1C        C  530   2.586   3.961   4.731
    1C        C  531   2.637   4.094   4.730
    1C        C  532   2.543   3.904   4.854
    1C        C  533   2.532   3.998   4.962
    1C        C  534   3.622   4.559   2.046
    1C        C  535   3.756   4.520   2.045
    1C        C  536   3.538   4.530   2.159
    1C        C  537   3.606   4.510   2.282
    1C        C  538   3.393   4.523   2.401
    1C        C  539   3.534   4.516   2.403
    1C        C  540   3.322   4.515   2.523
    1C        C  541   3.394   4.513   2.645
    1C        C  542   3.183   4.487   2.767
    1C        C  543   3.322   4.514   2.766
    1C        C  544   3.117   4.469   2.891
    1C        C  545   3.185   4.494   3.012
    1C        C  546   2.995   4.405   3.136
    1C        C  547   3.119   4.472   3.135
    1C        C  548   2.937   4.370   3.260
    1C        C  549   2.995   4.413   3.381
    1C        C  550   2.831   4.280   3.508
    1C        C  551   2.936   4.374   3.504
    1C        C  552   2.787   4.230   3.633
    1C        C  553   2.837   4.284   3.753
    1C        C  554   2.702   4.123   3.877
    1C        C  555   2.788   4.235   3.876
    1C        C  556   2.669   4.061   4.000
    1C        C  557   2.714   4.121   4.120
    1C        C  558   2.602   3.946   4.249
    1C        C  559   2.668   4.071   4.244
    1C        C  560   2.571   3.881   4.370
    1C        C  561   2.594   3.951   4.490
    1C        C  562   2.537   3.749   4.617
    1C        C  563   2.566   3.887   4.613
    1C        C  564   2.515   3.682   4.740
    1C        C  565   2.523   3.763   4.857
    1C        C  566   2.534   3.547   4.978
    1C        C  567   2.527   3.686   4.975
    1C        C  568   3.324   4.479   2.042
    1C        C  569   3.397   4.512   2.157
    1C        C  570   3.185   4.477   2.281
    1C        C  571   3.324   4.511   2.279
    1C        C  572   3.117   4.459   2.403
    1C        C  573   3.183   4.489   2.524
    1C        C  574   2.988   4.404   2.648
    1C        C  575   3.114   4.467   2.646
    1C        C  576   2.931   4.366   2.772
    1C        C  577   2.991   4.406   2.893
    1C        C  578   2.828   4.270   3.018
    1C        C  579   2.934   4.364   3.016
    1C        C  580   2.784   4.219   3.142
    1C        C  581   2.836   4.271   3.262
    1C        C  582   2.699   4.114   3.387
    1C        C  583   2.785   4.226   3.386
    1C        C  584   2.665   4.056   3.511
    1C        C  585   2.705   4.114   3.633
    1C        C  586   2.595   3.936   3.759
    1C        C  587   2.663   4.060   3.757
    1C        C  588   2.571   3.874   3.883
    1C        C  589   2.604   3.936   4.006
    1C        C  590   2.541   3.737   4.130
    1C        C  591   2.574   3.875   4.130
    1C        C  592   2.531   3.670   4.254
    1C        C  593   2.537   3.744   4.374
    1C        C  594   2.509   3.535   4.498
    1C        C  595   2.520   3.676   4.497
    1C        C  596   2.518   3.465   4.620
    1C        C  597   2.517   3.540   4.740
    1C        C  598   2.535   3.329   4.864
    1C        C  599   2.526   3.470   4.862
    1C        C  600   2.533   3.251   4.981
    1C        C  601   3.192   4.442   2.044
    1C        C  602   2.983   4.397   2.159
    1C        C  603   3.115   4.452   2.160
    1C        C  604   2.931   4.353   2.284
    1C        C  605   2.988   4.401   2.404
    1C        C  606   2.823   4.272   2.531
    1C        C  607   2.926   4.368   2.527
    1C        C  608   2.776   4.217   2.652
    1C        C  609   2.826   4.271   2.773
    1C        C  610   2.692   4.108   2.898
    1C        C  611   2.778   4.219   2.896
    1C        C  612   2.657   4.048   3.021
    1C        C  613   2.696   4.108   3.143
    1C        C  614   2.593   3.927   3.269
    1C        C  615   2.656   4.054   3.267
    1C        C  616   2.567   3.867   3.394
    1C        C  617   2.597   3.932   3.515
    1C        C  618   2.529   3.732   3.640
    1C        C  619   2.570   3.868   3.638
    1C        C  620   2.516   3.666   3.764
    1C        C  621   2.531   3.739   3.884
    1C        C  622   2.509   3.529   4.013
    1C        C  623   2.521   3.670   4.007
    1C        C  624   2.507   3.457   4.134
    1C        C  625   2.512   3.531   4.255
    1C        C  626   2.533   3.321   4.379
    1C        C  627   2.514   3.461   4.378
    1C        C  628   2.554   3.253   4.501
    1C        C  629   2.537   3.325   4.621
    1C        C  630   2.598   3.122   4.745
    1C        C  631   2.553   3.257   4.744
    1C        C  632   2.621   3.054   4.868
    1C        C  633   2.562   3.114   4.984
    1C        C  634   2.778   4.308   2.057
    1C        C  635   2.887   4.396   2.052
    1C        C  636   2.749   4.232   2.171
    1C        C  637   2.816   4.270   2.289
    1C        C  638   2.678   4.111   2.413
    1C        C  639   2.765   4.222   2.412
    1C        C  640   2.638   4.052   2.535
    1C        C  641   2.686   4.108   2.655
    1C        C  642   2.586   3.921   2.779
    1C        C  643   2.651   4.046   2.777
    1C        C  644   2.562   3.858   2.903
    1C        C  645   2.589   3.924   3.025
    1C        C  646   2.529   3.722   3.151
    1C        C  647   2.564   3.859   3.148
    1C        C  648   2.511   3.658   3.276
    1C        C  649   2.527   3.731   3.396
    1C        C  650   2.509   3.521   3.523
    1C        C  651   2.517   3.662   3.518
    1C        C  652   2.516   3.452   3.646
    1C        C  653   2.512   3.525   3.767
    1C        C  654   2.530   3.317   3.893
    1C        C  655   2.510   3.457   3.891
    1C        C  656   2.550   3.249   4.016
    1C        C  657   2.530   3.317   4.138
    1C        C  658   2.601   3.117   4.260
    1C        C  659   2.547   3.248   4.260
    1C        C  660   2.629   3.052   4.382
    1C        C  661   2.597   3.118   4.502
    1C        C  662   2.711   2.940   4.624
    1C        C  663   2.630   3.056   4.625
    1C        C  664   2.753   2.882   4.746
    1C        C  665   2.704   2.937   4.867
    1C        C  666   2.745   2.874   4.985
    1C        C  667   2.688   4.023   2.059
    1C        C  668   2.687   4.106   2.172
    1C        C  669   2.592   3.913   2.296
    1C        C  670   2.647   4.044   2.293
    1C        C  671   2.556   3.850   2.417
    1C        C  672   2.579   3.923   2.536
    1C        C  673   2.516   3.719   2.660
    1C        C  674   2.559   3.854   2.658
    1C        C  675   2.512   3.651   2.783
    1C        C  676   2.533   3.720   2.905
    1C        C  677   2.506   3.512   3.033
    1C        C  678   2.520   3.652   3.029
    1C        C  679   2.509   3.442   3.156
    1C        C  680   2.506   3.517   3.276
    1C        C  681   2.531   3.310   3.403
    1C        C  682   2.512   3.450   3.400
    1C        C  683   2.551   3.242   3.525
    1C        C  684   2.538   3.313   3.647
    1C        C  685   2.599   3.116   3.773
    1C        C  686   2.549   3.248   3.772
    1C        C  687   2.638   3.053   3.894
    1C        C  688   2.605   3.119   4.015
    1C        C  689   2.715   2.938   4.139
    1C        C  690   2.637   3.057   4.137
    1C        C  691   2.757   2.880   4.260
    1C        C  692   2.712   2.937   4.381
    1C        C  693   2.758   2.883   4.503
    1C        C  694   2.632   3.894   2.058
    1C        C  695   2.534   3.706   2.176
    1C        C  696   2.583   3.838   2.176
    1C        C  697   2.513   3.640   2.299
    1C        C  698   2.521   3.713   2.419
    1C        C  699   2.490   3.504   2.543
    1C        C  700   2.500   3.645   2.541
    1C        C  701   2.498   3.436   2.667
    1C        C  702   2.499   3.510   2.788
    1C        C  703   2.530   3.303   2.912
    1C        C  704   2.504   3.441   2.911
    1C        C  705   2.551   3.235   3.035
    1C        C  706   2.536   3.303   3.157
    1C        C  707   2.602   3.108   3.283
    1C        C  708   2.550   3.239   3.282
    1C        C  709   2.637   3.048   3.406
    1C        C  710   2.607   3.112   3.528
    1C        C  711   2.717   2.937   3.650
    1C        C  712   2.635   3.052   3.652
    1C        C  713   2.765   2.883   3.772
    1C        C  714   2.719   2.937   3.894
    1C        C  715   2.763   2.884   4.017
    1C        C  716   2.453   3.502   2.065
    1C        C  717   2.490   3.636   2.062
    1C        C  718   2.467   3.422   2.183
    1C        C  719   2.484   3.501   2.301
    1C        C  720   2.517   3.292   2.427
    1C        C  721   2.491   3.430   2.423
    1C        C  722   2.538   3.225   2.549
    1C        C  723   2.526   3.298   2.669
    1C        C  724   2.595   3.099   2.792
    1C        C  725   2.543   3.230   2.792
    1C        C  726   2.628   3.036   2.915
    1C        C  727   2.602   3.103   3.036
    1C        C  728   2.714   2.928   3.160
    1C        C  729   2.634   3.044   3.161
    1C        C  730   2.762   2.878   3.283
    1C        C  731   2.716   2.931   3.405
    1C        C  732   2.762   2.880   3.529
    1C        C  733   2.499   3.202   2.071
    1C        C  734   2.487   3.281   2.186
    1C        C  735   2.583   3.087   2.304
    1C        C  736   2.526   3.217   2.307
    1C        C  737   2.617   3.026   2.427
    1C        C  738   2.594   3.095   2.549
    1C        C  739   2.702   2.913   2.670
    1C        C  740   2.628   3.034   2.671
    1C        C  741   2.745   2.859   2.793
    1C        C  742   2.707   2.919   2.915
    1C        C  743   2.752   2.866   3.038
    1C        C  744   2.546   3.072   2.071
    1C        C  745   2.681   2.896   2.187
    1C        C  746   2.610   3.018   2.184
    1C        C  747   2.729   2.842   2.308
    1C        C  748   2.687   2.904   2.428
    1C        C  749   2.735   2.849   2.549
    1C        C  750   2.733   2.841   2.069
    1C        C  751   3.679   2.344   1.964
    1C        O  752   3.637   2.226   1.944
    1C        O  753   3.711   2.400   1.840
    1C        C  754   4.609   3.048   1.969
    1C        O  755   4.630   3.056   1.845
    1C        O  756   4.733   2.993   2.005
    1C        C  757   4.449   4.211   1.953
    1C        O  758   4.492   4.327   1.975
    1C        O  759   4.412   4.184   1.820
    1C        C  760   3.583   4.654   1.940
    1C        O  761   3.619   4.774   1.947
    1C        O  762   3.577   4.614   1.806
    1C        C  763   2.847   4.531   2.008
    1C        O  764   2.831   4.555   1.885
    1C        O  765   2.789   4.630   2.089
    1C        C  766   2.334   3.477   1.979
    1C        O  767   2.339   3.439   1.859
    1C        O  768   2.200   3.495   2.015
    1C        C  769   4.702   3.594   5.048
    1C        O  770   4.670   3.586   5.170
    1C        O  771   4.820   3.668   5.035
    1C        C  772   4.280   4.436   5.035
    1C        O  773   4.270   4.402   5.156
    1C        O  774   4.354   4.554   5.028
    1C        C  775   4.152   2.536   5.077
    1C        O  776   4.148   2.411   5.094
    1C        O  777   4.160   2.596   5.203
    1C        C  778   2.917   4.517   5.081
    1C        O  779   2.863   4.631   5.090
    1C        O  780   2.992   4.468   5.188
    1C        C  781   2.473   3.036   5.073
    1C        O  782   2.349   3.035   5.049
    1C        O  783   2.507   2.968   5.189
    1C        C  784   2.428   3.990   5.067
    1C        O  785   2.308   3.962   5.038
    1C        O  786   2.457   3.935   5.193
    1C        C  787   2.952   2.408   2.024
    1C        O  788   2.928   2.411   1.900
    1C        O  789   2.923   2.285   2.082
    1C        C  790   3.182   2.360   5.052
    1C        O  791   3.142   2.255   4.994
    1C        O  792   3.198   2.354   5.191
    1C        H  793   4.273   3.029   5.061
    1C        H  794   4.135   2.843   5.053
    1C        H  795   4.534   3.140   5.047
    1C        H  796   4.549   3.359   5.065
    1C        H  797   4.493   3.781   5.052
    1C        H  798   4.453   4.002   5.053
    1C        H  799   4.277   4.163   5.051
    1C        H  800   4.040   4.554   5.020
    1C        H  801   3.817   4.606   5.036
    1C        H  802   3.595   4.655   5.031
    1C        H  803   3.394   4.503   5.050
    1C        H  804   3.168   4.441   5.046
    1C        H  805   3.883   2.511   5.080
    1C        H  806   3.678   2.454   5.078
    1C        H  807   2.989   2.523   5.043
    1C        H  808   3.452   2.553   5.055
    1C        H  809   2.884   2.740   5.078
    1C        H  810   2.665   2.855   5.054
    1C        H  811   2.493   3.293   5.070
    1C        H  812   2.591   3.508   5.060
    1C        H  813   2.525   3.737   5.069
    1C        H  814   2.573   4.197   5.029
    1C        H  815   2.816   4.270   5.043
    1C        H  816   2.742   2.906   1.984
    1C        H  817   2.850   2.690   1.978
    1C        H  818   3.204   2.413   1.998
    1C        H  819   3.422   2.388   1.988
    1C        H  820   3.876   2.491   1.979
    1C        H  821   4.088   2.579   1.985
    1C        H  822   4.261   2.714   1.980
    1C        H  823   4.339   2.947   1.977
    1C        H  824   4.592   3.313   1.975
    1C        H  825   4.490   3.516   1.960
    1C        H  826   4.529   3.754   1.957
    1C        H  827   3.819   4.560   1.968
    1C        H  828   3.964   4.362   1.942
    1C        H  829   4.166   4.255   1.952
    1C        H  830   4.495   3.968   1.957
    1C        H  831   2.632   3.845   1.963
    1C        H  832   2.733   4.054   1.967
    1C        H  833   2.716   4.287   1.972
    1C        H  834   3.361   4.508   1.945
    1C        H  835   3.167   4.365   1.973
    1C        H  836   2.475   3.005   2.028
    1C        H  837   2.463   3.244   1.979
    1C        H  838   2.452   3.695   1.981
    2V3OU   H29  839   2.804   3.546   5.839
    2V3OU   C27  840   2.781   3.501   5.939
    2V3OU   H27  841   2.726   3.574   6.003
    2V3OU   H28  842   2.720   3.407   5.931
    2V3OU   O11  843   2.908   3.477   6.000
    2V3OU   C15  844   2.922   3.397   6.112
    2V3OU   C13  845   3.053   3.375   6.160
    2V3OU   C14  846   3.077   3.271   6.251
    2V3OU   C16  847   2.971   3.192   6.295
    2V3OU    H6  848   2.992   3.104   6.358
    2V3OU   C12  849   3.214   3.233   6.291
    2V3OU    O2  850   3.235   3.130   6.358
    2V3OU   C10  851   3.328   3.308   6.237
    2V3OU    C8  852   3.460   3.273   6.264
    2V3OU   O10  853   3.487   3.150   6.316
    2V3OU   H26  854   3.405   3.110   6.348
    2V3OU    C6  855   3.569   3.350   6.212
    2V3OU    C5  856   3.539   3.467   6.144
    2V3OU    C4  857   3.705   3.291   6.208
    2V3OU    H4  858   3.725   3.229   6.301
    2V3OU    H5  859   3.710   3.223   6.117
    2V3OU    C2  860   3.817   3.395   6.192
    2V3OU    O6  861   3.810   3.475   6.310
    2V3OU   H21  862   3.769   3.558   6.278
    2V3OU    C3  863   3.783   3.498   6.084
    2V3OU    H2  864   3.864   3.575   6.085
    2V3OU    H3  865   3.784   3.443   5.987
    2V3OU   C25  866   3.951   3.324   6.171
    2V3OU    O7  867   3.997   3.298   6.060
    2V3OU   C26  868   4.036   3.284   6.291
    2V3OU   H22  869   4.073   3.380   6.336
    2V3OU   H23  870   4.127   3.229   6.256
    2V3OU    O8  871   3.963   3.209   6.385
    2V3OU   H24  872   3.916   3.274   6.440
    2V3OU    C1  873   3.648   3.564   6.107
    2V3OU    H1  874   3.622   3.616   6.010
    2V3OU    O3  875   3.660   3.656   6.216
    2V3OU   C19  876   3.627   3.794   6.205
    2V3OU    H9  877   3.528   3.806   6.151
    2V3OU    O4  878   3.718   3.852   6.113
    2V3OU   C20  879   3.845   3.872   6.175
    2V3OU   H10  880   3.894   3.771   6.192
    2V3OU   C24  881   3.615   3.858   6.344
    2V3OU   H16  882   3.547   3.792   6.403
    2V3OU   H17  883   3.565   3.956   6.325
    2V3OU   C23  884   3.757   3.871   6.398
    2V3OU   H15  885   3.800   3.766   6.411
    2V3OU    N1  886   3.740   3.953   6.517
    2V3OU   H19  887   3.809   3.918   6.581
    2V3OU   H20  888   3.652   3.942   6.562
    2V3OU   C21  889   3.854   3.952   6.306
    2V3OU   H11  890   3.960   3.934   6.341
    2V3OU    O5  891   3.830   4.091   6.310
    2V3OU   H18  892   3.779   4.111   6.390
    2V3OU   C22  893   3.918   3.949   6.067
    2V3OU   H12  894   3.866   4.046   6.048
    2V3OU   H13  895   3.914   3.890   5.972
    2V3OU   H14  896   4.025   3.963   6.097
    2V3OU   C11  897   3.161   3.471   6.134
    2V3OU    O1  898   3.137   3.585   6.087
    2V3OU    C9  899   3.299   3.426   6.163
    2V3OU    C7  900   3.404   3.507   6.120
    2V3OU    O9  901   3.386   3.621   6.045
    2V3OU   H25  902   3.290   3.636   6.043
    2V3OU   C17  903   2.819   3.315   6.162
    2V3OU    H7  904   2.717   3.342   6.137
    2V3OU   C18  905   2.840   3.214   6.256
    2V3OU    H8  906   2.754   3.147   6.273
    3SOL     OW  907   2.922   3.522   3.693
    3SOL    HW1  908   2.922   3.477   3.783
    3SOL    HW2  909   3.014   3.553   3.671
    4SOL     OW  910   6.645   6.371   1.438
    4SOL    HW1  911   6.608   6.342   1.349
    4SOL    HW2  912   6.745   6.362   1.437
    5SOL     OW  913   4.513   2.630   0.503
    5SOL    HW1  914   4.564   2.667   0.581
    5SOL    HW2  915   4.546   2.538   0.482
    6SOL     OW  916   4.250   1.703   2.310
    6SOL    HW1  917   4.277   1.779   2.370
    6SOL    HW2  918   4.253   1.617   2.361
    7SOL     OW  919   2.156   3.211   4.437
    7SOL    HW1  920   2.122   3.236   4.528
    7SOL    HW2  921   2.233   3.149   4.447
    8SOL     OW  922   1.219   2.306   5.277
    8SOL    HW1  923   1.232   2.400   5.246
    8SOL    HW2  924   1.132   2.298   5.324
    9SOL     OW  925   0.838   1.494   5.817
    9SOL    HW1  926   0.899   1.558   5.768
    9SOL    HW2  927   0.868   1.486   5.912
   10SOL     OW  928   5.334   4.799   1.502
   10SOL    HW1  929   5.305   4.781   1.408
   10SOL    HW2  930   5.370   4.715   1.543
   11SOL     OW  931   2.769   2.372   0.506
   11SOL    HW1  932   2.675   2.401   0.520
   11SOL    HW2  933   2.826   2.452   0.487
   12SOL     OW  934   4.954   5.077   2.221
   12SOL    HW1  935   4.894   5.149   2.185
   12SOL    HW2  936   4.916   5.042   2.306
   13SOL     OW  937   5.432   6.678   1.521
   13SOL    HW1  938   5.455   6.751   1.456
   13SOL    HW2  939   5.445   6.713   1.615
   14SOL     OW  940   4.644   6.373   6.982
   14SOL    HW1  941   4.606   6.347   6.893
   14SOL    HW2  942   4.649   6.292   0.015
   15SOL     OW  943   0.785   5.899   6.124
   15SOL    HW1  944   0.799   5.809   6.082
   15SOL    HW2  945   0.704   5.896   6.182
   16SOL     OW  946   2.344   5.889   4.675
   16SOL    HW1  947   2.270   5.950   4.646
   16SOL    HW2  948   2.323   5.852   4.766
   17SOL     OW  949   7.006   0.902   4.745
   17SOL    HW1  950   6.935   0.965   4.775
   17SOL    HW2  951   0.066   0.923   4.793
   18SOL     OW  952   2.624   1.150   5.233
   18SOL    HW1  953   2.647   1.072   5.291
   18SOL    HW2  954   2.707   1.183   5.187
   19SOL     OW  955   3.015   6.250   2.635
   19SOL    HW1  956   2.948   6.182   2.607
   19SOL    HW2  957   2.993   6.282   2.727
   20SOL     OW  958   0.271   1.423   5.963
   20SOL    HW1  959   0.281   1.520   5.986
   20SOL    HW2  960   0.217   1.415   5.879
   21SOL     OW  961   2.114   3.888   2.321
   21SOL    HW1  962   2.164   3.868   2.405
   21SOL    HW2  963   2.097   3.803   2.271
   22SOL     OW  964   0.857   1.311   0.453
   22SOL    HW1  965   0.757   1.304   0.454
   22SOL    HW2  966   0.887   1.342   0.363
   23SOL     OW  967   6.423   5.018   0.418
   23SOL    HW1  968   6.408   4.979   0.327
   23SOL    HW2  969   6.335   5.032   0.464
   24SOL     OW  970   5.307   1.803   0.182
   24SOL    HW1  971   5.245   1.876   0.154
   24SOL    HW2  972   5.271   1.759   0.265
   25SOL     OW  973   1.712   0.929   4.081
   25SOL    HW1  974   1.639   0.977   4.032
   25SOL    HW2  975   1.788   0.992   4.096
   26SOL     OW  976   1.345   1.445   6.456
   26SOL    HW1  977   1.363   1.536   6.418
   26SOL    HW2  978   1.366   1.376   6.387
   27SOL     OW  979   0.411   0.184   3.120
   27SOL    HW1  980   0.388   0.088   3.136
   27SOL    HW2  981   0.452   0.194   3.030
   28SOL     OW  982   1.302   0.722   5.948
   28SOL    HW1  983   1.352   0.723   6.034
   28SOL    HW2  984   1.298   0.628   5.913
   29SOL     OW  985   5.483   0.268   1.356
   29SOL    HW1  986   5.417   0.245   1.285
   29SOL    HW2  987   5.475   0.203   1.431
   30SOL     OW  988   4.921   0.274   5.073
   30SOL    HW1  989   4.940   0.305   5.166
   30SOL    HW2  990   5.000   0.293   5.015
   31SOL     OW  991   6.690   4.780   4.150
   31SOL    HW1  992   6.644   4.740   4.230
   31SOL    HW2  993   6.778   4.819   4.177
   32SOL     OW  994   2.863   0.990   0.875
   32SOL    HW1  995   2.819   0.961   0.960
   32SOL    HW2  996   2.815   1.070   0.838
   33SOL     OW  997   2.335   5.080   5.667
   33SOL    HW1  998   2.428   5.111   5.686
   33SOL    HW2  999   2.339   4.998   5.609
   34SOL     OW 1000   2.358   5.897   5.586
   34SOL    HW1 1001   2.381   5.874   5.491
   34SOL    HW2 1002   2.260   5.889   5.599
   35SOL     OW 1003   1.388   3.580   5.891
   35SOL    HW1 1004   1.442   3.605   5.811
   35SOL    HW2 1005   1.300   3.542   5.863
   36SOL     OW 1006   6.413   0.985   3.564
   36SOL    HW1 1007   6.378   0.979   3.470
   36SOL    HW2 1008   6.361   1.055   3.614
   37SOL     OW 1009   2.639   6.140   4.543
   37SOL    HW1 1010   2.597   6.137   4.452
   37SOL    HW2 1011   2.573   6.111   4.612
   38SOL     OW 1012   1.140   4.057   2.448
   38SOL    HW1 1013   1.216   4.086   2.506
   38SOL    HW2 1014   1.162   3.970   2.404
   39SOL     OW 1015   6.804   4.679   0.940
   39SOL    HW1 1016   6.711   4.716   0.936
   39SOL    HW2 1017   6.869   4.753   0.959
   40SOL     OW 1018   3.568   0.852   6.951
   40SOL    HW1 1019   3.631   0.838   6.874
   40SOL    HW2 1020   3.547   0.764   6.993
   41SOL     OW 1021   5.087   3.662   1.482
   41SOL    HW1 1022   5.119   3.613   1.563
   41SOL    HW2 1023   5.020   3.732   1.509
   42SOL     OW 1024   3.028   4.273   6.695
   42SOL    HW1 1025   2.930   4.293   6.694
   42SOL    HW2 1026   3.061   4.263   6.601
   43SOL     OW 1027   5.404   0.141   4.784
   43SOL    HW1 1028   5.442   0.060   4.741
   43SOL    HW2 1029   5.371   0.119   4.876
   44SOL     OW 1030   6.824   1.284   6.264
   44SOL    HW1 1031   6.919   1.287   6.236
   44SOL    HW2 1032   6.785   1.376   6.264
   45SOL     OW 1033   2.764   4.534   6.385
   45SOL    HW1 1034   2.771   4.443   6.344
   45SOL    HW2 1035   2.852   4.557   6.426
   46SOL     OW 1036   1.114   4.385   5.131
   46SOL    HW1 1037   1.049   4.392   5.055
   46SOL    HW2 1038   1.172   4.305   5.119
   47SOL     OW 1039   5.957   3.824   0.191
   47SOL    HW1 1040   5.974   3.760   0.266
   47SOL    HW2 1041   6.012   3.798   0.112
   48SOL     OW 1042   6.663   4.167   0.935
   48SOL    HW1 1043   6.599   4.125   0.870
   48SOL    HW2 1044   6.704   4.248   0.894
   49SOL     OW 1045   3.303   2.563   6.222
   49SOL    HW1 1046   3.391   2.593   6.259
   49SOL    HW2 1047   3.291   2.600   6.130
   50SOL     OW 1048   5.377   2.162   0.177
   50SOL    HW1 1049   5.327   2.114   0.106
   50SOL    HW2 1050   5.449   2.217   0.136
   51SOL     OW 1051   0.871   6.338   1.904
   51SOL    HW1 1052   0.799   6.290   1.953
   51SOL    HW2 1053   0.844   6.352   1.809
   52SOL     OW 1054   5.659   2.019   2.127
   52SOL    HW1 1055   5.593   2.063   2.187
   52SOL    HW2 1056   5.613   1.951   2.070
   53SOL     OW 1057   4.169   0.886   0.890
   53SOL    HW1 1058   4.182   0.880   0.989
   53SOL    HW2 1059   4.078   0.921   0.870
   54SOL     OW 1060   6.432   0.452   6.250
   54SOL    HW1 1061   6.378   0.370   6.264
   54SOL    HW2 1062   6.408   0.493   6.162
   55SOL     OW 1063   1.729   3.769   6.240
   55SOL    HW1 1064   1.787   3.785   6.319
   55SOL    HW2 1065   1.692   3.676   6.244
   56SOL     OW 1066   0.566   2.350   6.652
   56SOL    HW1 1067   0.666   2.345   6.660
   56SOL    HW2 1068   0.539   2.443   6.630
   57SOL     OW 1069   4.132   6.078   1.119
   57SOL    HW1 1070   4.110   6.062   1.023
   57SOL    HW2 1071   4.065   6.142   1.158
   58SOL     OW 1072   1.345   0.782   6.665
   58SOL    HW1 1073   1.334   0.877   6.694
   58SOL    HW2 1074   1.255   0.738   6.659
   59SOL     OW 1075   4.114   2.877   6.341
   59SOL    HW1 1076   4.120   2.840   6.433
   59SOL    HW2 1077   4.021   2.912   6.325
   60SOL     OW 1078   6.565   3.217   2.892
   60SOL    HW1 1079   6.630   3.142   2.905
   60SOL    HW2 1080   6.472   3.183   2.904
   61SOL     OW 1081   1.204   5.958   3.168
   61SOL    HW1 1082   1.256   5.898   3.229
   61SOL    HW2 1083   1.161   5.903   3.096
   62SOL     OW 1084   5.927   2.298   3.356
   62SOL    HW1 1085   5.951   2.395   3.354
   62SOL    HW2 1086   5.900   2.268   3.265
   63SOL     OW 1087   4.028   6.726   5.802
   63SOL    HW1 1088   4.071   6.718   5.892
   63SOL    HW2 1089   3.931   6.746   5.813
   64SOL     OW 1090   1.345   2.096   5.840
   64SOL    HW1 1091   1.355   2.140   5.750
   64SOL    HW2 1092   1.261   2.042   5.842
   65SOL     OW 1093   1.135   5.411   5.102
   65SOL    HW1 1094   1.175   5.502   5.108
   65SOL    HW2 1095   1.036   5.419   5.094
   66SOL     OW 1096   4.571   1.772   1.330
   66SOL    HW1 1097   4.483   1.757   1.285
   66SOL    HW2 1098   4.556   1.785   1.428
   67SOL     OW 1099   6.897   3.915   1.324
   67SOL    HW1 1100   6.912   3.876   1.415
   67SOL    HW2 1101   6.814   3.971   1.325
   68SOL     OW 1102   0.298   0.864   6.658
   68SOL    HW1 1103   0.271   0.936   6.722
   68SOL    HW2 1104   0.383   0.889   6.613
   69SOL     OW 1105   1.942   6.099   6.967
   69SOL    HW1 1106   1.966   6.127   0.034
   69SOL    HW2 1107   2.021   6.055   6.924
   70SOL     OW 1108   4.407   4.891   3.326
   70SOL    HW1 1109   4.467   4.922   3.252
   70SOL    HW2 1110   4.312   4.895   3.297
   71SOL     OW 1111   5.027   1.069   5.124
   71SOL    HW1 1112   5.116   1.073   5.170
   71SOL    HW2 1113   5.009   1.156   5.079
   72SOL     OW 1114   0.160   0.687   2.272
   72SOL    HW1 1115   0.154   0.770   2.328
   72SOL    HW2 1116   0.248   0.642   2.289
   73SOL     OW 1117   2.390   1.305   0.850
   73SOL    HW1 1118   2.434   1.388   0.816
   73SOL    HW2 1119   2.388   1.306   0.950
   74SOL     OW 1120   2.757   1.482   0.030
   74SOL    HW1 1121   2.680   1.470   6.993
   74SOL    HW2 1122   2.799   1.571   0.014
   75SOL     OW 1123   1.973   2.409   0.496
   75SOL    HW1 1124   1.904   2.337   0.500
   75SOL    HW2 1125   1.930   2.495   0.469
   76SOL     OW 1126   3.974   4.813   5.902
   76SOL    HW1 1127   3.941   4.810   5.807
   76SOL    HW2 1128   4.063   4.770   5.908
   77SOL     OW 1129   0.608   5.280   4.538
   77SOL    HW1 1130   0.679   5.342   4.573
   77SOL    HW2 1131   0.562   5.323   4.461
   78SOL     OW 1132   5.762   1.653   1.506
   78SOL    HW1 1133   5.829   1.662   1.432
   78SOL    HW2 1134   5.691   1.723   1.494
   79SOL     OW 1135   1.422   3.910   4.000
   79SOL    HW1 1136   1.341   3.851   3.988
   79SOL    HW2 1137   1.462   3.893   4.090
   80SOL     OW 1138   3.556   2.082   5.117
   80SOL    HW1 1139   3.490   2.105   5.046
   80SOL    HW2 1140   3.647   2.112   5.088
   81SOL     OW 1141   3.307   5.182   2.401
   81SOL    HW1 1142   3.398   5.215   2.375
   81SOL    HW2 1143   3.240   5.212   2.333
   82SOL     OW 1144   3.105   0.154   2.209
   82SOL    HW1 1145   3.006   0.166   2.205
   82SOL    HW2 1146   3.144   0.222   2.270
   83SOL     OW 1147   5.387   1.023   4.506
   83SOL    HW1 1148   5.297   0.980   4.505
   83SOL    HW2 1149   5.442   0.990   4.430
   84SOL     OW 1150   5.717   2.842   3.328
   84SOL    HW1 1151   5.776   2.899   3.387
   84SOL    HW2 1152   5.725   2.873   3.234
   85SOL     OW 1153   2.407   5.928   3.224
   85SOL    HW1 1154   2.441   5.865   3.154
   85SOL    HW2 1155   2.434   5.894   3.315
   86SOL     OW 1156   5.049   0.387   0.808
   86SOL    HW1 1157   4.989   0.456   0.848
   86SOL    HW2 1158   5.026   0.297   0.845
   87SOL     OW 1159   2.744   2.952   6.664
   87SOL    HW1 1160   2.683   2.915   6.734
   87SOL    HW2 1161   2.725   2.907   6.576
   88SOL     OW 1162   1.984   2.895   1.672
   88SOL    HW1 1163   2.040   2.816   1.647
   88SOL    HW2 1164   1.899   2.864   1.715
   89SOL     OW 1165   3.333   3.515   5.430
   89SOL    HW1 1166   3.329   3.454   5.509
   89SOL    HW2 1167   3.425   3.515   5.393
   90SOL     OW 1168   6.389   4.183   2.151
   90SOL    HW1 1169   6.381   4.201   2.249
   90SOL    HW2 1170   6.482   4.151   2.131
   91SOL     OW 1171   4.462   6.125   0.694
   91SOL    HW1 1172   4.381   6.174   0.662
   91SOL    HW2 1173   4.515   6.185   0.754
   92SOL     OW 1174   5.984   5.028   7.002
   92SOL    HW1 1175   5.960   4.968   6.925
   92SOL    HW2 1176   6.080   5.056   6.994
   93SOL     OW 1177   3.025   3.747   1.579
   93SOL    HW1 1178   3.118   3.749   1.615
   93SOL    HW2 1179   2.984   3.658   1.598
   94SOL     OW 1180   2.792   1.849   3.929
   94SOL    HW1 1181   2.891   1.851   3.920
   94SOL    HW2 1182   2.767   1.811   4.018
   95SOL     OW 1183   0.666   0.152   4.101
   95SOL    HW1 1184   0.575   0.184   4.077
   95SOL    HW2 1185   0.707   0.105   4.023
   96SOL     OW 1186   0.157   5.375   6.781
   96SOL    HW1 1187   0.134   5.469   6.754
   96SOL    HW2 1188   0.233   5.343   6.725
   97SOL     OW 1189   3.205   4.246   5.567
   97SOL    HW1 1190   3.187   4.317   5.499
   97SOL    HW2 1191   3.278   4.186   5.534
   98SOL     OW 1192   0.468   2.375   5.010
   98SOL    HW1 1193   0.567   2.381   4.994
   98SOL    HW2 1194   0.434   2.286   4.981
   99SOL     OW 1195   4.156   4.538   5.415
   99SOL    HW1 1196   4.075   4.529   5.356
   99SOL    HW2 1197   4.153   4.467   5.485
  100SOL     OW 1198   1.207   0.673   5.238
  100SOL    HW1 1199   1.195   0.599   5.304
  100SOL    HW2 1200   1.218   0.760   5.286
  101SOL     OW 1201   5.221   3.335   2.683
  101SOL    HW1 1202   5.148   3.279   2.723
  101SOL    HW2 1203   5.196   3.432   2.688
  102SOL     OW 1204   3.809   0.251   6.772
  102SOL    HW1 1205   3.772   0.301   6.851
  102SOL    HW2 1206   3.902   0.282   6.753
  103SOL     OW 1207   0.917   1.344   1.817
  103SOL    HW1 1208   0.998   1.362   1.761
  103SOL    HW2 1209   0.941   1.353   1.913
  104SOL     OW 1210   6.258   4.438   2.218
  104SOL    HW1 1211   6.305   4.441   2.306
  104SOL    HW2 1212   6.289   4.358   2.167
  105SOL     OW 1213   0.186   0.389   4.802
  105SOL    HW1 1214   0.095   0.357   4.777
  105SOL    HW2 1215   0.253   0.351   4.737
  106SOL     OW 1216   4.327   2.996   1.667
  106SOL    HW1 1217   4.374   3.023   1.583
  106SOL    HW2 1218   4.391   2.952   1.728
  107SOL     OW 1219   4.932   6.943   1.605
  107SOL    HW1 1220   4.843   6.912   1.574
  107SOL    HW2 1221   4.921   7.017   1.671
  108SOL     OW 1222   3.590   1.844   4.792
  108SOL    HW1 1223   3.519   1.828   4.724
  108SOL    HW2 1224   3.550   1.846   4.883
  109SOL     OW 1225   1.891   0.931   5.452
  109SOL    HW1 1226   1.913   1.015   5.501
  109SOL    HW2 1227   1.972   0.897   5.405
  110SOL     OW 1228   4.104   4.417   5.664
  110SOL    HW1 1229   4.175   4.472   5.709
  110SOL    HW2 1230   4.080   4.340   5.722
  111SOL     OW 1231   5.739   3.195   1.103
  111SOL    HW1 1232   5.714   3.221   1.196
  111SOL    HW2 1233   5.698   3.107   1.080
  112SOL     OW 1234   4.723   6.680   4.990
  112SOL    HW1 1235   4.729   6.720   4.899
  112SOL    HW2 1236   4.642   6.622   4.996
  113SOL     OW 1237   0.706   5.035   2.732
  113SOL    HW1 1238   0.771   5.012   2.804
  113SOL    HW2 1239   0.727   5.125   2.695
  114SOL     OW 1240   0.144   1.955   1.756
  114SOL    HW1 1241   0.167   1.863   1.725
  114SOL    HW2 1242   0.227   2.010   1.763
  115SOL     OW 1243   4.155   0.835   2.577
  115SOL    HW1 1244   4.084   0.906   2.572
  115SOL    HW2 1245   4.176   0.817   2.673
  116SOL     OW 1246   6.713   5.638   1.354
  116SOL    HW1 1247   6.722   5.539   1.364
  116SOL    HW2 1248   6.698   5.661   1.258
  117SOL     OW 1249   3.117   1.919   0.180
  117SOL    HW1 1250   3.120   1.819   0.187
  117SOL    HW2 1251   3.027   1.947   0.147
  118SOL     OW 1252   0.322   2.285   2.104
  118SOL    HW1 1253   0.387   2.219   2.065
  118SOL    HW2 1254   0.229   2.253   2.089
  119SOL     OW 1255   6.409   6.418   4.811
  119SOL    HW1 1256   6.336   6.379   4.867
  119SOL    HW2 1257   6.420   6.514   4.833
  120SOL     OW 1258   4.316   1.622   4.487
  120SOL    HW1 1259   4.276   1.713   4.499
  120SOL    HW2 1260   4.272   1.576   4.410
  121SOL     OW 1261   0.115   5.863   6.413
  121SOL    HW1 1262   0.065   5.890   6.330
  121SOL    HW2 1263   0.200   5.914   6.418
  122SOL     OW 1264   6.635   4.896   6.135
  122SOL    HW1 1265   6.547   4.942   6.121
  122SOL    HW2 1266   6.620   4.799   6.154
  123SOL     OW 1267   0.516   2.679   1.089
  123SOL    HW1 1268   0.557   2.639   1.171
  123SOL    HW2 1269   0.562   2.644   1.008
  124SOL     OW 1270   1.322   3.574   0.348
  124SOL    HW1 1271   1.385   3.607   0.278
  124SOL    HW2 1272   1.260   3.647   0.376
  125SOL     OW 1273   4.622   2.348   0.476
  125SOL    HW1 1274   4.548   2.280   0.478
  125SOL    HW2 1275   4.676   2.340   0.559
  126SOL     OW 1276   3.396   2.874   4.669
  126SOL    HW1 1277   3.374   2.778   4.680
  126SOL    HW2 1278   3.491   2.889   4.697
  127SOL     OW 1279   0.216   4.951   5.945
  127SOL    HW1 1280   0.301   5.003   5.953
  127SOL    HW2 1281   0.161   4.988   5.870
  128SOL     OW 1282   4.384   3.853   6.048
  128SOL    HW1 1283   4.370   3.847   6.147
  128SOL    HW2 1284   4.470   3.899   6.030
  129SOL     OW 1285   0.560   5.129   1.971
  129SOL    HW1 1286   0.508   5.095   1.893
  129SOL    HW2 1287   0.638   5.182   1.939
  130SOL     OW 1288   6.271   3.485   4.867
  130SOL    HW1 1289   6.189   3.431   4.849
  130SOL    HW2 1290   6.352   3.428   4.854
  131SOL     OW 1291   0.737   3.267   3.378
  131SOL    HW1 1292   0.651   3.246   3.425
  131SOL    HW2 1293   0.814   3.237   3.434
  132SOL     OW 1294   4.507   2.797   1.420
  132SOL    HW1 1295   4.597   2.835   1.396
  132SOL    HW2 1296   4.472   2.843   1.501
  133SOL     OW 1297   4.686   5.129   6.217
  133SOL    HW1 1298   4.616   5.200   6.214
  133SOL    HW2 1299   4.756   5.154   6.284
  134SOL     OW 1300   5.902   1.594   0.953
  134SOL    HW1 1301   5.937   1.623   0.864
  134SOL    HW2 1302   5.860   1.673   0.999
  135SOL     OW 1303   4.444   4.874   3.908
  135SOL    HW1 1304   4.385   4.795   3.892
  135SOL    HW2 1305   4.396   4.957   3.881
  136SOL     OW 1306   3.934   7.017   5.735
  136SOL    HW1 1307   3.859   6.953   5.727
  136SOL    HW2 1308   4.017   6.976   5.698
  137SOL     OW 1309   2.272   4.161   6.665
  137SOL    HW1 1310   2.224   4.075   6.680
  137SOL    HW2 1311   2.245   4.199   6.577
  138SOL     OW 1312   1.232   5.303   6.570
  138SOL    HW1 1313   1.169   5.266   6.638
  138SOL    HW2 1314   1.221   5.403   6.565
  139SOL     OW 1315   0.218   0.178   1.336
  139SOL    HW1 1316   0.127   0.203   1.304
  139SOL    HW2 1317   0.242   0.233   1.416
  140SOL     OW 1318   3.685   0.837   1.660
  140SOL    HW1 1319   3.707   0.743   1.685
  140SOL    HW2 1320   3.767   0.882   1.624
  141SOL     OW 1321   0.279   1.546   0.360
  141SOL    HW1 1322   0.353   1.550   0.427
  141SOL    HW2 1323   0.272   1.634   0.313
  142SOL     OW 1324   2.229   4.096   0.526
  142SOL    HW1 1325   2.166   4.130   0.595
  142SOL    HW2 1326   2.207   4.136   0.437
  143SOL     OW 1327   5.137   5.727   1.551
  143SOL    HW1 1328   5.114   5.642   1.598
  143SOL    HW2 1329   5.138   5.803   1.617
  144SOL     OW 1330   3.539   5.232   2.636
  144SOL    HW1 1331   3.448   5.196   2.617
  144SOL    HW2 1332   3.586   5.171   2.700
  145SOL     OW 1333   0.030   5.345   3.451
  145SOL    HW1 1334   0.006   5.356   3.547
  145SOL    HW2 1335   0.123   5.381   3.435
  146SOL     OW 1336   6.503   0.725   6.023
  146SOL    HW1 1337   6.441   0.777   6.081
  146SOL    HW2 1338   6.577   0.784   5.991
  147SOL     OW 1339   6.569   1.199   5.435
  147SOL    HW1 1340   6.611   1.159   5.353
  147SOL    HW2 1341   6.484   1.150   5.456
  148SOL     OW 1342   1.878   6.618   1.693
  148SOL    HW1 1343   1.902   6.651   1.601
  148SOL    HW2 1344   1.957   6.574   1.734
  149SOL     OW 1345   1.124   3.388   4.723
  149SOL    HW1 1346   1.154   3.397   4.818
  149SOL    HW2 1347   1.202   3.398   4.662
  150SOL     OW 1348   4.448   1.985   5.373
  150SOL    HW1 1349   4.447   1.886   5.387
  150SOL    HW2 1350   4.472   2.030   5.459
  151SOL     OW 1351   6.566   2.895   1.439
  151SOL    HW1 1352   6.579   2.883   1.341
  151SOL    HW2 1353   6.655   2.901   1.484
  152SOL     OW 1354   6.905   3.005   1.272
  152SOL    HW1 1355   6.948   3.070   1.209
  152SOL    HW2 1356   6.898   3.047   1.363
  153SOL     OW 1357   1.858   1.494   3.256
  153SOL    HW1 1358   1.832   1.426   3.187
  153SOL    HW2 1359   1.844   1.456   3.347
  154SOL     OW 1360   0.046   1.503   3.233
  154SOL    HW1 1361   0.029   1.574   3.165
  154SOL    HW2 1362   0.013   1.534   3.323
  155SOL     OW 1363   5.551   4.698   3.938
  155SOL    HW1 1364   5.610   4.713   4.018
  155SOL    HW2 1365   5.544   4.783   3.885
  156SOL     OW 1366   4.829   1.405   1.095
  156SOL    HW1 1367   4.913   1.404   1.149
  156SOL    HW2 1368   4.750   1.396   1.156
  157SOL     OW 1369   4.982   0.503   1.148
  157SOL    HW1 1370   4.980   0.473   1.243
  157SOL    HW2 1371   4.916   0.578   1.136
  158SOL     OW 1372   0.668   3.096   4.544
  158SOL    HW1 1373   0.753   3.049   4.522
  158SOL    HW2 1374   0.666   3.185   4.498
  159SOL     OW 1375   6.238   5.447   0.275
  159SOL    HW1 1376   6.211   5.516   0.341
  159SOL    HW2 1377   6.337   5.432   0.280
  160SOL     OW 1378   4.130   1.008   1.184
  160SOL    HW1 1379   4.033   1.013   1.158
  160SOL    HW2 1380   4.182   1.077   1.133
  161SOL     OW 1381   7.019   6.642   0.560
  161SOL    HW1 1382   6.934   6.593   0.539
  161SOL    HW2 1383   6.997   6.728   0.605
  162SOL     OW 1384   4.270   0.041   5.588
  162SOL    HW1 1385   4.343   0.046   5.520
  162SOL    HW2 1386   4.187   0.083   5.550
  163SOL     OW 1387   0.570   3.585   2.770
  163SOL    HW1 1388   0.516   3.626   2.696
  163SOL    HW2 1389   0.589   3.654   2.839
  164SOL     OW 1390   1.974   2.305   2.743
  164SOL    HW1 1391   1.989   2.300   2.645
  164SOL    HW2 1392   2.028   2.381   2.781
  165SOL     OW 1393   0.421   6.907   3.906
  165SOL    HW1 1394   0.420   6.809   3.885
  165SOL    HW2 1395   0.513   6.943   3.892
  166SOL     OW 1396   6.990   4.682   4.061
  166SOL    HW1 1397   6.965   4.764   4.010
  166SOL    HW2 1398   6.978   4.699   4.159
  167SOL     OW 1399   1.546   1.388   3.932
  167SOL    HW1 1400   1.614   1.447   3.974
  167SOL    HW2 1401   1.458   1.436   3.927
  168SOL     OW 1402   3.649   3.823   2.750
  168SOL    HW1 1403   3.590   3.848   2.827
  168SOL    HW2 1404   3.658   3.902   2.689
  169SOL     OW 1405   5.381   2.365   0.387
  169SOL    HW1 1406   5.459   2.424   0.366
  169SOL    HW2 1407   5.375   2.293   0.317
  170SOL     OW 1408   6.966   5.789   1.379
  170SOL    HW1 1409   6.890   5.724   1.369
  170SOL    HW2 1410   0.019   5.742   1.419
  171SOL     OW 1411   3.109   2.816   1.257
  171SOL    HW1 1412   3.072   2.871   1.182
  171SOL    HW2 1413   3.039   2.802   1.327
  172SOL     OW 1414   0.978   0.647   6.966
  172SOL    HW1 1415   0.965   0.617   6.871
  172SOL    HW2 1416   1.059   0.704   6.972
  173SOL     OW 1417   5.930   1.088   4.697
  173SOL    HW1 1418   5.974   1.066   4.610
  173SOL    HW2 1419   5.863   1.016   4.719
  174SOL     OW 1420   5.800   4.097   4.754
  174SOL    HW1 1421   5.734   4.117   4.682
  174SOL    HW2 1422   5.804   3.998   4.769
  175SOL     OW 1423   0.772   6.773   2.766
  175SOL    HW1 1424   0.782   6.849   2.701
  175SOL    HW2 1425   0.838   6.701   2.743
  176SOL     OW 1426   6.475   4.134   1.223
  176SOL    HW1 1427   6.502   4.206   1.288
  176SOL    HW2 1428   6.557   4.089   1.188
  177SOL     OW 1429   6.388   2.024   4.000
  177SOL    HW1 1430   6.370   2.039   4.097
  177SOL    HW2 1431   6.308   2.053   3.947
  178SOL     OW 1432   2.459   5.312   4.344
  178SOL    HW1 1433   2.394   5.365   4.398
  178SOL    HW2 1434   2.466   5.220   4.382
  179SOL     OW 1435   3.414   4.204   1.521
  179SOL    HW1 1436   3.315   4.210   1.511
  179SOL    HW2 1437   3.442   4.250   1.605
  180SOL     OW 1438   4.612   1.551   6.395
  180SOL    HW1 1439   4.561   1.583   6.475
  180SOL    HW2 1440   4.665   1.470   6.420
  181SOL     OW 1441   3.226   0.934   5.778
  181SOL    HW1 1442   3.183   0.844   5.773
  181SOL    HW2 1443   3.293   0.936   5.852
  182SOL     OW 1444   2.508   2.974   5.609
  182SOL    HW1 1445   2.574   2.952   5.537
  182SOL    HW2 1446   2.438   3.035   5.572
  183SOL     OW 1447   2.989   0.724   3.130
  183SOL    HW1 1448   3.053   0.798   3.109
  183SOL    HW2 1449   2.896   0.760   3.133
  184SOL     OW 1450   5.166   5.434   3.400
  184SOL    HW1 1451   5.104   5.433   3.321
  184SOL    HW2 1452   5.200   5.342   3.416
  185SOL     OW 1453   0.464   6.703   4.911
  185SOL    HW1 1454   0.542   6.706   4.848
  185SOL    HW2 1455   0.382   6.673   4.862
  186SOL     OW 1456   3.049   6.206   5.392
  186SOL    HW1 1457   3.093   6.267   5.458
  186SOL    HW2 1458   3.052   6.112   5.426
  187SOL     OW 1459   4.078   6.026   0.862
  187SOL    HW1 1460   4.070   6.085   0.782
  187SOL    HW2 1461   4.107   5.935   0.833
  188SOL     OW 1462   1.153   3.372   3.417
  188SOL    HW1 1463   1.129   3.370   3.320
  188SOL    HW2 1464   1.223   3.443   3.432
  189SOL     OW 1465   5.799   4.613   5.784
  189SOL    HW1 1466   5.751   4.653   5.862
  189SOL    HW2 1467   5.891   4.588   5.811
  190SOL     OW 1468   6.365   6.409   0.434
  190SOL    HW1 1469   6.388   6.501   0.465
  190SOL    HW2 1470   6.411   6.391   0.348
  191SOL     OW 1471   1.992   2.414   5.286
  191SOL    HW1 1472   1.986   2.322   5.326
  191SOL    HW2 1473   2.081   2.454   5.307
  192SOL     OW 1474   0.168   6.178   1.398
  192SOL    HW1 1475   0.169   6.276   1.381
  192SOL    HW2 1476   0.248   6.136   1.356
  193SOL     OW 1477   2.541   0.343   2.008
  193SOL    HW1 1478   2.502   0.330   1.918
  193SOL    HW2 1479   2.634   0.379   1.999
  194SOL     OW 1480   4.160   6.084   3.068
  194SOL    HW1 1481   4.095   6.085   2.992
  194SOL    HW2 1482   4.110   6.078   3.154
  195SOL     OW 1483   2.878   0.589   0.990
  195SOL    HW1 1484   2.943   0.656   0.954
  195SOL    HW2 1485   2.910   0.557   1.079
  196SOL     OW 1486   4.090   2.514   0.848
  196SOL    HW1 1487   4.040   2.566   0.778
  196SOL    HW2 1488   4.024   2.471   0.911
  197SOL     OW 1489   1.953   5.874   0.418
  197SOL    HW1 1490   1.954   5.940   0.343
  197SOL    HW2 1491   1.862   5.871   0.460
  198SOL     OW 1492   4.315   6.904   6.422
  198SOL    HW1 1493   4.370   6.877   6.343
  198SOL    HW2 1494   4.376   6.930   6.497
  199SOL     OW 1495   1.473   0.830   2.616
  199SOL    HW1 1496   1.482   0.925   2.644
  199SOL    HW2 1497   1.448   0.774   2.695
  200SOL     OW 1498   0.878   3.429   3.988
  200SOL    HW1 1499   0.934   3.511   3.971
  200SOL    HW2 1500   0.938   3.349   3.995
  201SOL     OW 1501   4.362   1.697   6.125
  201SOL    HW1 1502   4.283   1.637   6.141
  201SOL    HW2 1503   4.331   1.792   6.119
  202SOL     OW 1504   3.712   0.668   2.686
  202SOL    HW1 1505   3.787   0.648   2.749
  202SOL    HW2 1506   3.748   0.710   2.603
  203SOL     OW 1507   6.179   2.422   0.426
  203SOL    HW1 1508   6.138   2.331   0.415
  203SOL    HW2 1509   6.200   2.460   0.336
  204SOL     OW 1510   2.169   6.724   1.224
  204SOL    HW1 1511   2.152   6.629   1.250
  204SOL    HW2 1512   2.242   6.762   1.282
  205SOL     OW 1513   5.661   0.456   1.494
  205SOL    HW1 1514   5.730   0.518   1.456
  205SOL    HW2 1515   5.634   0.390   1.425
  206SOL     OW 1516   6.909   6.293   1.470
  206SOL    HW1 1517   6.990   6.304   1.528
  206SOL    HW2 1518   6.917   6.209   1.417
  207SOL     OW 1519   5.783   2.124   6.085
  207SOL    HW1 1520   5.858   2.177   6.046
  207SOL    HW2 1521   5.749   2.060   6.016
  208SOL     OW 1522   4.245   4.381   6.923
  208SOL    HW1 1523   4.260   4.388   6.825
  208SOL    HW2 1524   4.146   4.377   6.941
  209SOL     OW 1525   0.182   5.655   3.948
  209SOL    HW1 1526   0.218   5.730   4.003
  209SOL    HW2 1527   0.098   5.684   3.901
  210SOL     OW 1528   4.024   2.162   0.620
  210SOL    HW1 1529   3.950   2.183   0.556
  210SOL    HW2 1530   3.995   2.185   0.713
  211SOL     OW 1531   1.033   3.267   1.484
  211SOL    HW1 1532   1.087   3.350   1.470
  211SOL    HW2 1533   1.094   3.193   1.513
  212SOL     OW 1534   0.215   5.269   4.733
  212SOL    HW1 1535   0.174   5.249   4.644
  212SOL    HW2 1536   0.280   5.345   4.724
  213SOL     OW 1537   3.744   2.551   0.029
  213SOL    HW1 1538   3.750   2.637   0.081
  213SOL    HW2 1539   3.678   2.490   0.073
  214SOL     OW 1540   1.886   6.626   3.432
  214SOL    HW1 1541   1.914   6.675   3.349
  214SOL    HW2 1542   1.877   6.690   3.507
  215SOL     OW 1543   3.763   4.070   2.592
  215SOL    HW1 1544   3.781   4.091   2.688
  215SOL    HW2 1545   3.669   4.097   2.569
  216SOL     OW 1546   2.818   0.160   5.774
  216SOL    HW1 1547   2.885   0.174   5.847
  216SOL    HW2 1548   2.732   0.205   5.798
  217SOL     OW 1549   6.989   2.411   5.046
  217SOL    HW1 1550   7.013   2.354   5.124
  217SOL    HW2 1551   6.943   2.494   5.078
  218SOL     OW 1552   2.548   3.793   5.889
  218SOL    HW1 1553   2.562   3.872   5.949
  218SOL    HW2 1554   2.461   3.749   5.912
  219SOL     OW 1555   3.536   5.465   6.952
  219SOL    HW1 1556   3.449   5.455   6.905
  219SOL    HW2 1557   3.546   5.560   6.984
  220SOL     OW 1558   1.663   4.214   0.755
  220SOL    HW1 1559   1.569   4.223   0.789
  220SOL    HW2 1560   1.722   4.281   0.802
  221SOL     OW 1561   5.992   2.828   4.223
  221SOL    HW1 1562   5.920   2.764   4.193
  221SOL    HW2 1563   5.979   2.916   4.177
  222SOL     OW 1564   1.790   6.219   4.686
  222SOL    HW1 1565   1.870   6.238   4.628
  222SOL    HW2 1566   1.797   6.271   4.770
  223SOL     OW 1567   6.102   4.928   2.663
  223SOL    HW1 1568   6.132   4.879   2.745
  223SOL    HW2 1569   6.137   4.881   2.582
  224SOL     OW 1570   4.246   2.289   2.132
  224SOL    HW1 1571   4.223   2.262   2.038
  224SOL    HW2 1572   4.164   2.322   2.178
  225SOL     OW 1573   5.212   6.903   1.402
  225SOL    HW1 1574   5.176   6.849   1.479
  225SOL    HW2 1575   5.211   6.847   1.319
  226SOL     OW 1576   0.090   5.521   2.079
  226SOL    HW1 1577   0.038   5.569   2.009
  226SOL    HW2 1578   0.181   5.562   2.086
  227SOL     OW 1579   1.146   3.469   3.127
  227SOL    HW1 1580   1.180   3.482   3.034
  227SOL    HW2 1581   1.094   3.550   3.155
  228SOL     OW 1582   3.980   6.272   2.574
  228SOL    HW1 1583   3.919   6.193   2.564
  228SOL    HW2 1584   4.074   6.245   2.551
  229SOL     OW 1585   6.203   5.177   2.871
  229SOL    HW1 1586   6.275   5.107   2.870
  229SOL    HW2 1587   6.116   5.136   2.895
  230SOL     OW 1588   0.829   4.086   6.420
  230SOL    HW1 1589   0.844   3.992   6.390
  230SOL    HW2 1590   0.840   4.148   6.342
  231SOL     OW 1591   0.584   1.954   6.594
  231SOL    HW1 1592   0.599   2.030   6.657
  231SOL    HW2 1593   0.500   1.906   6.619
  232SOL     OW 1594   1.441   4.091   6.572
  232SOL    HW1 1595   1.441   4.183   6.533
  232SOL    HW2 1596   1.481   4.027   6.507
  233SOL     OW 1597   3.197   6.933   6.914
  233SOL    HW1 1598   3.271   6.981   6.867
  233SOL    HW2 1599   3.223   6.838   6.930
  234SOL     OW 1600   2.981   5.118   5.909
  234SOL    HW1 1601   3.027   5.044   5.861
  234SOL    HW2 1602   3.040   5.199   5.910
  235SOL     OW 1603   3.191   3.523   5.800
  235SOL    HW1 1604   3.137   3.588   5.855
  235SOL    HW2 1605   3.168   3.430   5.827
  236SOL     OW 1606   0.153   2.214   6.009
  236SOL    HW1 1607   0.064   2.204   5.966
  236SOL    HW2 1608   0.215   2.144   5.973
  237SOL     OW 1609   6.832   6.636   1.673
  237SOL    HW1 1610   6.792   6.571   1.738
  237SOL    HW2 1611   6.925   6.658   1.702
  238SOL     OW 1612   0.169   1.934   2.666
  238SOL    HW1 1613   0.217   1.932   2.578
  238SOL    HW2 1614   0.075   1.904   2.654
  239SOL     OW 1615   6.526   5.097   0.768
  239SOL    HW1 1616   6.438   5.137   0.791
  239SOL    HW2 1617   6.533   5.086   0.668
  240SOL     OW 1618   0.138   2.202   5.682
  240SOL    HW1 1619   0.188   2.258   5.616
  240SOL    HW2 1620   0.086   2.132   5.633
  241SOL     OW 1621   5.881   2.218   4.315
  241SOL    HW1 1622   5.913   2.271   4.236
  241SOL    HW2 1623   5.861   2.125   4.285
  242SOL     OW 1624   3.036   2.245   4.037
  242SOL    HW1 1625   2.991   2.253   3.947
  242SOL    HW2 1626   2.969   2.214   4.104
  243SOL     OW 1627   4.421   1.578   6.633
  243SOL    HW1 1628   4.352   1.645   6.605
  243SOL    HW2 1629   4.495   1.624   6.682
  244SOL     OW 1630   0.531   1.350   5.976
  244SOL    HW1 1631   0.542   1.297   5.893
  244SOL    HW2 1632   0.435   1.380   5.984
  245SOL     OW 1633   5.100   2.584   3.781
  245SOL    HW1 1634   5.173   2.542   3.727
  245SOL    HW2 1635   5.011   2.551   3.750
  246SOL     OW 1636   5.021   3.119   3.390
  246SOL    HW1 1637   5.007   3.210   3.429
  246SOL    HW2 1638   5.115   3.089   3.408
  247SOL     OW 1639   2.887   0.384   2.759
  247SOL    HW1 1640   2.930   0.417   2.843
  247SOL    HW2 1641   2.931   0.427   2.680
  248SOL     OW 1642   6.889   1.592   1.901
  248SOL    HW1 1643   6.791   1.608   1.909
  248SOL    HW2 1644   6.916   1.600   1.805
  249SOL     OW 1645   2.118   5.825   5.004
  249SOL    HW1 1646   2.121   5.865   5.096
  249SOL    HW2 1647   2.039   5.765   4.997
  250SOL     OW 1648   5.665   2.779   0.162
  250SOL    HW1 1649   5.573   2.813   0.144
  250SOL    HW2 1650   5.659   2.699   0.221
  251SOL     OW 1651   1.769   1.859   0.445
  251SOL    HW1 1652   1.776   1.885   0.541
  251SOL    HW2 1653   1.830   1.781   0.427
  252SOL     OW 1654   0.658   1.566   0.436
  252SOL    HW1 1655   0.690   1.583   0.343
  252SOL    HW2 1656   0.583   1.500   0.433
  253SOL     OW 1657   1.703   4.431   5.976
  253SOL    HW1 1658   1.652   4.510   6.010
  253SOL    HW2 1659   1.795   4.431   6.014
  254SOL     OW 1660   4.894   3.809   6.345
  254SOL    HW1 1661   4.949   3.730   6.320
  254SOL    HW2 1662   4.797   3.787   6.334
  255SOL     OW 1663   3.965   2.156   2.214
  255SOL    HW1 1664   3.881   2.137   2.164
  255SOL    HW2 1665   4.038   2.095   2.182
  256SOL     OW 1666   6.640   5.684   1.806
  256SOL    HW1 1667   6.723   5.735   1.785
  256SOL    HW2 1668   6.561   5.745   1.800
  257SOL     OW 1669   2.548   6.179   6.414
  257SOL    HW1 1670   2.488   6.130   6.351
  257SOL    HW2 1671   2.629   6.212   6.366
  258SOL     OW 1672   4.483   4.594   4.154
  258SOL    HW1 1673   4.578   4.615   4.131
  258SOL    HW2 1674   4.449   4.522   4.094
  259SOL     OW 1675   0.761   2.251   2.620
  259SOL    HW1 1676   0.786   2.234   2.715
  259SOL    HW2 1677   0.702   2.331   2.614
  260SOL     OW 1678   6.820   6.810   5.436
  260SOL    HW1 1679   6.870   6.794   5.350
  260SOL    HW2 1680   6.876   6.780   5.513
  261SOL     OW 1681   0.256   1.139   3.716
  261SOL    HW1 1682   0.191   1.178   3.782
  261SOL    HW2 1683   0.336   1.105   3.764
  262SOL     OW 1684   1.061   4.808   2.371
  262SOL    HW1 1685   1.097   4.738   2.433
  262SOL    HW2 1686   1.120   4.888   2.372
  263SOL     OW 1687   0.113   3.725   4.538
  263SOL    HW1 1688   0.104   3.627   4.517
  263SOL    HW2 1689   0.164   3.770   4.464
  264SOL     OW 1690   3.472   4.466   0.239
  264SOL    HW1 1691   3.440   4.378   0.275
  264SOL    HW2 1692   3.422   4.540   0.283
  265SOL     OW 1693   4.576   5.496   3.699
  265SOL    HW1 1694   4.478   5.498   3.719
  265SOL    HW2 1695   4.604   5.403   3.679
  266SOL     OW 1696   4.085   3.104   6.863
  266SOL    HW1 1697   4.171   3.154   6.867
  266SOL    HW2 1698   4.088   3.027   6.928
  267SOL     OW 1699   1.923   2.409   5.996
  267SOL    HW1 1700   1.977   2.394   5.914
  267SOL    HW2 1701   1.947   2.497   6.037
  268SOL     OW 1702   2.760   4.807   3.981
  268SOL    HW1 1703   2.718   4.746   3.914
  268SOL    HW2 1704   2.764   4.900   3.944
  269SOL     OW 1705   1.951   1.992   5.163
  269SOL    HW1 1706   1.888   1.921   5.196
  269SOL    HW2 1707   1.954   2.067   5.230
  270SOL     OW 1708   4.927   6.352   4.943
  270SOL    HW1 1709   4.898   6.412   5.018
  270SOL    HW2 1710   4.991   6.401   4.884
  271SOL     OW 1711   1.954   1.743   0.148
  271SOL    HW1 1712   2.018   1.808   0.189
  271SOL    HW2 1713   1.901   1.699   0.220
  272SOL     OW 1714   4.701   5.599   0.414
  272SOL    HW1 1715   4.786   5.625   0.460
  272SOL    HW2 1716   4.662   5.519   0.459
  273SOL     OW 1717   2.116   6.394   4.248
  273SOL    HW1 1718   2.215   6.404   4.260
  273SOL    HW2 1719   2.074   6.373   4.336
  274SOL     OW 1720   5.608   2.102   1.454
  274SOL    HW1 1721   5.613   2.174   1.385
  274SOL    HW2 1722   5.700   2.081   1.487
  275SOL     OW 1723   5.272   5.911   5.677
  275SOL    HW1 1724   5.185   5.861   5.679
  275SOL    HW2 1725   5.289   5.952   5.767
  276SOL     OW 1726   0.275   6.898   4.457
  276SOL    HW1 1727   0.230   6.874   4.370
  276SOL    HW2 1728   0.282   6.997   4.465
  277SOL     OW 1729   4.343   2.852   5.560
  277SOL    HW1 1730   4.364   2.918   5.632
  277SOL    HW2 1731   4.412   2.780   5.561
  278SOL     OW 1732   5.586   4.274   3.086
  278SOL    HW1 1733   5.512   4.290   3.152
  278SOL    HW2 1734   5.584   4.178   3.056
  279SOL     OW 1735   0.037   3.724   3.566
  279SOL    HW1 1736   0.137   3.720   3.562
  279SOL    HW2 1737   0.008   3.819   3.577
  280SOL     OW 1738   4.074   1.583   3.701
  280SOL    HW1 1739   3.978   1.605   3.686
  280SOL    HW2 1740   4.112   1.643   3.771
  281SOL     OW 1741   5.222   6.268   5.212
  281SOL    HW1 1742   5.286   6.305   5.145
  281SOL    HW2 1743   5.162   6.201   5.168
  282SOL     OW 1744   0.796   2.738   0.417
  282SOL    HW1 1745   0.740   2.758   0.336
  282SOL    HW2 1746   0.737   2.713   0.493
  283SOL     OW 1747   6.570   3.859   4.056
  283SOL    HW1 1748   6.487   3.817   4.093
  283SOL    HW2 1749   6.644   3.850   4.123
  284SOL     OW 1750   5.017   6.727   2.319
  284SOL    HW1 1751   5.034   6.628   2.324
  284SOL    HW2 1752   5.043   6.770   2.405
  285SOL     OW 1753   4.025   6.537   5.599
  285SOL    HW1 1754   3.937   6.490   5.596
  285SOL    HW2 1755   4.022   6.611   5.667
  286SOL     OW 1756   2.970   4.903   5.501
  286SOL    HW1 1757   2.925   4.992   5.489
  286SOL    HW2 1758   2.923   4.834   5.445
  287SOL     OW 1759   3.794   6.008   6.711
  287SOL    HW1 1760   3.801   5.911   6.736
  287SOL    HW2 1761   3.753   6.059   6.786
  288SOL     OW 1762   4.347   1.476   0.099
  288SOL    HW1 1763   4.294   1.550   0.058
  288SOL    HW2 1764   4.286   1.399   0.119
  289SOL     OW 1765   5.783   4.999   4.683
  289SOL    HW1 1766   5.856   4.941   4.646
  289SOL    HW2 1767   5.695   4.971   4.645
  290SOL     OW 1768   3.482   0.324   5.631
  290SOL    HW1 1769   3.535   0.306   5.713
  290SOL    HW2 1770   3.445   0.238   5.595
  291SOL     OW 1771   4.585   0.712   5.220
  291SOL    HW1 1772   4.585   0.706   5.320
  291SOL    HW2 1773   4.669   0.757   5.189
  292SOL     OW 1774   3.416   0.350   4.063
  292SOL    HW1 1775   3.350   0.421   4.038
  292SOL    HW2 1776   3.497   0.358   4.006
  293SOL     OW 1777   4.719   7.022   2.732
  293SOL    HW1 1778   4.778   0.077   2.741
  293SOL    HW2 1779   4.625   0.021   2.754
  294SOL     OW 1780   6.642   0.971   6.551
  294SOL    HW1 1781   6.734   0.936   6.534
  294SOL    HW2 1782   6.634   1.064   6.515
  295SOL     OW 1783   0.533   0.510   4.571
  295SOL    HW1 1784   0.435   0.496   4.582
  295SOL    HW2 1785   0.569   0.448   4.501
  296SOL     OW 1786   0.532   2.056   1.338
  296SOL    HW1 1787   0.561   1.988   1.271
  296SOL    HW2 1788   0.598   2.131   1.339
  297SOL     OW 1789   5.260   3.015   3.310
  297SOL    HW1 1790   5.339   2.953   3.304
  297SOL    HW2 1791   5.275   3.094   3.251
  298SOL     OW 1792   4.251   1.208   6.033
  298SOL    HW1 1793   4.339   1.159   6.037
  298SOL    HW2 1794   4.191   1.173   6.105
  299SOL     OW 1795   0.733   1.307   6.631
  299SOL    HW1 1796   0.652   1.254   6.654
  299SOL    HW2 1797   0.755   1.294   6.534
  300SOL     OW 1798   4.772   6.592   3.282
  300SOL    HW1 1799   4.745   6.549   3.196
  300SOL    HW2 1800   4.862   6.558   3.310
  301SOL     OW 1801   6.716   5.654   5.903
  301SOL    HW1 1802   6.716   5.748   5.938
  301SOL    HW2 1803   6.759   5.593   5.970
  302SOL     OW 1804   0.180   6.693   2.978
  302SOL    HW1 1805   0.255   6.749   3.013
  302SOL    HW2 1806   0.117   6.750   2.925
  303SOL     OW 1807   5.718   6.148   2.369
  303SOL    HW1 1808   5.691   6.070   2.312
  303SOL    HW2 1809   5.768   6.214   2.313
  304SOL     OW 1810   1.870   6.763   4.602
  304SOL    HW1 1811   1.804   6.838   4.609
  304SOL    HW2 1812   1.853   6.697   4.674
  305SOL     OW 1813   0.742   1.946   1.178
  305SOL    HW1 1814   0.741   2.038   1.217
  305SOL    HW2 1815   0.835   1.922   1.152
  306SOL     OW 1816   0.498   6.778   2.798
  306SOL    HW1 1817   0.493   6.864   2.849
  306SOL    HW2 1818   0.593   6.747   2.793
  307SOL     OW 1819   3.968   3.795   3.249
  307SOL    HW1 1820   3.983   3.848   3.332
  307SOL    HW2 1821   4.033   3.719   3.246
  308SOL     OW 1822   6.919   1.976   2.610
  308SOL    HW1 1823   6.887   2.055   2.558
  308SOL    HW2 1824   6.862   1.896   2.589
  309SOL     OW 1825   1.994   5.055   0.303
  309SOL    HW1 1826   1.942   5.109   0.369
  309SOL    HW2 1827   1.931   4.997   0.251
  310SOL     OW 1828   5.397   6.683   5.035
  310SOL    HW1 1829   5.306   6.723   5.041
  310SOL    HW2 1830   5.390   6.587   5.006
  311SOL     OW 1831   1.148   6.046   1.657
  311SOL    HW1 1832   1.242   6.071   1.679
  311SOL    HW2 1833   1.100   6.126   1.621
  312SOL     OW 1834   3.436   1.040   4.123
  312SOL    HW1 1835   3.471   1.133   4.108
  312SOL    HW2 1836   3.508   0.974   4.104
  313SOL     OW 1837   3.041   3.149   2.733
  313SOL    HW1 1838   3.140   3.154   2.726
  313SOL    HW2 1839   3.002   3.241   2.724
  314SOL     OW 1840   2.792   5.874   6.475
  314SOL    HW1 1841   2.721   5.838   6.414
  314SOL    HW2 1842   2.864   5.918   6.421
  315SOL     OW 1843   5.229   0.394   4.468
  315SOL    HW1 1844   5.219   0.313   4.410
  315SOL    HW2 1845   5.216   0.477   4.412
  316SOL     OW 1846   3.389   1.019   6.517
  316SOL    HW1 1847   3.459   1.019   6.588
  316SOL    HW2 1848   3.325   1.095   6.532
  317SOL     OW 1849   0.338   2.267   1.092
  317SOL    HW1 1850   0.429   2.284   1.054
  317SOL    HW2 1851   0.318   2.169   1.087
  318SOL     OW 1852   1.182   0.456   3.869
  318SOL    HW1 1853   1.216   0.544   3.903
  318SOL    HW2 1854   1.178   0.457   3.769
  319SOL     OW 1855   0.083   0.656   3.378
  319SOL    HW1 1856   0.160   0.651   3.441
  319SOL    HW2 1857   0.040   0.746   3.385
  320SOL     OW 1858   5.186   1.654   0.415
  320SOL    HW1 1859   5.089   1.637   0.432
  320SOL    HW2 1860   5.235   1.662   0.502
  321SOL     OW 1861   4.477   3.163   0.958
  321SOL    HW1 1862   4.526   3.090   0.911
  321SOL    HW2 1863   4.441   3.128   1.045
  322SOL     OW 1864   3.336   2.652   6.531
  322SOL    HW1 1865   3.377   2.697   6.611
  322SOL    HW2 1866   3.284   2.572   6.562
  323SOL     OW 1867   1.441   3.856   2.242
  323SOL    HW1 1868   1.516   3.851   2.308
  323SOL    HW2 1869   1.365   3.799   2.273
  324SOL     OW 1870   0.558   7.009   3.477
  324SOL    HW1 1871   0.619   6.939   3.513
  324SOL    HW2 1872   0.584   0.007   3.383
  325SOL     OW 1873   6.503   3.608   0.679
  325SOL    HW1 1874   6.432   3.593   0.749
  325SOL    HW2 1875   6.556   3.689   0.703
  326SOL     OW 1876   0.175   5.844   6.950
  326SOL    HW1 1877   0.207   5.808   6.862
  326SOL    HW2 1878   0.138   5.936   6.937
  327SOL     OW 1879   3.974   5.963   6.002
  327SOL    HW1 1880   3.903   6.021   6.041
  327SOL    HW2 1881   4.044   6.019   5.958
  328SOL     OW 1882   1.450   4.550   3.299
  328SOL    HW1 1883   1.454   4.486   3.222
  328SOL    HW2 1884   1.369   4.531   3.355
  329SOL     OW 1885   3.142   2.904   2.243
  329SOL    HW1 1886   3.183   2.813   2.246
  329SOL    HW2 1887   3.137   2.935   2.148
  330SOL     OW 1888   2.713   3.468   0.411
  330SOL    HW1 1889   2.754   3.466   0.502
  330SOL    HW2 1890   2.779   3.435   0.344
  331SOL     OW 1891   5.375   5.098   5.224
  331SOL    HW1 1892   5.475   5.089   5.224
  331SOL    HW2 1893   5.337   5.050   5.302
  332SOL     OW 1894   5.814   2.219   3.113
  332SOL    HW1 1895   5.792   2.122   3.102
  332SOL    HW2 1896   5.861   2.252   3.031
  333SOL     OW 1897   3.397   0.023   4.262
  333SOL    HW1 1898   3.379   7.005   4.349
  333SOL    HW2 1899   3.493   0.051   4.258
  334SOL     OW 1900   3.727   3.827   3.633
  334SOL    HW1 1901   3.695   3.745   3.681
  334SOL    HW2 1902   3.806   3.864   3.681
  335SOL     OW 1903   3.600   1.288   1.104
  335SOL    HW1 1904   3.554   1.275   1.016
  335SOL    HW2 1905   3.676   1.352   1.092
  336SOL     OW 1906   4.702   1.793   4.837
  336SOL    HW1 1907   4.633   1.863   4.853
  336SOL    HW2 1908   4.742   1.806   4.746
  337SOL     OW 1909   0.028   0.956   5.428
  337SOL    HW1 1910   6.980   0.986   5.488
  337SOL    HW2 1911   0.101   0.915   5.482
  338SOL     OW 1912   4.571   1.509   1.596
  338SOL    HW1 1913   4.510   1.551   1.528
  338SOL    HW2 1914   4.555   1.550   1.685
  339SOL     OW 1915   4.194   5.150   6.130
  339SOL    HW1 1916   4.140   5.155   6.215
  339SOL    HW2 1917   4.264   5.221   6.131
  340SOL     OW 1918   5.668   2.977   4.702
  340SOL    HW1 1919   5.671   2.908   4.775
  340SOL    HW2 1920   5.674   2.931   4.613
  341SOL     OW 1921   0.109   6.817   2.728
  341SOL    HW1 1922   0.179   6.776   2.670
  341SOL    HW2 1923   0.065   6.893   2.680
  342SOL     OW 1924   4.592   1.842   2.423
  342SOL    HW1 1925   4.585   1.934   2.386
  342SOL    HW2 1926   4.549   1.839   2.514
  343SOL     OW 1927   5.853   6.913   1.276
  343SOL    HW1 1928   5.842   6.905   1.375
  343SOL    HW2 1929   5.897   7.000   1.254
  344SOL     OW 1930   6.939   3.177   1.831
  344SOL    HW1 1931   7.011   3.109   1.827
  344SOL    HW2 1932   6.850   3.133   1.814
  345SOL     OW 1933   6.972   2.674   4.495
  345SOL    HW1 1934   7.015   2.756   4.533
  345SOL    HW2 1935   0.000   2.641   4.417
  346SOL     OW 1936   2.292   6.149   3.428
  346SOL    HW1 1937   2.330   6.058   3.410
  346SOL    HW2 1938   2.197   6.153   3.399
  347SOL     OW 1939   2.528   4.732   0.844
  347SOL    HW1 1940   2.446   4.759   0.893
  347SOL    HW2 1941   2.561   4.808   0.788
  348SOL     OW 1942   4.047   5.101   1.976
  348SOL    HW1 1943   4.076   5.095   2.071
  348SOL    HW2 1944   4.109   5.047   1.919
  349SOL     OW 1945   5.325   4.202   0.392
  349SOL    HW1 1946   5.342   4.230   0.297
  349SOL    HW2 1947   5.385   4.253   0.453
  350SOL     OW 1948   2.359   1.711   6.572
  350SOL    HW1 1949   2.353   1.716   6.473
  350SOL    HW2 1950   2.276   1.668   6.608
  351SOL     OW 1951   3.473   4.266   0.918
  351SOL    HW1 1952   3.428   4.206   0.852
  351SOL    HW2 1953   3.416   4.347   0.933
  352SOL     OW 1954   4.432   0.058   2.369
  352SOL    HW1 1955   4.514   0.097   2.411
  352SOL    HW2 1956   4.356   0.063   2.433
  353SOL     OW 1957   1.752   6.704   0.750
  353SOL    HW1 1958   1.842   6.668   0.726
  353SOL    HW2 1959   1.763   6.791   0.800
  354SOL     OW 1960   0.809   2.467   0.313
  354SOL    HW1 1961   0.815   2.562   0.343
  354SOL    HW2 1962   0.799   2.408   0.393
  355SOL     OW 1963   0.937   2.744   3.266
  355SOL    HW1 1964   0.937   2.735   3.167
  355SOL    HW2 1965   0.980   2.664   3.308
  356SOL     OW 1966   2.899   0.167   5.336
  356SOL    HW1 1967   2.814   0.163   5.283
  356SOL    HW2 1968   2.884   0.224   5.418
  357SOL     OW 1969   6.179   6.740   4.351
  357SOL    HW1 1970   6.080   6.727   4.352
  357SOL    HW2 1971   6.200   6.838   4.354
  358SOL     OW 1972   3.222   5.995   6.255
  358SOL    HW1 1973   3.222   6.047   6.169
  358SOL    HW2 1974   3.140   5.937   6.259
  359SOL     OW 1975   1.325   2.171   1.867
  359SOL    HW1 1976   1.363   2.263   1.870
  359SOL    HW2 1977   1.278   2.151   1.954
  360SOL     OW 1978   2.206   4.304   3.561
  360SOL    HW1 1979   2.254   4.281   3.477
  360SOL    HW2 1980   2.135   4.236   3.579
  361SOL     OW 1981   0.378   1.867   2.224
  361SOL    HW1 1982   0.289   1.913   2.220
  361SOL    HW2 1983   0.364   1.768   2.219
  362SOL     OW 1984   3.610   3.179   1.795
  362SOL    HW1 1985   3.709   3.184   1.796
  362SOL    HW2 1986   3.573   3.220   1.878
  363SOL     OW 1987   4.729   5.225   1.591
  363SOL    HW1 1988   4.819   5.267   1.601
  363SOL    HW2 1989   4.661   5.296   1.572
  364SOL     OW 1990   0.968   6.997   0.172
  364SOL    HW1 1991   1.065   7.018   0.179
  364SOL    HW2 1992   0.951   6.944   0.089
  365SOL     OW 1993   5.689   1.160   4.001
  365SOL    HW1 1994   5.731   1.121   4.083
  365SOL    HW2 1995   5.752   1.225   3.959
  366SOL     OW 1996   5.556   1.876   0.047
  366SOL    HW1 1997   5.478   1.842   0.100
  366SOL    HW2 1998   5.612   1.799   0.016
  367SOL     OW 1999   5.275   1.032   6.796
  367SOL    HW1 2000   5.302   1.097   6.725
  367SOL    HW2 2001   5.287   1.075   6.886
  368SOL     OW 2002   1.289   1.818   5.142
  368SOL    HW1 2003   1.201   1.843   5.102
  368SOL    HW2 2004   1.316   1.887   5.209
  369SOL     OW 2005   5.853   4.186   0.476
  369SOL    HW1 2006   5.842   4.281   0.506
  369SOL    HW2 2007   5.913   4.138   0.540
  370SOL     OW 2008   2.347   2.699   3.273
  370SOL    HW1 2009   2.431   2.749   3.253
  370SOL    HW2 2010   2.314   2.653   3.191
  371SOL     OW 2011   1.268   5.965   6.756
  371SOL    HW1 2012   1.216   5.994   6.676
  371SOL    HW2 2013   1.273   6.040   6.822
  372SOL     OW 2014   2.614   5.887   5.690
  372SOL    HW1 2015   2.622   5.794   5.727
  372SOL    HW2 2016   2.523   5.900   5.652
  373SOL     OW 2017   6.167   4.675   3.076
  373SOL    HW1 2018   6.232   4.664   3.152
  373SOL    HW2 2019   6.130   4.585   3.051
  374SOL     OW 2020   3.068   1.848   2.478
  374SOL    HW1 2021   3.011   1.909   2.534
  374SOL    HW2 2022   3.153   1.828   2.527
  375SOL     OW 2023   1.413   5.779   4.104
  375SOL    HW1 2024   1.374   5.743   4.189
  375SOL    HW2 2025   1.348   5.765   4.030
  376SOL     OW 2026   4.105   0.558   3.584
  376SOL    HW1 2027   4.168   0.525   3.654
  376SOL    HW2 2028   4.135   0.648   3.553
  377SOL     OW 2029   2.005   2.009   6.557
  377SOL    HW1 2030   1.942   1.931   6.553
  377SOL    HW2 2031   2.097   1.976   6.576
  378SOL     OW 2032   3.849   1.561   2.478
  378SOL    HW1 2033   3.894   1.626   2.417
  378SOL    HW2 2034   3.776   1.607   2.529
  379SOL     OW 2035   4.079   2.243   5.913
  379SOL    HW1 2036   4.039   2.278   5.998
  379SOL    HW2 2037   4.097   2.145   5.923
  380SOL     OW 2038   4.193   2.439   0.407
  380SOL    HW1 2039   4.249   2.522   0.403
  380SOL    HW2 2040   4.167   2.421   0.502
  381SOL     OW 2041   2.091   3.842   2.904
  381SOL    HW1 2042   2.005   3.878   2.867
  381SOL    HW2 2043   2.076   3.806   2.996
  382SOL     OW 2044   6.154   0.634   6.751
  382SOL    HW1 2045   6.251   0.607   6.756
  382SOL    HW2 2046   6.139   0.689   6.669
  383SOL     OW 2047   4.609   2.714   0.274
  383SOL    HW1 2048   4.582   2.677   0.363
  383SOL    HW2 2049   4.569   2.805   0.262
  384SOL     OW 2050   6.771   3.826   5.155
  384SOL    HW1 2051   6.791   3.831   5.253
  384SOL    HW2 2052   6.829   3.755   5.113
  385SOL     OW 2053   4.807   3.309   0.359
  385SOL    HW1 2054   4.805   3.210   0.345
  385SOL    HW2 2055   4.755   3.353   0.286
  386SOL     OW 2056   4.379   6.558   4.310
  386SOL    HW1 2057   4.355   6.466   4.279
  386SOL    HW2 2058   4.332   6.577   4.396
  387SOL     OW 2059   2.938   5.976   4.180
  387SOL    HW1 2060   2.888   5.919   4.245
  387SOL    HW2 2061   3.010   5.922   4.136
  388SOL     OW 2062   1.050   4.696   6.672
  388SOL    HW1 2063   1.021   4.617   6.726
  388SOL    HW2 2064   1.049   4.778   6.729
  389SOL     OW 2065   3.235   3.027   1.660
  389SOL    HW1 2066   3.161   3.001   1.721
  389SOL    HW2 2067   3.258   3.123   1.674
  390SOL     OW 2068   2.434   1.152   4.389
  390SOL    HW1 2069   2.366   1.105   4.446
  390SOL    HW2 2070   2.393   1.234   4.348
  391SOL     OW 2071   1.430   2.265   0.182
  391SOL    HW1 2072   1.457   2.207   0.105
  391SOL    HW2 2073   1.397   2.208   0.257
  392SOL     OW 2074   3.439   5.621   3.684
  392SOL    HW1 2075   3.538   5.611   3.679
  392SOL    HW2 2076   3.401   5.630   3.592
  393SOL     OW 2077   6.371   3.949   4.959
  393SOL    HW1 2078   6.274   3.926   4.955
  393SOL    HW2 2079   6.417   3.919   4.875
  394SOL     OW 2080   2.310   1.101   5.889
  394SOL    HW1 2081   2.380   1.043   5.930
  394SOL    HW2 2082   2.227   1.048   5.875
  395SOL     OW 2083   6.500   3.318   1.469
  395SOL    HW1 2084   6.438   3.377   1.522
  395SOL    HW2 2085   6.472   3.223   1.479
  396SOL     OW 2086   3.550   2.757   5.353
  396SOL    HW1 2087   3.608   2.764   5.434
  396SOL    HW2 2088   3.599   2.795   5.274
  397SOL     OW 2089   3.662   1.701   0.101
  397SOL    HW1 2090   3.612   1.658   0.026
  397SOL    HW2 2091   3.758   1.675   0.096
  398SOL     OW 2092   1.324   4.960   2.821
  398SOL    HW1 2093   1.362   5.011   2.744
  398SOL    HW2 2094   1.297   5.025   2.893
  399SOL     OW 2095   5.346   4.653   2.631
  399SOL    HW1 2096   5.419   4.607   2.681
  399SOL    HW2 2097   5.268   4.668   2.691
  400SOL     OW 2098   2.260   4.835   4.563
  400SOL    HW1 2099   2.315   4.844   4.647
  400SOL    HW2 2100   2.281   4.747   4.520
  401SOL     OW 2101   5.531   1.307   0.311
  401SOL    HW1 2102   5.523   1.208   0.322
  401SOL    HW2 2103   5.532   1.351   0.401
  402SOL     OW 2104   6.482   4.628   1.405
  402SOL    HW1 2105   6.530   4.614   1.319
  402SOL    HW2 2106   6.543   4.673   1.470
  403SOL     OW 2107   5.295   3.977   0.223
  403SOL    HW1 2108   5.359   3.986   0.147
  403SOL    HW2 2109   5.308   4.052   0.287
  404SOL     OW 2110   0.313   6.667   4.619
  404SOL    HW1 2111   0.363   6.743   4.577
  404SOL    HW2 2112   0.215   6.677   4.599
  405SOL     OW 2113   0.766   2.547   1.098
  405SOL    HW1 2114   0.850   2.497   1.075
  405SOL    HW2 2115   0.789   2.642   1.119
  406SOL     OW 2116   0.887   2.814   2.814
  406SOL    HW1 2117   0.842   2.885   2.869
  406SOL    HW2 2118   0.871   2.724   2.854
  407SOL     OW 2119   2.690   1.382   3.542
  407SOL    HW1 2120   2.712   1.476   3.516
  407SOL    HW2 2121   2.768   1.342   3.591
  408SOL     OW 2122   1.794   0.780   2.761
  408SOL    HW1 2123   1.735   0.720   2.707
  408SOL    HW2 2124   1.864   0.820   2.702
  409SOL     OW 2125   6.228   3.523   3.765
  409SOL    HW1 2126   6.319   3.486   3.783
  409SOL    HW2 2127   6.218   3.610   3.813
  410SOL     OW 2128   2.929   0.405   6.456
  410SOL    HW1 2129   2.920   0.452   6.544
  410SOL    HW2 2130   2.941   0.473   6.384
  411SOL     OW 2131   0.462   3.565   5.084
  411SOL    HW1 2132   0.512   3.574   5.171
  411SOL    HW2 2133   0.369   3.533   5.102
  412SOL     OW 2134   3.872   0.617   2.171
  412SOL    HW1 2135   3.802   0.620   2.100
  412SOL    HW2 2136   3.951   0.565   2.139
  413SOL     OW 2137   2.520   0.513   2.396
  413SOL    HW1 2138   2.480   0.523   2.487
  413SOL    HW2 2139   2.617   0.493   2.404
  414SOL     OW 2140   4.873   3.920   0.035
  414SOL    HW1 2141   4.779   3.900   0.063
  414SOL    HW2 2142   4.937   3.866   0.091
  415SOL     OW 2143   3.641   6.264   2.277
  415SOL    HW1 2144   3.707   6.190   2.263
  415SOL    HW2 2145   3.679   6.331   2.341
  416SOL     OW 2146   3.823   5.693   5.943
  416SOL    HW1 2147   3.863   5.623   5.884
  416SOL    HW2 2148   3.881   5.775   5.942
  417SOL     OW 2149   4.694   4.909   0.941
  417SOL    HW1 2150   4.601   4.887   0.911
  417SOL    HW2 2151   4.717   4.853   1.021
  418SOL     OW 2152   5.716   4.541   0.703
  418SOL    HW1 2153   5.686   4.637   0.699
  418SOL    HW2 2154   5.768   4.519   0.621
  419SOL     OW 2155   6.109   6.364   1.127
  419SOL    HW1 2156   6.026   6.418   1.135
  419SOL    HW2 2157   6.120   6.306   1.207
  420SOL     OW 2158   4.648   4.268   7.013
  420SOL    HW1 2159   4.706   4.330   0.041
  420SOL    HW2 2160   4.696   4.182   6.999
  421SOL     OW 2161   1.372   5.659   6.403
  421SOL    HW1 2162   1.284   5.680   6.361
  421SOL    HW2 2163   1.398   5.733   6.465
  422SOL     OW 2164   5.754   3.258   6.510
  422SOL    HW1 2165   5.808   3.260   6.426
  422SOL    HW2 2166   5.793   3.189   6.572
  423SOL     OW 2167   0.762   3.224   5.676
  423SOL    HW1 2168   0.787   3.261   5.765
  423SOL    HW2 2169   0.732   3.298   5.616
  424SOL     OW 2170   2.049   3.705   0.272
  424SOL    HW1 2171   2.139   3.749   0.279
  424SOL    HW2 2172   2.048   3.645   0.191
  425SOL     OW 2173   3.191   0.227   1.036
  425SOL    HW1 2174   3.246   0.299   1.077
  425SOL    HW2 2175   3.191   0.146   1.095
  426SOL     OW 2176   6.042   4.093   5.080
  426SOL    HW1 2177   6.051   4.172   5.019
  426SOL    HW2 2178   6.050   4.009   5.026
  427SOL     OW 2179   4.426   3.471   0.926
  427SOL    HW1 2180   4.416   3.374   0.905
  427SOL    HW2 2181   4.382   3.491   1.013
  428SOL     OW 2182   3.671   1.549   5.562
  428SOL    HW1 2183   3.581   1.514   5.588
  428SOL    HW2 2184   3.669   1.649   5.559
  429SOL     OW 2185   2.760   5.373   0.034
  429SOL    HW1 2186   2.830   5.444   0.035
  429SOL    HW2 2187   2.671   5.413   0.013
  430SOL     OW 2188   1.749   6.819   4.953
  430SOL    HW1 2189   1.767   6.727   4.916
  430SOL    HW2 2190   1.678   6.863   4.898
  431SOL     OW 2191   3.242   1.551   6.618
  431SOL    HW1 2192   3.168   1.495   6.582
  431SOL    HW2 2193   3.242   1.640   6.572
  432SOL     OW 2194   0.142   1.471   1.270
  432SOL    HW1 2195   0.122   1.569   1.264
  432SOL    HW2 2196   0.081   1.420   1.210
  433SOL     OW 2197   3.127   5.923   4.581
  433SOL    HW1 2198   3.203   5.950   4.640
  433SOL    HW2 2199   3.062   5.999   4.574
  434SOL     OW 2200   6.315   3.726   1.668
  434SOL    HW1 2201   6.340   3.781   1.748
  434SOL    HW2 2202   6.218   3.702   1.672
  435SOL     OW 2203   3.554   3.744   0.489
  435SOL    HW1 2204   3.461   3.716   0.468
  435SOL    HW2 2205   3.572   3.835   0.451
  436SOL     OW 2206   2.560   0.602   0.290
  436SOL    HW1 2207   2.627   0.589   0.217
  436SOL    HW2 2208   2.560   0.523   0.351
  437SOL     OW 2209   6.691   6.720   5.897
  437SOL    HW1 2210   6.724   6.739   5.804
  437SOL    HW2 2211   6.746   6.772   5.963
  438SOL     OW 2212   2.241   3.045   1.814
  438SOL    HW1 2213   2.143   3.027   1.823
  438SOL    HW2 2214   2.255   3.130   1.763
  439SOL     OW 2215   6.171   4.749   2.442
  439SOL    HW1 2216   6.173   4.801   2.357
  439SOL    HW2 2217   6.077   4.728   2.467
  440SOL     OW 2218   1.178   2.797   3.676
  440SOL    HW1 2219   1.136   2.881   3.644
  440SOL    HW2 2220   1.108   2.737   3.715
  441SOL     OW 2221   1.025   0.677   3.488
  441SOL    HW1 2222   1.045   0.720   3.399
  441SOL    HW2 2223   1.007   0.749   3.556
  442SOL     OW 2224   0.153   4.477   0.044
  442SOL    HW1 2225   0.209   4.460   0.125
  442SOL    HW2 2226   0.151   4.394   7.013
  443SOL     OW 2227   1.035   4.236   6.009
  443SOL    HW1 2228   1.085   4.149   6.003
  443SOL    HW2 2229   0.976   4.246   5.929
  444SOL     OW 2230   4.594   3.055   6.330
  444SOL    HW1 2231   4.552   3.041   6.240
  444SOL    HW2 2232   4.688   3.021   6.327
  445SOL     OW 2233   1.733   3.956   3.145
  445SOL    HW1 2234   1.665   3.900   3.192
  445SOL    HW2 2235   1.821   3.949   3.192
  446SOL     OW 2236   4.094   5.339   4.063
  446SOL    HW1 2237   4.007   5.292   4.079
  446SOL    HW2 2238   4.146   5.290   3.993
  447SOL     OW 2239   0.176   5.633   0.353
  447SOL    HW1 2240   0.204   5.552   0.303
  447SOL    HW2 2241   0.145   5.607   0.445
  448SOL     OW 2242   4.587   1.047   5.675
  448SOL    HW1 2243   4.595   0.952   5.703
  448SOL    HW2 2244   4.522   1.053   5.599
  449SOL     OW 2245   5.636   0.014   4.424
  449SOL    HW1 2246   5.585   7.010   4.343
  449SOL    HW2 2247   5.722   6.990   4.429
  450SOL     OW 2248   0.018   6.070   3.295
  450SOL    HW1 2249   6.970   6.075   3.227
  450SOL    HW2 2250   0.072   6.155   3.292
  451SOL     OW 2251   6.148   2.178   3.849
  451SOL    HW1 2252   6.110   2.253   3.794
  451SOL    HW2 2253   6.117   2.091   3.812
  452SOL     OW 2254   6.990   4.611   6.486
  452SOL    HW1 2255   0.018   4.677   6.436
  452SOL    HW2 2256   6.907   4.655   6.521
  453SOL     OW 2257   2.621   0.725   5.409
  453SOL    HW1 2258   2.537   0.707   5.460
  453SOL    HW2 2259   2.678   0.789   5.460
  454SOL     OW 2260   1.323   5.764   0.127
  454SOL    HW1 2261   1.292   5.675   0.161
  454SOL    HW2 2262   1.256   5.834   0.152
  455SOL     OW 2263   5.159   1.147   5.773
  455SOL    HW1 2264   5.147   1.112   5.681
  455SOL    HW2 2265   5.247   1.195   5.780
  456SOL     OW 2266   4.571   5.455   6.934
  456SOL    HW1 2267   4.601   5.451   6.839
  456SOL    HW2 2268   4.646   5.426   6.994
  457SOL     OW 2269   0.957   5.561   2.194
  457SOL    HW1 2270   0.888   5.491   2.211
  457SOL    HW2 2271   0.986   5.602   2.280
  458SOL     OW 2272   6.691   6.190   5.893
  458SOL    HW1 2273   6.714   6.287   5.887
  458SOL    HW2 2274   6.604   6.173   5.846
  459SOL     OW 2275   1.793   0.136   3.179
  459SOL    HW1 2276   1.889   0.162   3.178
  459SOL    HW2 2277   1.737   0.214   3.153
  460SOL     OW 2278   6.890   1.606   3.531
  460SOL    HW1 2279   6.950   1.526   3.540
  460SOL    HW2 2280   6.841   1.621   3.617
  461SOL     OW 2281   5.162   6.197   5.676
  461SOL    HW1 2282   5.199   6.280   5.633
  461SOL    HW2 2283   5.147   6.214   5.774
  462SOL     OW 2284   2.969   3.239   6.741
  462SOL    HW1 2285   2.904   3.183   6.690
  462SOL    HW2 2286   2.920   3.311   6.790
  463SOL     OW 2287   6.911   5.877   1.729
  463SOL    HW1 2288   6.969   5.916   1.657
  463SOL    HW2 2289   6.846   5.947   1.760
  464SOL     OW 2290   1.428   1.228   5.604
  464SOL    HW1 2291   1.450   1.252   5.699
  464SOL    HW2 2292   1.464   1.137   5.584
  465SOL     OW 2293   6.774   3.238   5.125
  465SOL    HW1 2294   6.836   3.243   5.203
  465SOL    HW2 2295   6.759   3.330   5.089
  466SOL     OW 2296   2.065   0.176   3.146
  466SOL    HW1 2297   2.055   0.274   3.128
  466SOL    HW2 2298   2.162   0.155   3.161
  467SOL     OW 2299   2.005   0.943   4.563
  467SOL    HW1 2300   1.954   1.022   4.527
  467SOL    HW2 2301   1.986   0.863   4.507
  468SOL     OW 2302   3.474   4.515   1.482
  468SOL    HW1 2303   3.398   4.488   1.542
  468SOL    HW2 2304   3.553   4.458   1.502
  469SOL     OW 2305   2.463   5.091   6.840
  469SOL    HW1 2306   2.368   5.059   6.837
  469SOL    HW2 2307   2.507   5.057   6.924
  470SOL     OW 2308   3.614   1.319   2.627
  470SOL    HW1 2309   3.654   1.390   2.685
  470SOL    HW2 2310   3.645   1.332   2.533
  471SOL     OW 2311   2.478   1.708   4.817
  471SOL    HW1 2312   2.453   1.630   4.761
  471SOL    HW2 2313   2.578   1.712   4.827
  472SOL     OW 2314   4.044   4.318   5.260
  472SOL    HW1 2315   4.072   4.260   5.336
  472SOL    HW2 2316   4.124   4.368   5.226
  473SOL     OW 2317   1.099   4.311   3.176
  473SOL    HW1 2318   1.123   4.232   3.232
  473SOL    HW2 2319   1.009   4.297   3.136
  474SOL     OW 2320   4.235   5.079   4.653
  474SOL    HW1 2321   4.317   5.047   4.700
  474SOL    HW2 2322   4.179   5.000   4.626
  475SOL     OW 2323   0.652   6.521   5.940
  475SOL    HW1 2324   0.679   6.545   5.847
  475SOL    HW2 2325   0.553   6.528   5.949
  476SOL     OW 2326   0.226   4.990   2.120
  476SOL    HW1 2327   0.211   5.089   2.117
  476SOL    HW2 2328   0.143   4.943   2.089
  477SOL     OW 2329   1.410   5.537   4.337
  477SOL    HW1 2330   1.334   5.488   4.381
  477SOL    HW2 2331   1.493   5.481   4.344
  478SOL     OW 2332   2.014   5.409   3.387
  478SOL    HW1 2333   2.045   5.369   3.474
  478SOL    HW2 2334   2.060   5.498   3.374
  479SOL     OW 2335   3.522   1.661   1.116
  479SOL    HW1 2336   3.463   1.715   1.057
  479SOL    HW2 2337   3.564   1.720   1.185
  480SOL     OW 2338   1.407   6.832   3.240
  480SOL    HW1 2339   1.411   6.872   3.149
  480SOL    HW2 2340   1.494   6.787   3.261
  481SOL     OW 2341   3.212   6.851   1.413
  481SOL    HW1 2342   3.241   6.758   1.390
  481SOL    HW2 2343   3.129   6.847   1.470
  482SOL     OW 2344   5.677   4.740   1.530
  482SOL    HW1 2345   5.719   4.692   1.453
  482SOL    HW2 2346   5.607   4.682   1.571
  483SOL     OW 2347   5.915   1.677   1.279
  483SOL    HW1 2348   5.900   1.738   1.201
  483SOL    HW2 2349   5.889   1.584   1.253
  484SOL     OW 2350   6.955   1.837   5.337
  484SOL    HW1 2351   0.006   1.889   5.299
  484SOL    HW2 2352   6.873   1.853   5.281
  485SOL     OW 2353   3.706   5.442   1.889
  485SOL    HW1 2354   3.627   5.397   1.930
  485SOL    HW2 2355   3.789   5.392   1.912
  486SOL     OW 2356   0.114   0.615   0.372
  486SOL    HW1 2357   0.165   0.573   0.297
  486SOL    HW2 2358   0.160   0.698   0.403
  487SOL     OW 2359   6.278   2.682   6.374
  487SOL    HW1 2360   6.362   2.633   6.397
  487SOL    HW2 2361   6.267   2.685   6.275
  488SOL     OW 2362   0.484   2.730   2.605
  488SOL    HW1 2363   0.485   2.812   2.662
  488SOL    HW2 2364   0.530   2.655   2.654
  489SOL     OW 2365   3.562   6.177   6.022
  489SOL    HW1 2366   3.588   6.091   6.065
  489SOL    HW2 2367   3.492   6.160   5.953
  490SOL     OW 2368   5.092   6.374   4.625
  490SOL    HW1 2369   5.172   6.345   4.679
  490SOL    HW2 2370   5.114   6.368   4.527
  491SOL     OW 2371   6.791   2.588   3.103
  491SOL    HW1 2372   6.791   2.580   3.203
  491SOL    HW2 2373   6.859   2.655   3.075
  492SOL     OW 2374   1.753   0.753   4.998
  492SOL    HW1 2375   1.780   0.808   4.919
  492SOL    HW2 2376   1.724   0.813   5.072
  493SOL     OW 2377   6.423   4.169   4.068
  493SOL    HW1 2378   6.391   4.264   4.066
  493SOL    HW2 2379   6.492   4.159   4.140
  494SOL     OW 2380   6.494   1.055   0.322
  494SOL    HW1 2381   6.463   1.101   0.239
  494SOL    HW2 2382   6.479   0.957   0.314
  495SOL     OW 2383   4.234   4.331   1.458
  495SOL    HW1 2384   4.216   4.405   1.523
  495SOL    HW2 2385   4.316   4.281   1.486
  496SOL     OW 2386   6.002   3.385   3.869
  496SOL    HW1 2387   6.079   3.431   3.824
  496SOL    HW2 2388   5.940   3.454   3.908
  497SOL     OW 2389   4.624   0.572   3.994
  497SOL    HW1 2390   4.590   0.665   4.007
  497SOL    HW2 2391   4.572   0.527   3.921
  498SOL     OW 2392   1.504   3.253   2.670
  498SOL    HW1 2393   1.564   3.192   2.619
  498SOL    HW2 2394   1.419   3.267   2.619
  499SOL     OW 2395   3.430   1.844   4.999
  499SOL    HW1 2396   3.438   1.937   5.034
  499SOL    HW2 2397   3.388   1.786   5.069
  500SOL     OW 2398   0.935   4.262   2.764
  500SOL    HW1 2399   0.942   4.345   2.709
  500SOL    HW2 2400   1.018   4.207   2.753
  501SOL     OW 2401   0.514   4.483   5.996
  501SOL    HW1 2402   0.437   4.519   6.048
  501SOL    HW2 2403   0.512   4.520   5.903
  502SOL     OW 2404   3.169   5.688   6.700
  502SOL    HW1 2405   3.102   5.629   6.655
  502SOL    HW2 2406   3.158   5.781   6.665
  503SOL     OW 2407   5.191   5.304   5.303
  503SOL    HW1 2408   5.273   5.255   5.272
  503SOL    HW2 2409   5.120   5.239   5.327
  504SOL     OW 2410   2.263   5.973   4.394
  504SOL    HW1 2411   2.168   5.991   4.418
  504SOL    HW2 2412   2.296   6.044   4.332
  505SOL     OW 2413   4.476   6.831   5.276
  505SOL    HW1 2414   4.542   6.756   5.273
  505SOL    HW2 2415   4.395   6.803   5.328
  506SOL     OW 2416   2.604   4.002   6.896
  506SOL    HW1 2417   2.691   3.955   6.907
  506SOL    HW2 2418   2.538   3.965   6.962
  507SOL     OW 2419   3.270   1.518   4.280
  507SOL    HW1 2420   3.272   1.534   4.181
  507SOL    HW2 2421   3.327   1.438   4.301
  508SOL     OW 2422   6.113   4.223   3.707
  508SOL    HW1 2423   6.135   4.140   3.757
  508SOL    HW2 2424   6.105   4.300   3.771
  509SOL     OW 2425   4.525   2.665   1.846
  509SOL    HW1 2426   4.546   2.732   1.775
  509SOL    HW2 2427   4.458   2.600   1.812
  510SOL     OW 2428   0.336   3.997   4.180
  510SOL    HW1 2429   0.391   3.940   4.241
  510SOL    HW2 2430   0.376   3.995   4.088
  511SOL     OW 2431   0.674   6.098   0.838
  511SOL    HW1 2432   0.688   6.081   0.741
  511SOL    HW2 2433   0.684   6.013   0.889
  512SOL     OW 2434   0.304   3.782   6.497
  512SOL    HW1 2435   0.296   3.873   6.537
  512SOL    HW2 2436   0.314   3.714   6.570
  513SOL     OW 2437   6.979   5.818   4.378
  513SOL    HW1 2438   0.005   5.764   4.311
  513SOL    HW2 2439   0.018   5.870   4.435
  514SOL     OW 2440   5.902   1.647   3.797
  514SOL    HW1 2441   5.925   1.624   3.703
  514SOL    HW2 2442   5.985   1.669   3.848
  515SOL     OW 2443   1.860   6.434   0.312
  515SOL    HW1 2444   1.933   6.393   0.366
  515SOL    HW2 2445   1.889   6.440   0.216
  516SOL     OW 2446   1.747   5.183   2.366
  516SOL    HW1 2447   1.732   5.188   2.465
  516SOL    HW2 2448   1.845   5.172   2.348
  517SOL     OW 2449   5.061   0.800   0.398
  517SOL    HW1 2450   5.010   0.884   0.416
  517SOL    HW2 2451   5.034   0.763   0.310
  518SOL     OW 2452   2.365   2.159   0.534
  518SOL    HW1 2453   2.316   2.073   0.522
  518SOL    HW2 2454   2.464   2.142   0.537
  519SOL     OW 2455   0.916   6.087   0.568
  519SOL    HW1 2456   0.966   6.030   0.502
  519SOL    HW2 2457   0.858   6.152   0.519
  520SOL     OW 2458   5.860   4.702   4.914
  520SOL    HW1 2459   5.810   4.617   4.895
  520SOL    HW2 2460   5.957   4.682   4.925
  521SOL     OW 2461   6.627   1.124   0.924
  521SOL    HW1 2462   6.583   1.127   1.014
  521SOL    HW2 2463   6.704   1.061   0.927
  522SOL     OW 2464   3.766   3.507   4.920
  522SOL    HW1 2465   3.677   3.477   4.954
  522SOL    HW2 2466   3.813   3.558   4.992
  523SOL     OW 2467   6.701   6.453   4.936
  523SOL    HW1 2468   6.671   6.516   5.008
  523SOL    HW2 2469   6.625   6.433   4.875
  524SOL     OW 2470   3.270   1.091   5.569
  524SOL    HW1 2471   3.355   1.087   5.516
  524SOL    HW2 2472   3.271   1.022   5.641
  525SOL     OW 2473   2.381   3.422   6.746
  525SOL    HW1 2474   2.462   3.412   6.688
  525SOL    HW2 2475   2.408   3.418   6.842
  526SOL     OW 2476   3.953   5.787   4.799
  526SOL    HW1 2477   4.045   5.769   4.835
  526SOL    HW2 2478   3.892   5.712   4.824
  527SOL     OW 2479   0.770   1.897   5.999
  527SOL    HW1 2480   0.726   1.974   6.046
  527SOL    HW2 2481   0.803   1.832   6.067
  528SOL     OW 2482   2.782   0.503   5.080
  528SOL    HW1 2483   2.778   0.602   5.068
  528SOL    HW2 2484   2.817   0.461   4.997
  529SOL     OW 2485   6.933   4.920   4.210
  529SOL    HW1 2486   6.917   4.942   4.306
  529SOL    HW2 2487   7.008   4.977   4.175
  530SOL     OW 2488   1.863   3.208   5.765
  530SOL    HW1 2489   1.868   3.108   5.773
  530SOL    HW2 2490   1.941   3.241   5.712
  531SOL     OW 2491   6.983   0.375   0.786
  531SOL    HW1 2492   7.009   0.355   0.880
  531SOL    HW2 2493   0.022   0.440   0.746
  532SOL     OW 2494   1.690   0.804   5.584
  532SOL    HW1 2495   1.771   0.827   5.530
  532SOL    HW2 2496   1.610   0.851   5.546
  533SOL     OW 2497   5.378   6.636   4.200
  533SOL    HW1 2498   5.414   6.729   4.188
  533SOL    HW2 2499   5.303   6.637   4.266
  534SOL     OW 2500   4.012   5.973   2.041
  534SOL    HW1 2501   3.952   5.984   1.962
  534SOL    HW2 2502   4.067   5.890   2.031
  535SOL     OW 2503   0.037   3.563   3.336
  535SOL    HW1 2504   0.023   3.588   3.432
  535SOL    HW2 2505   0.064   3.467   3.330
  536SOL     OW 2506   1.268   5.379   0.811
  536SOL    HW1 2507   1.292   5.461   0.761
  536SOL    HW2 2508   1.268   5.398   0.909
  537SOL     OW 2509   2.463   0.213   2.682
  537SOL    HW1 2510   2.398   0.264   2.739
  537SOL    HW2 2511   2.435   0.220   2.586
  538SOL     OW 2512   1.465   4.503   3.742
  538SOL    HW1 2513   1.519   4.423   3.718
  538SOL    HW2 2514   1.368   4.483   3.730
  539SOL     OW 2515   1.518   4.720   1.643
  539SOL    HW1 2516   1.546   4.655   1.574
  539SOL    HW2 2517   1.440   4.774   1.609
  540SOL     OW 2518   1.393   2.424   1.722
  540SOL    HW1 2519   1.316   2.487   1.713
  540SOL    HW2 2520   1.428   2.400   1.632
  541SOL     OW 2521   3.560   5.353   5.037
  541SOL    HW1 2522   3.597   5.305   4.958
  541SOL    HW2 2523   3.519   5.440   5.007
  542SOL     OW 2524   6.255   5.680   6.875
  542SOL    HW1 2525   6.323   5.695   6.803
  542SOL    HW2 2526   6.206   5.595   6.857
  543SOL     OW 2527   6.938   6.293   0.280
  543SOL    HW1 2528   6.854   6.320   0.233
  543SOL    HW2 2529   6.997   6.372   0.290
  544SOL     OW 2530   0.929   5.323   6.993
  544SOL    HW1 2531   0.921   5.310   0.066
  544SOL    HW2 2532   0.914   5.420   6.971
  545SOL     OW 2533   3.423   2.095   3.922
  545SOL    HW1 2534   3.369   2.123   4.001
  545SOL    HW2 2535   3.362   2.078   3.845
  546SOL     OW 2536   1.177   3.789   0.405
  546SOL    HW1 2537   1.189   3.859   0.334
  546SOL    HW2 2538   1.243   3.805   0.478
  547SOL     OW 2539   3.106   2.782   0.057
  547SOL    HW1 2540   3.168   2.742   7.016
  547SOL    HW2 2541   3.015   2.742   0.047
  548SOL     OW 2542   3.470   3.218   4.549
  548SOL    HW1 2543   3.395   3.273   4.512
  548SOL    HW2 2544   3.557   3.265   4.533
  549SOL     OW 2545   6.615   3.527   1.889
  549SOL    HW1 2546   6.599   3.560   1.982
  549SOL    HW2 2547   6.703   3.480   1.884
  550SOL     OW 2548   6.550   4.180   1.636
  550SOL    HW1 2549   6.470   4.142   1.590
  550SOL    HW2 2550   6.532   4.188   1.734
  551SOL     OW 2551   6.902   2.282   6.645
  551SOL    HW1 2552   6.895   2.363   6.702
  551SOL    HW2 2553   6.953   2.211   6.693
  552SOL     OW 2554   4.928   5.777   0.699
  552SOL    HW1 2555   4.925   5.857   0.640
  552SOL    HW2 2556   4.953   5.696   0.645
  553SOL     OW 2557   1.610   1.789   1.572
  553SOL    HW1 2558   1.627   1.862   1.506
  553SOL    HW2 2559   1.542   1.819   1.639
  554SOL     OW 2560   5.187   5.606   5.346
  554SOL    HW1 2561   5.102   5.623   5.396
  554SOL    HW2 2562   5.166   5.584   5.251
  555SOL     OW 2563   1.921   4.425   4.498
  555SOL    HW1 2564   1.827   4.454   4.477
  555SOL    HW2 2565   1.972   4.502   4.534
  556SOL     OW 2566   5.602   3.442   2.867
  556SOL    HW1 2567   5.522   3.383   2.865
  556SOL    HW2 2568   5.669   3.409   2.800
  557SOL     OW 2569   0.436   5.736   6.247
  557SOL    HW1 2570   0.397   5.820   6.210
  557SOL    HW2 2571   0.399   5.719   6.338
  558SOL     OW 2572   4.115   4.111   5.424
  558SOL    HW1 2573   4.134   4.142   5.517
  558SOL    HW2 2574   4.068   4.023   5.427
  559SOL     OW 2575   6.138   5.998   6.137
  559SOL    HW1 2576   6.187   5.917   6.104
  559SOL    HW2 2577   6.043   5.994   6.107
  560SOL     OW 2578   4.253   6.648   6.771
  560SOL    HW1 2579   4.277   6.608   6.683
  560SOL    HW2 2580   4.191   6.725   6.757
  561SOL     OW 2581   5.360   6.494   0.913
  561SOL    HW1 2582   5.340   6.573   0.854
  561SOL    HW2 2583   5.356   6.521   1.009
  562SOL     OW 2584   6.542   1.131   6.135
  562SOL    HW1 2585   6.538   1.220   6.179
  562SOL    HW2 2586   6.614   1.131   6.065
  563SOL     OW 2587   3.383   6.695   5.066
  563SOL    HW1 2588   3.299   6.678   5.015
  563SOL    HW2 2589   3.393   6.625   5.137
  564SOL     OW 2590   0.378   1.868   6.808
  564SOL    HW1 2591   0.408   1.962   6.795
  564SOL    HW2 2592   0.293   1.867   6.860
  565SOL     OW 2593   4.653   4.281   5.232
  565SOL    HW1 2594   4.624   4.191   5.264
  565SOL    HW2 2595   4.682   4.275   5.137
  566SOL     OW 2596   5.460   5.187   2.542
  566SOL    HW1 2597   5.505   5.209   2.455
  566SOL    HW2 2598   5.433   5.272   2.588
  567SOL     OW 2599   3.929   3.826   4.543
  567SOL    HW1 2600   3.899   3.734   4.519
  567SOL    HW2 2601   3.926   3.884   4.462
  568SOL     OW 2602   1.837   1.636   5.848
  568SOL    HW1 2603   1.885   1.554   5.879
  568SOL    HW2 2604   1.767   1.661   5.915
  569SOL     OW 2605   2.408   3.512   0.244
  569SOL    HW1 2606   2.464   3.589   0.276
  569SOL    HW2 2607   2.359   3.472   0.322
  570SOL     OW 2608   0.655   6.091   1.304
  570SOL    HW1 2609   0.735   6.047   1.265
  570SOL    HW2 2610   0.577   6.080   1.242
  571SOL     OW 2611   4.503   5.295   2.591
  571SOL    HW1 2612   4.590   5.303   2.640
  571SOL    HW2 2613   4.472   5.200   2.592
  572SOL     OW 2614   1.878   4.013   5.120
  572SOL    HW1 2615   1.826   4.032   5.037
  572SOL    HW2 2616   1.814   3.994   5.195
  573SOL     OW 2617   3.921   2.578   5.933
  573SOL    HW1 2618   4.013   2.616   5.946
  573SOL    HW2 2619   3.879   2.622   5.854
  574SOL     OW 2620   2.577   1.481   4.300
  574SOL    HW1 2621   2.569   1.474   4.201
  574SOL    HW2 2622   2.640   1.555   4.324
  575SOL     OW 2623   4.914   2.481   6.664
  575SOL    HW1 2624   4.883   2.499   6.571
  575SOL    HW2 2625   4.973   2.556   6.695
  576SOL     OW 2626   0.898   2.327   2.348
  576SOL    HW1 2627   0.839   2.276   2.411
  576SOL    HW2 2628   0.863   2.420   2.338
  577SOL     OW 2629   3.270   2.139   4.161
  577SOL    HW1 2630   3.225   2.227   4.141
  577SOL    HW2 2631   3.225   2.096   4.239
  578SOL     OW 2632   0.271   3.136   4.680
  578SOL    HW1 2633   0.316   3.139   4.769
  578SOL    HW2 2634   0.302   3.214   4.625
  579SOL     OW 2635   3.718   3.426   0.451
  579SOL    HW1 2636   3.792   3.360   0.447
  579SOL    HW2 2637   3.742   3.500   0.515
  580SOL     OW 2638   0.124   6.259   0.078
  580SOL    HW1 2639   0.042   6.276   0.133
  580SOL    HW2 2640   0.172   6.345   0.062
  581SOL     OW 2641   3.961   3.895   2.578
  581SOL    HW1 2642   3.882   3.954   2.562
  581SOL    HW2 2643   3.955   3.854   2.669
  582SOL     OW 2644   6.120   3.808   2.507
  582SOL    HW1 2645   6.141   3.890   2.560
  582SOL    HW2 2646   6.126   3.727   2.565
  583SOL     OW 2647   2.666   5.571   6.718
  583SOL    HW1 2648   2.627   5.479   6.710
  583SOL    HW2 2649   2.598   5.632   6.758
  584SOL     OW 2650   0.863   5.129   5.019
  584SOL    HW1 2651   0.900   5.039   4.995
  584SOL    HW2 2652   0.895   5.197   4.953
  585SOL     OW 2653   6.802   1.525   5.663
  585SOL    HW1 2654   6.882   1.466   5.653
  585SOL    HW2 2655   6.820   1.614   5.621
  586SOL     OW 2656   2.263   6.238   0.836
  586SOL    HW1 2657   2.255   6.205   0.742
  586SOL    HW2 2658   2.189   6.200   0.891
  587SOL     OW 2659   1.179   3.998   5.985
  587SOL    HW1 2660   1.245   3.943   6.037
  587SOL    HW2 2661   1.135   3.940   5.916
  588SOL     OW 2662   2.600   0.106   1.640
  588SOL    HW1 2663   2.563   0.019   1.674
  588SOL    HW2 2664   2.571   0.181   1.699
  589SOL     OW 2665   4.871   5.362   2.189
  589SOL    HW1 2666   4.854   5.335   2.284
  589SOL    HW2 2667   4.788   5.403   2.151
  590SOL     OW 2668   6.574   2.221   1.760
  590SOL    HW1 2669   6.543   2.312   1.731
  590SOL    HW2 2670   6.514   2.187   1.832
  591SOL     OW 2671   3.265   6.797   3.166
  591SOL    HW1 2672   3.350   6.759   3.131
  591SOL    HW2 2673   3.202   6.722   3.189
  592SOL     OW 2674   5.391   0.718   0.110
  592SOL    HW1 2675   5.459   0.789   0.090
  592SOL    HW2 2676   5.302   0.761   0.129
  593SOL     OW 2677   6.101   1.369   3.913
  593SOL    HW1 2678   6.079   1.276   3.940
  593SOL    HW2 2679   6.104   1.428   3.994
  594SOL     OW 2680   4.955   3.224   1.423
  594SOL    HW1 2681   4.858   3.228   1.399
  594SOL    HW2 2682   4.982   3.128   1.435
  595SOL     OW 2683   3.717   0.075   4.237
  595SOL    HW1 2684   3.743   0.169   4.256
  595SOL    HW2 2685   3.708   0.062   4.138
  596SOL     OW 2686   0.865   4.082   2.448
  596SOL    HW1 2687   0.833   4.020   2.520
  596SOL    HW2 2688   0.964   4.074   2.437
  597SOL     OW 2689   3.928   1.916   5.703
  597SOL    HW1 2690   3.852   1.862   5.667
  597SOL    HW2 2691   3.923   2.009   5.667
  598SOL     OW 2692   3.126   4.248   1.398
  598SOL    HW1 2693   3.050   4.188   1.424
  598SOL    HW2 2694   3.181   4.203   1.328
  599SOL     OW 2695   6.749   6.594   3.088
  599SOL    HW1 2696   6.829   6.542   3.117
  599SOL    HW2 2697   6.766   6.635   2.998
  600SOL     OW 2698   2.543   1.050   0.854
  600SOL    HW1 2699   2.533   1.149   0.862
  600SOL    HW2 2700   2.602   1.028   0.776
  601SOL     OW 2701   3.118   4.962   3.716
  601SOL    HW1 2702   3.079   4.871   3.734
  601SOL    HW2 2703   3.198   4.952   3.656
  602SOL     OW 2704   0.216   0.594   1.503
  602SOL    HW1 2705   0.237   0.538   1.582
  602SOL    HW2 2706   0.296   0.649   1.478
  603SOL     OW 2707   4.225   2.164   2.927
  603SOL    HW1 2708   4.219   2.178   2.829
  603SOL    HW2 2709   4.139   2.127   2.961
  604SOL     OW 2710   0.731   4.255   5.581
  604SOL    HW1 2711   0.658   4.187   5.585
  604SOL    HW2 2712   0.776   4.250   5.491
  605SOL     OW 2713   5.844   6.874   4.456
  605SOL    HW1 2714   5.927   6.902   4.505
  605SOL    HW2 2715   5.856   6.782   4.420
  606SOL     OW 2716   3.601   0.056   3.000
  606SOL    HW1 2717   3.603   6.989   2.960
  606SOL    HW2 2718   3.620   0.050   3.098
  607SOL     OW 2719   4.215   1.078   3.497
  607SOL    HW1 2720   4.238   1.123   3.584
  607SOL    HW2 2721   4.261   1.126   3.423
  608SOL     OW 2722   4.699   1.995   1.585
  608SOL    HW1 2723   4.653   2.084   1.591
  608SOL    HW2 2724   4.747   1.988   1.498
  609SOL     OW 2725   2.950   3.429   3.973
  609SOL    HW1 2726   2.899   3.509   4.005
  609SOL    HW2 2727   2.950   3.359   4.044
  610SOL     OW 2728   5.519   1.521   4.324
  610SOL    HW1 2729   5.489   1.616   4.328
  610SOL    HW2 2730   5.504   1.484   4.232
  611SOL     OW 2731   6.405   0.168   0.633
  611SOL    HW1 2732   6.458   0.094   0.674
  611SOL    HW2 2733   6.346   0.210   0.702
  612SOL     OW 2734   3.125   5.358   5.936
  612SOL    HW1 2735   3.175   5.397   5.859
  612SOL    HW2 2736   3.111   5.429   6.006
  613SOL     OW 2737   3.328   1.951   6.805
  613SOL    HW1 2738   3.278   2.027   6.847
  613SOL    HW2 2739   3.279   1.866   6.823
  614SOL     OW 2740   5.210   3.687   0.854
  614SOL    HW1 2741   5.136   3.645   0.800
  614SOL    HW2 2742   5.290   3.700   0.796
  615SOL     OW 2743   5.514   6.909   1.348
  615SOL    HW1 2744   5.449   6.982   1.325
  615SOL    HW2 2745   5.530   6.853   1.267
  616SOL     OW 2746   5.597   0.707   4.781
  616SOL    HW1 2747   5.688   0.711   4.739
  616SOL    HW2 2748   5.539   0.645   4.727
  617SOL     OW 2749   0.093   5.841   5.446
  617SOL    HW1 2750   0.131   5.749   5.459
  617SOL    HW2 2751   0.093   5.863   5.349
  618SOL     OW 2752   5.859   4.567   0.062
  618SOL    HW1 2753   5.830   4.649   0.013
  618SOL    HW2 2754   5.932   4.591   0.127
  619SOL     OW 2755   2.655   6.945   5.950
  619SOL    HW1 2756   2.731   6.899   5.996
  619SOL    HW2 2757   2.689   6.994   5.870
  620SOL     OW 2758   5.396   1.689   2.404
  620SOL    HW1 2759   5.326   1.696   2.475
  620SOL    HW2 2760   5.411   1.593   2.381
  621SOL     OW 2761   2.731   0.197   6.475
  621SOL    HW1 2762   2.794   0.275   6.475
  621SOL    HW2 2763   2.649   0.220   6.423
  622SOL     OW 2764   0.727   2.743   5.702
  622SOL    HW1 2765   0.686   2.679   5.767
  622SOL    HW2 2766   0.662   2.816   5.681
  623SOL     OW 2767   5.967   0.224   3.409
  623SOL    HW1 2768   6.025   0.292   3.456
  623SOL    HW2 2769   5.890   0.200   3.469
  624SOL     OW 2770   6.834   0.520   6.237
  624SOL    HW1 2771   6.793   0.608   6.262
  624SOL    HW2 2772   6.902   0.535   6.165
  625SOL     OW 2773   3.324   1.276   0.900
  625SOL    HW1 2774   3.311   1.375   0.895
  625SOL    HW2 2775   3.421   1.254   0.890
  626SOL     OW 2776   6.760   6.069   3.919
  626SOL    HW1 2777   6.784   6.045   3.825
  626SOL    HW2 2778   6.666   6.041   3.937
  627SOL     OW 2779   6.350   6.758   0.126
  627SOL    HW1 2780   6.339   6.752   0.027
  627SOL    HW2 2781   6.278   6.815   0.164
  628SOL     OW 2782   4.449   4.696   6.094
  628SOL    HW1 2783   4.500   4.730   6.016
  628SOL    HW2 2784   4.397   4.771   6.136
  629SOL     OW 2785   1.402   6.782   0.049
  629SOL    HW1 2786   1.415   6.721   6.996
  629SOL    HW2 2787   1.356   6.731   0.122
  630SOL     OW 2788   6.319   1.280   1.279
  630SOL    HW1 2789   6.349   1.375   1.266
  630SOL    HW2 2790   6.276   1.248   1.195
  631SOL     OW 2791   1.517   2.653   4.063
  631SOL    HW1 2792   1.542   2.603   3.979
  631SOL    HW2 2793   1.468   2.592   4.125
  632SOL     OW 2794   3.047   4.412   0.821
  632SOL    HW1 2795   3.028   4.370   0.732
  632SOL    HW2 2796   3.019   4.349   0.894
  633SOL     OW 2797   1.446   5.217   0.708
  633SOL    HW1 2798   1.475   5.131   0.750
  633SOL    HW2 2799   1.360   5.247   0.750
  634SOL     OW 2800   2.997   3.170   4.403
  634SOL    HW1 2801   3.073   3.106   4.410
  634SOL    HW2 2802   2.979   3.212   4.492
  635SOL     OW 2803   5.815   6.939   6.408
  635SOL    HW1 2804   5.884   6.963   6.476
  635SOL    HW2 2805   5.860   6.904   6.326
  636SOL     OW 2806   2.886   0.667   5.302
  636SOL    HW1 2807   2.800   0.618   5.317
  636SOL    HW2 2808   2.871   0.743   5.239
  637SOL     OW 2809   0.509   1.110   3.006
  637SOL    HW1 2810   0.432   1.167   2.977
  637SOL    HW2 2811   0.490   1.070   3.095
  638SOL     OW 2812   6.555   2.764   4.971
  638SOL    HW1 2813   6.631   2.766   5.037
  638SOL    HW2 2814   6.469   2.779   5.019
  639SOL     OW 2815   5.990   4.380   2.298
  639SOL    HW1 2816   5.935   4.463   2.287
  639SOL    HW2 2817   6.080   4.395   2.255
  640SOL     OW 2818   0.055   2.834   2.593
  640SOL    HW1 2819   0.068   2.855   2.690
  640SOL    HW2 2820   0.117   2.760   2.567
  641SOL     OW 2821   2.425   4.945   4.182
  641SOL    HW1 2822   2.429   4.941   4.082
  641SOL    HW2 2823   2.517   4.930   4.220
  642SOL     OW 2824   0.558   4.967   4.849
  642SOL    HW1 2825   0.567   4.922   4.761
  642SOL    HW2 2826   0.614   5.050   4.851
  643SOL     OW 2827   3.975   5.172   0.725
  643SOL    HW1 2828   4.021   5.209   0.644
  643SOL    HW2 2829   4.020   5.087   0.753
  644SOL     OW 2830   6.946   6.743   5.210
  644SOL    HW1 2831   7.013   6.778   5.144
  644SOL    HW2 2832   6.912   6.654   5.178
  645SOL     OW 2833   4.174   5.460   2.483
  645SOL    HW1 2834   4.123   5.546   2.491
  645SOL    HW2 2835   4.190   5.422   2.574
  646SOL     OW 2836   3.648   2.121   4.531
  646SOL    HW1 2837   3.706   2.102   4.609
  646SOL    HW2 2838   3.556   2.147   4.562
  647SOL     OW 2839   3.728   2.807   5.898
  647SOL    HW1 2840   3.822   2.840   5.889
  647SOL    HW2 2841   3.673   2.877   5.943
  648SOL     OW 2842   5.900   1.383   3.376
  648SOL    HW1 2843   5.837   1.306   3.375
  648SOL    HW2 2844   5.991   1.350   3.403
  649SOL     OW 2845   2.581   5.239   0.217
  649SOL    HW1 2846   2.641   5.302   0.167
  649SOL    HW2 2847   2.622   5.218   0.306
  650SOL     OW 2848   0.149   3.531   1.056
  650SOL    HW1 2849   0.142   3.629   1.076
  650SOL    HW2 2850   0.113   3.479   1.133
  651SOL     OW 2851   0.927   0.628   3.969
  651SOL    HW1 2852   0.926   0.542   3.918
  651SOL    HW2 2853   1.019   0.643   4.005
  652SOL     OW 2854   4.073   5.582   1.047
  652SOL    HW1 2855   3.985   5.617   1.016
  652SOL    HW2 2856   4.084   5.600   1.145
  653SOL     OW 2857   1.766   6.563   2.246
  653SOL    HW1 2858   1.706   6.524   2.316
  653SOL    HW2 2859   1.860   6.565   2.280
  654SOL     OW 2860   0.774   0.102   5.743
  654SOL    HW1 2861   0.816   0.176   5.796
  654SOL    HW2 2862   0.729   0.038   5.806
  655SOL     OW 2863   0.601   4.052   1.570
  655SOL    HW1 2864   0.631   3.969   1.617
  655SOL    HW2 2865   0.569   4.028   1.478
  656SOL     OW 2866   2.870   6.289   6.871
  656SOL    HW1 2867   2.899   6.385   6.864
  656SOL    HW2 2868   2.785   6.276   6.821
  657SOL     OW 2869   4.095   3.658   3.655
  657SOL    HW1 2870   4.101   3.663   3.755
  657SOL    HW2 2871   4.050   3.741   3.620
  658SOL     OW 2872   0.919   1.474   4.208
  658SOL    HW1 2873   1.006   1.476   4.258
  658SOL    HW2 2874   0.909   1.558   4.156
  659SOL     OW 2875   2.099   5.825   6.488
  659SOL    HW1 2876   2.105   5.773   6.403
  659SOL    HW2 2877   2.026   5.893   6.481
  660SOL     OW 2878   5.104   4.907   2.896
  660SOL    HW1 2879   5.124   4.999   2.863
  660SOL    HW2 2880   5.097   4.908   2.996
  661SOL     OW 2881   4.299   5.184   3.923
  661SOL    HW1 2882   4.243   5.200   3.842
  661SOL    HW2 2883   4.395   5.175   3.895
  662SOL     OW 2884   4.871   3.491   6.892
  662SOL    HW1 2885   4.920   3.407   6.870
  662SOL    HW2 2886   4.920   3.540   6.964
  663SOL     OW 2887   6.702   4.195   0.360
  663SOL    HW1 2888   6.706   4.291   0.389
  663SOL    HW2 2889   6.761   4.182   0.280
  664SOL     OW 2890   1.553   6.933   6.205
  664SOL    HW1 2891   1.618   6.996   6.248
  664SOL    HW2 2892   1.591   6.902   6.118
  665SOL     OW 2893   3.342   4.912   2.931
  665SOL    HW1 2894   3.367   4.897   2.835
  665SOL    HW2 2895   3.247   4.884   2.946
  666SOL     OW 2896   3.102   0.935   6.779
  666SOL    HW1 2897   3.125   0.912   6.874
  666SOL    HW2 2898   3.161   0.884   6.717
  667SOL     OW 2899   1.195   3.490   2.226
  667SOL    HW1 2900   1.188   3.396   2.192
  667SOL    HW2 2901   1.279   3.500   2.280
  668SOL     OW 2902   5.320   6.957   0.233
  668SOL    HW1 2903   5.384   7.011   0.178
  668SOL    HW2 2904   5.274   6.891   0.174
  669SOL     OW 2905   1.072   5.649   2.416
  669SOL    HW1 2906   1.039   5.741   2.439
  669SOL    HW2 2907   1.170   5.644   2.435
  670SOL     OW 2908   3.384   3.539   3.225
  670SOL    HW1 2909   3.373   3.458   3.283
  670SOL    HW2 2910   3.431   3.611   3.277
  671SOL     OW 2911   1.867   0.399   6.657
  671SOL    HW1 2912   1.966   0.385   6.656
  671SOL    HW2 2913   1.823   0.328   6.603
  672SOL     OW 2914   1.296   2.318   2.916
  672SOL    HW1 2915   1.355   2.243   2.886
  672SOL    HW2 2916   1.266   2.371   2.837
  673SOL     OW 2917   4.725   0.363   0.328
  673SOL    HW1 2918   4.778   0.278   0.318
  673SOL    HW2 2919   4.686   0.367   0.420
  674SOL     OW 2920   7.017   1.873   4.559
  674SOL    HW1 2921   0.023   1.843   4.469
  674SOL    HW2 2922   6.993   1.970   4.555
  675SOL     OW 2923   6.010   0.061   3.891
  675SOL    HW1 2924   5.961   0.148   3.889
  675SOL    HW2 2925   5.952   7.017   3.932
  676SOL     OW 2926   2.455   4.898   3.923
  676SOL    HW1 2927   2.551   4.872   3.924
  676SOL    HW2 2928   2.448   4.996   3.904
  677SOL     OW 2929   4.974   0.076   0.649
  677SOL    HW1 2930   5.011   0.153   0.597
  677SOL    HW2 2931   4.996   0.088   0.746
  678SOL     OW 2932   2.464   0.987   5.564
  678SOL    HW1 2933   2.530   0.970   5.491
  678SOL    HW2 2934   2.491   0.937   5.646
  679SOL     OW 2935   6.405   0.829   2.282
  679SOL    HW1 2936   6.402   0.855   2.379
  679SOL    HW2 2937   6.312   0.828   2.245
  680SOL     OW 2938   5.786   4.553   4.604
  680SOL    HW1 2939   5.820   4.463   4.576
  680SOL    HW2 2940   5.744   4.546   4.694
  681SOL     OW 2941   1.223   6.987   2.380
  681SOL    HW1 2942   1.168   0.039   2.409
  681SOL    HW2 2943   1.318   7.017   2.366
  682SOL     OW 2944   0.260   6.797   6.300
  682SOL    HW1 2945   0.239   6.767   6.207
  682SOL    HW2 2946   0.314   6.881   6.297
  683SOL     OW 2947   5.507   2.017   0.386
  683SOL    HW1 2948   5.474   2.070   0.464
  683SOL    HW2 2949   5.468   2.054   0.302
  684SOL     OW 2950   0.358   5.997   6.416
  684SOL    HW1 2951   0.330   6.020   6.509
  684SOL    HW2 2952   0.444   5.946   6.418
  685SOL     OW 2953   6.071   1.110   6.713
  685SOL    HW1 2954   6.108   1.102   6.621
  685SOL    HW2 2955   6.141   1.084   6.780
  686SOL     OW 2956   5.538   4.677   3.405
  686SOL    HW1 2957   5.616   4.672   3.342
  686SOL    HW2 2958   5.499   4.586   3.417
  687SOL     OW 2959   6.201   2.262   5.243
  687SOL    HW1 2960   6.208   2.164   5.223
  687SOL    HW2 2961   6.105   2.286   5.259
  688SOL     OW 2962   0.078   2.924   4.615
  688SOL    HW1 2963   0.102   2.902   4.520
  688SOL    HW2 2964   0.151   2.979   4.656
  689SOL     OW 2965   6.029   4.251   4.682
  689SOL    HW1 2966   5.938   4.227   4.717
  689SOL    HW2 2967   6.030   4.237   4.583
  690SOL     OW 2968   0.504   3.130   3.992
  690SOL    HW1 2969   0.496   3.039   3.949
  690SOL    HW2 2970   0.420   3.151   4.041
  691SOL     OW 2971   6.898   2.744   6.990
  691SOL    HW1 2972   6.894   2.813   6.917
  691SOL    HW2 2973   6.816   2.687   6.986
  692SOL     OW 2974   2.657   6.899   2.989
  692SOL    HW1 2975   2.686   6.803   2.999
  692SOL    HW2 2976   2.629   6.934   3.078
  693SOL     OW 2977   6.773   1.753   2.568
  693SOL    HW1 2978   6.790   1.692   2.490
  693SOL    HW2 2979   6.751   1.698   2.649
  694SOL     OW 2980   1.583   0.285   2.373
  694SOL    HW1 2981   1.620   0.335   2.295
  694SOL    HW2 2982   1.547   0.350   2.440
  695SOL     OW 2983   4.213   5.360   6.416
  695SOL    HW1 2984   4.238   5.381   6.511
  695SOL    HW2 2985   4.125   5.313   6.415
  696SOL     OW 2986   5.027   6.453   2.517
  696SOL    HW1 2987   5.038   6.364   2.561
  696SOL    HW2 2988   5.049   6.525   2.582
  697SOL     OW 2989   1.179   3.870   3.689
  697SOL    HW1 2990   1.192   3.965   3.717
  697SOL    HW2 2991   1.083   3.845   3.700
  698SOL     OW 2992   4.697   5.922   4.259
  698SOL    HW1 2993   4.740   5.871   4.334
  698SOL    HW2 2994   4.727   5.884   4.171
  699SOL     OW 2995   0.984   4.109   0.118
  699SOL    HW1 2996   0.903   4.091   0.061
  699SOL    HW2 2997   1.040   4.179   0.074
  700SOL     OW 2998   2.059   1.279   4.335
  700SOL    HW1 2999   2.101   1.210   4.275
  700SOL    HW2 3000   2.130   1.342   4.366
  701SOL     OW 3001   1.069   4.597   6.357
  701SOL    HW1 3002   1.063   4.696   6.348
  701SOL    HW2 3003   1.057   4.555   6.267
  702SOL     OW 3004   5.282   5.755   5.085
  702SOL    HW1 3005   5.250   5.661   5.073
  702SOL    HW2 3006   5.359   5.757   5.148
  703SOL     OW 3007   4.312   3.924   6.803
  703SOL    HW1 3008   4.411   3.931   6.810
  703SOL    HW2 3009   4.276   3.875   6.883
  704SOL     OW 3010   2.634   0.711   1.548
  704SOL    HW1 3011   2.733   0.709   1.562
  704SOL    HW2 3012   2.609   0.640   1.482
  705SOL     OW 3013   6.600   1.789   3.942
  705SOL    HW1 3014   6.664   1.762   4.013
  705SOL    HW2 3015   6.549   1.870   3.971
  706SOL     OW 3016   4.862   2.333   4.038
  706SOL    HW1 3017   4.841   2.410   3.979
  706SOL    HW2 3018   4.870   2.250   3.983
  707SOL     OW 3019   4.840   2.032   2.095
  707SOL    HW1 3020   4.820   2.129   2.108
  707SOL    HW2 3021   4.875   2.017   2.002
  708SOL     OW 3022   3.998   0.191   2.099
  708SOL    HW1 3023   3.999   0.123   2.172
  708SOL    HW2 3024   4.044   0.154   2.018
  709SOL     OW 3025   0.532   5.267   6.963
  709SOL    HW1 3026   0.595   5.342   6.984
  709SOL    HW2 3027   0.449   5.278   7.019
  710SOL     OW 3028   3.263   3.383   2.509
  710SOL    HW1 3029   3.257   3.304   2.449
  710SOL    HW2 3030   3.334   3.445   2.475
  711SOL     OW 3031   1.696   0.681   4.507
  711SOL    HW1 3032   1.620   0.744   4.524
  711SOL    HW2 3033   1.671   0.589   4.536
  712SOL     OW 3034   1.283   4.088   1.634
  712SOL    HW1 3035   1.213   4.147   1.674
  712SOL    HW2 3036   1.351   4.064   1.703
  713SOL     OW 3037   3.978   3.953   3.503
  713SOL    HW1 3038   3.993   4.049   3.479
  713SOL    HW2 3039   3.969   3.945   3.602
  714SOL     OW 3040   5.055   4.737   5.746
  714SOL    HW1 3041   5.096   4.647   5.730
  714SOL    HW2 3042   5.128   4.804   5.762
  715SOL     OW 3043   4.349   1.071   6.391
  715SOL    HW1 3044   4.369   1.057   6.488
  715SOL    HW2 3045   4.411   1.016   6.335
  716SOL     OW 3046   6.897   5.188   1.905
  716SOL    HW1 3047   6.912   5.273   1.854
  716SOL    HW2 3048   6.800   5.167   1.907
  717SOL     OW 3049   5.895   2.988   6.922
  717SOL    HW1 3050   5.883   3.071   6.976
  717SOL    HW2 3051   5.973   2.936   6.957
  718SOL     OW 3052   2.828   3.457   0.014
  718SOL    HW1 3053   2.792   3.546   0.041
  718SOL    HW2 3054   2.798   3.436   6.947
  719SOL     OW 3055   5.400   5.177   0.289
  719SOL    HW1 3056   5.357   5.267   0.296
  719SOL    HW2 3057   5.330   5.107   0.275
  720SOL     OW 3058   2.544   0.860   6.456
  720SOL    HW1 3059   2.497   0.927   6.398
  720SOL    HW2 3060   2.558   0.776   6.406
  721SOL     OW 3061   1.524   6.367   5.861
  721SOL    HW1 3062   1.436   6.390   5.903
  721SOL    HW2 3063   1.519   6.379   5.762
  722SOL     OW 3064   4.606   6.705   5.790
  722SOL    HW1 3065   4.568   6.661   5.709
  722SOL    HW2 3066   4.534   6.758   5.835
  723SOL     OW 3067   1.858   3.176   1.655
  723SOL    HW1 3068   1.800   3.193   1.734
  723SOL    HW2 3069   1.902   3.086   1.664
  724SOL     OW 3070   6.567   0.596   4.485
  724SOL    HW1 3071   6.480   0.631   4.448
  724SOL    HW2 3072   6.643   0.632   4.432
  725SOL     OW 3073   2.817   4.612   1.172
  725SOL    HW1 3074   2.792   4.708   1.178
  725SOL    HW2 3075   2.787   4.574   1.084
  726SOL     OW 3076   4.427   6.867   6.181
  726SOL    HW1 3077   4.476   6.954   6.178
  726SOL    HW2 3078   4.443   6.817   6.096
  727SOL     OW 3079   2.481   4.575   4.083
  727SOL    HW1 3080   2.405   4.625   4.042
  727SOL    HW2 3081   2.494   4.489   4.033
  728SOL     OW 3082   0.058   2.620   5.276
  728SOL    HW1 3083   0.146   2.605   5.233
  728SOL    HW2 3084   7.024   2.672   5.214
  729SOL     OW 3085   3.170   0.563   0.717
  729SOL    HW1 3086   3.095   0.523   0.664
  729SOL    HW2 3087   3.138   0.646   0.763
  730SOL     OW 3088   5.744   0.802   5.002
  730SOL    HW1 3089   5.687   0.882   5.019
  730SOL    HW2 3090   5.708   0.751   4.924
  731SOL     OW 3091   6.463   3.179   3.794
  731SOL    HW1 3092   6.478   3.238   3.874
  731SOL    HW2 3093   6.443   3.086   3.825
  732SOL     OW 3094   6.544   2.990   2.611
  732SOL    HW1 3095   6.637   3.000   2.646
  732SOL    HW2 3096   6.516   3.074   2.565
  733SOL     OW 3097   4.225   4.762   4.144
  733SOL    HW1 3098   4.249   4.847   4.192
  733SOL    HW2 3099   4.303   4.699   4.150
  734SOL     OW 3100   0.290   4.428   0.278
  734SOL    HW1 3101   0.321   4.373   0.355
  734SOL    HW2 3102   0.228   4.499   0.310
  735SOL     OW 3103   2.620   4.983   6.630
  735SOL    HW1 3104   2.559   4.951   6.558
  735SOL    HW2 3105   2.570   5.045   6.691
  736SOL     OW 3106   5.981   0.907   3.075
  736SOL    HW1 3107   5.886   0.895   3.047
  736SOL    HW2 3108   6.036   0.830   3.044
  737SOL     OW 3109   5.704   3.894   0.334
  737SOL    HW1 3110   5.627   3.831   0.347
  737SOL    HW2 3111   5.755   3.867   0.252
  738SOL     OW 3112   0.819   4.583   3.184
  738SOL    HW1 3113   0.778   4.576   3.093
  738SOL    HW2 3114   0.791   4.668   3.227
  739SOL     OW 3115   4.659   6.064   6.728
  739SOL    HW1 3116   4.644   6.069   6.629
  739SOL    HW2 3117   4.743   6.113   6.751
  740SOL     OW 3118   5.684   0.100   1.216
  740SOL    HW1 3119   5.680   0.012   1.264
  740SOL    HW2 3120   5.623   0.165   1.261
  741SOL     OW 3121   2.635   0.475   3.891
  741SOL    HW1 3122   2.678   0.407   3.949
  741SOL    HW2 3123   2.627   0.562   3.940
  742SOL     OW 3124   1.739   0.125   2.531
  742SOL    HW1 3125   1.675   0.156   2.460
  742SOL    HW2 3126   1.770   0.032   2.509
  743SOL     OW 3127   2.135   3.626   4.052
  743SOL    HW1 3128   2.222   3.594   4.013
  743SOL    HW2 3129   2.110   3.568   4.130
  744SOL     OW 3130   0.371   5.977   1.228
  744SOL    HW1 3131   0.309   5.906   1.261
  744SOL    HW2 3132   0.425   5.941   1.152
  745SOL     OW 3133   1.564   6.005   3.293
  745SOL    HW1 3134   1.586   6.053   3.208
  745SOL    HW2 3135   1.566   6.071   3.369
  746SOL     OW 3136   2.876   0.543   4.440
  746SOL    HW1 3137   2.819   0.584   4.511
  746SOL    HW2 3138   2.947   0.607   4.413
  747SOL     OW 3139   5.917   4.813   1.912
  747SOL    HW1 3140   5.898   4.780   1.820
  747SOL    HW2 3141   5.881   4.906   1.922
  748SOL     OW 3142   3.878   2.928   2.331
  748SOL    HW1 3143   3.797   2.913   2.275
  748SOL    HW2 3144   3.946   2.979   2.278
  749SOL     OW 3145   6.959   1.511   5.157
  749SOL    HW1 3146   6.982   1.416   5.138
  749SOL    HW2 3147   6.860   1.521   5.163
  750SOL     OW 3148   2.702   4.248   1.235
  750SOL    HW1 3149   2.759   4.171   1.205
  750SOL    HW2 3150   2.634   4.268   1.165
  751SOL     OW 3151   4.462   1.467   0.412
  751SOL    HW1 3152   4.367   1.437   0.426
  751SOL    HW2 3153   4.465   1.532   0.335
  752SOL     OW 3154   4.782   1.113   1.432
  752SOL    HW1 3155   4.878   1.091   1.452
  752SOL    HW2 3156   4.738   1.146   1.516
  753SOL     OW 3157   2.628   1.592   2.615
  753SOL    HW1 3158   2.628   1.500   2.655
  753SOL    HW2 3159   2.576   1.591   2.530
  754SOL     OW 3160   4.836   5.744   0.003
  754SOL    HW1 3161   4.834   5.666   0.066
  754SOL    HW2 3162   4.909   5.732   6.962
  755SOL     OW 3163   0.015   6.482   3.103
  755SOL    HW1 3164   0.065   6.408   3.058
  755SOL    HW2 3165   0.052   6.570   3.072
  756SOL     OW 3166   3.758   0.023   3.534
  756SOL    HW1 3167   3.787   0.046   3.627
  756SOL    HW2 3168   3.839   0.004   3.478
  757SOL     OW 3169   6.729   0.993   4.791
  757SOL    HW1 3170   6.759   0.966   4.882
  757SOL    HW2 3171   6.699   0.912   4.740
  758SOL     OW 3172   4.391   2.268   1.748
  758SOL    HW1 3173   4.375   2.356   1.703
  758SOL    HW2 3174   4.489   2.249   1.749
  759SOL     OW 3175   1.733   1.086   0.341
  759SOL    HW1 3176   1.825   1.088   0.302
  759SOL    HW2 3177   1.738   1.110   0.438
  760SOL     OW 3178   4.489   1.882   5.772
  760SOL    HW1 3179   4.410   1.896   5.832
  760SOL    HW2 3180   4.503   1.964   5.717
  761SOL     OW 3181   5.918   2.351   6.849
  761SOL    HW1 3182   5.876   2.262   6.831
  761SOL    HW2 3183   5.932   2.400   6.763
  762SOL     OW 3184   1.841   5.372   4.027
  762SOL    HW1 3185   1.930   5.330   4.046
  762SOL    HW2 3186   1.854   5.466   3.996
  763SOL     OW 3187   5.668   4.963   6.628
  763SOL    HW1 3188   5.655   4.871   6.666
  763SOL    HW2 3189   5.596   5.024   6.661
  764SOL     OW 3190   4.334   1.301   2.820
  764SOL    HW1 3191   4.378   1.219   2.785
  764SOL    HW2 3192   4.241   1.307   2.783
  765SOL     OW 3193   0.067   6.608   3.842
  765SOL    HW1 3194   7.013   6.558   3.875
  765SOL    HW2 3195   0.148   6.580   3.894
  766SOL     OW 3196   0.340   6.462   0.335
  766SOL    HW1 3197   0.399   6.471   0.254
  766SOL    HW2 3198   0.244   6.471   0.307
  767SOL     OW 3199   6.213   6.922   1.705
  767SOL    HW1 3200   6.166   6.919   1.617
  767SOL    HW2 3201   6.177   6.996   1.760
  768SOL     OW 3202   3.385   6.330   3.402
  768SOL    HW1 3203   3.326   6.369   3.473
  768SOL    HW2 3204   3.479   6.324   3.435
  769SOL     OW 3205   3.305   0.762   6.626
  769SOL    HW1 3206   3.319   0.671   6.586
  769SOL    HW2 3207   3.356   0.830   6.573
  770SOL     OW 3208   3.633   4.892   3.733
  770SOL    HW1 3209   3.726   4.881   3.768
  770SOL    HW2 3210   3.570   4.909   3.809
  771SOL     OW 3211   0.468   5.515   3.981
  771SOL    HW1 3212   0.557   5.525   3.938
  771SOL    HW2 3213   0.431   5.605   4.004
  772SOL     OW 3214   6.723   4.436   4.941
  772SOL    HW1 3215   6.658   4.369   4.907
  772SOL    HW2 3216   6.812   4.421   4.897
  773SOL     OW 3217   0.139   3.915   1.625
  773SOL    HW1 3218   0.219   3.920   1.685
  773SOL    HW2 3219   0.057   3.901   1.680
  774SOL     OW 3220   1.506   1.265   1.176
  774SOL    HW1 3221   1.573   1.294   1.244
  774SOL    HW2 3222   1.535   1.180   1.134
  775SOL     OW 3223   1.411   2.122   4.160
  775SOL    HW1 3224   1.315   2.120   4.131
  775SOL    HW2 3225   1.424   2.063   4.239
  776SOL     OW 3226   2.383   0.338   5.726
  776SOL    HW1 3227   2.293   0.295   5.735
  776SOL    HW2 3228   2.433   0.294   5.651
  777SOL     OW 3229   4.469   0.278   0.536
  777SOL    HW1 3230   4.555   0.267   0.585
  777SOL    HW2 3231   4.435   0.371   0.549
  778SOL     OW 3232   3.997   6.389   3.833
  778SOL    HW1 3233   4.054   6.312   3.865
  778SOL    HW2 3234   4.002   6.463   3.900
  779SOL     OW 3235   1.186   1.237   2.336
  779SOL    HW1 3236   1.091   1.241   2.368
  779SOL    HW2 3237   1.210   1.143   2.315
  780SOL     OW 3238   5.094   3.441   5.277
  780SOL    HW1 3239   5.160   3.367   5.291
  780SOL    HW2 3240   5.068   3.446   5.181
  781SOL     OW 3241   0.858   1.746   6.220
  781SOL    HW1 3242   0.818   1.742   6.311
  781SOL    HW2 3243   0.936   1.808   6.220
  782SOL     OW 3244   0.385   4.103   0.723
  782SOL    HW1 3245   0.320   4.047   0.774
  782SOL    HW2 3246   0.472   4.106   0.773
  783SOL     OW 3247   2.722   4.058   0.717
  783SOL    HW1 3248   2.663   3.978   0.706
  783SOL    HW2 3249   2.813   4.039   0.681
  784SOL     OW 3250   5.583   6.768   3.873
  784SOL    HW1 3251   5.660   6.743   3.815
  784SOL    HW2 3252   5.522   6.689   3.883
  785SOL     OW 3253   6.287   2.344   4.019
  785SOL    HW1 3254   6.238   2.336   3.932
  785SOL    HW2 3255   6.384   2.362   4.001
  786SOL     OW 3256   6.348   0.068   0.020
  786SOL    HW1 3257   6.425   0.113   0.064
  786SOL    HW2 3258   6.318   7.016   0.075
  787SOL     OW 3259   3.963   1.537   6.590
  787SOL    HW1 3260   3.888   1.568   6.648
  787SOL    HW2 3261   4.048   1.539   6.643
  788SOL     OW 3262   0.940   4.349   4.203
  788SOL    HW1 3263   0.872   4.347   4.130
  788SOL    HW2 3264   0.979   4.258   4.215
  789SOL     OW 3265   6.016   3.874   1.041
  789SOL    HW1 3266   6.099   3.823   1.061
  789SOL    HW2 3267   5.983   3.850   0.949
  790SOL     OW 3268   3.412   1.016   4.408
  790SOL    HW1 3269   3.412   0.993   4.311
  790SOL    HW2 3270   3.337   1.080   4.427
  791SOL     OW 3271   3.909   2.010   4.469
  791SOL    HW1 3272   3.828   2.060   4.440
  791SOL    HW2 3273   3.902   1.915   4.441
  792SOL     OW 3274   5.817   0.424   3.114
  792SOL    HW1 3275   5.745   0.468   3.060
  792SOL    HW2 3276   5.876   0.493   3.154
  793SOL     OW 3277   6.532   6.994   5.902
  793SOL    HW1 3278   6.548   0.045   5.963
  793SOL    HW2 3279   6.620   6.952   5.878
  794SOL     OW 3280   3.277   5.306   5.114
  794SOL    HW1 3281   3.279   5.207   5.122
  794SOL    HW2 3282   3.364   5.338   5.076
  795SOL     OW 3283   5.252   4.481   6.407
  795SOL    HW1 3284   5.176   4.541   6.380
  795SOL    HW2 3285   5.268   4.490   6.505
  796SOL     OW 3286   1.053   2.050   5.920
  796SOL    HW1 3287   0.975   1.995   5.951
  796SOL    HW2 3288   1.024   2.110   5.845
  797SOL     OW 3289   6.337   2.212   4.853
  797SOL    HW1 3290   6.367   2.307   4.841
  797SOL    HW2 3291   6.237   2.207   4.849
  798SOL     OW 3292   6.302   0.707   5.263
  798SOL    HW1 3293   6.283   0.664   5.351
  798SOL    HW2 3294   6.385   0.761   5.269
  799SOL     OW 3295   6.839   3.342   3.240
  799SOL    HW1 3296   6.821   3.367   3.145
  799SOL    HW2 3297   6.864   3.423   3.292
  800SOL     OW 3298   0.158   1.619   2.007
  800SOL    HW1 3299   0.083   1.681   1.984
  800SOL    HW2 3300   0.124   1.525   2.011
  801SOL     OW 3301   0.317   1.997   3.907
  801SOL    HW1 3302   0.263   1.916   3.928
  801SOL    HW2 3303   0.325   2.054   3.989
  802SOL     OW 3304   5.865   1.123   1.029
  802SOL    HW1 3305   5.797   1.193   1.051
  802SOL    HW2 3306   5.868   1.055   1.103
  803SOL     OW 3307   1.481   6.865   4.857
  803SOL    HW1 3308   1.470   6.926   4.935
  803SOL    HW2 3309   1.403   6.876   4.795
  804SOL     OW 3310   6.260   6.965   0.737
  804SOL    HW1 3311   6.223   6.943   0.646
  804SOL    HW2 3312   6.359   6.976   0.730
  805SOL     OW 3313   1.432   3.286   6.233
  805SOL    HW1 3314   1.459   3.191   6.221
  805SOL    HW2 3315   1.402   3.301   6.328
  806SOL     OW 3316   5.296   0.904   0.734
  806SOL    HW1 3317   5.231   0.977   0.712
  806SOL    HW2 3318   5.256   0.844   0.803
  807SOL     OW 3319   1.236   0.227   3.065
  807SOL    HW1 3320   1.332   0.206   3.046
  807SOL    HW2 3321   1.218   0.214   3.163
  808SOL     OW 3322   6.211   3.110   5.028
  808SOL    HW1 3323   6.258   3.168   5.094
  808SOL    HW2 3324   6.203   3.158   4.941
  809SOL     OW 3325   0.674   4.956   6.366
  809SOL    HW1 3326   0.603   4.989   6.428
  809SOL    HW2 3327   0.733   4.891   6.414
  810SOL     OW 3328   6.778   4.735   6.582
  810SOL    HW1 3329   6.818   4.816   6.624
  810SOL    HW2 3330   6.740   4.676   6.653
  811SOL     OW 3331   4.736   5.242   3.660
  811SOL    HW1 3332   4.810   5.254   3.727
  811SOL    HW2 3333   4.764   5.282   3.572
  812SOL     OW 3334   0.847   0.325   2.511
  812SOL    HW1 3335   0.900   0.409   2.521
  812SOL    HW2 3336   0.751   0.348   2.493
  813SOL     OW 3337   5.926   5.598   2.279
  813SOL    HW1 3338   5.855   5.556   2.336
  813SOL    HW2 3339   5.977   5.664   2.334
  814SOL     OW 3340   5.590   5.597   1.528
  814SOL    HW1 3341   5.530   5.621   1.604
  814SOL    HW2 3342   5.670   5.658   1.527
  815SOL     OW 3343   0.407   2.583   0.332
  815SOL    HW1 3344   0.464   2.542   0.402
  815SOL    HW2 3345   0.358   2.662   0.370
  816SOL     OW 3346   6.324   0.702   1.403
  816SOL    HW1 3347   6.398   0.635   1.398
  816SOL    HW2 3348   6.293   0.725   1.311
  817SOL     OW 3349   1.330   2.037   2.246
  817SOL    HW1 3350   1.286   1.984   2.318
  817SOL    HW2 3351   1.263   2.060   2.175
  818SOL     OW 3352   6.733   1.592   1.580
  818SOL    HW1 3353   6.775   1.524   1.519
  818SOL    HW2 3354   6.649   1.554   1.618
  819SOL     OW 3355   0.319   4.436   3.232
  819SOL    HW1 3356   0.240   4.443   3.294
  819SOL    HW2 3357   0.403   4.437   3.286
  820SOL     OW 3358   1.332   3.203   5.016
  820SOL    HW1 3359   1.414   3.170   5.063
  820SOL    HW2 3360   1.287   3.273   5.072
  821SOL     OW 3361   1.155   3.584   0.971
  821SOL    HW1 3362   1.065   3.625   0.989
  821SOL    HW2 3363   1.225   3.632   1.025
  822SOL     OW 3364   1.734   3.717   5.077
  822SOL    HW1 3365   1.745   3.728   5.176
  822SOL    HW2 3366   1.731   3.620   5.054
  823SOL     OW 3367   3.137   3.232   0.931
  823SOL    HW1 3368   3.186   3.167   0.872
  823SOL    HW2 3369   3.052   3.259   0.887
  824SOL     OW 3370   5.970   2.232   5.714
  824SOL    HW1 3371   5.958   2.136   5.688
  824SOL    HW2 3372   6.030   2.277   5.649
  825SOL     OW 3373   1.149   4.245   1.814
  825SOL    HW1 3374   1.223   4.273   1.875
  825SOL    HW2 3375   1.070   4.216   1.869
  826SOL     OW 3376   0.627   4.234   5.989
  826SOL    HW1 3377   0.575   4.320   5.993
  826SOL    HW2 3378   0.658   4.210   6.081
  827SOL     OW 3379   4.057   6.173   0.317
  827SOL    HW1 3380   4.112   6.097   0.285
  827SOL    HW2 3381   4.106   6.259   0.301
  828SOL     OW 3382   6.019   6.792   6.236
  828SOL    HW1 3383   6.024   6.704   6.283
  828SOL    HW2 3384   6.014   6.777   6.137
  829SOL     OW 3385   3.923   3.033   4.558
  829SOL    HW1 3386   3.964   3.109   4.608
  829SOL    HW2 3387   3.953   3.035   4.463
  830SOL     OW 3388   5.123   3.765   5.688
  830SOL    HW1 3389   5.041   3.818   5.667
  830SOL    HW2 3390   5.204   3.818   5.661
  831SOL     OW 3391   6.512   6.951   5.048
  831SOL    HW1 3392   6.598   6.934   5.098
  831SOL    HW2 3393   6.507   0.022   5.023
  832SOL     OW 3394   2.249   1.120   5.623
  832SOL    HW1 3395   2.319   1.064   5.577
  832SOL    HW2 3396   2.265   1.118   5.721
  833SOL     OW 3397   1.042   0.020   5.623
  833SOL    HW1 3398   0.944   0.022   5.604
  833SOL    HW2 3399   1.058   0.003   5.720
  834SOL     OW 3400   3.507   4.349   5.623
  834SOL    HW1 3401   3.499   4.337   5.722
  834SOL    HW2 3402   3.604   4.349   5.597
  835SOL     OW 3403   4.146   0.692   3.217
  835SOL    HW1 3404   4.229   0.715   3.166
  835SOL    HW2 3405   4.156   0.722   3.312
  836SOL     OW 3406   1.979   0.768   0.298
  836SOL    HW1 3407   2.043   0.832   0.254
  836SOL    HW2 3408   2.029   0.706   0.358
  837SOL     OW 3409   3.940   0.521   5.257
  837SOL    HW1 3410   3.866   0.457   5.239
  837SOL    HW2 3411   3.935   0.553   5.351
  838SOL     OW 3412   1.481   4.440   2.486
  838SOL    HW1 3413   1.441   4.511   2.544
  838SOL    HW2 3414   1.408   4.394   2.436
  839SOL     OW 3415   3.271   0.815   1.837
  839SOL    HW1 3416   3.268   0.730   1.785
  839SOL    HW2 3417   3.216   0.884   1.790
  840SOL     OW 3418   0.720   1.738   6.448
  840SOL    HW1 3419   0.637   1.702   6.406
  840SOL    HW2 3420   0.697   1.815   6.507
  841SOL     OW 3421   0.067   3.503   0.783
  841SOL    HW1 3422   0.084   3.493   0.881
  841SOL    HW2 3423   7.023   3.572   0.768
  842SOL     OW 3424   3.613   5.196   3.831
  842SOL    HW1 3425   3.549   5.124   3.858
  842SOL    HW2 3426   3.705   5.157   3.822
  843SOL     OW 3427   6.581   3.705   2.368
  843SOL    HW1 3428   6.560   3.620   2.414
  843SOL    HW2 3429   6.557   3.783   2.426
  844SOL     OW 3430   5.295   5.916   0.574
  844SOL    HW1 3431   5.320   5.870   0.659
  844SOL    HW2 3432   5.245   5.852   0.515
  845SOL     OW 3433   1.597   5.401   4.775
  845SOL    HW1 3434   1.547   5.325   4.733
  845SOL    HW2 3435   1.658   5.365   4.846
  846SOL     OW 3436   5.388   2.892   0.165
  846SOL    HW1 3437   5.417   2.925   0.075
  846SOL    HW2 3438   5.311   2.830   0.154
  847SOL     OW 3439   5.307   3.702   2.188
  847SOL    HW1 3440   5.391   3.661   2.225
  847SOL    HW2 3441   5.330   3.784   2.136
  848SOL     OW 3442   6.618   0.234   5.458
  848SOL    HW1 3443   6.564   0.198   5.534
  848SOL    HW2 3444   6.563   0.299   5.406
  849SOL     OW 3445   1.058   5.132   4.419
  849SOL    HW1 3446   1.046   5.169   4.511
  849SOL    HW2 3447   1.004   5.049   4.408
  850SOL     OW 3448   3.688   0.600   3.113
  850SOL    HW1 3449   3.685   0.507   3.148
  850SOL    HW2 3450   3.782   0.622   3.084
  851SOL     OW 3451   0.790   0.409   5.190
  851SOL    HW1 3452   0.707   0.372   5.148
  851SOL    HW2 3453   0.769   0.440   5.282
  852SOL     OW 3454   2.853   4.370   6.001
  852SOL    HW1 3455   2.874   4.274   6.022
  852SOL    HW2 3456   2.857   4.384   5.902
  853SOL     OW 3457   1.523   3.564   1.125
  853SOL    HW1 3458   1.455   3.636   1.114
  853SOL    HW2 3459   1.538   3.518   1.038
  854SOL     OW 3460   5.988   5.350   2.030
  854SOL    HW1 3461   5.955   5.351   1.935
  854SOL    HW2 3462   5.990   5.443   2.066
  855SOL     OW 3463   5.298   0.116   1.201
  855SOL    HW1 3464   5.227   0.069   1.253
  855SOL    HW2 3465   5.257   0.190   1.147
  856SOL     OW 3466   1.572   0.456   4.575
  856SOL    HW1 3467   1.492   0.455   4.636
  856SOL    HW2 3468   1.552   0.400   4.495
  857SOL     OW 3469   6.405   3.860   1.866
  857SOL    HW1 3470   6.383   3.846   1.963
  857SOL    HW2 3471   6.452   3.948   1.855
  858SOL     OW 3472   3.321   3.785   1.243
  858SOL    HW1 3473   3.384   3.759   1.171
  858SOL    HW2 3474   3.372   3.822   1.321
  859SOL     OW 3475   0.259   4.806   0.654
  859SOL    HW1 3476   0.316   4.888   0.662
  859SOL    HW2 3477   0.230   4.775   0.744
  860SOL     OW 3478   2.041   4.801   0.865
  860SOL    HW1 3479   2.054   4.900   0.879
  860SOL    HW2 3480   1.959   4.771   0.913
  861SOL     OW 3481   4.053   4.789   6.413
  861SOL    HW1 3482   4.147   4.808   6.439
  861SOL    HW2 3483   4.048   4.702   6.365
  862SOL     OW 3484   4.713   4.247   3.932
  862SOL    HW1 3485   4.754   4.283   4.016
  862SOL    HW2 3486   4.625   4.292   3.915
  863SOL     OW 3487   5.590   1.072   0.657
  863SOL    HW1 3488   5.562   1.084   0.561
  863SOL    HW2 3489   5.509   1.060   0.714
  864SOL     OW 3490   6.413   4.228   2.416
  864SOL    HW1 3491   6.352   4.173   2.473
  864SOL    HW2 3492   6.464   4.292   2.473
  865SOL     OW 3493   1.916   0.460   3.874
  865SOL    HW1 3494   1.894   0.550   3.912
  865SOL    HW2 3495   1.854   0.392   3.912
  866SOL     OW 3496   3.576   1.170   0.847
  866SOL    HW1 3497   3.599   1.084   0.891
  866SOL    HW2 3498   3.657   1.209   0.804
  867SOL     OW 3499   1.652   1.562   6.036
  867SOL    HW1 3500   1.591   1.638   6.059
  867SOL    HW2 3501   1.673   1.511   6.119
  868SOL     OW 3502   6.098   2.727   3.595
  868SOL    HW1 3503   6.038   2.686   3.664
  868SOL    HW2 3504   6.127   2.656   3.530
  869SOL     OW 3505   6.846   4.192   1.963
  869SOL    HW1 3506   6.905   4.163   2.038
  869SOL    HW2 3507   6.877   4.149   1.878
  870SOL     OW 3508   6.918   2.834   0.642
  870SOL    HW1 3509   6.856   2.912   0.632
  870SOL    HW2 3510   6.878   2.753   0.600
  871SOL     OW 3511   5.641   4.191   0.747
  871SOL    HW1 3512   5.553   4.231   0.721
  871SOL    HW2 3513   5.682   4.246   0.820
  872SOL     OW 3514   5.932   2.179   2.640
  872SOL    HW1 3515   5.942   2.265   2.590
  872SOL    HW2 3516   6.013   2.164   2.697
  873SOL     OW 3517   4.669   6.620   5.359
  873SOL    HW1 3518   4.733   6.686   5.397
  873SOL    HW2 3519   4.719   6.540   5.326
  874SOL     OW 3520   0.204   3.644   6.306
  874SOL    HW1 3521   0.168   3.714   6.243
  874SOL    HW2 3522   0.263   3.687   6.374
  875SOL     OW 3523   6.162   4.629   6.549
  875SOL    HW1 3524   6.155   4.728   6.536
  875SOL    HW2 3525   6.076   4.594   6.586
  876SOL     OW 3526   0.993   1.872   1.150
  876SOL    HW1 3527   0.991   1.788   1.205
  876SOL    HW2 3528   0.993   1.848   1.053
  877SOL     OW 3529   6.047   6.214   0.287
  877SOL    HW1 3530   6.069   6.227   0.384
  877SOL    HW2 3531   5.963   6.161   0.279
  878SOL     OW 3532   3.330   2.503   0.158
  878SOL    HW1 3533   3.326   2.546   0.249
  878SOL    HW2 3534   3.238   2.479   0.128
  879SOL     OW 3535   4.044   2.172   2.491
  879SOL    HW1 3536   4.024   2.174   2.393
  879SOL    HW2 3537   4.123   2.113   2.508
  880SOL     OW 3538   4.531   5.415   1.565
  880SOL    HW1 3539   4.506   5.473   1.488
  880SOL    HW2 3540   4.608   5.455   1.614
  881SOL     OW 3541   4.218   5.526   4.215
  881SOL    HW1 3542   4.187   5.462   4.145
  881SOL    HW2 3543   4.196   5.619   4.186
  882SOL     OW 3544   0.875   2.084   4.036
  882SOL    HW1 3545   0.861   2.182   4.028
  882SOL    HW2 3546   0.843   2.039   3.953
  883SOL     OW 3547   3.538   4.128   0.238
  883SOL    HW1 3548   3.622   4.176   0.215
  883SOL    HW2 3549   3.519   4.058   0.169
  884SOL     OW 3550   4.098   3.872   1.888
  884SOL    HW1 3551   4.164   3.815   1.839
  884SOL    HW2 3552   4.105   3.855   1.986
  885SOL     OW 3553   4.553   6.353   6.699
  885SOL    HW1 3554   4.562   6.445   6.660
  885SOL    HW2 3555   4.530   6.288   6.627
  886SOL     OW 3556   3.840   1.896   6.423
  886SOL    HW1 3557   3.886   1.862   6.505
  886SOL    HW2 3558   3.741   1.893   6.436
  887SOL     OW 3559   5.385   0.185   6.167
  887SOL    HW1 3560   5.475   0.142   6.161
  887SOL    HW2 3561   5.386   0.252   6.242
  888SOL     OW 3562   6.803   6.121   3.626
  888SOL    HW1 3563   6.811   6.064   3.545
  888SOL    HW2 3564   6.755   6.206   3.603
  889SOL     OW 3565   1.272   6.882   4.695
  889SOL    HW1 3566   1.232   6.810   4.639
  889SOL    HW2 3567   1.204   6.954   4.711
  890SOL     OW 3568   1.726   4.560   2.281
  890SOL    HW1 3569   1.692   4.504   2.356
  890SOL    HW2 3570   1.665   4.553   2.202
  891SOL     OW 3571   5.694   3.503   6.245
  891SOL    HW1 3572   5.713   3.560   6.165
  891SOL    HW2 3573   5.758   3.426   6.248
  892SOL     OW 3574   2.262   5.360   1.676
  892SOL    HW1 3575   2.285   5.390   1.583
  892SOL    HW2 3576   2.330   5.395   1.740
  893SOL     OW 3577   1.675   6.676   1.141
  893SOL    HW1 3578   1.654   6.768   1.175
  893SOL    HW2 3579   1.622   6.658   1.058
  894SOL     OW 3580   1.201   5.154   3.741
  894SOL    HW1 3581   1.240   5.074   3.787
  894SOL    HW2 3582   1.117   5.128   3.695
  895SOL     OW 3583   2.223   0.707   4.622
  895SOL    HW1 3584   2.246   0.673   4.531
  895SOL    HW2 3585   2.195   0.803   4.616
  896SOL     OW 3586   5.510   0.038   3.299
  896SOL    HW1 3587   5.414   0.023   3.322
  896SOL    HW2 3588   5.568   7.010   3.361
  897SOL     OW 3589   5.205   1.873   6.107
  897SOL    HW1 3590   5.191   1.862   6.206
  897SOL    HW2 3591   5.164   1.796   6.059
  898SOL     OW 3592   5.607   5.587   3.798
  898SOL    HW1 3593   5.519   5.575   3.752
  898SOL    HW2 3594   5.591   5.607   3.895
  899SOL     OW 3595   1.194   4.344   0.290
  899SOL    HW1 3596   1.161   4.302   0.205
  899SOL    HW2 3597   1.286   4.381   0.275
  900SOL     OW 3598   0.634   5.589   3.547
  900SOL    HW1 3599   0.678   5.660   3.492
  900SOL    HW2 3600   0.537   5.610   3.558
  901SOL     OW 3601   6.061   1.835   3.554
  901SOL    HW1 3602   5.967   1.831   3.518
  901SOL    HW2 3603   6.116   1.764   3.511
  902SOL     OW 3604   0.935   5.856   0.087
  902SOL    HW1 3605   0.962   5.797   0.163
  902SOL    HW2 3606   0.958   5.951   0.108
  903SOL     OW 3607   0.651   5.198   6.627
  903SOL    HW1 3608   0.575   5.143   6.594
  903SOL    HW2 3609   0.669   5.176   6.723
  904SOL     OW 3610   1.770   0.900   3.520
  904SOL    HW1 3611   1.817   0.957   3.588
  904SOL    HW2 3612   1.680   0.873   3.556
  905SOL     OW 3613   6.414   1.709   5.523
  905SOL    HW1 3614   6.392   1.620   5.481
  905SOL    HW2 3615   6.488   1.752   5.472
  906SOL     OW 3616   6.537   3.733   5.240
  906SOL    HW1 3617   6.605   3.790   5.193
  906SOL    HW2 3618   6.560   3.726   5.337
  907SOL     OW 3619   0.309   3.203   1.638
  907SOL    HW1 3620   0.281   3.257   1.717
  907SOL    HW2 3621   0.399   3.234   1.607
  908SOL     OW 3622   2.326   0.682   3.185
  908SOL    HW1 3623   2.253   0.637   3.238
  908SOL    HW2 3624   2.292   0.702   3.093
  909SOL     OW 3625   4.436   0.214   1.392
  909SOL    HW1 3626   4.518   0.269   1.377
  909SOL    HW2 3627   4.441   0.131   1.336
  910SOL     OW 3628   1.961   1.731   1.705
  910SOL    HW1 3629   1.941   1.828   1.720
  910SOL    HW2 3630   1.887   1.676   1.742
  911SOL     OW 3631   0.383   3.719   1.041
  911SOL    HW1 3632   0.306   3.782   1.053
  911SOL    HW2 3633   0.373   3.669   0.956
  912SOL     OW 3634   0.743   0.385   6.167
  912SOL    HW1 3635   0.805   0.454   6.206
  912SOL    HW2 3636   0.664   0.374   6.228
  913SOL     OW 3637   1.974   1.098   1.718
  913SOL    HW1 3638   1.930   1.185   1.696
  913SOL    HW2 3639   1.924   1.053   1.792
  914SOL     OW 3640   2.674   5.856   2.743
  914SOL    HW1 3641   2.615   5.835   2.665
  914SOL    HW2 3642   2.639   5.812   2.825
  915SOL     OW 3643   1.159   2.354   0.574
  915SOL    HW1 3644   1.156   2.447   0.539
  915SOL    HW2 3645   1.192   2.292   0.503
  916SOL     OW 3646   1.733   3.101   2.204
  916SOL    HW1 3647   1.749   3.179   2.264
  916SOL    HW2 3648   1.773   3.119   2.114
  917SOL     OW 3649   3.444   2.072   6.581
  917SOL    HW1 3650   3.389   2.023   6.648
  917SOL    HW2 3651   3.515   2.125   6.627
  918SOL     OW 3652   0.465   0.969   5.529
  918SOL    HW1 3653   0.388   0.907   5.514
  918SOL    HW2 3654   0.512   0.945   5.614
  919SOL     OW 3655   1.721   6.932   0.941
  919SOL    HW1 3656   1.789   6.866   0.971
  919SOL    HW2 3657   1.723   7.012   1.001
  920SOL     OW 3658   2.094   1.023   3.390
  920SOL    HW1 3659   2.137   1.097   3.443
  920SOL    HW2 3660   2.102   0.938   3.441
  921SOL     OW 3661   4.518   4.372   0.369
  921SOL    HW1 3662   4.548   4.458   0.329
  921SOL    HW2 3663   4.597   4.311   0.381
  922SOL     OW 3664   2.283   5.010   6.060
  922SOL    HW1 3665   2.231   4.939   6.012
  922SOL    HW2 3666   2.375   4.976   6.081
  923SOL     OW 3667   3.591   1.596   6.612
  923SOL    HW1 3668   3.537   1.520   6.649
  923SOL    HW2 3669   3.643   1.563   6.533
  924SOL     OW 3670   6.838   4.498   2.491
  924SOL    HW1 3671   6.756   4.527   2.542
  924SOL    HW2 3672   6.810   4.446   2.410
  925SOL     OW 3673   6.836   1.864   3.133
  925SOL    HW1 3674   6.772   1.819   3.195
  925SOL    HW2 3675   6.879   1.795   3.074
  926SOL     OW 3676   5.510   6.321   0.409
  926SOL    HW1 3677   5.444   6.281   0.473
  926SOL    HW2 3678   5.603   6.302   0.442
  927SOL     OW 3679   5.032   5.124   4.877
  927SOL    HW1 3680   4.996   5.187   4.945
  927SOL    HW2 3681   5.088   5.054   4.922
  928SOL     OW 3682   0.514   1.335   1.148
  928SOL    HW1 3683   0.590   1.322   1.084
  928SOL    HW2 3684   0.517   1.428   1.184
  929SOL     OW 3685   0.248   2.668   2.484
  929SOL    HW1 3686   0.330   2.708   2.526
  929SOL    HW2 3687   0.256   2.671   2.385
  930SOL     OW 3688   5.430   5.652   2.368
  930SOL    HW1 3689   5.433   5.741   2.323
  930SOL    HW2 3690   5.422   5.664   2.467
  931SOL     OW 3691   1.933   3.075   1.989
  931SOL    HW1 3692   2.014   3.123   2.022
  931SOL    HW2 3693   1.937   2.979   2.017
  932SOL     OW 3694   4.623   6.238   1.194
  932SOL    HW1 3695   4.534   6.277   1.169
  932SOL    HW2 3696   4.661   6.287   1.272
  933SOL     OW 3697   1.450   6.077   4.291
  933SOL    HW1 3698   1.496   6.032   4.214
  933SOL    HW2 3699   1.353   6.051   4.291
  934SOL     OW 3700   2.879   0.881   5.749
  934SOL    HW1 3701   2.891   0.796   5.800
  934SOL    HW2 3702   2.935   0.879   5.667
  935SOL     OW 3703   1.771   3.583   5.799
  935SOL    HW1 3704   1.732   3.506   5.850
  935SOL    HW2 3705   1.850   3.620   5.848
  936SOL     OW 3706   0.411   2.062   1.715
  936SOL    HW1 3707   0.467   1.980   1.701
  936SOL    HW2 3708   0.444   2.112   1.795
  937SOL     OW 3709   5.205   2.462   3.559
  937SOL    HW1 3710   5.260   2.515   3.494
  937SOL    HW2 3711   5.144   2.402   3.508
  938SOL     OW 3712   6.611   1.440   6.678
  938SOL    HW1 3713   6.649   1.421   6.588
  938SOL    HW2 3714   6.681   1.484   6.735
  939SOL     OW 3715   6.533   0.826   5.320
  939SOL    HW1 3716   6.502   0.877   5.401
  939SOL    HW2 3717   6.631   0.806   5.329
  940SOL     OW 3718   0.366   0.628   4.122
  940SOL    HW1 3719   0.365   0.704   4.187
  940SOL    HW2 3720   0.342   0.662   4.031
  941SOL     OW 3721   5.771   2.716   5.440
  941SOL    HW1 3722   5.817   2.671   5.516
  941SOL    HW2 3723   5.684   2.754   5.471
  942SOL     OW 3724   4.617   0.661   5.529
  942SOL    HW1 3725   4.606   0.565   5.501
  942SOL    HW2 3726   4.707   0.694   5.498
  943SOL     OW 3727   5.534   2.030   6.833
  943SOL    HW1 3728   5.599   1.986   6.770
  943SOL    HW2 3729   5.542   1.987   6.923
  944SOL     OW 3730   5.457   4.034   4.820
  944SOL    HW1 3731   5.473   3.938   4.842
  944SOL    HW2 3732   5.498   4.055   4.731
  945SOL     OW 3733   5.694   3.310   5.535
  945SOL    HW1 3734   5.638   3.229   5.553
  945SOL    HW2 3735   5.751   3.294   5.455
  946SOL     OW 3736   5.448   3.367   6.207
  946SOL    HW1 3737   5.546   3.376   6.226
  946SOL    HW2 3738   5.434   3.306   6.130
  947SOL     OW 3739   1.187   2.537   5.157
  947SOL    HW1 3740   1.097   2.573   5.132
  947SOL    HW2 3741   1.243   2.529   5.074
  948SOL     OW 3742   4.049   1.907   0.526
  948SOL    HW1 3743   4.065   1.993   0.573
  948SOL    HW2 3744   4.135   1.872   0.489
  949SOL     OW 3745   5.868   6.132   6.353
  949SOL    HW1 3746   5.843   6.091   6.266
  949SOL    HW2 3747   5.944   6.082   6.393
  950SOL     OW 3748   3.810   5.374   0.842
  950SOL    HW1 3749   3.891   5.316   0.835
  950SOL    HW2 3750   3.838   5.470   0.843
  951SOL     OW 3751   0.400   2.517   4.048
  951SOL    HW1 3752   0.432   2.608   4.073
  951SOL    HW2 3753   0.319   2.494   4.102
  952SOL     OW 3754   5.038   1.420   1.325
  952SOL    HW1 3755   4.989   1.458   1.403
  952SOL    HW2 3756   5.074   1.493   1.268
  953SOL     OW 3757   3.553   6.714   6.086
  953SOL    HW1 3758   3.464   6.742   6.123
  953SOL    HW2 3759   3.547   6.619   6.054
  954SOL     OW 3760   0.044   6.922   1.516
  954SOL    HW1 3761   7.007   6.965   1.451
  954SOL    HW2 3762   0.103   6.858   1.467
  955SOL     OW 3763   0.240   0.118   2.346
  955SOL    HW1 3764   0.201   0.207   2.321
  955SOL    HW2 3765   0.174   0.046   2.323
  956SOL     OW 3766   1.150   2.605   0.441
  956SOL    HW1 3767   1.212   2.684   0.439
  956SOL    HW2 3768   1.072   2.623   0.381
  957SOL     OW 3769   2.146   6.715   5.073
  957SOL    HW1 3770   2.158   6.682   4.980
  957SOL    HW2 3771   2.226   6.693   5.128
  958SOL     OW 3772   4.831   2.312   0.307
  958SOL    HW1 3773   4.741   2.321   0.350
  958SOL    HW2 3774   4.902   2.311   0.378
  959SOL     OW 3775   1.790   3.697   1.816
  959SOL    HW1 3776   1.862   3.628   1.812
  959SOL    HW2 3777   1.706   3.656   1.852
  960SOL     OW 3778   1.590   5.678   5.597
  960SOL    HW1 3779   1.572   5.661   5.694
  960SOL    HW2 3780   1.517   5.637   5.542
  961SOL     OW 3781   3.766   6.795   0.491
  961SOL    HW1 3782   3.765   6.891   0.520
  961SOL    HW2 3783   3.723   6.787   0.401
  962SOL     OW 3784   1.350   6.184   4.031
  962SOL    HW1 3785   1.433   6.128   4.028
  962SOL    HW2 3786   1.306   6.173   4.120
  963SOL     OW 3787   6.054   0.091   2.133
  963SOL    HW1 3788   6.054   0.155   2.209
  963SOL    HW2 3789   6.142   0.042   2.131
  964SOL     OW 3790   5.450   3.096   0.997
  964SOL    HW1 3791   5.417   3.069   1.087
  964SOL    HW2 3792   5.484   3.190   1.001
  965SOL     OW 3793   1.378   1.847   0.358
  965SOL    HW1 3794   1.365   1.946   0.367
  965SOL    HW2 3795   1.419   1.827   0.269
  966SOL     OW 3796   6.902   2.550   1.827
  966SOL    HW1 3797   6.917   2.592   1.917
  966SOL    HW2 3798   6.902   2.451   1.836
  967SOL     OW 3799   0.728   6.331   2.331
  967SOL    HW1 3800   0.825   6.326   2.306
  967SOL    HW2 3801   0.697   6.239   2.357
  968SOL     OW 3802   6.665   4.319   1.412
  968SOL    HW1 3803   6.681   4.416   1.434
  968SOL    HW2 3804   6.640   4.270   1.495
  969SOL     OW 3805   4.256   6.189   6.763
  969SOL    HW1 3806   4.210   6.264   6.810
  969SOL    HW2 3807   4.335   6.158   6.817
  970SOL     OW 3808   4.642   2.574   5.436
  970SOL    HW1 3809   4.701   2.611   5.365
  970SOL    HW2 3810   4.549   2.566   5.401
  971SOL     OW 3811   0.084   2.876   0.395
  971SOL    HW1 3812   0.008   2.865   0.330
  971SOL    HW2 3813   0.055   2.936   0.469
  972SOL     OW 3814   5.861   6.240   0.862
  972SOL    HW1 3815   5.830   6.236   0.957
  972SOL    HW2 3816   5.958   6.265   0.860
  973SOL     OW 3817   5.666   3.842   5.077
  973SOL    HW1 3818   5.639   3.795   5.160
  973SOL    HW2 3819   5.593   3.835   5.009
  974SOL     OW 3820   2.871   1.393   4.791
  974SOL    HW1 3821   2.779   1.416   4.758
  974SOL    HW2 3822   2.888   1.441   4.877
  975SOL     OW 3823   3.249   6.633   5.402
  975SOL    HW1 3824   3.344   6.659   5.420
  975SOL    HW2 3825   3.195   6.646   5.484
  976SOL     OW 3826   6.848   5.924   3.447
  976SOL    HW1 3827   6.898   5.873   3.517
  976SOL    HW2 3828   6.913   5.970   3.387
  977SOL     OW 3829   1.517   2.671   2.065
  977SOL    HW1 3830   1.514   2.612   2.146
  977SOL    HW2 3831   1.424   2.694   2.037
  978SOL     OW 3832   5.518   3.418   4.917
  978SOL    HW1 3833   5.543   3.323   4.938
  978SOL    HW2 3834   5.557   3.443   4.828
  979SOL     OW 3835   6.231   1.638   3.478
  979SOL    HW1 3836   6.221   1.599   3.570
  979SOL    HW2 3837   6.296   1.584   3.425
  980SOL     OW 3838   6.608   0.314   4.431
  980SOL    HW1 3839   6.597   0.412   4.416
  980SOL    HW2 3840   6.706   0.291   4.430
  981SOL     OW 3841   6.913   3.267   5.577
  981SOL    HW1 3842   6.943   3.174   5.558
  981SOL    HW2 3843   6.813   3.271   5.576
  982SOL     OW 3844   1.646   2.974   1.486
  982SOL    HW1 3845   1.659   2.972   1.387
  982SOL    HW2 3846   1.642   3.068   1.518
  983SOL     OW 3847   5.966   1.902   2.948
  983SOL    HW1 3848   5.989   1.928   2.855
  983SOL    HW2 3849   5.871   1.868   2.951
  984SOL     OW 3850   4.732   1.917   5.119
  984SOL    HW1 3851   4.705   1.852   5.048
  984SOL    HW2 3852   4.765   1.867   5.199
  985SOL     OW 3853   2.647   5.138   0.880
  985SOL    HW1 3854   2.694   5.088   0.953
  985SOL    HW2 3855   2.567   5.185   0.919
  986SOL     OW 3856   3.885   4.781   0.081
  986SOL    HW1 3857   3.807   4.739   0.035
  986SOL    HW2 3858   3.895   4.743   0.173
  987SOL     OW 3859   3.566   6.887   2.431
  987SOL    HW1 3860   3.471   6.856   2.435
  987SOL    HW2 3861   3.578   6.950   2.355
  988SOL     OW 3862   3.294   3.301   1.706
  988SOL    HW1 3863   3.312   3.330   1.612
  988SOL    HW2 3864   3.326   3.372   1.769
  989SOL     OW 3865   0.572   6.823   4.463
  989SOL    HW1 3866   0.481   6.842   4.426
  989SOL    HW2 3867   0.639   6.821   4.389
  990SOL     OW 3868   5.063   6.173   2.603
  990SOL    HW1 3869   4.980   6.163   2.658
  990SOL    HW2 3870   5.135   6.114   2.640
  991SOL     OW 3871   6.075   1.314   5.060
  991SOL    HW1 3872   6.162   1.309   5.010
  991SOL    HW2 3873   5.999   1.314   4.995
  992SOL     OW 3874   0.144   3.136   1.403
  992SOL    HW1 3875   0.216   3.156   1.469
  992SOL    HW2 3876   0.059   3.114   1.451
  993SOL     OW 3877   3.535   5.749   4.363
  993SOL    HW1 3878   3.476   5.784   4.436
  993SOL    HW2 3879   3.479   5.700   4.296
  994SOL     OW 3880   3.037   3.863   1.904
  994SOL    HW1 3881   3.123   3.813   1.899
  994SOL    HW2 3882   2.970   3.820   1.844
  995SOL     OW 3883   0.458   1.414   4.912
  995SOL    HW1 3884   0.527   1.380   4.976
  995SOL    HW2 3885   0.367   1.396   4.949
  996SOL     OW 3886   0.915   3.685   1.042
  996SOL    HW1 3887   0.831   3.726   1.007
  996SOL    HW2 3888   0.896   3.636   1.126
  997SOL     OW 3889   0.480   0.927   1.109
  997SOL    HW1 3890   0.576   0.954   1.110
  997SOL    HW2 3891   0.442   0.944   1.018
  998SOL     OW 3892   4.699   6.976   3.724
  998SOL    HW1 3893   4.712   6.883   3.689
  998SOL    HW2 3894   4.785   0.001   3.717
  999SOL     OW 3895   0.002   5.659   1.832
  999SOL    HW1 3896   6.988   5.742   1.793
  999SOL    HW2 3897   0.099   5.675   1.851
 1000SOL     OW 3898   4.350   2.345   4.630
 1000SOL    HW1 3899   4.342   2.325   4.532
 1000SOL    HW2 3900   4.276   2.299   4.679
 1001SOL     OW 3901   3.870   0.767   5.749
 1001SOL    HW1 3902   3.936   0.790   5.820
 1001SOL    HW2 3903   3.795   0.833   5.750
 1002SOL     OW 3904   6.978   1.186   6.991
 1002SOL    HW1 3905   0.010   1.106   7.009
 1002SOL    HW2 3906   6.893   1.178   0.017
 1003SOL     OW 3907   4.877   4.675   2.973
 1003SOL    HW1 3908   4.820   4.593   2.974
 1003SOL    HW2 3909   4.848   4.735   2.899
 1004SOL     OW 3910   5.941   5.729   0.461
 1004SOL    HW1 3911   6.037   5.705   0.452
 1004SOL    HW2 3912   5.923   5.815   0.415
 1005SOL     OW 3913   6.700   5.471   3.648
 1005SOL    HW1 3914   6.676   5.539   3.580
 1005SOL    HW2 3915   6.619   5.448   3.703
 1006SOL     OW 3916   2.586   4.531   0.618
 1006SOL    HW1 3917   2.674   4.576   0.633
 1006SOL    HW2 3918   2.542   4.514   0.706
 1007SOL     OW 3919   1.204   0.504   3.382
 1007SOL    HW1 3920   1.281   0.555   3.422
 1007SOL    HW2 3921   1.122   0.561   3.387
 1008SOL     OW 3922   2.826   2.187   4.218
 1008SOL    HW1 3923   2.746   2.129   4.203
 1008SOL    HW2 3924   2.830   2.215   4.314
 1009SOL     OW 3925   2.438   5.996   4.985
 1009SOL    HW1 3926   2.494   6.052   4.925
 1009SOL    HW2 3927   2.446   5.900   4.958
 1010SOL     OW 3928   4.113   0.960   6.490
 1010SOL    HW1 3929   4.180   0.908   6.436
 1010SOL    HW2 3930   4.064   1.023   6.429
 1011SOL     OW 3931   3.499   5.733   4.006
 1011SOL    HW1 3932   3.427   5.706   4.070
 1011SOL    HW2 3933   3.469   5.714   3.912
 1012SOL     OW 3934   3.486   5.723   0.023
 1012SOL    HW1 3935   3.473   5.795   6.980
 1012SOL    HW2 3936   3.408   5.721   0.085
 1013SOL     OW 3937   6.966   0.957   0.707
 1013SOL    HW1 3938   6.880   0.986   0.664
 1013SOL    HW2 3939   6.964   0.978   0.804
 1014SOL     OW 3940   4.755   0.815   6.571
 1014SOL    HW1 3941   4.844   0.831   6.529
 1014SOL    HW2 3942   4.701   0.899   6.570
 1015SOL     OW 3943   3.425   6.982   4.925
 1015SOL    HW1 3944   3.367   6.969   5.005
 1015SOL    HW2 3945   3.489   0.031   4.942
 1016SOL     OW 3946   4.755   2.497   1.906
 1016SOL    HW1 3947   4.709   2.509   1.818
 1016SOL    HW2 3948   4.773   2.587   1.947
 1017SOL     OW 3949   4.806   1.894   6.919
 1017SOL    HW1 3950   4.831   1.984   6.955
 1017SOL    HW2 3951   4.836   1.887   6.823
 1018SOL     OW 3952   1.445   2.928   1.656
 1018SOL    HW1 3953   1.520   2.924   1.590
 1018SOL    HW2 3954   1.390   3.010   1.639
 1019SOL     OW 3955   5.716   0.918   0.220
 1019SOL    HW1 3956   5.804   0.939   0.177
 1019SOL    HW2 3957   5.644   0.970   0.176
 1020SOL     OW 3958   3.486   2.167   0.963
 1020SOL    HW1 3959   3.437   2.080   0.956
 1020SOL    HW2 3960   3.478   2.202   1.056
 1021SOL     OW 3961   6.606   1.543   0.953
 1021SOL    HW1 3962   6.663   1.543   1.035
 1021SOL    HW2 3963   6.621   1.459   0.902
 1022SOL     OW 3964   3.455   2.185   7.018
 1022SOL    HW1 3965   3.534   2.134   6.985
 1022SOL    HW2 3966   3.444   2.269   6.964
 1023SOL     OW 3967   5.981   0.846   4.138
 1023SOL    HW1 3968   6.005   0.799   4.223
 1023SOL    HW2 3969   5.885   0.828   4.115
 1024SOL     OW 3970   6.204   1.513   3.709
 1024SOL    HW1 3971   6.262   1.564   3.772
 1024SOL    HW2 3972   6.156   1.441   3.759
 1025SOL     OW 3973   3.278   4.642   1.308
 1025SOL    HW1 3974   3.212   4.573   1.280
 1025SOL    HW2 3975   3.351   4.600   1.362
 1026SOL     OW 3976   0.919   3.222   6.596
 1026SOL    HW1 3977   0.899   3.317   6.619
 1026SOL    HW2 3978   0.858   3.162   6.647
 1027SOL     OW 3979   2.705   4.977   2.421
 1027SOL    HW1 3980   2.645   4.976   2.341
 1027SOL    HW2 3981   2.737   4.884   2.439
 1028SOL     OW 3982   1.160   6.160   0.669
 1028SOL    HW1 3983   1.186   6.254   0.649
 1028SOL    HW2 3984   1.073   6.139   0.626
 1029SOL     OW 3985   3.513   0.633   5.132
 1029SOL    HW1 3986   3.557   0.715   5.098
 1029SOL    HW2 3987   3.427   0.657   5.178
 1030SOL     OW 3988   3.782   4.411   5.281
 1030SOL    HW1 3989   3.881   4.397   5.283
 1030SOL    HW2 3990   3.741   4.347   5.217
 1031SOL     OW 3991   1.944   5.270   1.132
 1031SOL    HW1 3992   1.902   5.358   1.151
 1031SOL    HW2 3993   2.022   5.255   1.193
 1032SOL     OW 3994   1.717   1.246   4.694
 1032SOL    HW1 3995   1.726   1.232   4.596
 1032SOL    HW2 3996   1.807   1.264   4.734
 1033SOL     OW 3997   2.483   6.345   3.513
 1033SOL    HW1 3998   2.420   6.282   3.469
 1033SOL    HW2 3999   2.536   6.296   3.582
 1034SOL     OW 4000   1.312   6.618   2.229
 1034SOL    HW1 4001   1.263   6.662   2.154
 1034SOL    HW2 4002   1.378   6.553   2.192
 1035SOL     OW 4003   3.211   0.548   3.980
 1035SOL    HW1 4004   3.256   0.590   3.900
 1035SOL    HW2 4005   3.117   0.581   3.986
 1036SOL     OW 4006   4.158   0.056   6.078
 1036SOL    HW1 4007   4.225   0.002   6.129
 1036SOL    HW2 4008   4.158   0.029   5.982
 1037SOL     OW 4009   2.695   1.816   6.541
 1037SOL    HW1 4010   2.748   1.750   6.488
 1037SOL    HW2 4011   2.644   1.769   6.612
 1038SOL     OW 4012   2.922   1.478   5.056
 1038SOL    HW1 4013   2.954   1.422   5.133
 1038SOL    HW2 4014   2.886   1.565   5.090
 1039SOL     OW 4015   4.279   1.827   3.565
 1039SOL    HW1 4016   4.328   1.910   3.592
 1039SOL    HW2 4017   4.336   1.773   3.503
 1040SOL     OW 4018   6.005   3.638   4.090
 1040SOL    HW1 4019   6.022   3.735   4.109
 1040SOL    HW2 4020   6.091   3.587   4.095
 1041SOL     OW 4021   1.503   6.752   4.433
 1041SOL    HW1 4022   1.523   6.715   4.524
 1041SOL    HW2 4023   1.583   6.744   4.375
 1042SOL     OW 4024   4.832   3.602   0.915
 1042SOL    HW1 4025   4.893   3.577   0.840
 1042SOL    HW2 4026   4.810   3.521   0.969
 1043SOL     OW 4027   3.414   0.036   6.805
 1043SOL    HW1 4028   3.512   0.019   6.797
 1043SOL    HW2 4029   3.398   0.126   6.845
 1044SOL     OW 4030   3.824   3.891   1.929
 1044SOL    HW1 4031   3.923   3.902   1.915
 1044SOL    HW2 4032   3.808   3.837   2.012
 1045SOL     OW 4033   3.900   1.397   3.489
 1045SOL    HW1 4034   3.927   1.302   3.497
 1045SOL    HW2 4035   3.874   1.417   3.395
 1046SOL     OW 4036   3.578   1.214   2.222
 1046SOL    HW1 4037   3.595   1.119   2.198
 1046SOL    HW2 4038   3.655   1.250   2.275
 1047SOL     OW 4039   0.723   5.565   1.902
 1047SOL    HW1 4040   0.725   5.664   1.920
 1047SOL    HW2 4041   0.715   5.550   1.804
 1048SOL     OW 4042   6.444   4.964   5.230
 1048SOL    HW1 4043   6.515   5.035   5.227
 1048SOL    HW2 4044   6.487   4.876   5.253
 1049SOL     OW 4045   0.660   3.455   4.930
 1049SOL    HW1 4046   0.670   3.358   4.908
 1049SOL    HW2 4047   0.568   3.472   4.966
 1050SOL     OW 4048   3.140   0.539   0.062
 1050SOL    HW1 4049   3.169   0.524   0.157
 1050SOL    HW2 4050   3.118   0.452   0.019
 1051SOL     OW 4051   4.571   4.840   2.332
 1051SOL    HW1 4052   4.553   4.806   2.240
 1051SOL    HW2 4053   4.554   4.767   2.399
 1052SOL     OW 4054   3.800   0.328   4.319
 1052SOL    HW1 4055   3.809   0.304   4.416
 1052SOL    HW2 4056   3.740   0.408   4.311
 1053SOL     OW 4057   3.660   5.070   3.525
 1053SOL    HW1 4058   3.640   4.998   3.591
 1053SOL    HW2 4059   3.628   5.042   3.434
 1054SOL     OW 4060   4.000   6.206   4.348
 1054SOL    HW1 4061   3.990   6.304   4.328
 1054SOL    HW2 4062   3.912   6.160   4.335
 1055SOL     OW 4063   4.303   5.554   3.704
 1055SOL    HW1 4064   4.236   5.485   3.729
 1055SOL    HW2 4065   4.262   5.617   3.638
 1056SOL     OW 4066   1.836   5.668   5.876
 1056SOL    HW1 4067   1.745   5.628   5.890
 1056SOL    HW2 4068   1.877   5.631   5.793
 1057SOL     OW 4069   3.692   3.993   1.258
 1057SOL    HW1 4070   3.735   4.026   1.341
 1057SOL    HW2 4071   3.718   3.897   1.242
 1058SOL     OW 4072   3.281   6.975   1.741
 1058SOL    HW1 4073   3.358   6.987   1.804
 1058SOL    HW2 4074   3.282   6.883   1.702
 1059SOL     OW 4075   3.409   1.058   0.448
 1059SOL    HW1 4076   3.320   1.021   0.473
 1059SOL    HW2 4077   3.403   1.102   0.358
 1060SOL     OW 4078   2.201   1.670   4.442
 1060SOL    HW1 4079   2.160   1.694   4.354
 1060SOL    HW2 4080   2.289   1.716   4.453
 1061SOL     OW 4081   3.261   6.023   1.374
 1061SOL    HW1 4082   3.278   5.976   1.460
 1061SOL    HW2 4083   3.182   6.083   1.383
 1062SOL     OW 4084   5.038   4.794   5.152
 1062SOL    HW1 4085   5.025   4.702   5.114
 1062SOL    HW2 4086   4.963   4.853   5.122
 1063SOL     OW 4087   2.323   3.390   5.778
 1063SOL    HW1 4088   2.338   3.293   5.796
 1063SOL    HW2 4089   2.266   3.400   5.697
 1064SOL     OW 4090   0.544   3.442   1.940
 1064SOL    HW1 4091   0.600   3.403   1.867
 1064SOL    HW2 4092   0.464   3.486   1.901
 1065SOL     OW 4093   4.433   4.914   5.451
 1065SOL    HW1 4094   4.533   4.907   5.451
 1065SOL    HW2 4095   4.397   4.873   5.367
 1066SOL     OW 4096   4.186   0.106   3.122
 1066SOL    HW1 4097   4.100   0.155   3.140
 1066SOL    HW2 4098   4.170   0.008   3.125
 1067SOL     OW 4099   2.525   3.304   0.619
 1067SOL    HW1 4100   2.457   3.322   0.547
 1067SOL    HW2 4101   2.612   3.346   0.594
 1068SOL     OW 4102   0.472   4.391   0.874
 1068SOL    HW1 4103   0.399   4.400   0.807
 1068SOL    HW2 4104   0.560   4.407   0.829
 1069SOL     OW 4105   3.772   3.394   2.042
 1069SOL    HW1 4106   3.706   3.321   2.058
 1069SOL    HW2 4107   3.731   3.482   2.063
 1070SOL     OW 4108   2.468   6.744   0.772
 1070SOL    HW1 4109   2.548   6.688   0.748
 1070SOL    HW2 4110   2.489   6.840   0.754
 1071SOL     OW 4111   4.755   5.956   3.767
 1071SOL    HW1 4112   4.842   5.919   3.734
 1071SOL    HW2 4113   4.679   5.915   3.716
 1072SOL     OW 4114   3.366   5.515   2.429
 1072SOL    HW1 4115   3.289   5.545   2.373
 1072SOL    HW2 4116   3.452   5.543   2.385
 1073SOL     OW 4117   2.815   5.496   3.042
 1073SOL    HW1 4118   2.763   5.412   3.028
 1073SOL    HW2 4119   2.895   5.496   2.983
 1074SOL     OW 4120   1.537   5.276   2.134
 1074SOL    HW1 4121   1.575   5.206   2.195
 1074SOL    HW2 4122   1.440   5.258   2.119
 1075SOL     OW 4123   0.706   4.114   2.744
 1075SOL    HW1 4124   0.753   4.035   2.706
 1075SOL    HW2 4125   0.769   4.192   2.746
 1076SOL     OW 4126   6.952   4.250   2.532
 1076SOL    HW1 4127   6.910   4.341   2.529
 1076SOL    HW2 4128   6.933   4.202   2.446
 1077SOL     OW 4129   5.233   0.950   1.089
 1077SOL    HW1 4130   5.216   1.039   1.131
 1077SOL    HW2 4131   5.264   0.886   1.160
 1078SOL     OW 4132   0.625   3.553   1.125
 1078SOL    HW1 4133   0.547   3.497   1.099
 1078SOL    HW2 4134   0.593   3.639   1.164
 1079SOL     OW 4135   2.501   5.394   3.386
 1079SOL    HW1 4136   2.594   5.382   3.421
 1079SOL    HW2 4137   2.435   5.368   3.457
 1080SOL     OW 4138   1.643   5.720   3.992
 1080SOL    HW1 4139   1.553   5.744   4.029
 1080SOL    HW2 4140   1.703   5.692   4.067
 1081SOL     OW 4141   1.652   1.513   0.426
 1081SOL    HW1 4142   1.568   1.469   0.396
 1081SOL    HW2 4143   1.648   1.528   0.525
 1082SOL     OW 4144   2.220   6.895   0.715
 1082SOL    HW1 4145   2.224   6.938   0.806
 1082SOL    HW2 4146   2.313   6.868   0.688
 1083SOL     OW 4147   3.684   2.354   1.588
 1083SOL    HW1 4148   3.713   2.262   1.560
 1083SOL    HW2 4149   3.680   2.359   1.688
 1084SOL     OW 4150   6.357   3.511   0.910
 1084SOL    HW1 4151   6.406   3.489   0.995
 1084SOL    HW2 4152   6.259   3.516   0.929
 1085SOL     OW 4153   1.093   4.579   3.055
 1085SOL    HW1 4154   1.020   4.612   3.116
 1085SOL    HW2 4155   1.108   4.482   3.071
 1086SOL     OW 4156   4.214   4.703   2.267
 1086SOL    HW1 4157   4.118   4.731   2.272
 1086SOL    HW2 4158   4.242   4.695   2.171
 1087SOL     OW 4159   3.898   3.675   5.091
 1087SOL    HW1 4160   3.977   3.734   5.108
 1087SOL    HW2 4161   3.862   3.641   5.178
 1088SOL     OW 4162   5.863   4.549   2.860
 1088SOL    HW1 4163   5.962   4.533   2.866
 1088SOL    HW2 4164   5.816   4.462   2.847
 1089SOL     OW 4165   6.126   6.836   3.210
 1089SOL    HW1 4166   6.028   6.823   3.195
 1089SOL    HW2 4167   6.141   6.885   3.296
 1090SOL     OW 4168   1.414   1.841   6.034
 1090SOL    HW1 4169   1.364   1.792   5.963
 1090SOL    HW2 4170   1.483   1.899   5.992
 1091SOL     OW 4171   1.166   2.728   5.362
 1091SOL    HW1 4172   1.259   2.766   5.363
 1091SOL    HW2 4173   1.165   2.645   5.306
 1092SOL     OW 4174   1.886   4.462   1.317
 1092SOL    HW1 4175   1.873   4.560   1.305
 1092SOL    HW2 4176   1.857   4.436   1.409
 1093SOL     OW 4177   0.497   2.497   2.052
 1093SOL    HW1 4178   0.430   2.434   2.092
 1093SOL    HW2 4179   0.462   2.531   1.964
 1094SOL     OW 4180   0.802   6.728   2.041
 1094SOL    HW1 4181   0.729   6.664   2.016
 1094SOL    HW2 4182   0.820   6.789   1.964
 1095SOL     OW 4183   6.210   3.190   5.723
 1095SOL    HW1 4184   6.135   3.144   5.770
 1095SOL    HW2 4185   6.248   3.262   5.782
 1096SOL     OW 4186   3.606   3.717   1.815
 1096SOL    HW1 4187   3.598   3.698   1.718
 1096SOL    HW2 4188   3.675   3.789   1.829
 1097SOL     OW 4189   1.950   4.370   5.341
 1097SOL    HW1 4190   2.016   4.427   5.292
 1097SOL    HW2 4191   1.866   4.362   5.287
 1098SOL     OW 4192   4.081   1.079   2.957
 1098SOL    HW1 4193   4.162   1.096   3.014
 1098SOL    HW2 4194   4.003   1.059   3.015
 1099SOL     OW 4195   4.072   1.218   2.735
 1099SOL    HW1 4196   4.019   1.165   2.668
 1099SOL    HW2 4197   4.063   1.176   2.825
 1100SOL     OW 4198   6.975   0.793   0.019
 1100SOL    HW1 4199   6.997   0.697   0.034
 1100SOL    HW2 4200   0.022   0.851   0.056
 1101SOL     OW 4201   5.874   2.888   1.108
 1101SOL    HW1 4202   5.914   2.819   1.047
 1101SOL    HW2 4203   5.810   2.843   1.171
 1102SOL     OW 4204   0.077   4.184   3.428
 1102SOL    HW1 4205   0.122   4.270   3.405
 1102SOL    HW2 4206   7.009   4.203   3.458
 1103SOL     OW 4207   0.586   3.339   0.760
 1103SOL    HW1 4208   0.507   3.399   0.771
 1103SOL    HW2 4209   0.557   3.254   0.715
 1104SOL     OW 4210   2.624   5.381   5.896
 1104SOL    HW1 4211   2.678   5.369   5.979
 1104SOL    HW2 4212   2.536   5.334   5.905
 1105SOL     OW 4213   4.168   5.442   0.724
 1105SOL    HW1 4214   4.186   5.465   0.628
 1105SOL    HW2 4215   4.155   5.527   0.776
 1106SOL     OW 4216   1.384   1.222   6.235
 1106SOL    HW1 4217   1.314   1.151   6.240
 1106SOL    HW2 4218   1.462   1.188   6.183
 1107SOL     OW 4219   0.126   6.979   1.149
 1107SOL    HW1 4220   0.146   0.008   1.231
 1107SOL    HW2 4221   0.194   6.998   1.079
 1108SOL     OW 4222   0.674   0.756   6.753
 1108SOL    HW1 4223   0.705   0.674   6.705
 1108SOL    HW2 4224   0.683   0.743   6.851
 1109SOL     OW 4225   5.056   1.030   3.811
 1109SOL    HW1 4226   5.037   0.998   3.904
 1109SOL    HW2 4227   5.134   1.093   3.812
 1110SOL     OW 4228   3.143   2.830   1.890
 1110SOL    HW1 4229   3.190   2.742   1.900
 1110SOL    HW2 4230   3.068   2.821   1.825
 1111SOL     OW 4231   4.775   0.207   6.717
 1111SOL    HW1 4232   4.860   0.176   6.759
 1111SOL    HW2 4233   4.698   0.182   6.776
 1112SOL     OW 4234   1.005   1.406   3.044
 1112SOL    HW1 4235   1.061   1.327   3.071
 1112SOL    HW2 4236   0.993   1.406   2.945
 1113SOL     OW 4237   6.002   4.106   2.200
 1113SOL    HW1 4238   5.913   4.078   2.165
 1113SOL    HW2 4239   5.992   4.190   2.254
 1114SOL     OW 4240   6.073   1.469   5.807
 1114SOL    HW1 4241   6.012   1.415   5.865
 1114SOL    HW2 4242   6.036   1.473   5.714
 1115SOL     OW 4243   3.605   4.322   0.634
 1115SOL    HW1 4244   3.670   4.363   0.571
 1115SOL    HW2 4245   3.538   4.392   0.662
 1116SOL     OW 4246   3.628   6.476   5.917
 1116SOL    HW1 4247   3.594   6.406   5.980
 1116SOL    HW2 4248   3.727   6.485   5.929
 1117SOL     OW 4249   2.193   2.596   0.605
 1117SOL    HW1 4250   2.126   2.545   0.658
 1117SOL    HW2 4251   2.149   2.673   0.560
 1118SOL     OW 4252   1.605   3.415   2.858
 1118SOL    HW1 4253   1.627   3.373   2.946
 1118SOL    HW2 4254   1.565   3.346   2.797
 1119SOL     OW 4255   2.868   3.647   2.615
 1119SOL    HW1 4256   2.769   3.643   2.625
 1119SOL    HW2 4257   2.892   3.642   2.518
 1120SOL     OW 4258   4.996   1.103   4.355
 1120SOL    HW1 4259   5.058   1.053   4.416
 1120SOL    HW2 4260   4.906   1.109   4.398
 1121SOL     OW 4261   5.161   3.231   2.447
 1121SOL    HW1 4262   5.150   3.302   2.378
 1121SOL    HW2 4263   5.192   3.273   2.533
 1122SOL     OW 4264   4.702   5.013   0.570
 1122SOL    HW1 4265   4.711   4.913   0.568
 1122SOL    HW2 4266   4.606   5.037   0.585
 1123SOL     OW 4267   3.616   0.955   2.121
 1123SOL    HW1 4268   3.572   0.918   2.039
 1123SOL    HW2 4269   3.646   0.879   2.180
 1124SOL     OW 4270   0.662   4.698   4.650
 1124SOL    HW1 4271   0.671   4.608   4.608
 1124SOL    HW2 4272   0.726   4.761   4.607
 1125SOL     OW 4273   3.282   3.531   4.745
 1125SOL    HW1 4274   3.270   3.572   4.836
 1125SOL    HW2 4275   3.234   3.444   4.741
 1126SOL     OW 4276   6.544   0.305   2.419
 1126SOL    HW1 4277   6.497   0.308   2.507
 1126SOL    HW2 4278   6.576   0.397   2.395
 1127SOL     OW 4279   1.653   5.102   6.556
 1127SOL    HW1 4280   1.557   5.074   6.559
 1127SOL    HW2 4281   1.709   5.032   6.600
 1128SOL     OW 4282   2.169   1.734   4.101
 1128SOL    HW1 4283   2.267   1.755   4.101
 1128SOL    HW2 4284   2.118   1.819   4.115
 1129SOL     OW 4285   4.704   0.053   6.438
 1129SOL    HW1 4286   4.799   0.049   6.407
 1129SOL    HW2 4287   4.698   0.114   6.517
 1130SOL     OW 4288   0.021   5.298   6.089
 1130SOL    HW1 4289   0.018   5.320   6.187
 1130SOL    HW2 4290   7.025   5.380   6.036
 1131SOL     OW 4291   0.680   5.250   5.380
 1131SOL    HW1 4292   0.676   5.183   5.454
 1131SOL    HW2 4293   0.615   5.225   5.308
 1132SOL     OW 4294   5.173   0.351   4.981
 1132SOL    HW1 4295   5.171   0.392   4.890
 1132SOL    HW2 4296   5.215   0.261   4.976
 1133SOL     OW 4297   6.863   2.617   0.448
 1133SOL    HW1 4298   6.784   2.559   0.425
 1133SOL    HW2 4299   6.861   2.699   0.392
 1134SOL     OW 4300   6.609   2.266   5.843
 1134SOL    HW1 4301   6.627   2.257   5.941
 1134SOL    HW2 4302   6.686   2.312   5.800
 1135SOL     OW 4303   5.924   1.564   4.099
 1135SOL    HW1 4304   5.882   1.562   4.008
 1135SOL    HW2 4305   5.983   1.644   4.106
 1136SOL     OW 4306   3.639   5.382   4.237
 1136SOL    HW1 4307   3.626   5.287   4.208
 1136SOL    HW2 4308   3.695   5.385   4.320
 1137SOL     OW 4309   1.308   0.876   6.329
 1137SOL    HW1 4310   1.315   0.883   6.428
 1137SOL    HW2 4311   1.363   0.798   6.297
 1138SOL     OW 4312   0.424   4.272   5.598
 1138SOL    HW1 4313   0.432   4.369   5.618
 1138SOL    HW2 4314   0.343   4.256   5.541
 1139SOL     OW 4315   0.976   6.313   1.306
 1139SOL    HW1 4316   0.937   6.400   1.278
 1139SOL    HW2 4317   1.008   6.263   1.225
 1140SOL     OW 4318   3.751   1.526   3.670
 1140SOL    HW1 4319   3.815   1.476   3.613
 1140SOL    HW2 4320   3.695   1.462   3.723
 1141SOL     OW 4321   6.783   5.903   5.468
 1141SOL    HW1 4322   6.804   5.810   5.497
 1141SOL    HW2 4323   6.861   5.962   5.486
 1142SOL     OW 4324   6.170   0.547   4.096
 1142SOL    HW1 4325   6.100   0.608   4.058
 1142SOL    HW2 4326   6.154   0.454   4.064
 1143SOL     OW 4327   4.466   2.030   2.249
 1143SOL    HW1 4328   4.476   2.125   2.220
 1143SOL    HW2 4329   4.498   1.969   2.176
 1144SOL     OW 4330   1.532   6.725   5.549
 1144SOL    HW1 4331   1.511   6.762   5.639
 1144SOL    HW2 4332   1.505   6.791   5.479
 1145SOL     OW 4333   1.731   5.071   5.165
 1145SOL    HW1 4334   1.689   4.981   5.177
 1145SOL    HW2 4335   1.663   5.142   5.180
 1146SOL     OW 4336   6.552   1.940   1.101
 1146SOL    HW1 4337   6.626   1.900   1.047
 1146SOL    HW2 4338   6.507   2.012   1.049
 1147SOL     OW 4339   6.736   3.093   2.265
 1147SOL    HW1 4340   6.739   2.993   2.265
 1147SOL    HW2 4341   6.644   3.124   2.290
 1148SOL     OW 4342   4.680   1.072   6.787
 1148SOL    HW1 4343   4.671   1.169   6.766
 1148SOL    HW2 4344   4.747   1.060   6.861
 1149SOL     OW 4345   6.519   2.557   3.444
 1149SOL    HW1 4346   6.450   2.506   3.495
 1149SOL    HW2 4347   6.610   2.537   3.481
 1150SOL     OW 4348   0.841   5.107   5.862
 1150SOL    HW1 4349   0.924   5.154   5.833
 1150SOL    HW2 4350   0.856   5.008   5.861
 1151SOL     OW 4351   3.837   5.589   7.011
 1151SOL    HW1 4352   3.774   5.656   0.025
 1151SOL    HW2 4353   3.839   5.507   0.042
 1152SOL     OW 4354   0.399   1.114   4.407
 1152SOL    HW1 4355   0.324   1.104   4.473
 1152SOL    HW2 4356   0.469   1.175   4.445
 1153SOL     OW 4357   2.399   4.757   2.487
 1153SOL    HW1 4358   2.460   4.810   2.546
 1153SOL    HW2 4359   2.438   4.751   2.395
 1154SOL     OW 4360   1.873   3.932   1.713
 1154SOL    HW1 4361   1.860   3.990   1.793
 1154SOL    HW2 4362   1.841   3.839   1.733
 1155SOL     OW 4363   3.831   6.455   2.410
 1155SOL    HW1 4364   3.869   6.424   2.497
 1155SOL    HW2 4365   3.797   6.548   2.421
 1156SOL     OW 4366   1.143   1.349   3.663
 1156SOL    HW1 4367   1.194   1.430   3.691
 1156SOL    HW2 4368   1.106   1.303   3.744
 1157SOL     OW 4369   0.959   3.450   4.507
 1157SOL    HW1 4370   1.001   3.420   4.593
 1157SOL    HW2 4371   0.983   3.386   4.435
 1158SOL     OW 4372   4.641   5.769   6.784
 1158SOL    HW1 4373   4.693   5.731   6.860
 1158SOL    HW2 4374   4.686   5.851   6.750
 1159SOL     OW 4375   5.255   5.140   2.815
 1159SOL    HW1 4376   5.327   5.073   2.832
 1159SOL    HW2 4377   5.294   5.221   2.770
 1160SOL     OW 4378   2.428   2.649   0.747
 1160SOL    HW1 4379   2.345   2.651   0.691
 1160SOL    HW2 4380   2.460   2.555   0.756
 1161SOL     OW 4381   4.433   0.782   4.455
 1161SOL    HW1 4382   4.465   0.742   4.541
 1161SOL    HW2 4383   4.336   0.807   4.465
 1162SOL     OW 4384   3.908   4.726   1.738
 1162SOL    HW1 4385   3.939   4.773   1.821
 1162SOL    HW2 4386   3.945   4.634   1.735
 1163SOL     OW 4387   4.686   1.699   2.200
 1163SOL    HW1 4388   4.720   1.607   2.217
 1163SOL    HW2 4389   4.667   1.744   2.287
 1164SOL     OW 4390   5.769   3.602   4.264
 1164SOL    HW1 4391   5.812   3.649   4.342
 1164SOL    HW2 4392   5.837   3.589   4.192
 1165SOL     OW 4393   1.366   4.286   1.985
 1165SOL    HW1 4394   1.381   4.208   2.045
 1165SOL    HW2 4395   1.451   4.338   1.977
 1166SOL     OW 4396   3.358   2.372   6.832
 1166SOL    HW1 4397   3.401   2.462   6.820
 1166SOL    HW2 4398   3.308   2.348   6.749
 1167SOL     OW 4399   4.269   1.986   5.088
 1167SOL    HW1 4400   4.226   2.077   5.096
 1167SOL    HW2 4401   4.322   1.968   5.171
 1168SOL     OW 4402   6.199   6.415   3.611
 1168SOL    HW1 4403   6.256   6.484   3.655
 1168SOL    HW2 4404   6.256   6.357   3.553
 1169SOL     OW 4405   1.127   4.068   1.229
 1169SOL    HW1 4406   1.049   4.066   1.291
 1169SOL    HW2 4407   1.110   4.006   1.152
 1170SOL     OW 4408   3.345   0.922   1.162
 1170SOL    HW1 4409   3.351   1.005   1.217
 1170SOL    HW2 4410   3.321   0.946   1.068
 1171SOL     OW 4411   2.793   0.339   0.474
 1171SOL    HW1 4412   2.828   0.418   0.523
 1171SOL    HW2 4413   2.837   0.333   0.385
 1172SOL     OW 4414   2.998   3.525   4.529
 1172SOL    HW1 4415   2.975   3.525   4.627
 1172SOL    HW2 4416   3.084   3.476   4.516
 1173SOL     OW 4417   4.993   0.953   6.440
 1173SOL    HW1 4418   5.022   0.941   6.535
 1173SOL    HW2 4419   5.052   0.899   6.380
 1174SOL     OW 4420   3.137   6.059   0.109
 1174SOL    HW1 4421   3.231   6.093   0.103
 1174SOL    HW2 4422   3.099   6.051   0.017
 1175SOL     OW 4423   6.879   5.346   4.559
 1175SOL    HW1 4424   6.943   5.423   4.565
 1175SOL    HW2 4425   6.929   5.260   4.553
 1176SOL     OW 4426   6.206   3.711   1.098
 1176SOL    HW1 4427   6.291   3.748   1.137
 1176SOL    HW2 4428   6.166   3.646   1.163
 1177SOL     OW 4429   6.096   2.982   0.144
 1177SOL    HW1 4430   6.139   3.048   0.206
 1177SOL    HW2 4431   6.012   2.948   0.185
 1178SOL     OW 4432   5.107   4.276   1.965
 1178SOL    HW1 4433   5.109   4.342   1.891
 1178SOL    HW2 4434   5.127   4.321   2.052
 1179SOL     OW 4435   2.375   5.843   6.095
 1179SOL    HW1 4436   2.288   5.879   6.059
 1179SOL    HW2 4437   2.370   5.743   6.099
 1180SOL     OW 4438   2.163   1.435   3.348
 1180SOL    HW1 4439   2.134   1.461   3.256
 1180SOL    HW2 4440   2.239   1.494   3.377
 1181SOL     OW 4441   1.707   4.156   2.794
 1181SOL    HW1 4442   1.754   4.235   2.834
 1181SOL    HW2 4443   1.756   4.125   2.712
 1182SOL     OW 4444   1.509   3.889   3.289
 1182SOL    HW1 4445   1.425   3.835   3.288
 1182SOL    HW2 4446   1.557   3.876   3.375
 1183SOL     OW 4447   4.437   5.715   0.549
 1183SOL    HW1 4448   4.510   5.656   0.584
 1183SOL    HW2 4449   4.440   5.716   0.449
 1184SOL     OW 4450   3.110   3.248   5.857
 1184SOL    HW1 4451   3.013   3.225   5.868
 1184SOL    HW2 4452   3.134   3.244   5.760
 1185SOL     OW 4453   2.512   1.564   6.895
 1185SOL    HW1 4454   2.425   1.531   6.933
 1185SOL    HW2 4455   2.503   1.661   6.872
 1186SOL     OW 4456   3.029   1.340   5.295
 1186SOL    HW1 4457   3.043   1.419   5.355
 1186SOL    HW2 4458   3.117   1.298   5.275
 1187SOL     OW 4459   0.253   1.220   5.587
 1187SOL    HW1 4460   0.305   1.208   5.672
 1187SOL    HW2 4461   0.301   1.173   5.512
 1188SOL     OW 4462   1.719   0.281   4.724
 1188SOL    HW1 4463   1.648   0.271   4.794
 1188SOL    HW2 4464   1.695   0.357   4.663
 1189SOL     OW 4465   6.758   0.798   0.665
 1189SOL    HW1 4466   6.850   0.827   0.694
 1189SOL    HW2 4467   6.759   0.701   0.645
 1190SOL     OW 4468   4.041   4.803   2.922
 1190SOL    HW1 4469   4.129   4.762   2.944
 1190SOL    HW2 4470   4.049   4.903   2.925
 1191SOL     OW 4471   2.744   5.114   0.411
 1191SOL    HW1 4472   2.829   5.103   0.462
 1191SOL    HW2 4473   2.703   5.024   0.396
 1192SOL     OW 4474   4.355   5.327   2.285
 1192SOL    HW1 4475   4.367   5.350   2.381
 1192SOL    HW2 4476   4.349   5.228   2.274
 1193SOL     OW 4477   4.163   7.013   3.689
 1193SOL    HW1 4478   4.160   6.924   3.644
 1193SOL    HW2 4479   4.254   0.000   3.730
 1194SOL     OW 4480   6.666   0.959   1.421
 1194SOL    HW1 4481   6.600   0.884   1.427
 1194SOL    HW2 4482   6.756   0.926   1.449
 1195SOL     OW 4483   3.622   6.643   0.005
 1195SOL    HW1 4484   3.675   6.567   6.996
 1195SOL    HW2 4485   3.531   6.644   6.988
 1196SOL     OW 4486   0.442   5.281   2.969
 1196SOL    HW1 4487   0.378   5.228   3.025
 1196SOL    HW2 4488   0.527   5.294   3.019
 1197SOL     OW 4489   3.267   5.164   6.395
 1197SOL    HW1 4490   3.344   5.109   6.362
 1197SOL    HW2 4491   3.211   5.109   6.457
 1198SOL     OW 4492   3.687   1.549   2.777
 1198SOL    HW1 4493   3.694   1.621   2.708
 1198SOL    HW2 4494   3.595   1.549   2.816
 1199SOL     OW 4495   3.125   3.694   3.566
 1199SOL    HW1 4496   3.078   3.649   3.490
 1199SOL    HW2 4497   3.058   3.733   3.628
 1200SOL     OW 4498   3.743   3.211   0.826
 1200SOL    HW1 4499   3.738   3.287   0.891
 1200SOL    HW2 4500   3.831   3.165   0.834
 1201SOL     OW 4501   0.990   1.156   4.587
 1201SOL    HW1 4502   1.044   1.125   4.666
 1201SOL    HW2 4503   0.902   1.108   4.587
 1202SOL     OW 4504   5.662   0.321   4.723
 1202SOL    HW1 4505   5.590   0.253   4.736
 1202SOL    HW2 4506   5.658   0.388   4.797
 1203SOL     OW 4507   6.160   6.447   1.630
 1203SOL    HW1 4508   6.141   6.516   1.700
 1203SOL    HW2 4509   6.255   6.456   1.599
 1204SOL     OW 4510   1.497   6.210   6.729
 1204SOL    HW1 4511   1.480   6.289   6.788
 1204SOL    HW2 4512   1.539   6.137   6.783
 1205SOL     OW 4513   0.957   2.644   5.050
 1205SOL    HW1 4514   0.903   2.592   4.984
 1205SOL    HW2 4515   0.929   2.740   5.048
 1206SOL     OW 4516   0.338   1.870   4.473
 1206SOL    HW1 4517   0.385   1.921   4.545
 1206SOL    HW2 4518   0.328   1.775   4.502
 1207SOL     OW 4519   6.051   5.930   6.406
 1207SOL    HW1 4520   6.087   5.952   6.315
 1207SOL    HW2 4521   6.123   5.944   6.474
 1208SOL     OW 4522   3.517   3.906   2.964
 1208SOL    HW1 4523   3.532   3.893   3.062
 1208SOL    HW2 4524   3.518   4.003   2.942
 1209SOL     OW 4525   6.816   4.101   4.809
 1209SOL    HW1 4526   6.743   4.099   4.740
 1209SOL    HW2 4527   6.871   4.184   4.798
 1210SOL     OW 4528   3.281   6.832   2.447
 1210SOL    HW1 4529   3.273   6.909   2.510
 1210SOL    HW2 4530   3.214   6.843   2.373
 1211SOL     OW 4531   1.384   2.935   3.271
 1211SOL    HW1 4532   1.297   2.985   3.272
 1211SOL    HW2 4533   1.415   2.920   3.365
 1212SOL     OW 4534   1.427   3.338   3.749
 1212SOL    HW1 4535   1.511   3.367   3.703
 1212SOL    HW2 4536   1.360   3.413   3.747
 1213SOL     OW 4537   5.747   2.589   5.166
 1213SOL    HW1 4538   5.753   2.674   5.219
 1213SOL    HW2 4539   5.675   2.531   5.205
 1214SOL     OW 4540   1.445   2.242   2.464
 1214SOL    HW1 4541   1.386   2.185   2.407
 1214SOL    HW2 4542   1.412   2.336   2.461
 1215SOL     OW 4543   0.107   5.258   2.086
 1215SOL    HW1 4544   0.116   5.357   2.099
 1215SOL    HW2 4545   0.024   5.239   2.033
 1216SOL     OW 4546   2.642   0.964   1.396
 1216SOL    HW1 4547   2.663   0.938   1.302
 1216SOL    HW2 4548   2.601   0.886   1.444
 1217SOL     OW 4549   2.005   1.558   2.366
 1217SOL    HW1 4550   2.074   1.603   2.308
 1217SOL    HW2 4551   1.967   1.624   2.431
 1218SOL     OW 4552   0.286   3.120   3.581
 1218SOL    HW1 4553   0.264   3.158   3.671
 1218SOL    HW2 4554   0.204   3.121   3.523
 1219SOL     OW 4555   2.625   6.168   3.674
 1219SOL    HW1 4556   2.668   6.158   3.764
 1219SOL    HW2 4557   2.647   6.089   3.618
 1220SOL     OW 4558   5.749   4.304   2.841
 1220SOL    HW1 4559   5.690   4.288   2.921
 1220SOL    HW2 4560   5.694   4.299   2.758
 1221SOL     OW 4561   4.875   3.652   6.082
 1221SOL    HW1 4562   4.930   3.594   6.143
 1221SOL    HW2 4563   4.931   3.728   6.050
 1222SOL     OW 4564   5.932   5.041   1.747
 1222SOL    HW1 4565   5.968   5.103   1.677
 1222SOL    HW2 4566   5.923   4.949   1.708
 1223SOL     OW 4567   6.225   5.196   5.356
 1223SOL    HW1 4568   6.249   5.142   5.275
 1223SOL    HW2 4569   6.212   5.134   5.434
 1224SOL     OW 4570   4.853   4.876   1.387
 1224SOL    HW1 4571   4.785   4.907   1.453
 1224SOL    HW2 4572   4.895   4.791   1.418
 1225SOL     OW 4573   4.003   1.854   6.678
 1225SOL    HW1 4574   3.930   1.811   6.731
 1225SOL    HW2 4575   4.086   1.862   6.734
 1226SOL     OW 4576   5.437   5.486   1.056
 1226SOL    HW1 4577   5.468   5.454   0.967
 1226SOL    HW2 4578   5.429   5.408   1.118
 1227SOL     OW 4579   4.840   4.648   6.499
 1227SOL    HW1 4580   4.863   4.574   6.562
 1227SOL    HW2 4581   4.753   4.628   6.455
 1228SOL     OW 4582   3.649   4.160   4.562
 1228SOL    HW1 4583   3.658   4.214   4.478
 1228SOL    HW2 4584   3.552   4.149   4.584
 1229SOL     OW 4585   2.645   5.931   3.022
 1229SOL    HW1 4586   2.665   5.928   2.924
 1229SOL    HW2 4587   2.731   5.924   3.073
 1230SOL     OW 4588   5.913   5.497   1.317
 1230SOL    HW1 4589   5.955   5.444   1.243
 1230SOL    HW2 4590   5.829   5.541   1.283
 1231SOL     OW 4591   2.032   1.560   6.396
 1231SOL    HW1 4592   2.000   1.633   6.456
 1231SOL    HW2 4593   2.132   1.563   6.391
 1232SOL     OW 4594   3.094   1.689   4.817
 1232SOL    HW1 4595   3.047   1.735   4.892
 1232SOL    HW2 4596   3.038   1.696   4.734
 1233SOL     OW 4597   6.852   5.557   4.829
 1233SOL    HW1 4598   6.884   5.578   4.737
 1233SOL    HW2 4599   6.843   5.641   4.882
 1234SOL     OW 4600   5.999   4.521   6.862
 1234SOL    HW1 4601   6.062   4.444   6.872
 1234SOL    HW2 4602   5.955   4.539   6.950
 1235SOL     OW 4603   6.251   4.788   0.860
 1235SOL    HW1 4604   6.227   4.781   0.957
 1235SOL    HW2 4605   6.316   4.717   0.836
 1236SOL     OW 4606   1.506   1.250   2.147
 1236SOL    HW1 4607   1.484   1.285   2.238
 1236SOL    HW2 4608   1.423   1.213   2.105
 1237SOL     OW 4609   0.859   0.069   4.353
 1237SOL    HW1 4610   0.842   0.151   4.298
 1237SOL    HW2 4611   0.955   0.068   4.383
 1238SOL     OW 4612   0.492   0.617   4.848
 1238SOL    HW1 4613   0.510   0.715   4.848
 1238SOL    HW2 4614   0.537   0.575   4.769
 1239SOL     OW 4615   4.864   5.202   4.081
 1239SOL    HW1 4616   4.780   5.249   4.057
 1239SOL    HW2 4617   4.928   5.266   4.125
 1240SOL     OW 4618   0.643   3.826   1.213
 1240SOL    HW1 4619   0.569   3.891   1.230
 1240SOL    HW2 4620   0.728   3.860   1.253
 1241SOL     OW 4621   4.025   5.085   5.925
 1241SOL    HW1 4622   4.094   5.109   5.994
 1241SOL    HW2 4623   3.987   4.995   5.946
 1242SOL     OW 4624   2.321   5.252   0.961
 1242SOL    HW1 4625   2.341   5.155   0.980
 1242SOL    HW2 4626   2.284   5.261   0.869
 1243SOL     OW 4627   0.783   3.167   3.670
 1243SOL    HW1 4628   0.712   3.238   3.676
 1243SOL    HW2 4629   0.755   3.088   3.724
 1244SOL     OW 4630   6.455   0.169   4.982
 1244SOL    HW1 4631   6.375   0.148   5.037
 1244SOL    HW2 4632   6.454   0.266   4.956
 1245SOL     OW 4633   4.786   6.129   1.021
 1245SOL    HW1 4634   4.721   6.160   1.090
 1245SOL    HW2 4635   4.871   6.180   1.030
 1246SOL     OW 4636   5.395   1.700   1.232
 1246SOL    HW1 4637   5.335   1.621   1.220
 1246SOL    HW2 4638   5.384   1.762   1.154
 1247SOL     OW 4639   6.482   6.510   2.894
 1247SOL    HW1 4640   6.508   6.597   2.853
 1247SOL    HW2 4641   6.501   6.511   2.992
 1248SOL     OW 4642   0.817   6.305   4.442
 1248SOL    HW1 4643   0.806   6.404   4.446
 1248SOL    HW2 4644   0.915   6.282   4.443
 1249SOL     OW 4645   5.983   5.665   6.328
 1249SOL    HW1 4646   5.985   5.753   6.374
 1249SOL    HW2 4647   6.065   5.613   6.352
 1250SOL     OW 4648   0.698   3.938   4.876
 1250SOL    HW1 4649   0.603   3.955   4.848
 1250SOL    HW2 4650   0.702   3.931   4.976
 1251SOL     OW 4651   3.278   0.462   2.642
 1251SOL    HW1 4652   3.263   0.422   2.732
 1251SOL    HW2 4653   3.326   0.550   2.652
 1252SOL     OW 4654   2.501   5.344   6.746
 1252SOL    HW1 4655   2.435   5.340   6.671
 1252SOL    HW2 4656   2.512   5.252   6.784
 1253SOL     OW 4657   2.755   6.613   0.015
 1253SOL    HW1 4658   2.735   6.705   0.048
 1253SOL    HW2 4659   2.686   6.587   6.972
 1254SOL     OW 4660   6.697   1.569   3.046
 1254SOL    HW1 4661   6.666   1.654   3.087
 1254SOL    HW2 4662   6.694   1.496   3.114
 1255SOL     OW 4663   6.121   1.784   5.530
 1255SOL    HW1 4664   6.193   1.801   5.463
 1255SOL    HW2 4665   6.150   1.711   5.592
 1256SOL     OW 4666   0.380   5.657   4.375
 1256SOL    HW1 4667   0.360   5.561   4.357
 1256SOL    HW2 4668   0.294   5.709   4.375
 1257SOL     OW 4669   0.254   6.365   3.593
 1257SOL    HW1 4670   0.173   6.331   3.640
 1257SOL    HW2 4671   0.334   6.314   3.625
 1258SOL     OW 4672   4.836   5.788   6.538
 1258SOL    HW1 4673   4.756   5.738   6.505
 1258SOL    HW2 4674   4.918   5.733   6.524
 1259SOL     OW 4675   5.243   0.519   5.413
 1259SOL    HW1 4676   5.293   0.487   5.494
 1259SOL    HW2 4677   5.188   0.598   5.437
 1260SOL     OW 4678   2.963   1.128   1.259
 1260SOL    HW1 4679   2.950   1.031   1.240
 1260SOL    HW2 4680   2.874   1.172   1.270
 1261SOL     OW 4681   0.064   4.489   5.024
 1261SOL    HW1 4682   0.053   4.509   4.927
 1261SOL    HW2 4683   0.101   4.568   5.071
 1262SOL     OW 4684   4.438   5.757   1.631
 1262SOL    HW1 4685   4.402   5.668   1.659
 1262SOL    HW2 4686   4.390   5.829   1.680
 1263SOL     OW 4687   6.251   2.098   0.651
 1263SOL    HW1 4688   6.313   2.106   0.728
 1263SOL    HW2 4689   6.162   2.137   0.675
 1264SOL     OW 4690   6.259   2.595   4.596
 1264SOL    HW1 4691   6.190   2.658   4.561
 1264SOL    HW2 4692   6.303   2.548   4.519
 1265SOL     OW 4693   6.255   5.839   5.093
 1265SOL    HW1 4694   6.227   5.833   4.997
 1265SOL    HW2 4695   6.182   5.882   5.146
 1266SOL     OW 4696   2.639   0.742   4.024
 1266SOL    HW1 4697   2.718   0.703   4.071
 1266SOL    HW2 4698   2.652   0.841   4.015
 1267SOL     OW 4699   0.141   4.379   2.871
 1267SOL    HW1 4700   0.101   4.470   2.857
 1267SOL    HW2 4701   0.095   4.334   2.947
 1268SOL     OW 4702   5.933   4.149   6.987
 1268SOL    HW1 4703   6.028   4.167   6.963
 1268SOL    HW2 4704   5.927   4.127   0.059
 1269SOL     OW 4705   6.836   5.011   6.320
 1269SOL    HW1 4706   6.749   4.976   6.287
 1269SOL    HW2 4707   6.904   5.007   6.247
 1270SOL     OW 4708   1.415   1.991   4.412
 1270SOL    HW1 4709   1.356   1.915   4.388
 1270SOL    HW2 4710   1.454   1.977   4.503
 1271SOL     OW 4711   4.873   2.733   3.097
 1271SOL    HW1 4712   4.946   2.761   3.159
 1271SOL    HW2 4713   4.905   2.657   3.040
 1272SOL     OW 4714   6.722   6.870   1.547
 1272SOL    HW1 4715   6.640   6.824   1.581
 1272SOL    HW2 4716   6.802   6.812   1.564
 1273SOL     OW 4717   2.734   6.493   6.400
 1273SOL    HW1 4718   2.752   6.404   6.357
 1273SOL    HW2 4719   2.641   6.494   6.436
 1274SOL     OW 4720   5.463   2.292   2.014
 1274SOL    HW1 4721   5.556   2.285   1.978
 1274SOL    HW2 4722   5.404   2.226   1.966
 1275SOL     OW 4723   3.808   1.671   3.952
 1275SOL    HW1 4724   3.873   1.603   3.987
 1275SOL    HW2 4725   3.760   1.635   3.872
 1276SOL     OW 4726   6.162   0.127   2.956
 1276SOL    HW1 4727   6.125   0.156   3.044
 1276SOL    HW2 4728   6.166   0.028   2.952
 1277SOL     OW 4729   0.687   1.647   5.145
 1277SOL    HW1 4730   0.758   1.593   5.102
 1277SOL    HW2 4731   0.605   1.647   5.088
 1278SOL     OW 4732   2.665   1.594   5.617
 1278SOL    HW1 4733   2.717   1.644   5.686
 1278SOL    HW2 4734   2.569   1.622   5.622
 1279SOL     OW 4735   2.137   4.636   0.506
 1279SOL    HW1 4736   2.102   4.550   0.468
 1279SOL    HW2 4737   2.060   4.689   0.543
 1280SOL     OW 4738   1.572   6.180   3.037
 1280SOL    HW1 4739   1.646   6.140   2.982
 1280SOL    HW2 4740   1.559   6.275   3.010
 1281SOL     OW 4741   0.516   6.637   3.876
 1281SOL    HW1 4742   0.545   6.645   3.971
 1281SOL    HW2 4743   0.577   6.574   3.827
 1282SOL     OW 4744   1.272   7.014   2.058
 1282SOL    HW1 4745   1.235   7.003   1.965
 1282SOL    HW2 4746   1.265   6.928   2.107
 1283SOL     OW 4747   4.950   4.330   4.796
 1283SOL    HW1 4748   4.874   4.332   4.731
 1283SOL    HW2 4749   5.000   4.244   4.787
 1284SOL     OW 4750   2.869   1.974   2.636
 1284SOL    HW1 4751   2.838   1.888   2.676
 1284SOL    HW2 4752   2.794   2.017   2.587
 1285SOL     OW 4753   5.646   2.655   6.159
 1285SOL    HW1 4754   5.658   2.557   6.178
 1285SOL    HW2 4755   5.732   2.693   6.124
 1286SOL     OW 4756   5.939   6.333   1.535
 1286SOL    HW1 4757   6.027   6.351   1.580
 1286SOL    HW2 4758   5.873   6.300   1.602
 1287SOL     OW 4759   6.139   4.961   6.061
 1287SOL    HW1 4760   6.219   4.932   6.009
 1287SOL    HW2 4761   6.124   4.896   6.136
 1288SOL     OW 4762   6.779   2.300   3.097
 1288SOL    HW1 4763   6.775   2.400   3.102
 1288SOL    HW2 4764   6.861   2.267   3.144
 1289SOL     OW 4765   6.941   5.475   2.542
 1289SOL    HW1 4766   6.892   5.533   2.608
 1289SOL    HW2 4767   6.928   5.512   2.450
 1290SOL     OW 4768   0.249   6.479   1.235
 1290SOL    HW1 4769   0.323   6.511   1.176
 1290SOL    HW2 4770   0.281   6.477   1.330
 1291SOL     OW 4771   1.506   6.996   0.481
 1291SOL    HW1 4772   1.530   6.907   0.519
 1291SOL    HW2 4773   1.514   6.993   0.381
 1292SOL     OW 4774   0.869   6.373   6.520
 1292SOL    HW1 4775   0.869   6.413   6.611
 1292SOL    HW2 4776   0.963   6.373   6.484
 1293SOL     OW 4777   6.586   2.791   5.764
 1293SOL    HW1 4778   6.603   2.864   5.698
 1293SOL    HW2 4779   6.639   2.808   5.847
 1294SOL     OW 4780   0.221   1.690   2.790
 1294SOL    HW1 4781   0.290   1.681   2.862
 1294SOL    HW2 4782   0.235   1.775   2.740
 1295SOL     OW 4783   4.958   3.379   1.643
 1295SOL    HW1 4784   4.972   3.319   1.565
 1295SOL    HW2 4785   4.887   3.446   1.622
 1296SOL     OW 4786   3.619   2.233   6.714
 1296SOL    HW1 4787   3.694   2.269   6.659
 1296SOL    HW2 4788   3.583   2.305   6.773
 1297SOL     OW 4789   6.466   1.304   6.386
 1297SOL    HW1 4790   6.417   1.375   6.437
 1297SOL    HW2 4791   6.553   1.285   6.431
 1298SOL     OW 4792   6.049   3.116   3.749
 1298SOL    HW1 4793   6.138   3.113   3.703
 1298SOL    HW2 4794   6.034   3.207   3.787
 1299SOL     OW 4795   1.297   3.998   4.593
 1299SOL    HW1 4796   1.313   3.923   4.529
 1299SOL    HW2 4797   1.244   3.965   4.671
 1300SOL     OW 4798   2.981   3.244   1.327
 1300SOL    HW1 4799   3.000   3.278   1.419
 1300SOL    HW2 4800   3.067   3.217   1.283
 1301SOL     OW 4801   0.600   0.720   3.013
 1301SOL    HW1 4802   0.670   0.790   3.022
 1301SOL    HW2 4803   0.547   0.715   3.097
 1302SOL     OW 4804   2.736   6.053   5.491
 1302SOL    HW1 4805   2.705   5.980   5.552
 1302SOL    HW2 4806   2.836   6.056   5.490
 1303SOL     OW 4807   3.858   0.507   1.255
 1303SOL    HW1 4808   3.905   0.437   1.201
 1303SOL    HW2 4809   3.900   0.513   1.345
 1304SOL     OW 4810   3.435   0.545   6.032
 1304SOL    HW1 4811   3.394   0.463   5.992
 1304SOL    HW2 4812   3.532   0.548   6.010
 1305SOL     OW 4813   5.638   6.666   4.665
 1305SOL    HW1 4814   5.689   6.665   4.580
 1305SOL    HW2 4815   5.684   6.607   4.732
 1306SOL     OW 4816   0.695   4.518   4.441
 1306SOL    HW1 4817   0.760   4.442   4.442
 1306SOL    HW2 4818   0.709   4.572   4.358
 1307SOL     OW 4819   1.579   1.981   4.664
 1307SOL    HW1 4820   1.521   2.050   4.707
 1307SOL    HW2 4821   1.674   2.014   4.660
 1308SOL     OW 4822   4.857   5.874   2.860
 1308SOL    HW1 4823   4.772   5.862   2.911
 1308SOL    HW2 4824   4.860   5.965   2.821
 1309SOL     OW 4825   5.943   2.647   4.989
 1309SOL    HW1 4826   5.859   2.642   5.045
 1309SOL    HW2 4827   5.971   2.743   4.981
 1310SOL     OW 4828   4.980   3.747   5.385
 1310SOL    HW1 4829   4.993   3.811   5.461
 1310SOL    HW2 4830   5.032   3.663   5.404
 1311SOL     OW 4831   5.588   5.204   5.482
 1311SOL    HW1 4832   5.658   5.270   5.453
 1311SOL    HW2 4833   5.588   5.126   5.420
 1312SOL     OW 4834   6.667   0.052   2.392
 1312SOL    HW1 4835   6.658   0.007   2.481
 1312SOL    HW2 4836   6.609   0.133   2.390
 1313SOL     OW 4837   3.560   4.936   5.319
 1313SOL    HW1 4838   3.588   4.846   5.352
 1313SOL    HW2 4839   3.596   5.007   5.380
 1314SOL     OW 4840   5.490   1.706   5.083
 1314SOL    HW1 4841   5.540   1.653   5.015
 1314SOL    HW2 4842   5.439   1.644   5.143
 1315SOL     OW 4843   2.155   0.456   2.917
 1315SOL    HW1 4844   2.226   0.385   2.918
 1315SOL    HW2 4845   2.138   0.485   2.823
 1316SOL     OW 4846   2.938   6.422   2.434
 1316SOL    HW1 4847   2.991   6.501   2.466
 1316SOL    HW2 4848   2.964   6.342   2.487
 1317SOL     OW 4849   7.003   4.963   3.898
 1317SOL    HW1 4850   6.934   4.934   3.832
 1317SOL    HW2 4851   0.066   4.925   3.872
 1318SOL     OW 4852   0.516   6.186   1.713
 1318SOL    HW1 4853   0.433   6.157   1.664
 1318SOL    HW2 4854   0.597   6.155   1.662
 1319SOL     OW 4855   6.184   1.055   0.114
 1319SOL    HW1 4856   6.246   1.131   0.093
 1319SOL    HW2 4857   6.225   0.969   0.084
 1320SOL     OW 4858   5.065   5.713   5.694
 1320SOL    HW1 4859   5.050   5.730   5.597
 1320SOL    HW2 4860   5.131   5.639   5.705
 1321SOL     OW 4861   2.948   1.830   6.880
 1321SOL    HW1 4862   2.864   1.795   6.921
 1321SOL    HW2 4863   2.945   1.930   6.876
 1322SOL     OW 4864   5.577   1.129   5.409
 1322SOL    HW1 4865   5.654   1.066   5.399
 1322SOL    HW2 4866   5.578   1.195   5.334
 1323SOL     OW 4867   6.264   0.798   3.696
 1323SOL    HW1 4868   6.330   0.853   3.645
 1323SOL    HW2 4869   6.230   0.850   3.774
 1324SOL     OW 4870   0.969   3.723   0.703
 1324SOL    HW1 4871   0.875   3.691   0.718
 1324SOL    HW2 4872   0.997   3.702   0.610
 1325SOL     OW 4873   3.213   5.640   2.965
 1325SOL    HW1 4874   3.132   5.643   3.024
 1325SOL    HW2 4875   3.281   5.580   3.005
 1326SOL     OW 4876   4.676   4.266   4.354
 1326SOL    HW1 4877   4.724   4.178   4.358
 1326SOL    HW2 4878   4.718   4.324   4.285
 1327SOL     OW 4879   3.411   6.041   3.405
 1327SOL    HW1 4880   3.369   6.132   3.397
 1327SOL    HW2 4881   3.470   6.025   3.326
 1328SOL     OW 4882   2.094   2.019   6.987
 1328SOL    HW1 4883   2.139   1.930   6.997
 1328SOL    HW2 4884   1.999   2.012   7.018
 1329SOL     OW 4885   0.574   0.329   1.417
 1329SOL    HW1 4886   0.552   0.426   1.407
 1329SOL    HW2 4887   0.521   0.291   1.494
 1330SOL     OW 4888   5.427   6.719   0.719
 1330SOL    HW1 4889   5.394   6.726   0.625
 1330SOL    HW2 4890   5.502   6.653   0.723
 1331SOL     OW 4891   0.020   1.169   2.423
 1331SOL    HW1 4892   6.960   1.126   2.452
 1331SOL    HW2 4893   0.020   1.178   2.323
 1332SOL     OW 4894   3.853   1.466   1.251
 1332SOL    HW1 4895   3.792   1.518   1.311
 1332SOL    HW2 4896   3.892   1.389   1.301
 1333SOL     OW 4897   4.003   3.107   4.226
 1333SOL    HW1 4898   4.010   3.097   4.127
 1333SOL    HW2 4899   4.079   3.163   4.259
 1334SOL     OW 4900   0.725   4.173   3.388
 1334SOL    HW1 4901   0.777   4.088   3.392
 1334SOL    HW2 4902   0.646   4.161   3.328
 1335SOL     OW 4903   2.694   5.028   1.852
 1335SOL    HW1 4904   2.606   5.074   1.868
 1335SOL    HW2 4905   2.683   4.930   1.868
 1336SOL     OW 4906   0.423   0.191   4.647
 1336SOL    HW1 4907   0.518   0.191   4.616
 1336SOL    HW2 4908   0.363   0.177   4.568
 1337SOL     OW 4909   2.541   0.463   6.398
 1337SOL    HW1 4910   2.590   0.505   6.322
 1337SOL    HW2 4911   2.575   0.499   6.484
 1338SOL     OW 4912   3.683   5.865   0.792
 1338SOL    HW1 4913   3.591   5.825   0.792
 1338SOL    HW2 4914   3.735   5.829   0.715
 1339SOL     OW 4915   0.270   4.696   5.122
 1339SOL    HW1 4916   0.307   4.672   5.033
 1339SOL    HW2 4917   0.309   4.636   5.192
 1340SOL     OW 4918   2.071   1.322   6.530
 1340SOL    HW1 4919   2.043   1.407   6.485
 1340SOL    HW2 4920   2.017   1.246   6.494
 1341SOL     OW 4921   5.498   1.587   3.528
 1341SOL    HW1 4922   5.545   1.570   3.441
 1341SOL    HW2 4923   5.409   1.541   3.527
 1342SOL     OW 4924   0.950   6.243   1.572
 1342SOL    HW1 4925   0.974   6.261   1.476
 1342SOL    HW2 4926   0.874   6.178   1.576
 1343SOL     OW 4927   3.712   5.261   3.227
 1343SOL    HW1 4928   3.715   5.346   3.279
 1343SOL    HW2 4929   3.623   5.217   3.238
 1344SOL     OW 4930   5.609   1.316   2.698
 1344SOL    HW1 4931   5.523   1.329   2.747
 1344SOL    HW2 4932   5.623   1.392   2.634
 1345SOL     OW 4933   1.351   6.841   3.691
 1345SOL    HW1 4934   1.392   6.752   3.669
 1345SOL    HW2 4935   1.329   6.890   3.607
 1346SOL     OW 4936   0.299   0.771   3.888
 1346SOL    HW1 4937   0.239   0.761   3.808
 1346SOL    HW2 4938   0.394   0.764   3.859
 1347SOL     OW 4939   5.355   0.337   3.285
 1347SOL    HW1 4940   5.363   0.250   3.237
 1347SOL    HW2 4941   5.263   0.347   3.323
 1348SOL     OW 4942   4.370   5.701   4.516
 1348SOL    HW1 4943   4.354   5.729   4.610
 1348SOL    HW2 4944   4.343   5.775   4.454
 1349SOL     OW 4945   5.003   2.500   0.220
 1349SOL    HW1 4946   5.043   2.464   0.136
 1349SOL    HW2 4947   4.929   2.440   0.250
 1350SOL     OW 4948   3.552   6.905   5.171
 1350SOL    HW1 4949   3.482   6.859   5.116
 1350SOL    HW2 4950   3.519   6.996   5.198
 1351SOL     OW 4951   0.927   1.523   4.549
 1351SOL    HW1 4952   1.006   1.508   4.490
 1351SOL    HW2 4953   0.851   1.558   4.494
 1352SOL     OW 4954   0.808   6.490   4.192
 1352SOL    HW1 4955   0.734   6.555   4.178
 1352SOL    HW2 4956   0.803   6.418   4.123
 1353SOL     OW 4957   1.702   3.037   3.985
 1353SOL    HW1 4958   1.637   2.995   4.048
 1353SOL    HW2 4959   1.794   3.036   4.025
 1354SOL     OW 4960   0.361   6.415   0.605
 1354SOL    HW1 4961   0.378   6.407   0.507
 1354SOL    HW2 4962   0.343   6.510   0.628
 1355SOL     OW 4963   4.502   3.424   0.191
 1355SOL    HW1 4964   4.514   3.514   0.233
 1355SOL    HW2 4965   4.445   3.367   0.249
 1356SOL     OW 4966   3.032   3.258   1.871
 1356SOL    HW1 4967   3.001   3.314   1.948
 1356SOL    HW2 4968   3.131   3.265   1.863
 1357SOL     OW 4969   2.698   2.880   5.813
 1357SOL    HW1 4970   2.674   2.916   5.903
 1357SOL    HW2 4971   2.632   2.913   5.745
 1358SOL     OW 4972   2.352   3.614   5.958
 1358SOL    HW1 4973   2.277   3.675   5.934
 1358SOL    HW2 4974   2.332   3.521   5.927
 1359SOL     OW 4975   6.736   1.189   0.115
 1359SOL    HW1 4976   6.756   1.273   0.165
 1359SOL    HW2 4977   6.681   1.211   0.034
 1360SOL     OW 4978   3.194   3.012   4.013
 1360SOL    HW1 4979   3.253   2.976   4.085
 1360SOL    HW2 4980   3.218   2.969   3.926
 1361SOL     OW 4981   0.882   5.932   1.259
 1361SOL    HW1 4982   0.972   5.976   1.264
 1361SOL    HW2 4983   0.879   5.854   1.321
 1362SOL     OW 4984   2.799   2.311   6.169
 1362SOL    HW1 4985   2.852   2.354   6.096
 1362SOL    HW2 4986   2.846   2.324   6.256
 1363SOL     OW 4987   0.082   6.688   1.739
 1363SOL    HW1 4988   0.060   6.748   1.816
 1363SOL    HW2 4989   0.145   6.735   1.678
 1364SOL     OW 4990   0.670   4.077   0.837
 1364SOL    HW1 4991   0.676   4.067   0.737
 1364SOL    HW2 4992   0.749   4.128   0.870
 1365SOL     OW 4993   0.640   3.858   5.581
 1365SOL    HW1 4994   0.614   3.953   5.562
 1365SOL    HW2 4995   0.559   3.800   5.579
 1366SOL     OW 4996   4.547   0.461   0.842
 1366SOL    HW1 4997   4.582   0.506   0.759
 1366SOL    HW2 4998   4.541   0.528   0.916
 1367SOL     OW 4999   1.182   6.652   4.430
 1367SOL    HW1 5000   1.278   6.679   4.423
 1367SOL    HW2 5001   1.163   6.578   4.365
 1368SOL     OW 5002   1.234   6.589   5.012
 1368SOL    HW1 5003   1.184   6.675   5.016
 1368SOL    HW2 5004   1.215   6.543   4.925
 1369SOL     OW 5005   2.886   5.856   3.556
 1369SOL    HW1 5006   2.968   5.799   3.564
 1369SOL    HW2 5007   2.909   5.939   3.506
 1370SOL     OW 5008   6.967   2.525   2.805
 1370SOL    HW1 5009   6.966   2.584   2.886
 1370SOL    HW2 5010   6.878   2.480   2.796
 1371SOL     OW 5011   5.879   1.899   5.571
 1371SOL    HW1 5012   5.976   1.874   5.563
 1371SOL    HW2 5013   5.853   1.898   5.667
 1372SOL     OW 5014   6.125   2.718   1.015
 1372SOL    HW1 5015   6.181   2.791   1.055
 1372SOL    HW2 5016   6.124   2.727   0.916
 1373SOL     OW 5017   5.527   2.330   1.679
 1373SOL    HW1 5018   5.442   2.300   1.723
 1373SOL    HW2 5019   5.538   2.284   1.592
 1374SOL     OW 5020   4.406   3.747   1.474
 1374SOL    HW1 5021   4.352   3.811   1.529
 1374SOL    HW2 5022   4.353   3.718   1.395
 1375SOL     OW 5023   5.265   4.969   4.117
 1375SOL    HW1 5024   5.278   4.892   4.054
 1375SOL    HW2 5025   5.272   4.936   4.211
 1376SOL     OW 5026   2.929   4.632   6.037
 1376SOL    HW1 5027   2.923   4.693   6.116
 1376SOL    HW2 5028   2.913   4.538   6.067
 1377SOL     OW 5029   2.296   1.658   2.758
 1377SOL    HW1 5030   2.222   1.662   2.825
 1377SOL    HW2 5031   2.303   1.565   2.722
 1378SOL     OW 5032   5.430   2.208   3.981
 1378SOL    HW1 5033   5.487   2.215   3.899
 1378SOL    HW2 5034   5.363   2.282   3.982
 1379SOL     OW 5035   4.776   5.620   0.855
 1379SOL    HW1 5036   4.842   5.666   0.796
 1379SOL    HW2 5037   4.784   5.656   0.949
 1380SOL     OW 5038   0.012   6.093   2.604
 1380SOL    HW1 5039   0.040   6.045   2.521
 1380SOL    HW2 5040   6.944   6.125   2.594
 1381SOL     OW 5041   6.048   2.276   6.184
 1381SOL    HW1 5042   6.128   2.310   6.234
 1381SOL    HW2 5043   5.990   2.353   6.157
 1382SOL     OW 5044   4.358   2.802   0.060
 1382SOL    HW1 5045   4.387   2.714   0.021
 1382SOL    HW2 5046   4.388   2.876   0.001
 1383SOL     OW 5047   7.022   0.458   1.489
 1383SOL    HW1 5048   0.081   0.512   1.490
 1383SOL    HW2 5049   0.015   0.367   1.525
 1384SOL     OW 5050   6.414   1.718   2.051
 1384SOL    HW1 5051   6.337   1.737   1.989
 1384SOL    HW2 5052   6.402   1.628   2.092
 1385SOL     OW 5053   0.638   5.575   1.173
 1385SOL    HW1 5054   0.692   5.559   1.090
 1385SOL    HW2 5055   0.697   5.611   1.245
 1386SOL     OW 5056   2.316   6.127   4.197
 1386SOL    HW1 5057   2.313   6.112   4.098
 1386SOL    HW2 5058   2.324   6.225   4.215
 1387SOL     OW 5059   2.448   6.306   1.768
 1387SOL    HW1 5060   2.504   6.230   1.736
 1387SOL    HW2 5061   2.505   6.373   1.814
 1388SOL     OW 5062   0.165   0.908   1.844
 1388SOL    HW1 5063   0.245   0.875   1.794
 1388SOL    HW2 5064   0.107   0.830   1.868
 1389SOL     OW 5065   6.272   1.232   2.214
 1389SOL    HW1 5066   6.203   1.166   2.244
 1389SOL    HW2 5067   6.315   1.198   2.130
 1390SOL     OW 5068   1.344   1.722   4.854
 1390SOL    HW1 5069   1.423   1.730   4.794
 1390SOL    HW2 5070   1.376   1.699   4.946
 1391SOL     OW 5071   0.039   3.179   3.455
 1391SOL    HW1 5072   6.972   3.156   3.425
 1391SOL    HW2 5073   0.040   3.194   3.553
 1392SOL     OW 5074   4.926   4.584   4.606
 1392SOL    HW1 5075   4.894   4.490   4.601
 1392SOL    HW2 5076   4.880   4.632   4.681
 1393SOL     OW 5077   3.018   6.296   6.214
 1393SOL    HW1 5078   3.058   6.359   6.281
 1393SOL    HW2 5079   3.090   6.263   6.153
 1394SOL     OW 5080   1.398   6.143   6.148
 1394SOL    HW1 5081   1.365   6.212   6.083
 1394SOL    HW2 5082   1.484   6.174   6.188
 1395SOL     OW 5083   3.761   4.321   5.548
 1395SOL    HW1 5084   3.801   4.350   5.462
 1395SOL    HW2 5085   3.813   4.360   5.624
 1396SOL     OW 5086   5.906   6.362   4.236
 1396SOL    HW1 5087   5.834   6.404   4.291
 1396SOL    HW2 5088   5.944   6.284   4.285
 1397SOL     OW 5089   4.433   6.261   5.082
 1397SOL    HW1 5090   4.513   6.230   5.031
 1397SOL    HW2 5091   4.350   6.230   5.035
 1398SOL     OW 5092   2.184   1.069   4.203
 1398SOL    HW1 5093   2.250   1.108   4.139
 1398SOL    HW2 5094   2.218   0.980   4.234
 1399SOL     OW 5095   3.177   6.343   1.623
 1399SOL    HW1 5096   3.241   6.286   1.674
 1399SOL    HW2 5097   3.174   6.313   1.527
 1400SOL     OW 5098   2.099   6.847   2.204
 1400SOL    HW1 5099   2.030   6.820   2.137
 1400SOL    HW2 5100   2.120   6.769   2.262
 1401SOL     OW 5101   6.343   1.016   4.493
 1401SOL    HW1 5102   6.393   1.060   4.568
 1401SOL    HW2 5103   6.404   1.004   4.415
 1402SOL     OW 5104   6.820   3.118   0.275
 1402SOL    HW1 5105   6.887   3.117   0.350
 1402SOL    HW2 5106   6.745   3.055   0.297
 1403SOL     OW 5107   3.095   0.981   2.518
 1403SOL    HW1 5108   3.003   1.018   2.523
 1403SOL    HW2 5109   3.158   1.052   2.487
 1404SOL     OW 5110   5.570   1.503   0.545
 1404SOL    HW1 5111   5.529   1.580   0.593
 1404SOL    HW2 5112   5.648   1.468   0.598
 1405SOL     OW 5113   2.747   3.113   1.016
 1405SOL    HW1 5114   2.664   3.057   1.008
 1405SOL    HW2 5115   2.733   3.185   1.084
 1406SOL     OW 5116   1.487   3.993   1.118
 1406SOL    HW1 5117   1.586   4.002   1.106
 1406SOL    HW2 5118   1.455   4.065   1.180
 1407SOL     OW 5119   6.526   2.697   3.203
 1407SOL    HW1 5120   6.535   2.663   3.296
 1407SOL    HW2 5121   6.516   2.620   3.140
 1408SOL     OW 5122   6.243   6.930   6.560
 1408SOL    HW1 5123   6.341   6.949   6.565
 1408SOL    HW2 5124   6.209   6.954   6.470
 1409SOL     OW 5125   0.691   1.244   4.246
 1409SOL    HW1 5126   0.676   1.158   4.196
 1409SOL    HW2 5127   0.787   1.249   4.274
 1410SOL     OW 5128   0.320   2.852   0.282
 1410SOL    HW1 5129   0.226   2.854   0.315
 1410SOL    HW2 5130   0.321   2.828   0.185
 1411SOL     OW 5131   1.900   6.929   1.328
 1411SOL    HW1 5132   1.886   7.008   1.387
 1411SOL    HW2 5133   1.936   6.958   1.239
 1412SOL     OW 5134   1.232   3.064   0.548
 1412SOL    HW1 5135   1.154   3.108   0.591
 1412SOL    HW2 5136   1.209   3.039   0.454
 1413SOL     OW 5137   2.793   0.006   4.337
 1413SOL    HW1 5138   2.866   0.063   4.297
 1413SOL    HW2 5139   2.722   7.015   4.268
 1414SOL     OW 5140   2.506   1.336   1.550
 1414SOL    HW1 5141   2.496   1.435   1.555
 1414SOL    HW2 5142   2.415   1.294   1.544
 1415SOL     OW 5143   4.437   6.000   6.008
 1415SOL    HW1 5144   4.494   6.033   5.932
 1415SOL    HW2 5145   4.444   6.063   6.085
 1416SOL     OW 5146   4.471   5.936   2.417
 1416SOL    HW1 5147   4.463   5.861   2.351
 1416SOL    HW2 5148   4.391   5.937   2.477
 1417SOL     OW 5149   3.163   2.136   5.936
 1417SOL    HW1 5150   3.083   2.100   5.888
 1417SOL    HW2 5151   3.184   2.228   5.901
 1418SOL     OW 5152   3.493   4.039   2.541
 1418SOL    HW1 5153   3.435   4.018   2.463
 1418SOL    HW2 5154   3.436   4.063   2.620
 1419SOL     OW 5155   5.133   6.719   5.055
 1419SOL    HW1 5156   5.048   6.666   5.051
 1419SOL    HW2 5157   5.146   6.754   5.148
 1420SOL     OW 5158   0.560   6.120   2.425
 1420SOL    HW1 5159   0.563   6.127   2.525
 1420SOL    HW2 5160   0.521   6.032   2.398
 1421SOL     OW 5161   3.460   1.238   2.855
 1421SOL    HW1 5162   3.543   1.243   2.800
 1421SOL    HW2 5163   3.468   1.162   2.920
 1422SOL     OW 5164   2.587   6.389   0.095
 1422SOL    HW1 5165   2.586   6.313   0.160
 1422SOL    HW2 5166   2.664   6.450   0.117
 1423SOL     OW 5167   4.554   0.272   2.541
 1423SOL    HW1 5168   4.595   0.362   2.527
 1423SOL    HW2 5169   4.513   0.268   2.633
 1424SOL     OW 5170   6.631   4.766   3.166
 1424SOL    HW1 5171   6.622   4.854   3.119
 1424SOL    HW2 5172   6.540   4.732   3.190
 1425SOL     OW 5173   2.289   0.097   4.578
 1425SOL    HW1 5174   2.245   0.186   4.587
 1425SOL    HW2 5175   2.221   0.025   4.590
 1426SOL     OW 5176   1.010   1.671   5.689
 1426SOL    HW1 5177   1.082   1.674   5.620
 1426SOL    HW2 5178   0.930   1.720   5.656
 1427SOL     OW 5179   5.763   0.446   4.512
 1427SOL    HW1 5180   5.849   0.409   4.479
 1427SOL    HW2 5181   5.724   0.386   4.581
 1428SOL     OW 5182   5.038   1.231   0.133
 1428SOL    HW1 5183   5.077   1.230   0.224
 1428SOL    HW2 5184   5.069   1.312   0.084
 1429SOL     OW 5185   6.323   0.636   0.490
 1429SOL    HW1 5186   6.367   0.554   0.527
 1429SOL    HW2 5187   6.387   0.684   0.430
 1430SOL     OW 5188   2.053   4.807   3.753
 1430SOL    HW1 5189   1.959   4.833   3.733
 1430SOL    HW2 5190   2.053   4.735   3.823
 1431SOL     OW 5191   1.651   0.471   1.047
 1431SOL    HW1 5192   1.750   0.464   1.062
 1431SOL    HW2 5193   1.632   0.474   0.949
 1432SOL     OW 5194   2.185   0.816   1.943
 1432SOL    HW1 5195   2.275   0.785   1.976
 1432SOL    HW2 5196   2.197   0.877   1.865
 1433SOL     OW 5197   4.645   0.793   3.670
 1433SOL    HW1 5198   4.673   0.882   3.706
 1433SOL    HW2 5199   4.582   0.749   3.734
 1434SOL     OW 5200   1.127   0.743   5.601
 1434SOL    HW1 5201   1.120   0.835   5.563
 1434SOL    HW2 5202   1.207   0.738   5.661
 1435SOL     OW 5203   7.012   1.955   3.318
 1435SOL    HW1 5204   6.963   1.934   3.234
 1435SOL    HW2 5205   0.070   1.900   3.322
 1436SOL     OW 5206   3.958   3.662   0.786
 1436SOL    HW1 5207   3.997   3.730   0.848
 1436SOL    HW2 5208   4.002   3.573   0.801
 1437SOL     OW 5209   3.770   1.327   2.370
 1437SOL    HW1 5210   3.792   1.422   2.387
 1437SOL    HW2 5211   3.854   1.274   2.362
 1438SOL     OW 5212   2.210   0.361   1.383
 1438SOL    HW1 5213   2.212   0.451   1.340
 1438SOL    HW2 5214   2.303   0.333   1.407
 1439SOL     OW 5215   0.269   5.802   2.534
 1439SOL    HW1 5216   0.191   5.849   2.494
 1439SOL    HW2 5217   0.248   5.705   2.544
 1440SOL     OW 5218   2.560   3.460   1.685
 1440SOL    HW1 5219   2.474   3.449   1.735
 1440SOL    HW2 5220   2.593   3.370   1.655
 1441SOL     OW 5221   5.628   6.562   0.605
 1441SOL    HW1 5222   5.716   6.521   0.629
 1441SOL    HW2 5223   5.575   6.495   0.553
 1442SOL     OW 5224   5.411   5.766   0.778
 1442SOL    HW1 5225   5.351   5.768   0.859
 1442SOL    HW2 5226   5.484   5.700   0.793
 1443SOL     OW 5227   0.454   2.915   2.796
 1443SOL    HW1 5228   0.483   3.006   2.768
 1443SOL    HW2 5229   0.514   2.881   2.868
 1444SOL     OW 5230   6.454   4.644   6.652
 1444SOL    HW1 5231   6.435   4.711   6.723
 1444SOL    HW2 5232   6.394   4.660   6.574
 1445SOL     OW 5233   1.131   3.486   1.329
 1445SOL    HW1 5234   1.159   3.577   1.301
 1445SOL    HW2 5235   1.033   3.474   1.311
 1446SOL     OW 5236   6.555   6.968   0.729
 1446SOL    HW1 5237   6.543   6.896   0.797
 1446SOL    HW2 5238   6.581   6.927   0.641
 1447SOL     OW 5239   6.161   5.310   4.556
 1447SOL    HW1 5240   6.116   5.232   4.512
 1447SOL    HW2 5241   6.223   5.277   4.627
 1448SOL     OW 5242   1.282   3.071   5.770
 1448SOL    HW1 5243   1.273   3.055   5.672
 1448SOL    HW2 5244   1.205   3.029   5.818
 1449SOL     OW 5245   2.157   3.312   3.560
 1449SOL    HW1 5246   2.174   3.411   3.563
 1449SOL    HW2 5247   2.142   3.278   3.653
 1450SOL     OW 5248   2.321   2.852   3.873
 1450SOL    HW1 5249   2.383   2.812   3.941
 1450SOL    HW2 5250   2.268   2.779   3.830
 1451SOL     OW 5251   2.765   0.675   2.635
 1451SOL    HW1 5252   2.811   0.682   2.547
 1451SOL    HW2 5253   2.803   0.742   2.698
 1452SOL     OW 5254   5.001   2.803   6.444
 1452SOL    HW1 5255   4.954   2.868   6.503
 1452SOL    HW2 5256   5.089   2.778   6.485
 1453SOL     OW 5257   6.991   4.743   5.473
 1453SOL    HW1 5258   6.991   4.812   5.400
 1453SOL    HW2 5259   6.897   4.711   5.488
 1454SOL     OW 5260   3.712   2.000   3.689
 1454SOL    HW1 5261   3.703   2.041   3.779
 1454SOL    HW2 5262   3.806   2.012   3.656
 1455SOL     OW 5263   0.658   5.833   1.865
 1455SOL    HW1 5264   0.729   5.877   1.920
 1455SOL    HW2 5265   0.568   5.865   1.894
 1456SOL     OW 5266   6.531   5.094   4.460
 1456SOL    HW1 5267   6.450   5.098   4.402
 1456SOL    HW2 5268   6.507   5.055   4.549
 1457SOL     OW 5269   1.312   5.304   5.954
 1457SOL    HW1 5270   1.403   5.276   5.986
 1457SOL    HW2 5271   1.247   5.230   5.971
 1458SOL     OW 5272   5.023   5.078   5.317
 1458SOL    HW1 5273   5.010   5.026   5.401
 1458SOL    HW2 5274   4.974   5.034   5.242
 1459SOL     OW 5275   5.525   6.960   5.437
 1459SOL    HW1 5276   5.602   6.909   5.474
 1459SOL    HW2 5277   5.455   6.896   5.404
 1460SOL     OW 5278   1.244   6.425   5.248
 1460SOL    HW1 5279   1.218   6.460   5.158
 1460SOL    HW2 5280   1.340   6.445   5.265
 1461SOL     OW 5281   6.267   3.128   3.598
 1461SOL    HW1 5282   6.325   3.154   3.676
 1461SOL    HW2 5283   6.319   3.069   3.536
 1462SOL     OW 5284   0.633   0.944   1.807
 1462SOL    HW1 5285   0.671   0.907   1.892
 1462SOL    HW2 5286   0.622   1.043   1.816
 1463SOL     OW 5287   2.109   5.737   6.764
 1463SOL    HW1 5288   2.083   5.755   6.670
 1463SOL    HW2 5289   2.205   5.710   6.768
 1464SOL     OW 5290   1.035   3.644   3.932
 1464SOL    HW1 5291   1.117   3.606   3.889
 1464SOL    HW2 5292   1.061   3.695   4.014
 1465SOL     OW 5293   0.551   2.883   3.846
 1465SOL    HW1 5294   0.462   2.877   3.800
 1465SOL    HW2 5295   0.616   2.823   3.800
 1466SOL     OW 5296   5.334   2.452   2.368
 1466SOL    HW1 5297   5.321   2.500   2.455
 1466SOL    HW2 5298   5.248   2.407   2.343
 1467SOL     OW 5299   0.816   0.849   4.312
 1467SOL    HW1 5300   0.831   0.933   4.365
 1467SOL    HW2 5301   0.887   0.783   4.334
 1468SOL     OW 5302   2.676   5.274   2.601
 1468SOL    HW1 5303   2.674   5.365   2.642
 1468SOL    HW2 5304   2.693   5.283   2.503
 1469SOL     OW 5305   6.070   3.939   2.924
 1469SOL    HW1 5306   6.134   3.918   2.850
 1469SOL    HW2 5307   5.978   3.909   2.899
 1470SOL     OW 5308   6.408   1.082   1.690
 1470SOL    HW1 5309   6.465   1.152   1.646
 1470SOL    HW2 5310   6.356   1.033   1.620
 1471SOL     OW 5311   4.696   6.380   1.400
 1471SOL    HW1 5312   4.734   6.347   1.486
 1471SOL    HW2 5313   4.657   6.471   1.413
 1472SOL     OW 5314   1.718   0.297   5.995
 1472SOL    HW1 5315   1.691   0.237   5.919
 1472SOL    HW2 5316   1.704   0.392   5.969
 1473SOL     OW 5317   1.804   5.732   3.771
 1473SOL    HW1 5318   1.876   5.800   3.782
 1473SOL    HW2 5319   1.733   5.747   3.839
 1474SOL     OW 5320   2.666   5.187   1.206
 1474SOL    HW1 5321   2.672   5.143   1.295
 1474SOL    HW2 5322   2.741   5.156   1.148
 1475SOL     OW 5323   5.610   0.027   6.499
 1475SOL    HW1 5324   5.533   6.994   6.525
 1475SOL    HW2 5325   5.679   6.997   6.452
 1476SOL     OW 5326   4.458   0.944   0.821
 1476SOL    HW1 5327   4.363   0.913   0.822
 1476SOL    HW2 5328   4.493   0.948   0.914
 1477SOL     OW 5329   3.463   4.906   1.619
 1477SOL    HW1 5330   3.480   4.931   1.524
 1477SOL    HW2 5331   3.368   4.878   1.630
 1478SOL     OW 5332   4.929   5.288   6.854
 1478SOL    HW1 5333   4.910   5.340   6.937
 1478SOL    HW2 5334   4.881   5.201   6.857
 1479SOL     OW 5335   3.972   3.880   1.603
 1479SOL    HW1 5336   4.034   3.866   1.525
 1479SOL    HW2 5337   4.021   3.862   1.688
 1480SOL     OW 5338   3.357   0.554   4.585
 1480SOL    HW1 5339   3.302   0.632   4.556
 1480SOL    HW2 5340   3.360   0.486   4.512
 1481SOL     OW 5341   5.286   2.439   6.002
 1481SOL    HW1 5342   5.313   2.453   5.906
 1481SOL    HW2 5343   5.351   2.378   6.046
 1482SOL     OW 5344   5.048   1.055   0.877
 1482SOL    HW1 5345   5.089   1.143   0.854
 1482SOL    HW2 5346   5.109   1.006   0.940
 1483SOL     OW 5347   5.777   1.147   6.679
 1483SOL    HW1 5348   5.874   1.172   6.675
 1483SOL    HW2 5349   5.769   1.049   6.698
 1484SOL     OW 5350   3.741   5.754   5.084
 1484SOL    HW1 5351   3.840   5.768   5.081
 1484SOL    HW2 5352   3.716   5.713   5.172
 1485SOL     OW 5353   5.416   2.750   3.600
 1485SOL    HW1 5354   5.326   2.778   3.633
 1485SOL    HW2 5355   5.418   2.755   3.500
 1486SOL     OW 5356   4.793   6.450   3.721
 1486SOL    HW1 5357   4.738   6.482   3.798
 1486SOL    HW2 5358   4.739   6.386   3.666
 1487SOL     OW 5359   6.516   0.417   0.629
 1487SOL    HW1 5360   6.602   0.394   0.673
 1487SOL    HW2 5361   6.440   0.397   0.691
 1488SOL     OW 5362   6.529   1.854   2.420
 1488SOL    HW1 5363   6.615   1.855   2.470
 1488SOL    HW2 5364   6.538   1.909   2.337
 1489SOL     OW 5365   3.734   4.585   0.294
 1489SOL    HW1 5366   3.681   4.502   0.275
 1489SOL    HW2 5367   3.677   4.650   0.345
 1490SOL     OW 5368   6.989   2.473   2.315
 1490SOL    HW1 5369   7.020   2.482   2.410
 1490SOL    HW2 5370   6.894   2.440   2.315
 1491SOL     OW 5371   6.148   2.581   3.909
 1491SOL    HW1 5372   6.121   2.674   3.933
 1491SOL    HW2 5373   6.205   2.543   3.982
 1492SOL     OW 5374   6.366   1.279   3.236
 1492SOL    HW1 5375   6.425   1.349   3.196
 1492SOL    HW2 5376   6.351   1.299   3.333
 1493SOL     OW 5377   5.390   2.252   6.225
 1493SOL    HW1 5378   5.315   2.186   6.231
 1493SOL    HW2 5379   5.375   2.326   6.291
 1494SOL     OW 5380   6.527   4.669   5.663
 1494SOL    HW1 5381   6.508   4.574   5.686
 1494SOL    HW2 5382   6.442   4.716   5.641
 1495SOL     OW 5383   0.033   4.095   4.117
 1495SOL    HW1 5384   0.101   4.056   4.179
 1495SOL    HW2 5385   0.044   4.056   4.026
 1496SOL     OW 5386   6.342   5.800   5.974
 1496SOL    HW1 5387   6.307   5.743   5.900
 1496SOL    HW2 5388   6.402   5.871   5.936
 1497SOL     OW 5389   5.944   3.016   2.895
 1497SOL    HW1 5390   5.962   3.091   2.832
 1497SOL    HW2 5391   6.030   2.975   2.925
 1498SOL     OW 5392   3.342   4.046   0.791
 1498SOL    HW1 5393   3.321   4.007   0.702
 1498SOL    HW2 5394   3.261   4.041   0.850
 1499SOL     OW 5395   0.859   4.415   4.938
 1499SOL    HW1 5396   0.868   4.333   4.881
 1499SOL    HW2 5397   0.764   4.422   4.970
 1500SOL     OW 5398   0.641   6.148   1.968
 1500SOL    HW1 5399   0.607   6.136   1.874
 1500SOL    HW2 5400   0.563   6.151   2.031
 1501SOL     OW 5401   5.791   2.197   0.898
 1501SOL    HW1 5402   5.811   2.104   0.867
 1501SOL    HW2 5403   5.710   2.232   0.850
 1502SOL     OW 5404   6.166   0.228   5.946
 1502SOL    HW1 5405   6.150   0.129   5.953
 1502SOL    HW2 5406   6.264   0.244   5.930
 1503SOL     OW 5407   6.984   4.884   1.138
 1503SOL    HW1 5408   0.057   4.872   1.122
 1503SOL    HW2 5409   6.950   4.809   1.195
 1504SOL     OW 5410   1.794   6.893   2.445
 1504SOL    HW1 5411   1.819   6.826   2.515
 1504SOL    HW2 5412   1.792   6.848   2.355
 1505SOL     OW 5413   5.740   5.509   4.991
 1505SOL    HW1 5414   5.784   5.515   5.081
 1505SOL    HW2 5415   5.713   5.414   4.974
 1506SOL     OW 5416   0.605   1.653   0.757
 1506SOL    HW1 5417   0.697   1.629   0.726
 1506SOL    HW2 5418   0.537   1.602   0.705
 1507SOL     OW 5419   1.424   3.144   4.186
 1507SOL    HW1 5420   1.410   3.152   4.088
 1507SOL    HW2 5421   1.476   3.061   4.206
 1508SOL     OW 5422   1.525   0.466   1.277
 1508SOL    HW1 5423   1.470   0.548   1.291
 1508SOL    HW2 5424   1.556   0.462   1.182
 1509SOL     OW 5425   4.732   1.117   4.471
 1509SOL    HW1 5426   4.647   1.135   4.423
 1509SOL    HW2 5427   4.714   1.064   4.554
 1510SOL     OW 5428   3.567   5.876   4.688
 1510SOL    HW1 5429   3.651   5.921   4.717
 1510SOL    HW2 5430   3.514   5.938   4.631
 1511SOL     OW 5431   2.986   3.546   5.047
 1511SOL    HW1 5432   2.946   3.530   5.138
 1511SOL    HW2 5433   3.015   3.459   5.007
 1512SOL     OW 5434   5.535   6.776   1.097
 1512SOL    HW1 5435   5.607   6.734   1.042
 1512SOL    HW2 5436   5.473   6.827   1.037
 1513SOL     OW 5437   2.917   6.975   6.154
 1513SOL    HW1 5438   2.841   6.975   6.219
 1513SOL    HW2 5439   2.992   6.920   6.189
 1514SOL     OW 5440   2.910   2.761   6.117
 1514SOL    HW1 5441   2.903   2.842   6.059
 1514SOL    HW2 5442   2.928   2.681   6.059
 1515SOL     OW 5443   4.897   1.208   2.411
 1515SOL    HW1 5444   4.934   1.150   2.338
 1515SOL    HW2 5445   4.927   1.172   2.500
 1516SOL     OW 5446   5.914   0.467   5.119
 1516SOL    HW1 5447   6.010   0.493   5.112
 1516SOL    HW2 5448   5.901   0.406   5.197
 1517SOL     OW 5449   3.598   6.171   3.818
 1517SOL    HW1 5450   3.640   6.102   3.877
 1517SOL    HW2 5451   3.530   6.129   3.759
 1518SOL     OW 5452   0.957   2.980   0.226
 1518SOL    HW1 5453   0.892   2.958   0.153
 1518SOL    HW2 5454   0.907   2.992   0.312
 1519SOL     OW 5455   0.309   4.699   6.748
 1519SOL    HW1 5456   0.224   4.648   6.731
 1519SOL    HW2 5457   0.328   4.758   6.669
 1520SOL     OW 5458   0.564   6.347   3.070
 1520SOL    HW1 5459   0.545   6.321   2.976
 1520SOL    HW2 5460   0.583   6.265   3.124
 1521SOL     OW 5461   2.241   4.860   5.848
 1521SOL    HW1 5462   2.256   4.886   5.753
 1521SOL    HW2 5463   2.313   4.797   5.877
 1522SOL     OW 5464   5.462   5.921   3.973
 1522SOL    HW1 5465   5.537   5.938   4.037
 1522SOL    HW2 5466   5.408   6.004   3.964
 1523SOL     OW 5467   3.873   6.332   0.725
 1523SOL    HW1 5468   3.791   6.367   0.771
 1523SOL    HW2 5469   3.855   6.320   0.628
 1524SOL     OW 5470   2.793   1.766   2.806
 1524SOL    HW1 5471   2.745   1.691   2.759
 1524SOL    HW2 5472   2.769   1.764   2.903
 1525SOL     OW 5473   5.483   3.286   6.773
 1525SOL    HW1 5474   5.446   3.377   6.758
 1525SOL    HW2 5475   5.578   3.293   6.805
 1526SOL     OW 5476   1.015   1.161   0.238
 1526SOL    HW1 5477   0.969   1.151   0.150
 1526SOL    HW2 5478   1.065   1.077   0.259
 1527SOL     OW 5479   4.266   1.851   4.065
 1527SOL    HW1 5480   4.315   1.786   4.006
 1527SOL    HW2 5481   4.206   1.907   4.008
 1528SOL     OW 5482   3.763   3.788   2.199
 1528SOL    HW1 5483   3.781   3.881   2.233
 1528SOL    HW2 5484   3.819   3.723   2.249
 1529SOL     OW 5485   4.048   1.203   5.778
 1529SOL    HW1 5486   4.092   1.171   5.694
 1529SOL    HW2 5487   4.116   1.212   5.850
 1530SOL     OW 5488   3.361   6.435   1.055
 1530SOL    HW1 5489   3.383   6.344   1.020
 1530SOL    HW2 5490   3.270   6.463   1.024
 1531SOL     OW 5491   4.498   6.793   3.962
 1531SOL    HW1 5492   4.567   6.862   3.983
 1531SOL    HW2 5493   4.430   6.791   4.035
 1532SOL     OW 5494   3.369   5.745   6.378
 1532SOL    HW1 5495   3.431   5.695   6.317
 1532SOL    HW2 5496   3.344   5.832   6.335
 1533SOL     OW 5497   6.173   5.506   1.393
 1533SOL    HW1 5498   6.078   5.514   1.364
 1533SOL    HW2 5499   6.179   5.516   1.492
 1534SOL     OW 5500   3.535   5.135   6.573
 1534SOL    HW1 5501   3.529   5.231   6.599
 1534SOL    HW2 5502   3.460   5.112   6.510
 1535SOL     OW 5503   5.584   5.310   4.036
 1535SOL    HW1 5504   5.593   5.410   4.042
 1535SOL    HW2 5505   5.674   5.269   4.020
 1536SOL     OW 5506   4.822   2.937   6.276
 1536SOL    HW1 5507   4.875   2.878   6.336
 1536SOL    HW2 5508   4.800   2.888   6.191
 1537SOL     OW 5509   3.045   5.284   3.082
 1537SOL    HW1 5510   2.957   5.248   3.112
 1537SOL    HW2 5511   3.030   5.353   3.011
 1538SOL     OW 5512   2.736   1.344   0.276
 1538SOL    HW1 5513   2.815   1.309   0.327
 1538SOL    HW2 5514   2.765   1.372   0.185
 1539SOL     OW 5515   6.066   3.187   0.366
 1539SOL    HW1 5516   6.008   3.110   0.339
 1539SOL    HW2 5517   6.012   3.271   0.369
 1540SOL     OW 5518   3.292   6.975   4.488
 1540SOL    HW1 5519   3.199   6.969   4.450
 1540SOL    HW2 5520   3.293   6.938   4.580
 1541SOL     OW 5521   3.733   3.206   5.136
 1541SOL    HW1 5522   3.698   3.167   5.221
 1541SOL    HW2 5523   3.702   3.150   5.059
 1542SOL     OW 5524   0.269   0.154   2.627
 1542SOL    HW1 5525   0.354   0.206   2.623
 1542SOL    HW2 5526   0.242   0.127   2.534
 1543SOL     OW 5527   3.191   4.625   0.256
 1543SOL    HW1 5528   3.249   4.698   0.292
 1543SOL    HW2 5529   3.155   4.651   0.167
 1544SOL     OW 5530   3.827   3.415   4.174
 1544SOL    HW1 5531   3.776   3.377   4.251
 1544SOL    HW2 5532   3.769   3.415   4.093
 1545SOL     OW 5533   5.757   6.273   1.713
 1545SOL    HW1 5534   5.724   6.191   1.668
 1545SOL    HW2 5535   5.679   6.326   1.747
 1546SOL     OW 5536   5.128   0.106   5.744
 1546SOL    HW1 5537   5.068   0.137   5.671
 1546SOL    HW2 5538   5.128   0.174   5.818
 1547SOL     OW 5539   2.080   3.469   6.466
 1547SOL    HW1 5540   2.008   3.503   6.526
 1547SOL    HW2 5541   2.118   3.544   6.413
 1548SOL     OW 5542   6.024   2.076   0.009
 1548SOL    HW1 5543   6.004   2.037   6.945
 1548SOL    HW2 5544   6.121   2.100   0.014
 1549SOL     OW 5545   4.663   0.447   4.776
 1549SOL    HW1 5546   4.700   0.470   4.866
 1549SOL    HW2 5547   4.736   0.411   4.718
 1550SOL     OW 5548   3.788   3.001   3.776
 1550SOL    HW1 5549   3.715   3.019   3.841
 1550SOL    HW2 5550   3.751   2.952   3.697
 1551SOL     OW 5551   6.410   4.493   6.001
 1551SOL    HW1 5552   6.476   4.555   6.043
 1551SOL    HW2 5553   6.346   4.546   5.945
 1552SOL     OW 5554   1.744   4.228   1.327
 1552SOL    HW1 5555   1.656   4.266   1.299
 1552SOL    HW2 5556   1.814   4.299   1.321
 1553SOL     OW 5557   1.379   1.661   5.760
 1553SOL    HW1 5558   1.472   1.630   5.738
 1553SOL    HW2 5559   1.333   1.689   5.675
 1554SOL     OW 5560   3.074   1.190   3.705
 1554SOL    HW1 5561   3.117   1.107   3.738
 1554SOL    HW2 5562   2.977   1.172   3.686
 1555SOL     OW 5563   6.622   3.918   5.975
 1555SOL    HW1 5564   6.661   3.834   6.014
 1555SOL    HW2 5565   6.618   3.989   6.045
 1556SOL     OW 5566   2.265   0.741   6.086
 1556SOL    HW1 5567   2.348   0.795   6.070
 1556SOL    HW2 5568   2.252   0.730   6.185
 1557SOL     OW 5569   6.964   2.714   6.557
 1557SOL    HW1 5570   7.002   2.637   6.609
 1557SOL    HW2 5571   0.013   2.771   6.523
 1558SOL     OW 5572   0.321   6.932   4.898
 1558SOL    HW1 5573   0.388   6.858   4.906
 1558SOL    HW2 5574   0.364   7.019   4.919
 1559SOL     OW 5575   1.269   1.961   6.466
 1559SOL    HW1 5576   1.353   1.945   6.517
 1559SOL    HW2 5577   1.192   1.919   6.514
 1560SOL     OW 5578   6.520   6.946   6.603
 1560SOL    HW1 5579   6.543   6.909   6.513
 1560SOL    HW2 5580   6.535   0.020   6.603
 1561SOL     OW 5581   5.841   5.742   2.723
 1561SOL    HW1 5582   5.762   5.681   2.715
 1561SOL    HW2 5583   5.818   5.831   2.681
 1562SOL     OW 5584   6.027   1.002   3.345
 1562SOL    HW1 5585   6.011   0.956   3.258
 1562SOL    HW2 5586   5.944   0.997   3.401
 1563SOL     OW 5587   4.222   6.971   4.889
 1563SOL    HW1 5588   4.219   6.872   4.896
 1563SOL    HW2 5589   4.286   6.998   4.818
 1564SOL     OW 5590   1.567   1.764   2.709
 1564SOL    HW1 5591   1.658   1.783   2.745
 1564SOL    HW2 5592   1.507   1.841   2.728
 1565SOL     OW 5593   5.306   4.740   1.966
 1565SOL    HW1 5594   5.344   4.647   1.962
 1565SOL    HW2 5595   5.358   4.800   1.906
 1566SOL     OW 5596   5.765   4.412   3.272
 1566SOL    HW1 5597   5.774   4.511   3.265
 1566SOL    HW2 5598   5.727   4.376   3.187
 1567SOL     OW 5599   6.424   5.797   5.349
 1567SOL    HW1 5600   6.440   5.829   5.442
 1567SOL    HW2 5601   6.336   5.749   5.345
 1568SOL     OW 5602   0.610   6.777   0.638
 1568SOL    HW1 5603   0.599   6.706   0.707
 1568SOL    HW2 5604   0.561   6.752   0.555
 1569SOL     OW 5605   3.699   6.279   4.931
 1569SOL    HW1 5606   3.794   6.310   4.926
 1569SOL    HW2 5607   3.641   6.338   4.876
 1570SOL     OW 5608   3.594   2.068   1.599
 1570SOL    HW1 5609   3.612   2.018   1.683
 1570SOL    HW2 5610   3.539   2.011   1.537
 1571SOL     OW 5611   6.737   4.395   1.172
 1571SOL    HW1 5612   6.705   4.340   1.249
 1571SOL    HW2 5613   6.661   4.450   1.137
 1572SOL     OW 5614   1.437   6.380   2.163
 1572SOL    HW1 5615   1.514   6.379   2.227
 1572SOL    HW2 5616   1.358   6.333   2.205
 1573SOL     OW 5617   3.851   0.130   0.982
 1573SOL    HW1 5618   3.909   0.191   1.037
 1573SOL    HW2 5619   3.757   0.164   0.984
 1574SOL     OW 5620   6.168   2.817   2.523
 1574SOL    HW1 5621   6.265   2.839   2.523
 1574SOL    HW2 5622   6.152   2.737   2.581
 1575SOL     OW 5623   3.331   2.644   0.384
 1575SOL    HW1 5624   3.303   2.581   0.457
 1575SOL    HW2 5625   3.271   2.724   0.385
 1576SOL     OW 5626   6.490   6.033   3.982
 1576SOL    HW1 5627   6.413   6.088   3.950
 1576SOL    HW2 5628   6.466   5.936   3.979
 1577SOL     OW 5629   1.278   0.689   0.115
 1577SOL    HW1 5630   1.368   0.651   0.137
 1577SOL    HW2 5631   1.289   0.776   0.068
 1578SOL     OW 5632   5.748   5.353   4.493
 1578SOL    HW1 5633   5.756   5.428   4.559
 1578SOL    HW2 5634   5.652   5.338   4.472
 1579SOL     OW 5635   0.718   0.251   3.621
 1579SOL    HW1 5636   0.812   0.275   3.643
 1579SOL    HW2 5637   0.705   0.254   3.522
 1580SOL     OW 5638   3.432   3.857   5.707
 1580SOL    HW1 5639   3.352   3.910   5.679
 1580SOL    HW2 5640   3.429   3.766   5.666
 1581SOL     OW 5641   6.619   4.152   4.326
 1581SOL    HW1 5642   6.690   4.214   4.292
 1581SOL    HW2 5643   6.641   4.124   4.419
 1582SOL     OW 5644   5.983   5.420   4.367
 1582SOL    HW1 5645   6.040   5.385   4.441
 1582SOL    HW2 5646   5.887   5.406   4.390
 1583SOL     OW 5647   2.203   2.455   3.183
 1583SOL    HW1 5648   2.274   2.403   3.136
 1583SOL    HW2 5649   2.129   2.394   3.210
 1584SOL     OW 5650   2.331   0.650   6.644
 1584SOL    HW1 5651   2.303   0.739   6.680
 1584SOL    HW2 5652   2.424   0.629   6.674
 1585SOL     OW 5653   6.120   1.493   5.318
 1585SOL    HW1 5654   6.122   1.414   5.258
 1585SOL    HW2 5655   6.206   1.500   5.368
 1586SOL     OW 5656   3.498   4.178   2.885
 1586SOL    HW1 5657   3.408   4.205   2.853
 1586SOL    HW2 5658   3.514   4.214   2.977
 1587SOL     OW 5659   2.254   6.530   6.648
 1587SOL    HW1 5660   2.325   6.511   6.581
 1587SOL    HW2 5661   2.294   6.573   6.729
 1588SOL     OW 5662   6.025   3.697   1.555
 1588SOL    HW1 5663   5.932   3.662   1.569
 1588SOL    HW2 5664   6.033   3.736   1.463
 1589SOL     OW 5665   5.352   4.138   4.009
 1589SOL    HW1 5666   5.403   4.053   4.024
 1589SOL    HW2 5667   5.260   4.129   4.050
 1590SOL     OW 5668   1.696   0.894   6.080
 1590SOL    HW1 5669   1.723   0.905   5.984
 1590SOL    HW2 5670   1.775   0.866   6.134
 1591SOL     OW 5671   0.108   4.519   1.653
 1591SOL    HW1 5672   0.082   4.585   1.724
 1591SOL    HW2 5673   0.166   4.564   1.585
 1592SOL     OW 5674   3.013   3.224   3.262
 1592SOL    HW1 5675   2.963   3.182   3.186
 1592SOL    HW2 5676   2.965   3.205   3.348
 1593SOL     OW 5677   0.851   5.391   5.197
 1593SOL    HW1 5678   0.889   5.447   5.271
 1593SOL    HW2 5679   0.770   5.343   5.231
 1594SOL     OW 5680   0.248   4.878   3.135
 1594SOL    HW1 5681   0.268   4.967   3.094
 1594SOL    HW2 5682   0.151   4.873   3.157
 1595SOL     OW 5683   0.447   5.086   6.009
 1595SOL    HW1 5684   0.414   5.104   6.102
 1595SOL    HW2 5685   0.494   5.167   5.974
 1596SOL     OW 5686   3.125   4.999   6.580
 1596SOL    HW1 5687   3.067   5.023   6.657
 1596SOL    HW2 5688   3.201   4.943   6.612
 1597SOL     OW 5689   2.471   6.818   1.146
 1597SOL    HW1 5690   2.531   6.743   1.119
 1597SOL    HW2 5691   2.437   6.801   1.239
 1598SOL     OW 5692   0.132   5.683   1.546
 1598SOL    HW1 5693   0.215   5.627   1.541
 1598SOL    HW2 5694   0.079   5.655   1.626
 1599SOL     OW 5695   3.351   5.108   6.866
 1599SOL    HW1 5696   3.411   5.181   6.836
 1599SOL    HW2 5697   3.303   5.136   6.950
 1600SOL     OW 5698   3.307   1.721   5.209
 1600SOL    HW1 5699   3.339   1.772   5.289
 1600SOL    HW2 5700   3.358   1.636   5.202
 1601SOL     OW 5701   1.298   4.853   4.370
 1601SOL    HW1 5702   1.361   4.926   4.344
 1601SOL    HW2 5703   1.206   4.877   4.339
 1602SOL     OW 5704   0.411   5.159   2.673
 1602SOL    HW1 5705   0.457   5.070   2.667
 1602SOL    HW2 5706   0.480   5.230   2.690
 1603SOL     OW 5707   6.274   6.623   1.147
 1603SOL    HW1 5708   6.217   6.541   1.152
 1603SOL    HW2 5709   6.309   6.634   1.054
 1604SOL     OW 5710   0.409   5.565   5.198
 1604SOL    HW1 5711   0.379   5.521   5.283
 1604SOL    HW2 5712   0.507   5.552   5.186
 1605SOL     OW 5713   4.876   6.142   2.791
 1605SOL    HW1 5714   4.933   6.202   2.848
 1605SOL    HW2 5715   4.790   6.188   2.770
 1606SOL     OW 5716   4.806   0.169   5.995
 1606SOL    HW1 5717   4.813   0.102   5.921
 1606SOL    HW2 5718   4.894   0.212   6.010
 1607SOL     OW 5719   4.572   2.253   0.805
 1607SOL    HW1 5720   4.518   2.213   0.730
 1607SOL    HW2 5721   4.617   2.179   0.855
 1608SOL     OW 5722   2.347   0.192   0.549
 1608SOL    HW1 5723   2.311   0.174   0.641
 1608SOL    HW2 5724   2.273   0.228   0.491
 1609SOL     OW 5725   5.236   1.341   5.414
 1609SOL    HW1 5726   5.283   1.299   5.492
 1609SOL    HW2 5727   5.152   1.385   5.445
 1610SOL     OW 5728   5.395   5.823   4.356
 1610SOL    HW1 5729   5.301   5.806   4.324
 1610SOL    HW2 5730   5.401   5.803   4.454
 1611SOL     OW 5731   3.469   3.624   0.987
 1611SOL    HW1 5732   3.517   3.625   1.075
 1611SOL    HW2 5733   3.401   3.551   0.988
 1612SOL     OW 5734   3.501   1.292   4.434
 1612SOL    HW1 5735   3.540   1.270   4.345
 1612SOL    HW2 5736   3.558   1.255   4.506
 1613SOL     OW 5737   1.790   6.266   1.040
 1613SOL    HW1 5738   1.758   6.326   0.967
 1613SOL    HW2 5739   1.823   6.321   1.117
 1614SOL     OW 5740   0.156   2.827   6.445
 1614SOL    HW1 5741   0.194   2.775   6.369
 1614SOL    HW2 5742   0.185   2.922   6.438
 1615SOL     OW 5743   6.387   5.048   6.352
 1615SOL    HW1 5744   6.407   5.058   6.255
 1615SOL    HW2 5745   6.460   4.996   6.396
 1616SOL     OW 5746   2.428   1.720   5.614
 1616SOL    HW1 5747   2.358   1.681   5.674
 1616SOL    HW2 5748   2.384   1.768   5.538
 1617SOL     OW 5749   4.892   0.531   4.026
 1617SOL    HW1 5750   4.802   0.554   3.989
 1617SOL    HW2 5751   4.929   0.610   4.076
 1618SOL     OW 5752   5.708   2.281   1.287
 1618SOL    HW1 5753   5.635   2.313   1.226
 1618SOL    HW2 5754   5.784   2.346   1.285
 1619SOL     OW 5755   1.710   3.375   4.771
 1619SOL    HW1 5756   1.694   3.391   4.868
 1619SOL    HW2 5757   1.656   3.296   4.741
 1620SOL     OW 5758   3.995   5.245   1.589
 1620SOL    HW1 5759   4.048   5.175   1.637
 1620SOL    HW2 5760   3.915   5.202   1.547
 1621SOL     OW 5761   2.210   1.248   1.531
 1621SOL    HW1 5762   2.194   1.149   1.540
 1621SOL    HW2 5763   2.188   1.293   1.618
 1622SOL     OW 5764   2.351   2.071   4.401
 1622SOL    HW1 5765   2.302   2.086   4.315
 1622SOL    HW2 5766   2.431   2.131   4.404
 1623SOL     OW 5767   2.543   2.240   5.047
 1623SOL    HW1 5768   2.453   2.216   5.010
 1623SOL    HW2 5769   2.542   2.230   5.147
 1624SOL     OW 5770   2.529   0.397   0.500
 1624SOL    HW1 5771   2.617   0.363   0.467
 1624SOL    HW2 5772   2.471   0.320   0.526
 1625SOL     OW 5773   6.874   5.437   1.767
 1625SOL    HW1 5774   6.782   5.425   1.804
 1625SOL    HW2 5775   6.915   5.520   1.804
 1626SOL     OW 5776   1.889   2.949   6.151
 1626SOL    HW1 5777   1.835   2.923   6.230
 1626SOL    HW2 5778   1.965   3.008   6.180
 1627SOL     OW 5779   5.258   3.210   3.844
 1627SOL    HW1 5780   5.256   3.222   3.745
 1627SOL    HW2 5781   5.315   3.131   3.867
 1628SOL     OW 5782   2.730   3.097   0.608
 1628SOL    HW1 5783   2.694   3.011   0.644
 1628SOL    HW2 5784   2.785   3.078   0.527
 1629SOL     OW 5785   4.566   2.155   3.374
 1629SOL    HW1 5786   4.649   2.203   3.346
 1629SOL    HW2 5787   4.492   2.176   3.310
 1630SOL     OW 5788   0.123   5.150   4.481
 1630SOL    HW1 5789   0.057   5.086   4.520
 1630SOL    HW2 5790   0.091   5.180   4.391
 1631SOL     OW 5791   0.374   6.663   5.596
 1631SOL    HW1 5792   0.394   6.761   5.609
 1631SOL    HW2 5793   0.361   6.620   5.685
 1632SOL     OW 5794   5.850   0.060   1.539
 1632SOL    HW1 5795   5.835   0.118   1.619
 1632SOL    HW2 5796   5.895   0.114   1.468
 1633SOL     OW 5797   5.722   2.532   3.497
 1633SOL    HW1 5798   5.777   2.531   3.413
 1633SOL    HW2 5799   5.625   2.524   3.473
 1634SOL     OW 5800   3.401   0.927   0.123
 1634SOL    HW1 5801   3.449   0.896   0.040
 1634SOL    HW2 5802   3.445   1.010   0.157
 1635SOL     OW 5803   0.728   4.969   3.759
 1635SOL    HW1 5804   0.653   5.034   3.743
 1635SOL    HW2 5805   0.792   5.008   3.825
 1636SOL     OW 5806   2.673   6.602   1.513
 1636SOL    HW1 5807   2.696   6.689   1.469
 1636SOL    HW2 5808   2.756   6.562   1.553
 1637SOL     OW 5809   0.055   3.151   2.686
 1637SOL    HW1 5810   0.050   3.126   2.589
 1637SOL    HW2 5811   0.083   3.071   2.739
 1638SOL     OW 5812   1.472   3.224   5.387
 1638SOL    HW1 5813   1.526   3.204   5.469
 1638SOL    HW2 5814   1.502   3.311   5.348
 1639SOL     OW 5815   4.673   4.828   2.835
 1639SOL    HW1 5816   4.576   4.815   2.815
 1639SOL    HW2 5817   4.707   4.908   2.784
 1640SOL     OW 5818   6.036   0.318   1.058
 1640SOL    HW1 5819   5.994   0.406   1.037
 1640SOL    HW2 5820   6.033   0.259   0.978
 1641SOL     OW 5821   6.792   2.460   5.729
 1641SOL    HW1 5822   6.772   2.537   5.669
 1641SOL    HW2 5823   6.824   2.493   5.818
 1642SOL     OW 5824   0.068   2.151   1.388
 1642SOL    HW1 5825   0.035   2.242   1.411
 1642SOL    HW2 5826   0.167   2.154   1.374
 1643SOL     OW 5827   3.624   0.914   6.080
 1643SOL    HW1 5828   3.636   1.013   6.072
 1643SOL    HW2 5829   3.578   0.880   5.999
 1644SOL     OW 5830   3.452   1.084   1.381
 1644SOL    HW1 5831   3.449   0.987   1.406
 1644SOL    HW2 5832   3.366   1.128   1.407
 1645SOL     OW 5833   2.027   6.477   5.779
 1645SOL    HW1 5834   1.944   6.531   5.765
 1645SOL    HW2 5835   2.049   6.428   5.695
 1646SOL     OW 5836   0.723   3.617   0.741
 1646SOL    HW1 5837   0.708   3.689   0.809
 1646SOL    HW2 5838   0.669   3.537   0.766
 1647SOL     OW 5839   6.091   2.421   3.702
 1647SOL    HW1 5840   6.094   2.489   3.775
 1647SOL    HW2 5841   5.997   2.387   3.692
 1648SOL     OW 5842   4.540   6.851   2.601
 1648SOL    HW1 5843   4.587   6.854   2.513
 1648SOL    HW2 5844   4.606   6.868   2.675
 1649SOL     OW 5845   3.351   0.164   3.016
 1649SOL    HW1 5846   3.341   0.138   3.112
 1649SOL    HW2 5847   3.432   0.120   2.978
 1650SOL     OW 5848   3.153   6.809   3.892
 1650SOL    HW1 5849   3.064   6.807   3.937
 1650SOL    HW2 5850   3.202   6.892   3.920
 1651SOL     OW 5851   1.297   6.375   1.115
 1651SOL    HW1 5852   1.324   6.409   1.024
 1651SOL    HW2 5853   1.263   6.281   1.106
 1652SOL     OW 5854   2.966   2.766   1.691
 1652SOL    HW1 5855   2.896   2.697   1.710
 1652SOL    HW2 5856   2.963   2.791   1.594
 1653SOL     OW 5857   1.398   5.038   0.973
 1653SOL    HW1 5858   1.461   5.011   1.046
 1653SOL    HW2 5859   1.309   4.994   0.988
 1654SOL     OW 5860   0.410   2.375   3.558
 1654SOL    HW1 5861   0.423   2.344   3.652
 1654SOL    HW2 5862   0.486   2.436   3.532
 1655SOL     OW 5863   5.292   4.879   5.841
 1655SOL    HW1 5864   5.258   4.796   5.887
 1655SOL    HW2 5865   5.390   4.888   5.855
 1656SOL     OW 5866   0.594   4.122   3.641
 1656SOL    HW1 5867   0.613   4.153   3.548
 1656SOL    HW2 5868   0.497   4.099   3.650
 1657SOL     OW 5869   0.768   0.447   5.525
 1657SOL    HW1 5870   0.841   0.511   5.551
 1657SOL    HW2 5871   0.680   0.488   5.548
 1658SOL     OW 5872   6.353   5.757   2.686
 1658SOL    HW1 5873   6.259   5.729   2.664
 1658SOL    HW2 5874   6.382   5.829   2.623
 1659SOL     OW 5875   4.755   2.270   5.625
 1659SOL    HW1 5876   4.791   2.301   5.537
 1659SOL    HW2 5877   4.768   2.342   5.693
 1660SOL     OW 5878   1.883   5.804   3.379
 1660SOL    HW1 5879   1.954   5.740   3.346
 1660SOL    HW2 5880   1.841   5.850   3.302
 1661SOL     OW 5881   3.002   0.039   2.509
 1661SOL    HW1 5882   3.060   0.029   2.589
 1661SOL    HW2 5883   3.022   0.126   2.464
 1662SOL     OW 5884   0.415   0.227   3.581
 1662SOL    HW1 5885   0.329   0.195   3.619
 1662SOL    HW2 5886   0.470   0.149   3.550
 1663SOL     OW 5887   2.803   6.893   3.511
 1663SOL    HW1 5888   2.764   6.813   3.556
 1663SOL    HW2 5889   2.734   6.965   3.505
 1664SOL     OW 5890   2.638   5.781   4.246
 1664SOL    HW1 5891   2.545   5.759   4.216
 1664SOL    HW2 5892   2.673   5.707   4.303
 1665SOL     OW 5893   0.439   0.156   4.902
 1665SOL    HW1 5894   0.398   0.158   4.810
 1665SOL    HW2 5895   0.481   0.244   4.922
 1666SOL     OW 5896   5.643   3.084   6.231
 1666SOL    HW1 5897   5.607   3.010   6.175
 1666SOL    HW2 5898   5.577   3.107   6.303
 1667SOL     OW 5899   6.396   0.473   5.946
 1667SOL    HW1 5900   6.402   0.453   5.848
 1667SOL    HW2 5901   6.436   0.563   5.964
 1668SOL     OW 5902   3.236   1.223   5.166
 1668SOL    HW1 5903   3.224   1.160   5.089
 1668SOL    HW2 5904   3.293   1.300   5.139
 1669SOL     OW 5905   5.869   6.334   6.117
 1669SOL    HW1 5906   5.887   6.330   6.019
 1669SOL    HW2 5907   5.856   6.242   6.152
 1670SOL     OW 5908   5.706   3.862   5.672
 1670SOL    HW1 5909   5.639   3.842   5.744
 1670SOL    HW2 5910   5.715   3.782   5.612
 1671SOL     OW 5911   5.514   4.797   6.801
 1671SOL    HW1 5912   5.485   4.754   6.886
 1671SOL    HW2 5913   5.455   4.767   6.726
 1672SOL     OW 5914   2.457   5.276   2.430
 1672SOL    HW1 5915   2.377   5.221   2.456
 1672SOL    HW2 5916   2.529   5.264   2.498
 1673SOL     OW 5917   6.748   1.686   3.733
 1673SOL    HW1 5918   6.706   1.596   3.728
 1673SOL    HW2 5919   6.684   1.751   3.775
 1674SOL     OW 5920   1.369   5.026   6.644
 1674SOL    HW1 5921   1.281   5.074   6.641
 1674SOL    HW2 5922   1.352   4.929   6.663
 1675SOL     OW 5923   4.887   2.762   0.283
 1675SOL    HW1 5924   4.790   2.746   0.301
 1675SOL    HW2 5925   4.927   2.679   0.245
 1676SOL     OW 5926   2.502   0.930   3.536
 1676SOL    HW1 5927   2.449   0.964   3.458
 1676SOL    HW2 5928   2.456   0.850   3.575
 1677SOL     OW 5929   6.427   0.436   4.938
 1677SOL    HW1 5930   6.507   0.451   4.996
 1677SOL    HW2 5931   6.456   0.420   4.844
 1678SOL     OW 5932   4.777   6.896   1.281
 1678SOL    HW1 5933   4.717   6.906   1.360
 1678SOL    HW2 5934   4.724   6.859   1.204
 1679SOL     OW 5935   6.228   4.147   0.320
 1679SOL    HW1 5936   6.217   4.144   0.419
 1679SOL    HW2 5937   6.138   4.138   0.277
 1680SOL     OW 5938   1.186   2.310   4.788
 1680SOL    HW1 5939   1.133   2.228   4.770
 1680SOL    HW2 5940   1.200   2.361   4.703
 1681SOL     OW 5941   5.724   5.629   1.143
 1681SOL    HW1 5942   5.651   5.598   1.081
 1681SOL    HW2 5943   5.791   5.681   1.091
 1682SOL     OW 5944   6.605   3.670   5.492
 1682SOL    HW1 5945   6.569   3.749   5.540
 1682SOL    HW2 5946   6.705   3.668   5.501
 1683SOL     OW 5947   6.216   5.908   6.635
 1683SOL    HW1 5948   6.285   5.836   6.628
 1683SOL    HW2 5949   6.260   5.997   6.626
 1684SOL     OW 5950   0.390   5.468   4.761
 1684SOL    HW1 5951   0.465   5.519   4.719
 1684SOL    HW2 5952   0.362   5.513   4.846
 1685SOL     OW 5953   1.453   1.729   0.078
 1685SOL    HW1 5954   1.465   1.826   0.055
 1685SOL    HW2 5955   1.539   1.681   0.065
 1686SOL     OW 5956   1.912   5.981   6.604
 1686SOL    HW1 5957   1.883   5.897   6.648
 1686SOL    HW2 5958   1.832   6.029   6.566
 1687SOL     OW 5959   1.700   6.888   1.936
 1687SOL    HW1 5960   1.646   6.819   1.887
 1687SOL    HW2 5961   1.790   6.897   1.893
 1688SOL     OW 5962   0.115   1.801   3.947
 1688SOL    HW1 5963   0.045   1.845   4.004
 1688SOL    HW2 5964   0.072   1.733   3.888
 1689SOL     OW 5965   3.232   1.423   2.819
 1689SOL    HW1 5966   3.164   1.377   2.763
 1689SOL    HW2 5967   3.308   1.361   2.839
 1690SOL     OW 5968   0.261   2.026   0.905
 1690SOL    HW1 5969   0.329   1.960   0.874
 1690SOL    HW2 5970   0.254   2.100   0.838
 1691SOL     OW 5971   4.453   4.715   2.723
 1691SOL    HW1 5972   4.488   4.622   2.717
 1691SOL    HW2 5973   4.388   4.731   2.648
 1692SOL     OW 5974   1.408   0.666   3.494
 1692SOL    HW1 5975   1.484   0.684   3.556
 1692SOL    HW2 5976   1.340   0.740   3.502
 1693SOL     OW 5977   2.883   2.269   3.798
 1693SOL    HW1 5978   2.794   2.303   3.768
 1693SOL    HW2 5979   2.938   2.243   3.719
 1694SOL     OW 5980   4.579   6.163   5.825
 1694SOL    HW1 5981   4.652   6.155   5.893
 1694SOL    HW2 5982   4.545   6.257   5.822
 1695SOL     OW 5983   2.467   1.492   6.041
 1695SOL    HW1 5984   2.432   1.583   6.062
 1695SOL    HW2 5985   2.411   1.450   5.969
 1696SOL     OW 5986   3.051   5.600   1.358
 1696SOL    HW1 5987   3.021   5.509   1.329
 1696SOL    HW2 5988   3.150   5.608   1.346
 1697SOL     OW 5989   1.292   1.219   1.902
 1697SOL    HW1 5990   1.230   1.285   1.860
 1697SOL    HW2 5991   1.239   1.143   1.940
 1698SOL     OW 5992   5.417   1.871   0.997
 1698SOL    HW1 5993   5.459   1.941   1.055
 1698SOL    HW2 5994   5.432   1.892   0.901
 1699SOL     OW 5995   2.436   3.908   1.105
 1699SOL    HW1 5996   2.487   3.853   1.039
 1699SOL    HW2 5997   2.341   3.878   1.107
 1700SOL     OW 5998   6.560   3.022   4.528
 1700SOL    HW1 5999   6.654   3.052   4.546
 1700SOL    HW2 6000   6.517   2.995   4.614
 1701SOL     OW 6001   6.039   3.340   4.861
 1701SOL    HW1 6002   6.006   3.250   4.833
 1701SOL    HW2 6003   6.002   3.363   4.951
 1702SOL     OW 6004   4.779   2.908   1.500
 1702SOL    HW1 6005   4.758   2.937   1.407
 1702SOL    HW2 6006   4.876   2.923   1.519
 1703SOL     OW 6007   2.135   4.180   0.220
 1703SOL    HW1 6008   2.222   4.222   0.193
 1703SOL    HW2 6009   2.114   4.105   0.157
 1704SOL     OW 6010   1.067   1.043   1.941
 1704SOL    HW1 6011   0.976   1.081   1.959
 1704SOL    HW2 6012   1.104   1.003   2.025
 1705SOL     OW 6013   3.963   3.348   2.290
 1705SOL    HW1 6014   3.989   3.252   2.296
 1705SOL    HW2 6015   3.863   3.355   2.279
 1706SOL     OW 6016   2.632   0.592   6.643
 1706SOL    HW1 6017   2.609   0.614   6.737
 1706SOL    HW2 6018   2.724   0.625   6.623
 1707SOL     OW 6019   6.275   1.619   2.823
 1707SOL    HW1 6020   6.269   1.619   2.923
 1707SOL    HW2 6021   6.190   1.583   2.785
 1708SOL     OW 6022   0.338   4.709   2.236
 1708SOL    HW1 6023   0.369   4.621   2.200
 1708SOL    HW2 6024   0.321   4.772   2.160
 1709SOL     OW 6025   3.770   5.894   4.308
 1709SOL    HW1 6026   3.680   5.851   4.313
 1709SOL    HW2 6027   3.819   5.880   4.394
 1710SOL     OW 6028   0.245   5.915   4.111
 1710SOL    HW1 6029   0.288   5.950   4.194
 1710SOL    HW2 6030   0.181   5.982   4.075
 1711SOL     OW 6031   1.661   4.624   5.375
 1711SOL    HW1 6032   1.710   4.660   5.454
 1711SOL    HW2 6033   1.624   4.701   5.322
 1712SOL     OW 6034   1.345   4.712   0.984
 1712SOL    HW1 6035   1.366   4.728   1.081
 1712SOL    HW2 6036   1.380   4.788   0.930
 1713SOL     OW 6037   1.497   3.349   0.300
 1713SOL    HW1 6038   1.454   3.431   0.336
 1713SOL    HW2 6039   1.486   3.273   0.364
 1714SOL     OW 6040   3.895   1.710   0.668
 1714SOL    HW1 6041   3.947   1.776   0.615
 1714SOL    HW2 6042   3.813   1.683   0.617
 1715SOL     OW 6043   0.375   3.300   3.817
 1715SOL    HW1 6044   0.426   3.348   3.746
 1715SOL    HW2 6045   0.437   3.244   3.871
 1716SOL     OW 6046   0.012   6.737   0.090
 1716SOL    HW1 6047   6.940   6.754   0.103
 1716SOL    HW2 6048   0.064   6.819   0.113
 1717SOL     OW 6049   3.432   0.298   6.888
 1717SOL    HW1 6050   3.517   0.329   6.928
 1717SOL    HW2 6051   3.385   0.375   6.844
 1718SOL     OW 6052   1.124   4.998   5.672
 1718SOL    HW1 6053   1.097   4.928   5.606
 1718SOL    HW2 6054   1.165   4.954   5.752
 1719SOL     OW 6055   2.411   3.495   1.389
 1719SOL    HW1 6056   2.465   3.469   1.309
 1719SOL    HW2 6057   2.314   3.480   1.370
 1720SOL     OW 6058   6.501   1.430   1.869
 1720SOL    HW1 6059   6.550   1.466   1.948
 1720SOL    HW2 6060   6.552   1.449   1.786
 1721SOL     OW 6061   2.033   6.181   3.339
 1721SOL    HW1 6062   2.069   6.273   3.319
 1721SOL    HW2 6063   1.969   6.186   3.416
 1722SOL     OW 6064   5.798   6.644   2.193
 1722SOL    HW1 6065   5.709   6.689   2.182
 1722SOL    HW2 6066   5.839   6.629   2.103
 1723SOL     OW 6067   6.307   1.493   2.132
 1723SOL    HW1 6068   6.326   1.396   2.148
 1723SOL    HW2 6069   6.208   1.508   2.128
 1724SOL     OW 6070   4.835   0.596   0.286
 1724SOL    HW1 6071   4.777   0.518   0.306
 1724SOL    HW2 6072   4.928   0.564   0.268
 1725SOL     OW 6073   4.118   5.050   2.250
 1725SOL    HW1 6074   4.218   5.051   2.250
 1725SOL    HW2 6075   4.085   5.057   2.344
 1726SOL     OW 6076   0.199   5.104   4.182
 1726SOL    HW1 6077   0.116   5.139   4.140
 1726SOL    HW2 6078   0.278   5.152   4.145
 1727SOL     OW 6079   3.682   3.108   5.412
 1727SOL    HW1 6080   3.675   3.034   5.479
 1727SOL    HW2 6081   3.703   3.193   5.459
 1728SOL     OW 6082   4.681   4.443   3.446
 1728SOL    HW1 6083   4.764   4.496   3.463
 1728SOL    HW2 6084   4.691   4.391   3.362
 1729SOL     OW 6085   1.855   3.135   2.981
 1729SOL    HW1 6086   1.794   3.200   3.025
 1729SOL    HW2 6087   1.801   3.063   2.938
 1730SOL     OW 6088   5.683   2.302   4.491
 1730SOL    HW1 6089   5.779   2.286   4.466
 1730SOL    HW2 6090   5.623   2.253   4.428
 1731SOL     OW 6091   1.026   5.669   0.289
 1731SOL    HW1 6092   0.958   5.613   0.336
 1731SOL    HW2 6093   1.115   5.622   0.289
 1732SOL     OW 6094   0.368   4.678   7.015
 1732SOL    HW1 6095   0.339   4.714   6.926
 1732SOL    HW2 6096   0.297   4.617   0.025
 1733SOL     OW 6097   1.365   4.176   0.883
 1733SOL    HW1 6098   1.331   4.169   0.789
 1733SOL    HW2 6099   1.317   4.110   0.941
 1734SOL     OW 6100   4.744   2.693   1.061
 1734SOL    HW1 6101   4.831   2.671   1.015
 1734SOL    HW2 6102   4.685   2.613   1.059
 1735SOL     OW 6103   6.018   5.953   1.356
 1735SOL    HW1 6104   5.919   5.963   1.343
 1735SOL    HW2 6105   6.036   5.890   1.431
 1736SOL     OW 6106   3.117   4.031   0.922
 1736SOL    HW1 6107   3.084   3.940   0.896
 1736SOL    HW2 6108   3.039   4.089   0.945
 1737SOL     OW 6109   1.431   5.853   3.800
 1737SOL    HW1 6110   1.332   5.860   3.816
 1737SOL    HW2 6111   1.457   5.912   3.724
 1738SOL     OW 6112   0.949   2.023   1.409
 1738SOL    HW1 6113   0.965   1.951   1.341
 1738SOL    HW2 6114   0.971   1.988   1.500
 1739SOL     OW 6115   3.927   2.199   5.638
 1739SOL    HW1 6116   4.015   2.204   5.685
 1739SOL    HW2 6117   3.876   2.284   5.654
 1740SOL     OW 6118   1.095   1.074   5.820
 1740SOL    HW1 6119   1.099   1.055   5.918
 1740SOL    HW2 6120   1.018   1.135   5.802
 1741SOL     OW 6121   1.942   0.896   2.520
 1741SOL    HW1 6122   1.956   0.974   2.581
 1741SOL    HW2 6123   2.022   0.836   2.524
 1742SOL     OW 6124   5.878   6.580   4.424
 1742SOL    HW1 6125   5.959   6.536   4.464
 1742SOL    HW2 6126   5.797   6.525   4.443
 1743SOL     OW 6127   4.770   1.229   0.632
 1743SOL    HW1 6128   4.675   1.210   0.656
 1743SOL    HW2 6129   4.773   1.273   0.542
 1744SOL     OW 6130   3.076   0.700   1.487
 1744SOL    HW1 6131   3.006   0.726   1.554
 1744SOL    HW2 6132   3.159   0.672   1.534
 1745SOL     OW 6133   6.838   3.057   4.534
 1745SOL    HW1 6134   6.915   3.001   4.564
 1745SOL    HW2 6135   6.869   3.152   4.523
 1746SOL     OW 6136   2.828   0.599   5.839
 1746SOL    HW1 6137   2.920   0.612   5.877
 1746SOL    HW2 6138   2.773   0.545   5.902
 1747SOL     OW 6139   4.599   0.745   6.846
 1747SOL    HW1 6140   4.636   0.807   6.777
 1747SOL    HW2 6141   4.633   0.653   6.829
 1748SOL     OW 6142   6.233   1.739   1.827
 1748SOL    HW1 6143   6.239   1.642   1.802
 1748SOL    HW2 6144   6.289   1.793   1.765
 1749SOL     OW 6145   4.534   6.902   6.590
 1749SOL    HW1 6146   4.564   6.932   6.681
 1749SOL    HW2 6147   4.595   6.942   6.521
 1750SOL     OW 6148   5.039   0.484   3.531
 1750SOL    HW1 6149   5.023   0.443   3.441
 1750SOL    HW2 6150   4.953   0.522   3.566
 1751SOL     OW 6151   1.954   5.955   3.825
 1751SOL    HW1 6152   2.015   6.000   3.761
 1751SOL    HW2 6153   1.993   5.958   3.917
 1752SOL     OW 6154   6.609   2.478   0.427
 1752SOL    HW1 6155   6.634   2.392   0.472
 1752SOL    HW2 6156   6.522   2.511   0.464
 1753SOL     OW 6157   2.661   6.884   2.273
 1753SOL    HW1 6158   2.638   6.975   2.307
 1753SOL    HW2 6159   2.635   6.876   2.177
 1754SOL     OW 6160   3.962   2.351   1.023
 1754SOL    HW1 6161   3.958   2.345   1.122
 1754SOL    HW2 6162   3.917   2.271   0.983
 1755SOL     OW 6163   5.031   3.552   0.111
 1755SOL    HW1 6164   5.063   3.605   0.032
 1755SOL    HW2 6165   5.088   3.470   0.121
 1756SOL     OW 6166   5.817   5.527   4.692
 1756SOL    HW1 6167   5.790   5.522   4.788
 1756SOL    HW2 6168   5.852   5.619   4.672
 1757SOL     OW 6169   3.526   0.354   5.139
 1757SOL    HW1 6170   3.504   0.450   5.124
 1757SOL    HW2 6171   3.550   0.311   5.052
 1758SOL     OW 6172   2.502   1.248   3.391
 1758SOL    HW1 6173   2.574   1.296   3.440
 1758SOL    HW2 6174   2.540   1.168   3.344
 1759SOL     OW 6175   0.610   5.616   6.064
 1759SOL    HW1 6176   0.613   5.666   5.977
 1759SOL    HW2 6177   0.553   5.665   6.129
 1760SOL     OW 6178   5.558   0.601   2.243
 1760SOL    HW1 6179   5.628   0.670   2.226
 1760SOL    HW2 6180   5.601   0.518   2.278
 1761SOL     OW 6181   6.305   2.945   1.049
 1761SOL    HW1 6182   6.399   2.977   1.035
 1761SOL    HW2 6183   6.247   3.023   1.071
 1762SOL     OW 6184   6.044   2.206   0.414
 1762SOL    HW1 6185   5.963   2.242   0.460
 1762SOL    HW2 6186   6.021   2.124   0.362
 1763SOL     OW 6187   2.046   4.101   3.653
 1763SOL    HW1 6188   2.035   4.137   3.745
 1763SOL    HW2 6189   2.102   4.017   3.656
 1764SOL     OW 6190   6.420   3.169   4.330
 1764SOL    HW1 6191   6.365   3.118   4.264
 1764SOL    HW2 6192   6.462   3.106   4.394
 1765SOL     OW 6193   2.536   2.780   6.187
 1765SOL    HW1 6194   2.540   2.698   6.130
 1765SOL    HW2 6195   2.443   2.792   6.222
 1766SOL     OW 6196   6.164   3.249   5.441
 1766SOL    HW1 6197   6.176   3.252   5.540
 1766SOL    HW2 6198   6.196   3.161   5.406
 1767SOL     OW 6199   5.549   3.935   1.962
 1767SOL    HW1 6200   5.620   3.943   2.033
 1767SOL    HW2 6201   5.502   4.022   1.952
 1768SOL     OW 6202   5.740   6.231   4.044
 1768SOL    HW1 6203   5.798   6.255   4.122
 1768SOL    HW2 6204   5.693   6.313   4.011
 1769SOL     OW 6205   5.606   1.500   3.297
 1769SOL    HW1 6206   5.535   1.534   3.235
 1769SOL    HW2 6207   5.649   1.419   3.257
 1770SOL     OW 6208   3.021   5.374   5.051
 1770SOL    HW1 6209   3.028   5.473   5.049
 1770SOL    HW2 6210   3.104   5.335   5.092
 1771SOL     OW 6211   5.138   6.237   6.534
 1771SOL    HW1 6212   5.205   6.261   6.463
 1771SOL    HW2 6213   5.059   6.297   6.525
 1772SOL     OW 6214   3.554   6.331   2.644
 1772SOL    HW1 6215   3.534   6.420   2.686
 1772SOL    HW2 6216   3.481   6.307   2.581
 1773SOL     OW 6217   0.883   5.600   6.990
 1773SOL    HW1 6218   0.894   5.630   6.895
 1773SOL    HW2 6219   0.950   5.648   0.022
 1774SOL     OW 6220   3.478   4.986   2.029
 1774SOL    HW1 6221   3.521   4.896   2.028
 1774SOL    HW2 6222   3.390   4.982   1.983
 1775SOL     OW 6223   0.607   4.703   1.764
 1775SOL    HW1 6224   0.660   4.622   1.738
 1775SOL    HW2 6225   0.657   4.754   1.834
 1776SOL     OW 6226   3.418   5.573   5.005
 1776SOL    HW1 6227   3.466   5.657   5.031
 1776SOL    HW2 6228   3.332   5.567   5.057
 1777SOL     OW 6229   3.243   5.737   0.161
 1777SOL    HW1 6230   3.254   5.650   0.208
 1777SOL    HW2 6231   3.224   5.809   0.228
 1778SOL     OW 6232   6.470   3.893   5.590
 1778SOL    HW1 6233   6.459   3.969   5.655
 1778SOL    HW2 6234   6.380   3.855   5.569
 1779SOL     OW 6235   3.479   6.755   5.480
 1779SOL    HW1 6236   3.547   6.773   5.409
 1779SOL    HW2 6237   3.517   6.692   5.548
 1780SOL     OW 6238   3.161   3.618   6.455
 1780SOL    HW1 6239   3.134   3.706   6.416
 1780SOL    HW2 6240   3.080   3.569   6.487
 1781SOL     OW 6241   3.869   5.264   2.989
 1781SOL    HW1 6242   3.824   5.242   3.076
 1781SOL    HW2 6243   3.925   5.345   3.000
 1782SOL     OW 6244   3.385   1.779   4.360
 1782SOL    HW1 6245   3.332   1.702   4.325
 1782SOL    HW2 6246   3.449   1.810   4.290
 1783SOL     OW 6247   1.588   5.280   0.042
 1783SOL    HW1 6248   1.651   5.342   7.020
 1783SOL    HW2 6249   1.551   5.326   0.123
 1784SOL     OW 6250   3.405   6.489   5.258
 1784SOL    HW1 6251   3.445   6.400   5.279
 1784SOL    HW2 6252   3.352   6.521   5.338
 1785SOL     OW 6253   6.196   4.243   2.604
 1785SOL    HW1 6254   6.246   4.281   2.682
 1785SOL    HW2 6255   6.105   4.285   2.599
 1786SOL     OW 6256   3.379   2.727   1.163
 1786SOL    HW1 6257   3.290   2.739   1.206
 1786SOL    HW2 6258   3.447   2.703   1.232
 1787SOL     OW 6259   3.701   0.302   6.226
 1787SOL    HW1 6260   3.729   0.396   6.212
 1787SOL    HW2 6261   3.666   0.292   6.320
 1788SOL     OW 6262   1.818   4.629   5.643
 1788SOL    HW1 6263   1.834   4.677   5.729
 1788SOL    HW2 6264   1.885   4.556   5.632
 1789SOL     OW 6265   5.733   1.237   0.067
 1789SOL    HW1 6266   5.676   1.246   0.149
 1789SOL    HW2 6267   5.817   1.190   0.090
 1790SOL     OW 6268   3.874   6.967   3.080
 1790SOL    HW1 6269   3.805   6.969   3.008
 1790SOL    HW2 6270   3.871   0.027   3.131
 1791SOL     OW 6271   0.538   0.037   2.740
 1791SOL    HW1 6272   0.605   0.007   2.671
 1791SOL    HW2 6273   0.447   0.039   2.699
 1792SOL     OW 6274   1.086   3.334   5.730
 1792SOL    HW1 6275   1.086   3.306   5.634
 1792SOL    HW2 6276   1.116   3.258   5.787
 1793SOL     OW 6277   0.355   0.583   3.485
 1793SOL    HW1 6278   0.417   0.572   3.562
 1793SOL    HW2 6279   0.353   0.499   3.431
 1794SOL     OW 6280   4.716   5.983   6.389
 1794SOL    HW1 6281   4.749   5.927   6.465
 1794SOL    HW2 6282   4.708   5.927   6.307
 1795SOL     OW 6283   0.385   3.265   0.501
 1795SOL    HW1 6284   0.304   3.300   0.549
 1795SOL    HW2 6285   0.363   3.252   0.404
 1796SOL     OW 6286   3.356   0.208   6.583
 1796SOL    HW1 6287   3.378   0.144   6.657
 1796SOL    HW2 6288   3.268   0.182   6.542
 1797SOL     OW 6289   0.469   0.216   0.880
 1797SOL    HW1 6290   0.538   0.279   0.843
 1797SOL    HW2 6291   0.384   0.228   0.830
 1798SOL     OW 6292   5.893   2.622   3.277
 1798SOL    HW1 6293   5.868   2.718   3.262
 1798SOL    HW2 6294   5.986   2.606   3.245
 1799SOL     OW 6295   1.686   1.822   6.335
 1799SOL    HW1 6296   1.602   1.799   6.286
 1799SOL    HW2 6297   1.756   1.850   6.269
 1800SOL     OW 6298   3.853   5.316   2.339
 1800SOL    HW1 6299   3.899   5.386   2.284
 1800SOL    HW2 6300   3.922   5.260   2.385
 1801SOL     OW 6301   5.677   6.907   0.758
 1801SOL    HW1 6302   5.673   6.815   0.796
 1801SOL    HW2 6303   5.742   6.962   0.810
 1802SOL     OW 6304   5.373   5.274   3.854
 1802SOL    HW1 6305   5.437   5.246   3.783
 1802SOL    HW2 6306   5.423   5.294   3.939
 1803SOL     OW 6307   6.323   5.357   1.203
 1803SOL    HW1 6308   6.270   5.409   1.270
 1803SOL    HW2 6309   6.265   5.286   1.163
 1804SOL     OW 6310   3.354   3.195   5.240
 1804SOL    HW1 6311   3.258   3.218   5.256
 1804SOL    HW2 6312   3.406   3.209   5.324
 1805SOL     OW 6313   5.049   3.267   6.828
 1805SOL    HW1 6314   5.108   3.209   6.884
 1805SOL    HW2 6315   5.031   3.223   6.740
 1806SOL     OW 6316   0.895   6.758   1.168
 1806SOL    HW1 6317   0.872   6.687   1.235
 1806SOL    HW2 6318   0.938   6.835   1.215
 1807SOL     OW 6319   5.571   1.316   5.216
 1807SOL    HW1 6320   5.481   1.358   5.223
 1807SOL    HW2 6321   5.641   1.387   5.209
 1808SOL     OW 6322   1.624   4.680   3.860
 1808SOL    HW1 6323   1.627   4.660   3.958
 1808SOL    HW2 6324   1.556   4.622   3.816
 1809SOL     OW 6325   3.379   6.809   6.300
 1809SOL    HW1 6326   3.459   6.855   6.339
 1809SOL    HW2 6327   3.337   6.751   6.369
 1810SOL     OW 6328   3.246   6.140   2.896
 1810SOL    HW1 6329   3.338   6.175   2.915
 1810SOL    HW2 6330   3.253   6.066   2.829
 1811SOL     OW 6331   6.010   5.300   3.152
 1811SOL    HW1 6332   6.091   5.352   3.127
 1811SOL    HW2 6333   5.954   5.354   3.215
 1812SOL     OW 6334   3.980   5.254   6.347
 1812SOL    HW1 6335   3.920   5.191   6.296
 1812SOL    HW2 6336   3.941   5.270   6.437
 1813SOL     OW 6337   6.233   4.620   5.839
 1813SOL    HW1 6338   6.205   4.639   5.744
 1813SOL    HW2 6339   6.162   4.565   5.884
 1814SOL     OW 6340   4.986   6.914   1.885
 1814SOL    HW1 6341   5.060   6.867   1.933
 1814SOL    HW2 6342   5.002   7.013   1.889
 1815SOL     OW 6343   0.563   0.930   2.815
 1815SOL    HW1 6344   0.586   0.869   2.890
 1815SOL    HW2 6345   0.523   1.014   2.851
 1816SOL     OW 6346   0.768   4.435   0.046
 1816SOL    HW1 6347   0.761   4.335   0.055
 1816SOL    HW2 6348   0.690   4.478   0.090
 1817SOL     OW 6349   1.929   5.889   1.991
 1817SOL    HW1 6350   1.875   5.805   1.982
 1817SOL    HW2 6351   1.934   5.935   1.902
 1818SOL     OW 6352   2.317   1.214   3.146
 1818SOL    HW1 6353   2.330   1.280   3.219
 1818SOL    HW2 6354   2.342   1.123   3.179
 1819SOL     OW 6355   1.598   4.431   1.988
 1819SOL    HW1 6356   1.662   4.457   1.916
 1819SOL    HW2 6357   1.570   4.512   2.040
 1820SOL     OW 6358   5.300   0.018   2.774
 1820SOL    HW1 6359   5.288   6.951   2.810
 1820SOL    HW2 6360   5.210   0.059   2.759
 1821SOL     OW 6361   2.722   2.084   3.011
 1821SOL    HW1 6362   2.754   2.005   2.959
 1821SOL    HW2 6363   2.740   2.071   3.108
 1822SOL     OW 6364   3.551   3.327   1.572
 1822SOL    HW1 6365   3.546   3.281   1.660
 1822SOL    HW2 6366   3.542   3.259   1.499
 1823SOL     OW 6367   3.901   6.865   2.679
 1823SOL    HW1 6368   3.987   6.815   2.669
 1823SOL    HW2 6369   3.851   6.863   2.593
 1824SOL     OW 6370   5.311   2.802   1.498
 1824SOL    HW1 6371   5.291   2.806   1.400
 1824SOL    HW2 6372   5.239   2.750   1.545
 1825SOL     OW 6373   1.105   0.619   1.269
 1825SOL    HW1 6374   1.199   0.637   1.241
 1825SOL    HW2 6375   1.102   0.611   1.369
 1826SOL     OW 6376   3.114   6.564   6.745
 1826SOL    HW1 6377   3.017   6.584   6.736
 1826SOL    HW2 6378   3.130   6.466   6.731
 1827SOL     OW 6379   6.458   6.807   1.626
 1827SOL    HW1 6380   6.435   6.754   1.545
 1827SOL    HW2 6381   6.374   6.836   1.672
 1828SOL     OW 6382   1.865   2.039   0.137
 1828SOL    HW1 6383   1.788   2.071   0.192
 1828SOL    HW2 6384   1.926   1.983   0.194
 1829SOL     OW 6385   6.295   5.696   1.234
 1829SOL    HW1 6386   6.368   5.724   1.296
 1829SOL    HW2 6387   6.243   5.621   1.274
 1830SOL     OW 6388   5.173   6.113   3.742
 1830SOL    HW1 6389   5.211   6.178   3.676
 1830SOL    HW2 6390   5.095   6.154   3.788
 1831SOL     OW 6391   4.738   0.531   2.921
 1831SOL    HW1 6392   4.831   0.558   2.897
 1831SOL    HW2 6393   4.699   0.598   2.984
 1832SOL     OW 6394   5.342   2.834   0.556
 1832SOL    HW1 6395   5.296   2.751   0.525
 1832SOL    HW2 6396   5.438   2.830   0.528
 1833SOL     OW 6397   5.769   1.902   5.856
 1833SOL    HW1 6398   5.826   1.875   5.934
 1833SOL    HW2 6399   5.701   1.830   5.839
 1834SOL     OW 6400   2.757   3.475   0.683
 1834SOL    HW1 6401   2.788   3.562   0.721
 1834SOL    HW2 6402   2.794   3.399   0.737
 1835SOL     OW 6403   1.445   4.485   0.292
 1835SOL    HW1 6404   1.543   4.473   0.275
 1835SOL    HW2 6405   1.424   4.583   0.299
 1836SOL     OW 6406   0.484   5.833   0.917
 1836SOL    HW1 6407   0.462   5.893   0.840
 1836SOL    HW2 6408   0.563   5.870   0.966
 1837SOL     OW 6409   1.535   2.783   4.965
 1837SOL    HW1 6410   1.589   2.809   5.045
 1837SOL    HW2 6411   1.496   2.866   4.923
 1838SOL     OW 6412   6.712   2.633   4.430
 1838SOL    HW1 6413   6.791   2.657   4.487
 1838SOL    HW2 6414   6.665   2.554   4.470
 1839SOL     OW 6415   6.907   2.172   5.896
 1839SOL    HW1 6416   6.832   2.180   5.962
 1839SOL    HW2 6417   6.876   2.205   5.806
 1840SOL     OW 6418   1.513   4.883   1.173
 1840SOL    HW1 6419   1.462   4.904   1.256
 1840SOL    HW2 6420   1.610   4.875   1.194
 1841SOL     OW 6421   1.645   2.550   3.818
 1841SOL    HW1 6422   1.714   2.481   3.796
 1841SOL    HW2 6423   1.649   2.624   3.751
 1842SOL     OW 6424   1.057   4.553   0.044
 1842SOL    HW1 6425   0.962   4.527   0.031
 1842SOL    HW2 6426   1.116   4.475   0.021
 1843SOL     OW 6427   3.289   1.892   4.732
 1843SOL    HW1 6428   3.317   1.888   4.828
 1843SOL    HW2 6429   3.232   1.813   4.710
 1844SOL     OW 6430   5.160   3.436   4.085
 1844SOL    HW1 6431   5.078   3.472   4.039
 1844SOL    HW2 6432   5.176   3.488   4.169
 1845SOL     OW 6433   4.443   0.613   0.262
 1845SOL    HW1 6434   4.436   0.649   0.169
 1845SOL    HW2 6435   4.511   0.666   0.313
 1846SOL     OW 6436   3.104   1.581   5.441
 1846SOL    HW1 6437   3.191   1.532   5.437
 1846SOL    HW2 6438   3.120   1.674   5.476
 1847SOL     OW 6439   1.211   6.998   0.367
 1847SOL    HW1 6440   1.229   0.070   0.352
 1847SOL    HW2 6441   1.157   6.987   0.451
 1848SOL     OW 6442   3.324   6.681   2.158
 1848SOL    HW1 6443   3.246   6.626   2.127
 1848SOL    HW2 6444   3.293   6.748   2.225
 1849SOL     OW 6445   2.531   1.202   6.131
 1849SOL    HW1 6446   2.458   1.144   6.164
 1849SOL    HW2 6447   2.497   1.295   6.117
 1850SOL     OW 6448   5.775   1.664   1.989
 1850SOL    HW1 6449   5.850   1.717   1.951
 1850SOL    HW2 6450   5.702   1.726   2.020
 1851SOL     OW 6451   6.755   3.002   2.884
 1851SOL    HW1 6452   6.791   2.990   2.792
 1851SOL    HW2 6453   6.764   2.917   2.936
 1852SOL     OW 6454   5.499   2.978   6.929
 1852SOL    HW1 6455   5.500   3.072   6.897
 1852SOL    HW2 6456   5.568   2.925   6.880
 1853SOL     OW 6457   1.794   4.516   0.541
 1853SOL    HW1 6458   1.840   4.594   0.583
 1853SOL    HW2 6459   1.698   4.514   0.570
 1854SOL     OW 6460   3.152   6.058   3.971
 1854SOL    HW1 6461   3.147   5.963   4.002
 1854SOL    HW2 6462   3.061   6.100   3.976
 1855SOL     OW 6463   4.808   4.765   2.130
 1855SOL    HW1 6464   4.822   4.694   2.199
 1855SOL    HW2 6465   4.861   4.846   2.153
 1856SOL     OW 6466   4.893   2.543   5.554
 1856SOL    HW1 6467   4.902   2.459   5.502
 1856SOL    HW2 6468   4.804   2.585   5.536
 1857SOL     OW 6469   4.666   1.221   3.124
 1857SOL    HW1 6470   4.745   1.160   3.127
 1857SOL    HW2 6471   4.654   1.264   3.214
 1858SOL     OW 6472   5.152   4.155   3.809
 1858SOL    HW1 6473   5.106   4.241   3.831
 1858SOL    HW2 6474   5.245   4.157   3.846
 1859SOL     OW 6475   5.479   1.678   3.133
 1859SOL    HW1 6476   5.434   1.655   3.047
 1859SOL    HW2 6477   5.450   1.769   3.162
 1860SOL     OW 6478   4.567   1.568   4.917
 1860SOL    HW1 6479   4.471   1.566   4.887
 1860SOL    HW2 6480   4.607   1.657   4.893
 1861SOL     OW 6481   5.753   6.637   2.476
 1861SOL    HW1 6482   5.829   6.595   2.525
 1861SOL    HW2 6483   5.768   6.628   2.377
 1862SOL     OW 6484   2.115   1.922   0.247
 1862SOL    HW1 6485   2.161   2.010   0.238
 1862SOL    HW2 6486   2.184   1.849   0.249
 1863SOL     OW 6487   2.668   3.223   1.629
 1863SOL    HW1 6488   2.739   3.157   1.655
 1863SOL    HW2 6489   2.607   3.182   1.561
 1864SOL     OW 6490   1.204   6.526   3.973
 1864SOL    HW1 6491   1.296   6.502   4.002
 1864SOL    HW2 6492   1.203   6.619   3.937
 1865SOL     OW 6493   4.655   2.104   6.593
 1865SOL    HW1 6494   4.589   2.042   6.635
 1865SOL    HW2 6495   4.694   2.061   6.512
 1866SOL     OW 6496   4.960   5.211   2.658
 1866SOL    HW1 6497   4.986   5.306   2.640
 1866SOL    HW2 6498   5.037   5.151   2.639
 1867SOL     OW 6499   1.077   4.265   6.758
 1867SOL    HW1 6500   1.108   4.172   6.779
 1867SOL    HW2 6501   1.061   4.272   6.659
 1868SOL     OW 6502   6.106   3.870   4.940
 1868SOL    HW1 6503   6.030   3.848   4.879
 1868SOL    HW2 6504   6.113   3.802   5.012
 1869SOL     OW 6505   6.159   1.417   4.642
 1869SOL    HW1 6506   6.101   1.364   4.705
 1869SOL    HW2 6507   6.237   1.454   4.692
 1870SOL     OW 6508   1.995   4.915   4.568
 1870SOL    HW1 6509   1.936   4.960   4.500
 1870SOL    HW2 6510   2.084   4.896   4.527
 1871SOL     OW 6511   1.218   0.370   0.683
 1871SOL    HW1 6512   1.155   0.370   0.760
 1871SOL    HW2 6513   1.241   0.464   0.658
 1872SOL     OW 6514   2.418   4.704   0.455
 1872SOL    HW1 6515   2.473   4.628   0.490
 1872SOL    HW2 6516   2.321   4.680   0.460
 1873SOL     OW 6517   4.451   1.780   0.133
 1873SOL    HW1 6518   4.528   1.736   0.178
 1873SOL    HW2 6519   4.422   1.724   0.055
 1874SOL     OW 6520   0.904   2.948   2.482
 1874SOL    HW1 6521   0.984   2.888   2.479
 1874SOL    HW2 6522   0.826   2.902   2.441
 1875SOL     OW 6523   0.996   6.725   0.325
 1875SOL    HW1 6524   0.994   6.823   0.349
 1875SOL    HW2 6525   1.078   6.684   0.364
 1876SOL     OW 6526   2.088   6.942   4.611
 1876SOL    HW1 6527   2.029   6.862   4.616
 1876SOL    HW2 6528   2.084   6.991   4.698
 1877SOL     OW 6529   0.650   6.577   3.374
 1877SOL    HW1 6530   0.660   6.598   3.277
 1877SOL    HW2 6531   0.555   6.591   3.401
 1878SOL     OW 6532   5.928   2.721   5.770
 1878SOL    HW1 6533   5.907   2.793   5.704
 1878SOL    HW2 6534   6.027   2.704   5.770
 1879SOL     OW 6535   1.351   4.545   5.443
 1879SOL    HW1 6536   1.394   4.456   5.426
 1879SOL    HW2 6537   1.420   4.609   5.476
 1880SOL     OW 6538   6.123   0.742   5.461
 1880SOL    HW1 6539   6.066   0.665   5.434
 1880SOL    HW2 6540   6.129   0.808   5.386
 1881SOL     OW 6541   6.846   2.484   6.822
 1881SOL    HW1 6542   6.847   2.451   6.916
 1881SOL    HW2 6543   6.936   2.521   6.798
 1882SOL     OW 6544   0.948   5.516   6.260
 1882SOL    HW1 6545   0.892   5.461   6.322
 1882SOL    HW2 6546   0.920   5.497   6.165
 1883SOL     OW 6547   6.988   1.920   4.124
 1883SOL    HW1 6548   0.020   1.888   4.200
 1883SOL    HW2 6549   6.897   1.881   4.132
 1884SOL     OW 6550   6.919   3.091   1.528
 1884SOL    HW1 6551   6.890   3.000   1.558
 1884SOL    HW2 6552   6.850   3.158   1.553
 1885SOL     OW 6553   1.796   1.871   4.435
 1885SOL    HW1 6554   1.799   1.939   4.508
 1885SOL    HW2 6555   1.788   1.780   4.474
 1886SOL     OW 6556   1.301   6.989   3.464
 1886SOL    HW1 6557   1.363   6.943   3.401
 1886SOL    HW2 6558   1.326   0.060   3.471
 1887SOL     OW 6559   1.785   6.664   5.765
 1887SOL    HW1 6560   1.724   6.700   5.694
 1887SOL    HW2 6561   1.733   6.648   5.849
 1888SOL     OW 6562   2.596   1.050   2.532
 1888SOL    HW1 6563   2.560   0.963   2.497
 1888SOL    HW2 6564   2.591   1.120   2.461
 1889SOL     OW 6565   0.226   3.333   3.342
 1889SOL    HW1 6566   0.182   3.262   3.397
 1889SOL    HW2 6567   0.287   3.291   3.275
 1890SOL     OW 6568   0.742   5.786   3.976
 1890SOL    HW1 6569   0.644   5.798   3.997
 1890SOL    HW2 6570   0.756   5.699   3.930
 1891SOL     OW 6571   3.807   3.341   3.402
 1891SOL    HW1 6572   3.904   3.331   3.422
 1891SOL    HW2 6573   3.784   3.291   3.319
 1892SOL     OW 6574   0.756   0.797   2.528
 1892SOL    HW1 6575   0.692   0.757   2.594
 1892SOL    HW2 6576   0.713   0.875   2.482
 1893SOL     OW 6577   3.718   3.295   4.495
 1893SOL    HW1 6578   3.777   3.222   4.460
 1893SOL    HW2 6579   3.767   3.346   4.566
 1894SOL     OW 6580   2.990   3.209   4.128
 1894SOL    HW1 6581   2.973   3.199   4.226
 1894SOL    HW2 6582   3.049   3.134   4.097
 1895SOL     OW 6583   2.118   5.998   6.796
 1895SOL    HW1 6584   2.118   5.898   6.791
 1895SOL    HW2 6585   2.050   6.034   6.732
 1896SOL     OW 6586   5.461   2.623   1.083
 1896SOL    HW1 6587   5.536   2.607   1.146
 1896SOL    HW2 6588   5.479   2.706   1.030
 1897SOL     OW 6589   1.641   4.436   4.475
 1897SOL    HW1 6590   1.623   4.394   4.565
 1897SOL    HW2 6591   1.622   4.370   4.403
 1898SOL     OW 6592   1.538   6.301   3.692
 1898SOL    HW1 6593   1.546   6.305   3.791
 1898SOL    HW2 6594   1.614   6.349   3.650
 1899SOL     OW 6595   0.441   0.712   2.324
 1899SOL    HW1 6596   0.468   0.805   2.299
 1899SOL    HW2 6597   0.408   0.711   2.418
 1900SOL     OW 6598   2.412   6.904   0.133
 1900SOL    HW1 6599   2.323   6.888   0.089
 1900SOL    HW2 6600   2.417   6.849   0.216
 1901SOL     OW 6601   2.822   3.566   1.186
 1901SOL    HW1 6602   2.918   3.551   1.212
 1901SOL    HW2 6603   2.819   3.629   1.109
 1902SOL     OW 6604   1.246   6.957   4.117
 1902SOL    HW1 6605   1.200   7.012   4.047
 1902SOL    HW2 6606   1.180   6.897   4.161
 1903SOL     OW 6607   1.061   2.518   4.168
 1903SOL    HW1 6608   1.144   2.500   4.116
 1903SOL    HW2 6609   1.081   2.514   4.266
 1904SOL     OW 6610   5.779   5.400   1.520
 1904SOL    HW1 6611   5.696   5.454   1.507
 1904SOL    HW2 6612   5.851   5.434   1.460
 1905SOL     OW 6613   0.400   1.211   4.136
 1905SOL    HW1 6614   0.388   1.167   4.224
 1905SOL    HW2 6615   0.453   1.295   4.147
 1906SOL     OW 6616   1.668   6.969   5.416
 1906SOL    HW1 6617   1.722   6.962   5.500
 1906SOL    HW2 6618   1.695   0.026   5.366
 1907SOL     OW 6619   5.679   2.615   0.552
 1907SOL    HW1 6620   5.596   2.600   0.606
 1907SOL    HW2 6621   5.759   2.609   0.613
 1908SOL     OW 6622   3.073   1.276   1.059
 1908SOL    HW1 6623   3.057   1.213   1.135
 1908SOL    HW2 6624   3.169   1.271   1.031
 1909SOL     OW 6625   6.632   5.020   4.920
 1909SOL    HW1 6626   6.689   5.086   4.871
 1909SOL    HW2 6627   6.678   4.931   4.921
 1910SOL     OW 6628   0.111   6.163   5.305
 1910SOL    HW1 6629   0.186   6.169   5.371
 1910SOL    HW2 6630   0.146   6.128   5.218
 1911SOL     OW 6631   6.719   5.282   4.066
 1911SOL    HW1 6632   6.663   5.357   4.031
 1911SOL    HW2 6633   6.706   5.273   4.164
 1912SOL     OW 6634   3.209   5.123   1.769
 1912SOL    HW1 6635   3.231   5.059   1.843
 1912SOL    HW2 6636   3.286   5.185   1.755
 1913SOL     OW 6637   3.719   4.216   6.636
 1913SOL    HW1 6638   3.694   4.294   6.579
 1913SOL    HW2 6639   3.704   4.131   6.585
 1914SOL     OW 6640   3.008   4.650   6.439
 1914SOL    HW1 6641   3.017   4.714   6.363
 1914SOL    HW2 6642   3.087   4.589   6.441
 1915SOL     OW 6643   3.945   2.585   5.532
 1915SOL    HW1 6644   4.026   2.616   5.581
 1915SOL    HW2 6645   3.892   2.522   5.590
 1916SOL     OW 6646   3.968   1.022   2.565
 1916SOL    HW1 6647   3.868   1.023   2.559
 1916SOL    HW2 6648   4.006   1.075   2.489
 1917SOL     OW 6649   2.122   4.235   1.493
 1917SOL    HW1 6650   2.199   4.173   1.512
 1917SOL    HW2 6651   2.058   4.191   1.431
 1918SOL     OW 6652   5.825   2.354   3.696
 1918SOL    HW1 6653   5.781   2.384   3.611
 1918SOL    HW2 6654   5.773   2.386   3.775
 1919SOL     OW 6655   6.634   2.519   0.158
 1919SOL    HW1 6656   6.623   2.500   0.255
 1919SOL    HW2 6657   6.595   2.609   0.137
 1920SOL     OW 6658   4.692   2.909   1.226
 1920SOL    HW1 6659   4.708   2.824   1.176
 1920SOL    HW2 6660   4.754   2.980   1.192
 1921SOL     OW 6661   2.390   2.720   0.119
 1921SOL    HW1 6662   2.305   2.669   0.136
 1921SOL    HW2 6663   2.388   2.757   0.026
 1922SOL     OW 6664   3.249   2.915   2.655
 1922SOL    HW1 6665   3.230   3.000   2.606
 1922SOL    HW2 6666   3.165   2.861   2.661
 1923SOL     OW 6667   4.203   0.833   4.559
 1923SOL    HW1 6668   4.125   0.784   4.599
 1923SOL    HW2 6669   4.191   0.931   4.576
 1924SOL     OW 6670   4.436   1.004   6.663
 1924SOL    HW1 6671   4.373   1.039   6.732
 1924SOL    HW2 6672   4.530   1.025   6.690
 1925SOL     OW 6673   1.490   3.503   1.368
 1925SOL    HW1 6674   1.443   3.589   1.392
 1925SOL    HW2 6675   1.514   3.506   1.271
 1926SOL     OW 6676   4.000   0.309   1.616
 1926SOL    HW1 6677   3.978   0.401   1.583
 1926SOL    HW2 6678   4.099   0.295   1.612
 1927SOL     OW 6679   2.235   5.038   1.426
 1927SOL    HW1 6680   2.334   5.031   1.424
 1927SOL    HW2 6681   2.195   4.974   1.361
 1928SOL     OW 6682   5.122   4.484   3.171
 1928SOL    HW1 6683   5.077   4.400   3.141
 1928SOL    HW2 6684   5.134   4.545   3.092
 1929SOL     OW 6685   3.168   6.981   2.966
 1929SOL    HW1 6686   3.234   0.030   2.974
 1929SOL    HW2 6687   3.187   6.911   3.034
 1930SOL     OW 6688   4.091   3.430   6.905
 1930SOL    HW1 6689   4.028   3.458   6.977
 1930SOL    HW2 6690   4.181   3.470   6.922
 1931SOL     OW 6691   6.691   2.055   4.486
 1931SOL    HW1 6692   6.787   2.074   4.506
 1931SOL    HW2 6693   6.633   2.097   4.556
 1932SOL     OW 6694   4.748   2.302   2.117
 1932SOL    HW1 6695   4.772   2.363   2.042
 1932SOL    HW2 6696   4.653   2.319   2.145
 1933SOL     OW 6697   0.957   0.830   1.202
 1933SOL    HW1 6698   0.987   0.740   1.233
 1933SOL    HW2 6699   0.865   0.849   1.235
 1934SOL     OW 6700   6.983   0.522   0.044
 1934SOL    HW1 6701   6.912   0.542   7.002
 1934SOL    HW2 6702   6.967   0.432   0.083
 1935SOL     OW 6703   6.618   5.067   3.791
 1935SOL    HW1 6704   6.658   5.075   3.882
 1935SOL    HW2 6705   6.559   5.146   3.774
 1936SOL     OW 6706   4.439   2.554   5.873
 1936SOL    HW1 6707   4.471   2.598   5.790
 1936SOL    HW2 6708   4.498   2.580   5.950
 1937SOL     OW 6709   6.120   5.124   6.653
 1937SOL    HW1 6710   6.136   5.180   6.734
 1937SOL    HW2 6711   6.025   5.134   6.624
 1938SOL     OW 6712   6.821   2.876   6.742
 1938SOL    HW1 6713   6.871   2.831   6.668
 1938SOL    HW2 6714   6.741   2.923   6.704
 1939SOL     OW 6715   1.254   0.736   4.742
 1939SOL    HW1 6716   1.219   0.797   4.812
 1939SOL    HW2 6717   1.184   0.671   4.716
 1940SOL     OW 6718   0.197   5.206   0.810
 1940SOL    HW1 6719   0.206   5.132   0.876
 1940SOL    HW2 6720   0.204   5.294   0.857
 1941SOL     OW 6721   5.337   1.279   4.560
 1941SOL    HW1 6722   5.354   1.183   4.537
 1941SOL    HW2 6723   5.424   1.328   4.563
 1942SOL     OW 6724   6.243   3.967   2.683
 1942SOL    HW1 6725   6.208   4.060   2.679
 1942SOL    HW2 6726   6.330   3.961   2.635
 1943SOL     OW 6727   0.951   2.293   3.260
 1943SOL    HW1 6728   1.046   2.319   3.243
 1943SOL    HW2 6729   0.892   2.374   3.250
 1944SOL     OW 6730   0.317   2.742   3.769
 1944SOL    HW1 6731   0.246   2.700   3.714
 1944SOL    HW2 6732   0.325   2.693   3.856
 1945SOL     OW 6733   4.836   1.410   1.868
 1945SOL    HW1 6734   4.812   1.506   1.853
 1945SOL    HW2 6735   4.776   1.371   1.938
 1946SOL     OW 6736   6.595   6.072   0.901
 1946SOL    HW1 6737   6.510   6.125   0.889
 1946SOL    HW2 6738   6.632   6.049   0.811
 1947SOL     OW 6739   6.324   4.789   3.532
 1947SOL    HW1 6740   6.404   4.849   3.533
 1947SOL    HW2 6741   6.242   4.841   3.553
 1948SOL     OW 6742   5.356   3.517   3.833
 1948SOL    HW1 6743   5.326   3.453   3.903
 1948SOL    HW2 6744   5.277   3.560   3.790
 1949SOL     OW 6745   3.342   4.866   6.708
 1949SOL    HW1 6746   3.373   4.949   6.754
 1949SOL    HW2 6747   3.419   4.821   6.664
 1950SOL     OW 6748   3.600   3.830   3.243
 1950SOL    HW1 6749   3.699   3.820   3.232
 1950SOL    HW2 6750   3.564   3.754   3.297
 1951SOL     OW 6751   5.948   4.995   5.862
 1951SOL    HW1 6752   5.985   5.056   5.792
 1951SOL    HW2 6753   6.008   4.994   5.941
 1952SOL     OW 6754   6.106   5.840   0.020
 1952SOL    HW1 6755   6.043   5.910   7.010
 1952SOL    HW2 6756   6.153   5.796   6.970
 1953SOL     OW 6757   0.733   1.052   6.815
 1953SOL    HW1 6758   0.649   1.011   6.779
 1953SOL    HW2 6759   0.812   1.004   6.777
 1954SOL     OW 6760   4.739   6.768   1.808
 1954SOL    HW1 6761   4.833   6.802   1.815
 1954SOL    HW2 6762   4.681   6.816   1.874
 1955SOL     OW 6763   0.102   2.304   3.943
 1955SOL    HW1 6764   0.086   2.262   3.854
 1955SOL    HW2 6765   0.021   2.294   4.000
 1956SOL     OW 6766   5.247   0.573   1.875
 1956SOL    HW1 6767   5.322   0.508   1.883
 1956SOL    HW2 6768   5.282   0.661   1.844
 1957SOL     OW 6769   6.740   2.447   4.222
 1957SOL    HW1 6770   6.705   2.353   4.229
 1957SOL    HW2 6771   6.699   2.503   4.293
 1958SOL     OW 6772   4.209   1.680   0.699
 1958SOL    HW1 6773   4.209   1.636   0.788
 1958SOL    HW2 6774   4.116   1.706   0.673
 1959SOL     OW 6775   1.010   1.979   5.427
 1959SOL    HW1 6776   1.106   1.968   5.401
 1959SOL    HW2 6777   0.959   1.897   5.400
 1960SOL     OW 6778   5.723   4.584   4.265
 1960SOL    HW1 6779   5.781   4.567   4.185
 1960SOL    HW2 6780   5.653   4.513   4.271
 1961SOL     OW 6781   0.316   3.705   3.648
 1961SOL    HW1 6782   0.385   3.776   3.636
 1961SOL    HW2 6783   0.343   3.624   3.595
 1962SOL     OW 6784   0.934   0.465   2.773
 1962SOL    HW1 6785   0.876   0.527   2.825
 1962SOL    HW2 6786   0.914   0.370   2.800
 1963SOL     OW 6787   0.373   2.746   0.013
 1963SOL    HW1 6788   0.282   2.711   7.018
 1963SOL    HW2 6789   0.433   2.670   0.040
 1964SOL     OW 6790   5.413   3.712   0.667
 1964SOL    HW1 6791   5.358   3.673   0.593
 1964SOL    HW2 6792   5.441   3.804   0.642
 1965SOL     OW 6793   5.979   4.480   3.831
 1965SOL    HW1 6794   5.881   4.476   3.810
 1965SOL    HW2 6795   6.011   4.574   3.819
 1966SOL     OW 6796   1.151   4.301   0.006
 1966SOL    HW1 6797   1.115   4.318   6.940
 1966SOL    HW2 6798   1.236   4.250   7.025
 1967SOL     OW 6799   6.228   3.243   4.530
 1967SOL    HW1 6800   6.276   3.195   4.457
 1967SOL    HW2 6801   6.194   3.177   4.596
 1968SOL     OW 6802   2.752   2.002   4.980
 1968SOL    HW1 6803   2.849   1.994   4.957
 1968SOL    HW2 6804   2.702   2.038   4.901
 1969SOL     OW 6805   1.498   6.195   0.913
 1969SOL    HW1 6806   1.490   6.290   0.884
 1969SOL    HW2 6807   1.586   6.181   0.958
 1970SOL     OW 6808   5.397   5.502   4.358
 1970SOL    HW1 6809   5.457   5.422   4.352
 1970SOL    HW2 6810   5.407   5.546   4.447
 1971SOL     OW 6811   1.564   5.301   5.187
 1971SOL    HW1 6812   1.562   5.401   5.189
 1971SOL    HW2 6813   1.504   5.269   5.114
 1972SOL     OW 6814   5.866   2.572   2.743
 1972SOL    HW1 6815   5.897   2.518   2.665
 1972SOL    HW2 6816   5.776   2.609   2.724
 1973SOL     OW 6817   3.050   2.548   1.090
 1973SOL    HW1 6818   3.108   2.467   1.103
 1973SOL    HW2 6819   3.046   2.601   1.175
 1974SOL     OW 6820   2.563   6.193   4.821
 1974SOL    HW1 6821   2.494   6.255   4.859
 1974SOL    HW2 6822   2.651   6.212   4.864
 1975SOL     OW 6823   2.177   2.629   3.497
 1975SOL    HW1 6824   2.255   2.647   3.437
 1975SOL    HW2 6825   2.092   2.657   3.451
 1976SOL     OW 6826   0.817   0.718   5.596
 1976SOL    HW1 6827   0.801   0.700   5.693
 1976SOL    HW2 6828   0.915   0.726   5.579
 1977SOL     OW 6829   1.929   4.445   6.183
 1977SOL    HW1 6830   1.947   4.410   6.275
 1977SOL    HW2 6831   1.949   4.543   6.180
 1978SOL     OW 6832   3.059   6.942   1.948
 1978SOL    HW1 6833   2.970   6.975   1.981
 1978SOL    HW2 6834   3.104   7.015   1.896
 1979SOL     OW 6835   6.156   4.102   6.090
 1979SOL    HW1 6836   6.167   4.066   5.997
 1979SOL    HW2 6837   6.060   4.125   6.106
 1980SOL     OW 6838   3.698   0.884   0.869
 1980SOL    HW1 6839   3.769   0.814   0.862
 1980SOL    HW2 6840   3.635   0.862   0.944
 1981SOL     OW 6841   3.859   2.131   2.702
 1981SOL    HW1 6842   3.759   2.129   2.706
 1981SOL    HW2 6843   3.888   2.145   2.607
 1982SOL     OW 6844   0.989   2.870   5.645
 1982SOL    HW1 6845   0.943   2.950   5.683
 1982SOL    HW2 6846   0.925   2.793   5.642
 1983SOL     OW 6847   0.688   0.887   2.079
 1983SOL    HW1 6848   0.600   0.898   2.125
 1983SOL    HW2 6849   0.748   0.830   2.136
 1984SOL     OW 6850   4.613   3.203   5.763
 1984SOL    HW1 6851   4.661   3.182   5.849
 1984SOL    HW2 6852   4.636   3.296   5.734
 1985SOL     OW 6853   6.387   3.181   3.204
 1985SOL    HW1 6854   6.321   3.235   3.255
 1985SOL    HW2 6855   6.376   3.084   3.227
 1986SOL     OW 6856   2.925   3.249   2.287
 1986SOL    HW1 6857   2.908   3.328   2.228
 1986SOL    HW2 6858   2.846   3.188   2.286
 1987SOL     OW 6859   2.198   1.203   1.042
 1987SOL    HW1 6860   2.117   1.203   0.983
 1987SOL    HW2 6861   2.174   1.239   1.132
 1988SOL     OW 6862   0.635   1.890   1.687
 1988SOL    HW1 6863   0.707   1.852   1.745
 1988SOL    HW2 6864   0.657   1.986   1.667
 1989SOL     OW 6865   2.774   5.185   4.795
 1989SOL    HW1 6866   2.834   5.265   4.804
 1989SOL    HW2 6867   2.827   5.108   4.760
 1990SOL     OW 6868   4.133   0.336   0.017
 1990SOL    HW1 6869   4.157   0.240   0.005
 1990SOL    HW2 6870   4.158   0.366   0.109
 1991SOL     OW 6871   2.567   5.601   1.564
 1991SOL    HW1 6872   2.490   5.545   1.535
 1991SOL    HW2 6873   2.570   5.685   1.510
 1992SOL     OW 6874   0.925   6.575   2.637
 1992SOL    HW1 6875   0.977   6.583   2.552
 1992SOL    HW2 6876   0.831   6.546   2.616
 1993SOL     OW 6877   2.363   2.075   3.090
 1993SOL    HW1 6878   2.267   2.059   3.114
 1993SOL    HW2 6879   2.369   2.114   2.999
 1994SOL     OW 6880   3.892   2.626   0.688
 1994SOL    HW1 6881   3.891   2.579   0.600
 1994SOL    HW2 6882   3.817   2.591   0.745
 1995SOL     OW 6883   5.532   1.797   3.694
 1995SOL    HW1 6884   5.561   1.769   3.786
 1995SOL    HW2 6885   5.531   1.718   3.633
 1996SOL     OW 6886   4.532   0.673   1.110
 1996SOL    HW1 6887   4.535   0.770   1.087
 1996SOL    HW2 6888   4.440   0.637   1.094
 1997SOL     OW 6889   3.542   1.279   4.148
 1997SOL    HW1 6890   3.516   1.347   4.079
 1997SOL    HW2 6891   3.642   1.269   4.148
 1998SOL     OW 6892   2.341   3.909   1.812
 1998SOL    HW1 6893   2.289   3.882   1.894
 1998SOL    HW2 6894   2.296   3.987   1.769
 1999SOL     OW 6895   0.530   0.150   0.088
 1999SOL    HW1 6896   0.473   0.069   0.101
 1999SOL    HW2 6897   0.569   0.179   0.175
 2000SOL     OW 6898   4.314   4.536   5.778
 2000SOL    HW1 6899   4.293   4.592   5.859
 2000SOL    HW2 6900   4.404   4.494   5.790
 2001SOL     OW 6901   2.190   2.233   1.314
 2001SOL    HW1 6902   2.113   2.286   1.349
 2001SOL    HW2 6903   2.224   2.171   1.385
 2002SOL     OW 6904   6.901   5.685   0.809
 2002SOL    HW1 6905   6.881   5.594   0.773
 2002SOL    HW2 6906   6.848   5.754   0.759
 2003SOL     OW 6907   5.638   5.237   2.347
 2003SOL    HW1 6908   5.611   5.322   2.302
 2003SOL    HW2 6909   5.694   5.183   2.284
 2004SOL     OW 6910   3.519   6.729   3.092
 2004SOL    HW1 6911   3.525   6.633   3.119
 2004SOL    HW2 6912   3.592   6.750   3.027
 2005SOL     OW 6913   1.587   6.158   0.196
 2005SOL    HW1 6914   1.620   6.231   0.137
 2005SOL    HW2 6915   1.653   6.143   0.270
 2006SOL     OW 6916   5.593   6.348   2.053
 2006SOL    HW1 6917   5.529   6.403   2.106
 2006SOL    HW2 6918   5.681   6.344   2.101
 2007SOL     OW 6919   5.293   4.871   6.600
 2007SOL    HW1 6920   5.239   4.790   6.623
 2007SOL    HW2 6921   5.352   4.850   6.522
 2008SOL     OW 6922   2.086   3.479   3.237
 2008SOL    HW1 6923   2.147   3.438   3.170
 2008SOL    HW2 6924   1.999   3.429   3.238
 2009SOL     OW 6925   6.132   6.777   2.603
 2009SOL    HW1 6926   6.087   6.717   2.538
 2009SOL    HW2 6927   6.209   6.729   2.645
 2010SOL     OW 6928   7.012   1.871   1.962
 2010SOL    HW1 6929   6.919   1.906   1.948
 2010SOL    HW2 6930   0.040   1.883   1.878
 2011SOL     OW 6931   0.687   0.137   4.600
 2011SOL    HW1 6932   0.723   0.056   4.645
 2011SOL    HW2 6933   0.714   0.137   4.503
 2012SOL     OW 6934   0.780   3.089   1.269
 2012SOL    HW1 6935   0.741   3.152   1.335
 2012SOL    HW2 6936   0.879   3.103   1.263
 2013SOL     OW 6937   0.361   2.622   1.836
 2013SOL    HW1 6938   0.269   2.595   1.808
 2013SOL    HW2 6939   0.409   2.663   1.759
 2014SOL     OW 6940   4.119   0.945   4.826
 2014SOL    HW1 6941   4.058   0.941   4.905
 2014SOL    HW2 6942   4.209   0.908   4.852
 2015SOL     OW 6943   4.613   0.088   1.680
 2015SOL    HW1 6944   4.535   0.135   1.638
 2015SOL    HW2 6945   4.589   0.062   1.774
 2016SOL     OW 6946   1.942   0.732   4.401
 2016SOL    HW1 6947   1.939   0.659   4.334
 2016SOL    HW2 6948   1.852   0.743   4.443
 2017SOL     OW 6949   3.717   6.395   3.808
 2017SOL    HW1 6950   3.677   6.304   3.815
 2017SOL    HW2 6951   3.809   6.394   3.848
 2018SOL     OW 6952   1.382   0.689   4.345
 2018SOL    HW1 6953   1.345   0.613   4.292
 2018SOL    HW2 6954   1.464   0.724   4.299
 2019SOL     OW 6955   5.214   5.328   6.631
 2019SOL    HW1 6956   5.235   5.235   6.661
 2019SOL    HW2 6957   5.253   5.394   6.696
 2020SOL     OW 6958   1.929   6.680   6.884
 2020SOL    HW1 6959   1.972   6.643   6.801
 2020SOL    HW2 6960   1.830   6.675   6.874
 2021SOL     OW 6961   0.191   6.270   4.275
 2021SOL    HW1 6962   0.128   6.249   4.349
 2021SOL    HW2 6963   0.275   6.218   4.286
 2022SOL     OW 6964   1.887   3.438   3.804
 2022SOL    HW1 6965   1.908   3.535   3.815
 2022SOL    HW2 6966   1.970   3.384   3.817
 2023SOL     OW 6967   6.578   6.630   6.759
 2023SOL    HW1 6968   6.558   6.723   6.789
 2023SOL    HW2 6969   6.533   6.565   6.820
 2024SOL     OW 6970   0.438   5.833   3.928
 2024SOL    HW1 6971   0.400   5.872   4.012
 2024SOL    HW2 6972   0.453   5.906   3.861
 2025SOL     OW 6973   1.862   5.684   4.970
 2025SOL    HW1 6974   1.825   5.749   4.903
 2025SOL    HW2 6975   1.906   5.608   4.922
 2026SOL     OW 6976   6.817   0.396   5.912
 2026SOL    HW1 6977   6.911   0.426   5.927
 2026SOL    HW2 6978   6.760   0.476   5.889
 2027SOL     OW 6979   0.130   6.248   2.187
 2027SOL    HW1 6980   0.196   6.282   2.255
 2027SOL    HW2 6981   0.179   6.210   2.109
 2028SOL     OW 6982   2.924   4.933   4.725
 2028SOL    HW1 6983   2.889   4.856   4.673
 2028SOL    HW2 6984   2.917   4.913   4.823
 2029SOL     OW 6985   6.359   2.722   6.114
 2029SOL    HW1 6986   6.391   2.662   6.041
 2029SOL    HW2 6987   6.284   2.779   6.081
 2030SOL     OW 6988   2.495   6.985   2.489
 2030SOL    HW1 6989   2.496   6.885   2.502
 2030SOL    HW2 6990   2.408   7.012   2.447
 2031SOL     OW 6991   0.883   6.058   4.903
 2031SOL    HW1 6992   0.974   6.100   4.902
 2031SOL    HW2 6993   0.841   6.067   4.813
 2032SOL     OW 6994   2.378   3.131   5.844
 2032SOL    HW1 6995   2.431   3.069   5.786
 2032SOL    HW2 6996   2.390   3.104   5.940
 2033SOL     OW 6997   2.313   1.766   0.592
 2033SOL    HW1 6998   2.387   1.707   0.624
 2033SOL    HW2 6999   2.227   1.715   0.592
 2034SOL     OW 7000   0.655   4.689   5.336
 2034SOL    HW1 7001   0.555   4.693   5.340
 2034SOL    HW2 7002   0.686   4.725   5.248
 2035SOL     OW 7003   5.283   6.527   3.587
 2035SOL    HW1 7004   5.246   6.575   3.667
 2035SOL    HW2 7005   5.321   6.593   3.523
 2036SOL     OW 7006   0.422   5.033   6.527
 2036SOL    HW1 7007   0.333   5.071   6.501
 2036SOL    HW2 7008   0.421   4.934   6.515
 2037SOL     OW 7009   0.781   2.359   0.074
 2037SOL    HW1 7010   0.777   2.402   0.165
 2037SOL    HW2 7011   0.871   2.317   0.061
 2038SOL     OW 7012   0.818   0.804   6.410
 2038SOL    HW1 7013   0.887   0.856   6.460
 2038SOL    HW2 7014   0.750   0.867   6.372
 2039SOL     OW 7015   5.288   6.265   3.507
 2039SOL    HW1 7016   5.272   6.360   3.535
 2039SOL    HW2 7017   5.385   6.243   3.515
 2040SOL     OW 7018   2.571   2.063   6.911
 2040SOL    HW1 7019   2.576   2.159   6.887
 2040SOL    HW2 7020   2.526   2.052   7.000
 2041SOL     OW 7021   2.638   7.011   6.220
 2041SOL    HW1 7022   2.607   6.997   6.126
 2041SOL    HW2 7023   2.582   0.057   6.263
 2042SOL     OW 7024   6.209   1.095   5.983
 2042SOL    HW1 7025   6.111   1.089   5.967
 2042SOL    HW2 7026   6.248   1.169   5.929
 2043SOL     OW 7027   0.695   3.818   0.925
 2043SOL    HW1 7028   0.626   3.783   0.989
 2043SOL    HW2 7029   0.675   3.914   0.904
 2044SOL     OW 7030   4.022   0.552   1.485
 2044SOL    HW1 7031   4.121   0.558   1.478
 2044SOL    HW2 7032   3.980   0.635   1.449
 2045SOL     OW 7033   2.015   6.312   4.520
 2045SOL    HW1 7034   2.103   6.274   4.547
 2045SOL    HW2 7035   2.005   6.404   4.559
 2046SOL     OW 7036   0.633   3.227   5.224
 2046SOL    HW1 7037   0.656   3.130   5.215
 2046SOL    HW2 7038   0.707   3.282   5.183
 2047SOL     OW 7039   6.998   0.101   0.791
 2047SOL    HW1 7040   6.965   0.174   0.731
 2047SOL    HW2 7041   0.061   0.069   0.759
 2048SOL     OW 7042   1.997   1.543   3.757
 2048SOL    HW1 7043   1.979   1.642   3.763
 2048SOL    HW2 7044   1.920   1.498   3.712
 2049SOL     OW 7045   4.638   2.697   4.958
 2049SOL    HW1 7046   4.652   2.769   4.890
 2049SOL    HW2 7047   4.591   2.620   4.915
 2050SOL     OW 7048   0.622   0.860   3.393
 2050SOL    HW1 7049   0.532   0.817   3.397
 2050SOL    HW2 7050   0.662   0.862   3.485
 2051SOL     OW 7051   2.940   6.465   0.779
 2051SOL    HW1 7052   2.991   6.548   0.757
 2051SOL    HW2 7053   3.003   6.395   0.812
 2052SOL     OW 7054   0.922   4.155   0.554
 2052SOL    HW1 7055   0.910   4.123   0.648
 2052SOL    HW2 7056   0.928   4.077   0.492
 2053SOL     OW 7057   6.561   5.076   2.618
 2053SOL    HW1 7058   6.635   5.131   2.658
 2053SOL    HW2 7059   6.502   5.134   2.563
 2054SOL     OW 7060   3.074   3.953   2.673
 2054SOL    HW1 7061   2.984   3.959   2.716
 2054SOL    HW2 7062   3.072   3.884   2.600
 2055SOL     OW 7063   3.782   2.586   5.307
 2055SOL    HW1 7064   3.833   2.626   5.383
 2055SOL    HW2 7065   3.744   2.659   5.250
 2056SOL     OW 7066   2.961   5.238   1.477
 2056SOL    HW1 7067   2.940   5.181   1.556
 2056SOL    HW2 7068   2.900   5.318   1.476
 2057SOL     OW 7069   5.546   3.226   4.241
 2057SOL    HW1 7070   5.462   3.178   4.216
 2057SOL    HW2 7071   5.625   3.166   4.226
 2058SOL     OW 7072   6.058   6.707   3.931
 2058SOL    HW1 7073   6.123   6.779   3.908
 2058SOL    HW2 7074   6.101   6.617   3.915
 2059SOL     OW 7075   1.867   1.540   5.213
 2059SOL    HW1 7076   1.870   1.629   5.259
 2059SOL    HW2 7077   1.858   1.468   5.282
 2060SOL     OW 7078   1.805   3.098   6.606
 2060SOL    HW1 7079   1.900   3.094   6.574
 2060SOL    HW2 7080   1.794   3.037   6.684
 2061SOL     OW 7081   1.807   2.698   3.088
 2061SOL    HW1 7082   1.791   2.767   3.159
 2061SOL    HW2 7083   1.723   2.645   3.074
 2062SOL     OW 7084   6.289   5.067   4.344
 2062SOL    HW1 7085   6.315   4.974   4.317
 2062SOL    HW2 7086   6.192   5.068   4.370
 2063SOL     OW 7087   0.741   1.982   3.802
 2063SOL    HW1 7088   0.655   1.995   3.754
 2063SOL    HW2 7089   0.811   1.950   3.738
 2064SOL     OW 7090   0.772   3.100   4.099
 2064SOL    HW1 7091   0.674   3.098   4.085
 2064SOL    HW2 7092   0.801   3.019   4.151
 2065SOL     OW 7093   4.054   3.571   5.912
 2065SOL    HW1 7094   3.969   3.613   5.881
 2065SOL    HW2 7095   4.041   3.472   5.921
 2066SOL     OW 7096   1.228   3.309   5.256
 2066SOL    HW1 7097   1.310   3.263   5.291
 2066SOL    HW2 7098   1.152   3.293   5.319
 2067SOL     OW 7099   6.667   4.739   1.586
 2067SOL    HW1 7100   6.707   4.678   1.654
 2067SOL    HW2 7101   6.617   4.812   1.633
 2068SOL     OW 7102   4.643   0.532   4.292
 2068SOL    HW1 7103   4.569   0.504   4.353
 2068SOL    HW2 7104   4.608   0.544   4.199
 2069SOL     OW 7105   7.024   1.349   3.515
 2069SOL    HW1 7106   0.031   1.271   3.462
 2069SOL    HW2 7107   6.970   1.315   3.593
 2070SOL     OW 7108   1.383   4.908   1.424
 2070SOL    HW1 7109   1.291   4.897   1.463
 2070SOL    HW2 7110   1.434   4.975   1.479
 2071SOL     OW 7111   0.473   2.089   5.562
 2071SOL    HW1 7112   0.543   2.121   5.625
 2071SOL    HW2 7113   0.411   2.026   5.609
 2072SOL     OW 7114   5.462   4.347   5.670
 2072SOL    HW1 7115   5.444   4.283   5.596
 2072SOL    HW2 7116   5.521   4.421   5.637
 2073SOL     OW 7117   3.473   5.725   6.651
 2073SOL    HW1 7118   3.412   5.768   6.718
 2073SOL    HW2 7119   3.433   5.732   6.560
 2074SOL     OW 7120   2.233   4.823   5.554
 2074SOL    HW1 7121   2.276   4.744   5.510
 2074SOL    HW2 7122   2.154   4.852   5.501
 2075SOL     OW 7123   5.615   2.569   1.756
 2075SOL    HW1 7124   5.712   2.555   1.776
 2075SOL    HW2 7125   5.577   2.486   1.716
 2076SOL     OW 7126   6.514   6.384   4.383
 2076SOL    HW1 7127   6.520   6.378   4.283
 2076SOL    HW2 7128   6.452   6.457   4.409
 2077SOL     OW 7129   6.323   4.732   0.401
 2077SOL    HW1 7130   6.302   4.779   0.486
 2077SOL    HW2 7131   6.355   4.639   0.421
 2078SOL     OW 7132   0.612   3.444   5.522
 2078SOL    HW1 7133   0.580   3.464   5.615
 2078SOL    HW2 7134   0.567   3.362   5.488
 2079SOL     OW 7135   5.462   0.890   2.873
 2079SOL    HW1 7136   5.526   0.932   2.937
 2079SOL    HW2 7137   5.463   0.791   2.884
 2080SOL     OW 7138   2.526   3.457   6.374
 2080SOL    HW1 7139   2.449   3.406   6.336
 2080SOL    HW2 7140   2.536   3.543   6.324
 2081SOL     OW 7141   6.441   6.283   1.927
 2081SOL    HW1 7142   6.483   6.200   1.964
 2081SOL    HW2 7143   6.478   6.301   1.835
 2082SOL     OW 7144   0.031   5.640   4.192
 2082SOL    HW1 7145   6.962   5.609   4.183
 2082SOL    HW2 7146   0.083   5.610   4.112
 2083SOL     OW 7147   7.013   6.367   4.141
 2083SOL    HW1 7148   0.071   6.348   4.193
 2083SOL    HW2 7149   6.975   6.280   4.108
 2084SOL     OW 7150   6.721   1.793   0.926
 2084SOL    HW1 7151   6.813   1.755   0.937
 2084SOL    HW2 7152   6.659   1.722   0.894
 2085SOL     OW 7153   6.408   6.165   0.650
 2085SOL    HW1 7154   6.358   6.215   0.579
 2085SOL    HW2 7155   6.385   6.204   0.739
 2086SOL     OW 7156   4.879   0.859   0.168
 2086SOL    HW1 7157   4.931   0.795   0.111
 2086SOL    HW2 7158   4.809   0.809   0.218
 2087SOL     OW 7159   3.927   1.791   0.106
 2087SOL    HW1 7160   4.015   1.839   0.106
 2087SOL    HW2 7161   3.897   1.775   0.012
 2088SOL     OW 7162   0.357   4.533   5.690
 2088SOL    HW1 7163   0.417   4.598   5.643
 2088SOL    HW2 7164   0.267   4.574   5.704
 2089SOL     OW 7165   2.482   4.059   6.440
 2089SOL    HW1 7166   2.470   4.016   6.530
 2089SOL    HW2 7167   2.404   4.119   6.421
 2090SOL     OW 7168   5.137   2.921   6.215
 2090SOL    HW1 7169   5.121   2.860   6.292
 2090SOL    HW2 7170   5.135   3.016   6.246
 2091SOL     OW 7171   5.734   6.242   0.523
 2091SOL    HW1 7172   5.795   6.320   0.535
 2091SOL    HW2 7173   5.751   6.176   0.597
 2092SOL     OW 7174   3.423   3.475   2.164
 2092SOL    HW1 7175   3.437   3.494   2.261
 2092SOL    HW2 7176   3.498   3.516   2.111
 2093SOL     OW 7177   4.173   0.777   1.733
 2093SOL    HW1 7178   4.253   0.834   1.715
 2093SOL    HW2 7179   4.118   0.770   1.650
 2094SOL     OW 7180   5.588   2.332   0.077
 2094SOL    HW1 7181   5.660   2.262   0.078
 2094SOL    HW2 7182   5.613   2.405   0.139
 2095SOL     OW 7183   5.186   5.231   4.088
 2095SOL    HW1 7184   5.238   5.254   4.006
 2095SOL    HW2 7185   5.185   5.132   4.101
 2096SOL     OW 7186   3.915   6.734   1.995
 2096SOL    HW1 7187   3.827   6.715   2.039
 2096SOL    HW2 7188   3.940   6.656   1.936
 2097SOL     OW 7189   0.855   5.565   5.716
 2097SOL    HW1 7190   0.898   5.541   5.803
 2097SOL    HW2 7191   0.925   5.583   5.647
 2098SOL     OW 7192   3.161   6.774   3.597
 2098SOL    HW1 7193   3.112   6.687   3.590
 2098SOL    HW2 7194   3.152   6.811   3.690
 2099SOL     OW 7195   4.402   2.000   6.658
 2099SOL    HW1 7196   4.333   2.061   6.695
 2099SOL    HW2 7197   4.375   1.973   6.565
 2100SOL     OW 7198   4.697   0.485   0.586
 2100SOL    HW1 7199   4.621   0.549   0.569
 2100SOL    HW2 7200   4.784   0.531   0.569
 2101SOL     OW 7201   1.182   0.507   2.654
 2101SOL    HW1 7202   1.182   0.584   2.591
 2101SOL    HW2 7203   1.087   0.481   2.674
 2102SOL     OW 7204   4.291   2.626   1.019
 2102SOL    HW1 7205   4.227   2.572   0.964
 2102SOL    HW2 7206   4.256   2.635   1.112
 2103SOL     OW 7207   1.803   6.267   0.689
 2103SOL    HW1 7208   1.900   6.281   0.667
 2103SOL    HW2 7209   1.758   6.220   0.613
 2104SOL     OW 7210   1.700   3.422   3.381
 2104SOL    HW1 7211   1.769   3.356   3.411
 2104SOL    HW2 7212   1.714   3.508   3.430
 2105SOL     OW 7213   5.663   0.427   4.987
 2105SOL    HW1 7214   5.595   0.392   5.052
 2105SOL    HW2 7215   5.755   0.416   5.026
 2106SOL     OW 7216   4.226   3.283   1.291
 2106SOL    HW1 7217   4.144   3.231   1.314
 2106SOL    HW2 7218   4.289   3.227   1.238
 2107SOL     OW 7219   5.019   4.589   4.958
 2107SOL    HW1 7220   4.987   4.501   4.925
 2107SOL    HW2 7221   4.994   4.661   4.893
 2108SOL     OW 7222   5.031   0.016   5.089
 2108SOL    HW1 7223   4.960   0.084   5.105
 2108SOL    HW2 7224   5.003   6.954   5.128
 2109SOL     OW 7225   2.548   6.234   2.340
 2109SOL    HW1 7226   2.615   6.222   2.267
 2109SOL    HW2 7227   2.530   6.146   2.384
 2110SOL     OW 7228   3.457   6.056   0.008
 2110SOL    HW1 7229   3.467   6.101   0.098
 2110SOL    HW2 7230   3.514   6.104   6.967
 2111SOL     OW 7231   1.022   2.445   5.837
 2111SOL    HW1 7232   1.035   2.541   5.862
 2111SOL    HW2 7233   1.084   2.388   5.889
 2112SOL     OW 7234   0.834   6.991   6.733
 2112SOL    HW1 7235   0.925   7.007   6.771
 2112SOL    HW2 7236   0.765   7.022   6.798
 2113SOL     OW 7237   6.673   1.611   4.997
 2113SOL    HW1 7238   6.736   1.555   4.943
 2113SOL    HW2 7239   6.670   1.577   5.091
 2114SOL     OW 7240   2.077   0.919   5.823
 2114SOL    HW1 7241   2.095   0.883   5.731
 2114SOL    HW2 7242   2.075   0.843   5.888
 2115SOL     OW 7243   6.653   5.424   3.303
 2115SOL    HW1 7244   6.717   5.494   3.336
 2115SOL    HW2 7245   6.704   5.345   3.269
 2116SOL     OW 7246   1.645   1.565   6.830
 2116SOL    HW1 7247   1.676   1.660   6.836
 2116SOL    HW2 7248   1.576   1.558   6.758
 2117SOL     OW 7249   6.707   2.360   2.753
 2117SOL    HW1 7250   6.609   2.378   2.752
 2117SOL    HW2 7251   6.728   2.281   2.696
 2118SOL     OW 7252   0.294   2.126   2.799
 2118SOL    HW1 7253   0.246   2.209   2.830
 2118SOL    HW2 7254   0.228   2.054   2.780
 2119SOL     OW 7255   0.203   2.689   0.564
 2119SOL    HW1 7256   0.160   2.749   0.496
 2119SOL    HW2 7257   0.245   2.744   0.636
 2120SOL     OW 7258   5.564   2.046   1.118
 2120SOL    HW1 7259   5.663   2.056   1.127
 2120SOL    HW2 7260   5.520   2.136   1.118
 2121SOL     OW 7261   1.913   6.751   1.062
 2121SOL    HW1 7262   1.997   6.718   1.106
 2121SOL    HW2 7263   1.834   6.730   1.120
 2122SOL     OW 7264   5.996   0.385   4.408
 2122SOL    HW1 7265   5.944   0.356   4.328
 2122SOL    HW2 7266   6.082   0.333   4.413
 2123SOL     OW 7267   1.249   5.156   2.976
 2123SOL    HW1 7268   1.190   5.214   2.920
 2123SOL    HW2 7269   1.301   5.214   3.040
 2124SOL     OW 7270   4.436   3.548   6.237
 2124SOL    HW1 7271   4.345   3.578   6.264
 2124SOL    HW2 7272   4.434   3.519   6.141
 2125SOL     OW 7273   1.658   5.687   4.442
 2125SOL    HW1 7274   1.683   5.691   4.539
 2125SOL    HW2 7275   1.565   5.652   4.433
 2126SOL     OW 7276   2.630   3.748   0.448
 2126SOL    HW1 7277   2.646   3.649   0.448
 2126SOL    HW2 7278   2.709   3.795   0.409
 2127SOL     OW 7279   1.182   3.500   4.205
 2127SOL    HW1 7280   1.184   3.577   4.269
 2127SOL    HW2 7281   1.185   3.414   4.256
 2128SOL     OW 7282   5.330   3.027   2.413
 2128SOL    HW1 7283   5.255   3.091   2.430
 2128SOL    HW2 7284   5.368   3.043   2.322
 2129SOL     OW 7285   4.744   4.828   4.472
 2129SOL    HW1 7286   4.654   4.827   4.427
 2129SOL    HW2 7287   4.778   4.734   4.479
 2130SOL     OW 7288   1.953   0.659   1.377
 2130SOL    HW1 7289   1.914   0.751   1.384
 2130SOL    HW2 7290   1.996   0.634   1.464
 2131SOL     OW 7291   5.653   0.685   6.286
 2131SOL    HW1 7292   5.677   0.671   6.382
 2131SOL    HW2 7293   5.602   0.605   6.253
 2132SOL     OW 7294   2.813   2.763   0.048
 2132SOL    HW1 7295   2.857   2.827   7.011
 2132SOL    HW2 7296   2.750   2.704   7.023
 2133SOL     OW 7297   3.378   2.230   1.266
 2133SOL    HW1 7298   3.312   2.181   1.323
 2133SOL    HW2 7299   3.446   2.275   1.325
 2134SOL     OW 7300   2.170   6.257   5.275
 2134SOL    HW1 7301   2.129   6.321   5.210
 2134SOL    HW2 7302   2.255   6.297   5.312
 2135SOL     OW 7303   1.222   5.720   3.916
 2135SOL    HW1 7304   1.151   5.780   3.954
 2135SOL    HW2 7305   1.179   5.640   3.876
 2136SOL     OW 7306   1.353   4.832   3.739
 2136SOL    HW1 7307   1.398   4.790   3.659
 2136SOL    HW2 7308   1.422   4.860   3.805
 2137SOL     OW 7309   1.155   1.096   4.795
 2137SOL    HW1 7310   1.079   1.078   4.858
 2137SOL    HW2 7311   1.208   1.173   4.828
 2138SOL     OW 7312   1.077   2.705   5.910
 2138SOL    HW1 7313   1.141   2.763   5.960
 2138SOL    HW2 7314   1.086   2.723   5.812
 2139SOL     OW 7315   2.669   0.204   4.748
 2139SOL    HW1 7316   2.750   0.167   4.794
 2139SOL    HW2 7317   2.608   0.128   4.723
 2140SOL     OW 7318   1.767   5.948   3.566
 2140SOL    HW1 7319   1.800   5.901   3.649
 2140SOL    HW2 7320   1.797   5.898   3.485
 2141SOL     OW 7321   6.884   1.966   6.286
 2141SOL    HW1 7322   6.952   2.036   6.305
 2141SOL    HW2 7323   6.796   2.009   6.268
 2142SOL     OW 7324   3.358   1.175   3.757
 2142SOL    HW1 7325   3.358   1.078   3.782
 2142SOL    HW2 7326   3.266   1.212   3.766
 2143SOL     OW 7327   3.984   6.384   0.084
 2143SOL    HW1 7328   4.013   6.400   0.179
 2143SOL    HW2 7329   3.927   6.302   0.081
 2144SOL     OW 7330   0.991   0.614   1.759
 2144SOL    HW1 7331   1.040   0.589   1.676
 2144SOL    HW2 7332   0.991   0.713   1.769
 2145SOL     OW 7333   2.974   5.796   2.718
 2145SOL    HW1 7334   2.963   5.727   2.646
 2145SOL    HW2 7335   2.885   5.837   2.738
 2146SOL     OW 7336   2.889   2.236   0.715
 2146SOL    HW1 7337   2.982   2.246   0.680
 2146SOL    HW2 7338   2.824   2.267   0.646
 2147SOL     OW 7339   0.311   0.851   5.058
 2147SOL    HW1 7340   0.315   0.848   4.958
 2147SOL    HW2 7341   0.398   0.817   5.095
 2148SOL     OW 7342   5.512   3.599   4.027
 2148SOL    HW1 7343   5.492   3.549   4.111
 2148SOL    HW2 7344   5.455   3.564   3.953
 2149SOL     OW 7345   3.119   0.128   2.758
 2149SOL    HW1 7346   3.119   0.076   2.843
 2149SOL    HW2 7347   3.068   0.214   2.772
 2150SOL     OW 7348   4.153   0.422   3.276
 2150SOL    HW1 7349   4.142   0.512   3.234
 2150SOL    HW2 7350   4.131   0.351   3.209
 2151SOL     OW 7351   3.626   4.043   5.532
 2151SOL    HW1 7352   3.557   4.116   5.531
 2151SOL    HW2 7353   3.699   4.069   5.595
 2152SOL     OW 7354   6.555   6.917   2.135
 2152SOL    HW1 7355   6.624   6.982   2.169
 2152SOL    HW2 7356   6.579   6.889   2.042
 2153SOL     OW 7357   4.856   2.034   3.177
 2153SOL    HW1 7358   4.773   2.018   3.230
 2153SOL    HW2 7359   4.856   2.127   3.141
 2154SOL     OW 7360   4.260   6.543   5.455
 2154SOL    HW1 7361   4.172   6.539   5.502
 2154SOL    HW2 7362   4.279   6.455   5.412
 2155SOL     OW 7363   6.228   4.193   6.889
 2155SOL    HW1 7364   6.278   4.277   6.866
 2155SOL    HW2 7365   6.277   4.144   6.961
 2156SOL     OW 7366   0.107   0.682   0.949
 2156SOL    HW1 7367   0.067   0.592   0.967
 2156SOL    HW2 7368   0.141   0.685   0.855
 2157SOL     OW 7369   6.203   0.950   3.985
 2157SOL    HW1 7370   6.117   0.928   4.030
 2157SOL    HW2 7371   6.277   0.950   4.053
 2158SOL     OW 7372   4.576   0.153   3.328
 2158SOL    HW1 7373   4.542   0.152   3.235
 2158SOL    HW2 7374   4.511   0.107   3.389
 2159SOL     OW 7375   2.320   0.313   5.076
 2159SOL    HW1 7376   2.402   0.353   5.035
 2159SOL    HW2 7377   2.339   0.219   5.104
 2160SOL     OW 7378   2.674   2.762   0.973
 2160SOL    HW1 7379   2.577   2.768   0.996
 2160SOL    HW2 7380   2.688   2.795   0.879
 2161SOL     OW 7381   5.478   2.323   3.735
 2161SOL    HW1 7382   5.496   2.422   3.738
 2161SOL    HW2 7383   5.382   2.305   3.755
 2162SOL     OW 7384   1.602   1.010   1.094
 2162SOL    HW1 7385   1.684   1.009   1.036
 2162SOL    HW2 7386   1.554   0.923   1.086
 2163SOL     OW 7387   2.319   1.661   1.432
 2163SOL    HW1 7388   2.292   1.648   1.528
 2163SOL    HW2 7389   2.242   1.637   1.373
 2164SOL     OW 7390   0.055   0.395   1.032
 2164SOL    HW1 7391   0.151   0.396   1.059
 2164SOL    HW2 7392   0.004   0.335   1.093
 2165SOL     OW 7393   2.802   0.311   1.804
 2165SOL    HW1 7394   2.890   0.356   1.819
 2165SOL    HW2 7395   2.799   0.225   1.854
 2166SOL     OW 7396   6.039   2.437   5.892
 2166SOL    HW1 7397   6.053   2.351   5.842
 2166SOL    HW2 7398   6.035   2.513   5.827
 2167SOL     OW 7399   2.745   1.218   1.413
 2167SOL    HW1 7400   2.706   1.126   1.408
 2167SOL    HW2 7401   2.676   1.283   1.444
 2168SOL     OW 7402   5.815   6.653   4.870
 2168SOL    HW1 7403   5.751   6.728   4.890
 2168SOL    HW2 7404   5.908   6.683   4.888
 2169SOL     OW 7405   6.578   1.653   5.776
 2169SOL    HW1 7406   6.649   1.600   5.729
 2169SOL    HW2 7407   6.503   1.672   5.713
 2170SOL     OW 7408   5.297   4.318   4.402
 2170SOL    HW1 7409   5.207   4.292   4.367
 2170SOL    HW2 7410   5.289   4.400   4.458
 2171SOL     OW 7411   6.840   3.365   0.463
 2171SOL    HW1 7412   6.899   3.415   0.399
 2171SOL    HW2 7413   6.757   3.335   0.415
 2172SOL     OW 7414   2.409   0.281   1.778
 2172SOL    HW1 7415   2.366   0.366   1.749
 2172SOL    HW2 7416   2.339   0.213   1.800
 2173SOL     OW 7417   4.822   2.338   4.759
 2173SOL    HW1 7418   4.732   2.296   4.749
 2173SOL    HW2 7419   4.888   2.288   4.703
 2174SOL     OW 7420   1.469   5.639   4.987
 2174SOL    HW1 7421   1.504   5.724   4.949
 2174SOL    HW2 7422   1.525   5.613   5.066
 2175SOL     OW 7423   1.793   5.930   6.088
 2175SOL    HW1 7424   1.768   5.928   6.185
 2175SOL    HW2 7425   1.712   5.949   6.033
 2176SOL     OW 7426   1.551   2.899   2.316
 2176SOL    HW1 7427   1.630   2.958   2.296
 2176SOL    HW2 7428   1.468   2.944   2.283
 2177SOL     OW 7429   0.329   2.222   1.452
 2177SOL    HW1 7430   0.401   2.160   1.419
 2177SOL    HW2 7431   0.293   2.187   1.538
 2178SOL     OW 7432   6.902   6.417   1.180
 2178SOL    HW1 7433   6.886   6.328   1.221
 2178SOL    HW2 7434   6.976   6.410   1.112
 2179SOL     OW 7435   1.182   3.788   4.099
 2179SOL    HW1 7436   1.160   3.885   4.087
 2179SOL    HW2 7437   1.226   3.774   4.188
 2180SOL     OW 7438   3.708   2.788   1.554
 2180SOL    HW1 7439   3.751   2.877   1.565
 2180SOL    HW2 7440   3.700   2.744   1.643
 2181SOL     OW 7441   3.740   6.726   1.377
 2181SOL    HW1 7442   3.805   6.767   1.313
 2181SOL    HW2 7443   3.647   6.755   1.352
 2182SOL     OW 7444   5.601   2.305   0.721
 2182SOL    HW1 7445   5.508   2.298   0.685
 2182SOL    HW2 7446   5.614   2.394   0.765
 2183SOL     OW 7447   2.815   2.799   0.330
 2183SOL    HW1 7448   2.820   2.790   0.231
 2183SOL    HW2 7449   2.878   2.870   0.361
 2184SOL     OW 7450   4.403   3.070   6.080
 2184SOL    HW1 7451   4.389   3.169   6.085
 2184SOL    HW2 7452   4.317   3.023   6.101
 2185SOL     OW 7453   0.072   6.991   2.152
 2185SOL    HW1 7454   0.019   6.912   2.182
 2185SOL    HW2 7455   0.137   6.962   2.081
 2186SOL     OW 7456   0.384   4.339   2.987
 2186SOL    HW1 7457   0.352   4.377   3.074
 2186SOL    HW2 7458   0.312   4.349   2.918
 2187SOL     OW 7459   6.123   1.462   6.655
 2187SOL    HW1 7460   6.081   1.497   6.739
 2187SOL    HW2 7461   6.117   1.362   6.654
 2188SOL     OW 7462   5.042   1.323   3.988
 2188SOL    HW1 7463   4.967   1.313   4.054
 2188SOL    HW2 7464   5.100   1.241   3.991
 2189SOL     OW 7465   2.685   0.070   6.755
 2189SOL    HW1 7466   2.683   0.115   6.666
 2189SOL    HW2 7467   2.775   0.028   6.769
 2190SOL     OW 7468   4.793   2.377   0.692
 2190SOL    HW1 7469   4.841   2.446   0.747
 2190SOL    HW2 7470   4.716   2.340   0.744
 2191SOL     OW 7471   2.639   1.960   0.231
 2191SOL    HW1 7472   2.552   1.993   0.195
 2191SOL    HW2 7473   2.714   1.995   0.175
 2192SOL     OW 7474   3.735   5.470   2.543
 2192SOL    HW1 7475   3.646   5.429   2.563
 2192SOL    HW2 7476   3.784   5.413   2.478
 2193SOL     OW 7477   6.550   5.984   4.882
 2193SOL    HW1 7478   6.480   6.035   4.832
 2193SOL    HW2 7479   6.640   6.020   4.859
 2194SOL     OW 7480   2.801   0.433   1.561
 2194SOL    HW1 7481   2.890   0.392   1.540
 2194SOL    HW2 7482   2.784   0.425   1.660
 2195SOL     OW 7483   0.772   5.385   2.311
 2195SOL    HW1 7484   0.777   5.373   2.410
 2195SOL    HW2 7485   0.696   5.331   2.275
 2196SOL     OW 7486   4.194   3.052   0.210
 2196SOL    HW1 7487   4.157   2.981   0.151
 2196SOL    HW2 7488   4.182   3.025   0.306
 2197SOL     OW 7489   4.395   4.389   6.693
 2197SOL    HW1 7490   4.383   4.347   6.603
 2197SOL    HW2 7491   4.488   4.372   6.726
 2198SOL     OW 7492   6.205   4.422   0.675
 2198SOL    HW1 7493   6.131   4.488   0.684
 2198SOL    HW2 7494   6.293   4.469   0.686
 2199SOL     OW 7495   4.451   1.445   3.033
 2199SOL    HW1 7496   4.547   1.417   3.035
 2199SOL    HW2 7497   4.399   1.379   2.978
 2200SOL     OW 7498   2.649   6.879   4.511
 2200SOL    HW1 7499   2.686   6.932   4.435
 2200SOL    HW2 7500   2.662   6.781   4.493
 2201SOL     OW 7501   4.898   4.021   3.983
 2201SOL    HW1 7502   4.819   4.083   3.974
 2201SOL    HW2 7503   4.979   4.074   4.008
 2202SOL     OW 7504   4.723   5.757   3.976
 2202SOL    HW1 7505   4.763   5.827   3.917
 2202SOL    HW2 7506   4.734   5.667   3.934
 2203SOL     OW 7507   2.962   2.212   2.780
 2203SOL    HW1 7508   2.936   2.123   2.744
 2203SOL    HW2 7509   3.001   2.201   2.872
 2204SOL     OW 7510   2.536   2.720   0.360
 2204SOL    HW1 7511   2.481   2.783   0.306
 2204SOL    HW2 7512   2.630   2.755   0.366
 2205SOL     OW 7513   2.711   1.081   1.988
 2205SOL    HW1 7514   2.685   1.132   1.906
 2205SOL    HW2 7515   2.628   1.054   2.039
 2206SOL     OW 7516   1.833   2.874   0.072
 2206SOL    HW1 7517   1.859   2.782   0.042
 2206SOL    HW2 7518   1.788   2.923   7.023
 2207SOL     OW 7519   0.635   4.661   4.932
 2207SOL    HW1 7520   0.647   4.741   4.990
 2207SOL    HW2 7521   0.645   4.688   4.836
 2208SOL     OW 7522   6.609   5.027   2.154
 2208SOL    HW1 7523   6.612   4.927   2.152
 2208SOL    HW2 7524   6.580   5.062   2.065
 2209SOL     OW 7525   1.122   0.001   1.787
 2209SOL    HW1 7526   1.140   0.064   1.711
 2209SOL    HW2 7527   1.144   6.934   1.758
 2210SOL     OW 7528   2.157   5.145   3.425
 2210SOL    HW1 7529   2.146   5.062   3.479
 2210SOL    HW2 7530   2.118   5.132   3.334
 2211SOL     OW 7531   0.143   1.675   5.125
 2211SOL    HW1 7532   0.058   1.624   5.141
 2211SOL    HW2 7533   0.127   1.772   5.143
 2212SOL     OW 7534   1.803   0.157   6.492
 2212SOL    HW1 7535   1.753   0.141   6.406
 2212SOL    HW2 7536   1.859   0.077   6.513
 2213SOL     OW 7537   3.565   0.358   3.156
 2213SOL    HW1 7538   3.500   0.328   3.087
 2213SOL    HW2 7539   3.516   0.400   3.233
 2214SOL     OW 7540   4.399   0.487   4.425
 2214SOL    HW1 7541   4.383   0.535   4.510
 2214SOL    HW2 7542   4.312   0.456   4.387
 2215SOL     OW 7543   5.809   2.310   5.483
 2215SOL    HW1 7544   5.774   2.217   5.470
 2215SOL    HW2 7545   5.860   2.314   5.569
 2216SOL     OW 7546   2.925   0.757   2.398
 2216SOL    HW1 7547   3.004   0.812   2.427
 2216SOL    HW2 7548   2.879   0.803   2.322
 2217SOL     OW 7549   4.153   1.065   2.097
 2217SOL    HW1 7550   4.103   1.128   2.037
 2217SOL    HW2 7551   4.089   0.999   2.136
 2218SOL     OW 7552   1.535   0.116   3.032
 2218SOL    HW1 7553   1.618   0.062   3.045
 2218SOL    HW2 7554   1.560   0.207   2.997
 2219SOL     OW 7555   1.234   2.558   2.747
 2219SOL    HW1 7556   1.231   2.548   2.647
 2219SOL    HW2 7557   1.317   2.607   2.773
 2220SOL     OW 7558   0.634   0.348   2.180
 2220SOL    HW1 7559   0.571   0.425   2.174
 2220SOL    HW2 7560   0.723   0.379   2.215
 2221SOL     OW 7561   0.545   0.883   6.546
 2221SOL    HW1 7562   0.607   0.857   6.620
 2221SOL    HW2 7563   0.516   0.800   6.497
 2222SOL     OW 7564   6.237   5.607   3.190
 2222SOL    HW1 7565   6.206   5.548   3.115
 2222SOL    HW2 7566   6.229   5.703   3.161
 2223SOL     OW 7567   6.724   6.454   1.864
 2223SOL    HW1 7568   6.649   6.419   1.808
 2223SOL    HW2 7569   6.796   6.386   1.869
 2224SOL     OW 7570   1.034   4.668   1.636
 2224SOL    HW1 7571   1.015   4.657   1.734
 2224SOL    HW2 7572   1.062   4.580   1.598
 2225SOL     OW 7573   0.505   4.142   1.067
 2225SOL    HW1 7574   0.431   4.209   1.071
 2225SOL    HW2 7575   0.548   4.144   0.977
 2226SOL     OW 7576   4.124   3.753   2.125
 2226SOL    HW1 7577   4.219   3.776   2.144
 2226SOL    HW2 7578   4.077   3.734   2.212
 2227SOL     OW 7579   0.900   2.907   4.707
 2227SOL    HW1 7580   0.925   2.992   4.660
 2227SOL    HW2 7581   0.973   2.881   4.769
 2228SOL     OW 7582   3.175   4.867   4.344
 2228SOL    HW1 7583   3.095   4.807   4.353
 2228SOL    HW2 7584   3.161   4.930   4.267
 2229SOL     OW 7585   5.702   6.509   3.391
 2229SOL    HW1 7586   5.790   6.535   3.432
 2229SOL    HW2 7587   5.688   6.561   3.306
 2230SOL     OW 7588   2.548   5.341   1.807
 2230SOL    HW1 7589   2.648   5.347   1.803
 2230SOL    HW2 7590   2.513   5.412   1.868
 2231SOL     OW 7591   2.848   6.193   1.278
 2231SOL    HW1 7592   2.834   6.143   1.363
 2231SOL    HW2 7593   2.795   6.278   1.281
 2232SOL     OW 7594   5.547   2.602   3.773
 2232SOL    HW1 7595   5.493   2.651   3.706
 2232SOL    HW2 7596   5.575   2.665   3.846
 2233SOL     OW 7597   2.731   1.513   6.095
 2233SOL    HW1 7598   2.774   1.429   6.062
 2233SOL    HW2 7599   2.631   1.505   6.089
 2234SOL     OW 7600   3.643   2.683   1.293
 2234SOL    HW1 7601   3.690   2.712   1.376
 2234SOL    HW2 7602   3.596   2.596   1.310
 2235SOL     OW 7603   2.258   2.096   1.530
 2235SOL    HW1 7604   2.348   2.134   1.551
 2235SOL    HW2 7605   2.236   2.025   1.597
 2236SOL     OW 7606   1.042   4.895   6.370
 2236SOL    HW1 7607   0.985   4.875   6.449
 2236SOL    HW2 7608   1.064   4.992   6.368
 2237SOL     OW 7609   6.117   3.207   4.152
 2237SOL    HW1 7610   6.028   3.167   4.129
 2237SOL    HW2 7611   6.189   3.140   4.137
 2238SOL     OW 7612   6.356   6.235   0.920
 2238SOL    HW1 7613   6.391   6.242   1.013
 2238SOL    HW2 7614   6.267   6.190   0.921
 2239SOL     OW 7615   6.061   6.025   2.169
 2239SOL    HW1 7616   6.113   6.105   2.200
 2239SOL    HW2 7617   6.085   6.006   2.074
 2240SOL     OW 7618   5.820   3.459   1.827
 2240SOL    HW1 7619   5.918   3.482   1.830
 2240SOL    HW2 7620   5.766   3.541   1.841
 2241SOL     OW 7621   1.389   6.928   2.966
 2241SOL    HW1 7622   1.322   6.965   2.902
 2241SOL    HW2 7623   1.461   6.996   2.981
 2242SOL     OW 7624   3.619   1.699   2.521
 2242SOL    HW1 7625   3.536   1.652   2.492
 2242SOL    HW2 7626   3.633   1.781   2.465
 2243SOL     OW 7627   2.634   0.129   5.171
 2243SOL    HW1 7628   2.620   0.073   5.089
 2243SOL    HW2 7629   2.549   0.132   5.225
 2244SOL     OW 7630   3.107   1.353   4.643
 2244SOL    HW1 7631   3.035   1.346   4.712
 2244SOL    HW2 7632   3.115   1.448   4.613
 2245SOL     OW 7633   0.230   2.303   1.796
 2245SOL    HW1 7634   0.207   2.382   1.741
 2245SOL    HW2 7635   0.154   2.281   1.857
 2246SOL     OW 7636   1.610   4.820   5.207
 2246SOL    HW1 7637   1.672   4.787   5.136
 2246SOL    HW2 7638   1.516   4.793   5.184
 2247SOL     OW 7639   1.784   1.223   4.412
 2247SOL    HW1 7640   1.734   1.182   4.336
 2247SOL    HW2 7641   1.881   1.228   4.390
 2248SOL     OW 7642   4.241   3.993   5.824
 2248SOL    HW1 7643   4.250   3.940   5.909
 2248SOL    HW2 7644   4.292   3.948   5.751
 2249SOL     OW 7645   3.785   5.382   5.216
 2249SOL    HW1 7646   3.868   5.426   5.183
 2249SOL    HW2 7647   3.731   5.350   5.137
 2250SOL     OW 7648   4.571   4.880   1.537
 2250SOL    HW1 7649   4.546   4.956   1.476
 2250SOL    HW2 7650   4.534   4.899   1.628
 2251SOL     OW 7651   0.293   0.309   6.157
 2251SOL    HW1 7652   0.214   0.273   6.207
 2251SOL    HW2 7653   0.313   0.249   6.079
 2252SOL     OW 7654   3.229   0.520   6.241
 2252SOL    HW1 7655   3.293   0.568   6.183
 2252SOL    HW2 7656   3.154   0.581   6.266
 2253SOL     OW 7657   1.147   3.197   6.727
 2253SOL    HW1 7658   1.166   3.108   6.769
 2253SOL    HW2 7659   1.055   3.196   6.687
 2254SOL     OW 7660   1.962   4.708   6.180
 2254SOL    HW1 7661   1.934   4.797   6.215
 2254SOL    HW2 7662   1.918   4.692   6.091
 2255SOL     OW 7663   5.865   3.489   6.860
 2255SOL    HW1 7664   5.930   3.561   6.835
 2255SOL    HW2 7665   5.780   3.501   6.809
 2256SOL     OW 7666   2.810   4.725   2.369
 2256SOL    HW1 7667   2.905   4.755   2.379
 2256SOL    HW2 7668   2.790   4.710   2.272
 2257SOL     OW 7669   1.890   3.556   4.370
 2257SOL    HW1 7670   1.985   3.538   4.348
 2257SOL    HW2 7671   1.881   3.580   4.467
 2258SOL     OW 7672   1.945   5.011   5.429
 2258SOL    HW1 7673   1.864   5.067   5.411
 2258SOL    HW2 7674   2.024   5.070   5.445
 2259SOL     OW 7675   6.672   3.299   6.455
 2259SOL    HW1 7676   6.772   3.303   6.451
 2259SOL    HW2 7677   6.644   3.206   6.478
 2260SOL     OW 7678   4.271   3.526   1.142
 2260SOL    HW1 7679   4.252   3.435   1.180
 2260SOL    HW2 7680   4.218   3.594   1.191
 2261SOL     OW 7681   2.859   6.670   4.857
 2261SOL    HW1 7682   2.810   6.599   4.806
 2261SOL    HW2 7683   2.797   6.713   4.923
 2262SOL     OW 7684   3.430   1.619   3.149
 2262SOL    HW1 7685   3.511   1.620   3.208
 2262SOL    HW2 7686   3.368   1.693   3.175
 2263SOL     OW 7687   0.831   4.234   5.817
 2263SOL    HW1 7688   0.761   4.260   5.884
 2263SOL    HW2 7689   0.800   4.256   5.725
 2264SOL     OW 7690   3.014   3.553   3.369
 2264SOL    HW1 7691   2.988   3.460   3.341
 2264SOL    HW2 7692   3.002   3.615   3.292
 2265SOL     OW 7693   0.749   6.788   3.501
 2265SOL    HW1 7694   0.780   6.836   3.419
 2265SOL    HW2 7695   0.720   6.696   3.477
 2266SOL     OW 7696   6.724   0.287   6.228
 2266SOL    HW1 7697   6.652   0.300   6.160
 2266SOL    HW2 7698   6.772   0.373   6.243
 2267SOL     OW 7699   5.718   2.061   5.416
 2267SOL    HW1 7700   5.627   2.034   5.446
 2267SOL    HW2 7701   5.786   1.994   5.448
 2268SOL     OW 7702   6.881   5.335   6.617
 2268SOL    HW1 7703   6.945   5.389   6.562
 2268SOL    HW2 7704   6.797   5.386   6.631
 2269SOL     OW 7705   0.333   6.857   3.416
 2269SOL    HW1 7706   0.406   6.904   3.466
 2269SOL    HW2 7707   0.328   6.762   3.446
 2270SOL     OW 7708   3.416   3.287   3.009
 2270SOL    HW1 7709   3.512   3.293   3.035
 2270SOL    HW2 7710   3.366   3.236   3.078
 2271SOL     OW 7711   0.926   4.936   3.215
 2271SOL    HW1 7712   0.963   5.019   3.256
 2271SOL    HW2 7713   0.836   4.916   3.255
 2272SOL     OW 7714   5.496   2.148   5.607
 2272SOL    HW1 7715   5.581   2.169   5.655
 2272SOL    HW2 7716   5.432   2.103   5.669
 2273SOL     OW 7717   0.658   1.285   2.859
 2273SOL    HW1 7718   0.586   1.236   2.908
 2273SOL    HW2 7719   0.744   1.237   2.869
 2274SOL     OW 7720   0.880   4.251   3.019
 2274SOL    HW1 7721   0.782   4.267   3.033
 2274SOL    HW2 7722   0.899   4.243   2.921
 2275SOL     OW 7723   5.021   6.425   3.855
 2275SOL    HW1 7724   5.095   6.488   3.831
 2275SOL    HW2 7725   4.947   6.433   3.789
 2276SOL     OW 7726   2.979   5.814   2.151
 2276SOL    HW1 7727   2.971   5.813   2.052
 2276SOL    HW2 7728   3.058   5.870   2.178
 2277SOL     OW 7729   3.120   3.598   1.284
 2277SOL    HW1 7730   3.178   3.679   1.275
 2277SOL    HW2 7731   3.149   3.528   1.220
 2278SOL     OW 7732   4.984   6.705   1.337
 2278SOL    HW1 7733   5.018   6.710   1.431
 2278SOL    HW2 7734   4.928   6.785   1.317
 2279SOL     OW 7735   5.982   3.903   5.667
 2279SOL    HW1 7736   5.888   3.892   5.700
 2279SOL    HW2 7737   5.996   3.845   5.586
 2280SOL     OW 7738   5.607   0.083   6.063
 2280SOL    HW1 7739   5.610   0.040   5.973
 2280SOL    HW2 7740   5.699   0.113   6.089
 2281SOL     OW 7741   2.285   1.768   7.007
 2281SOL    HW1 7742   2.218   1.714   6.956
 2281SOL    HW2 7743   2.375   1.755   6.967
 2282SOL     OW 7744   4.154   6.166   2.201
 2282SOL    HW1 7745   4.111   6.080   2.171
 2282SOL    HW2 7746   4.085   6.238   2.203
 2283SOL     OW 7747   0.340   3.898   1.822
 2283SOL    HW1 7748   0.396   3.980   1.812
 2283SOL    HW2 7749   0.294   3.899   1.911
 2284SOL     OW 7750   2.445   2.151   2.202
 2284SOL    HW1 7751   2.408   2.241   2.178
 2284SOL    HW2 7752   2.542   2.159   2.223
 2285SOL     OW 7753   1.867   3.847   6.865
 2285SOL    HW1 7754   1.859   3.756   6.905
 2285SOL    HW2 7755   1.850   3.916   6.936
 2286SOL     OW 7756   6.273   6.570   4.125
 2286SOL    HW1 7757   6.218   6.595   4.205
 2286SOL    HW2 7758   6.292   6.651   4.071
 2287SOL     OW 7759   2.076   2.143   0.686
 2287SOL    HW1 7760   2.072   2.070   0.618
 2287SOL    HW2 7761   2.148   2.208   0.661
 2288SOL     OW 7762   2.450   5.218   4.919
 2288SOL    HW1 7763   2.352   5.236   4.909
 2288SOL    HW2 7764   2.477   5.228   5.014
 2289SOL     OW 7765   4.101   1.132   0.127
 2289SOL    HW1 7766   4.090   1.185   0.043
 2289SOL    HW2 7767   4.196   1.102   0.134
 2290SOL     OW 7768   3.453   3.901   3.745
 2290SOL    HW1 7769   3.421   3.874   3.654
 2290SOL    HW2 7770   3.537   3.955   3.735
 2291SOL     OW 7771   1.704   2.133   6.918
 2291SOL    HW1 7772   1.776   2.105   6.981
 2291SOL    HW2 7773   1.743   2.151   6.828
 2292SOL     OW 7774   4.984   1.706   2.824
 2292SOL    HW1 7775   4.922   1.782   2.842
 2292SOL    HW2 7776   5.046   1.731   2.749
 2293SOL     OW 7777   0.483   0.774   0.122
 2293SOL    HW1 7778   0.553   0.762   0.051
 2293SOL    HW2 7779   0.394   0.743   0.087
 2294SOL     OW 7780   0.118   0.660   5.674
 2294SOL    HW1 7781   0.049   0.707   5.730
 2294SOL    HW2 7782   0.104   0.562   5.680
 2295SOL     OW 7783   5.766   6.019   1.026
 2295SOL    HW1 7784   5.682   6.029   0.972
 2295SOL    HW2 7785   5.794   5.924   1.027
 2296SOL     OW 7786   3.658   5.111   4.251
 2296SOL    HW1 7787   3.719   5.047   4.297
 2296SOL    HW2 7788   3.569   5.067   4.236
 2297SOL     OW 7789   5.806   4.021   5.203
 2297SOL    HW1 7790   5.891   4.044   5.155
 2297SOL    HW2 7791   5.760   3.948   5.154
 2298SOL     OW 7792   3.006   3.283   4.956
 2298SOL    HW1 7793   3.013   3.280   4.856
 2298SOL    HW2 7794   3.085   3.237   4.996
 2299SOL     OW 7795   5.722   3.386   4.715
 2299SOL    HW1 7796   5.804   3.411   4.663
 2299SOL    HW2 7797   5.659   3.336   4.655
 2300SOL     OW 7798   5.242   0.007   2.121
 2300SOL    HW1 7799   5.216   6.936   2.127
 2300SOL    HW2 7800   5.200   0.048   2.040
 2301SOL     OW 7801   3.976   3.169   4.827
 2301SOL    HW1 7802   4.037   3.092   4.846
 2301SOL    HW2 7803   3.907   3.176   4.899
 2302SOL     OW 7804   6.169   3.344   6.240
 2302SOL    HW1 7805   6.261   3.339   6.202
 2302SOL    HW2 7806   6.173   3.379   6.334
 2303SOL     OW 7807   2.941   2.111   6.890
 2303SOL    HW1 7808   2.908   2.203   6.870
 2303SOL    HW2 7809   3.035   2.117   6.922
 2304SOL     OW 7810   6.663   6.845   2.574
 2304SOL    HW1 7811   6.604   6.779   2.527
 2304SOL    HW2 7812   6.757   6.812   2.573
 2305SOL     OW 7813   2.564   6.990   5.537
 2305SOL    HW1 7814   2.654   6.970   5.576
 2305SOL    HW2 7815   2.568   0.053   5.490
 2306SOL     OW 7816   2.046   4.627   4.621
 2306SOL    HW1 7817   2.039   4.726   4.631
 2306SOL    HW2 7818   2.091   4.588   4.701
 2307SOL     OW 7819   6.690   3.523   5.131
 2307SOL    HW1 7820   6.741   3.516   5.216
 2307SOL    HW2 7821   6.622   3.595   5.137
 2308SOL     OW 7822   0.770   5.789   2.181
 2308SOL    HW1 7823   0.810   5.867   2.230
 2308SOL    HW2 7824   0.818   5.705   2.207
 2309SOL     OW 7825   2.542   0.493   4.526
 2309SOL    HW1 7826   2.588   0.564   4.579
 2309SOL    HW2 7827   2.600   0.412   4.522
 2310SOL     OW 7828   4.576   6.879   0.987
 2310SOL    HW1 7829   4.577   6.804   1.053
 2310SOL    HW2 7830   4.482   6.896   0.958
 2311SOL     OW 7831   2.131   5.821   0.900
 2311SOL    HW1 7832   2.179   5.746   0.945
 2311SOL    HW2 7833   2.155   5.823   0.803
 2312SOL     OW 7834   3.541   4.904   2.405
 2312SOL    HW1 7835   3.449   4.889   2.369
 2312SOL    HW2 7836   3.607   4.903   2.330
 2313SOL     OW 7837   5.080   4.503   1.788
 2313SOL    HW1 7838   4.999   4.524   1.842
 2313SOL    HW2 7839   5.100   4.579   1.726
 2314SOL     OW 7840   2.672   4.849   4.242
 2314SOL    HW1 7841   2.622   4.772   4.283
 2314SOL    HW2 7842   2.711   4.821   4.155
 2315SOL     OW 7843   5.082   2.079   6.669
 2315SOL    HW1 7844   4.999   2.127   6.697
 2315SOL    HW2 7845   5.152   2.090   6.740
 2316SOL     OW 7846   4.893   3.155   1.862
 2316SOL    HW1 7847   4.822   3.101   1.905
 2316SOL    HW2 7848   4.858   3.195   1.776
 2317SOL     OW 7849   0.875   6.186   3.036
 2317SOL    HW1 7850   0.896   6.252   3.108
 2317SOL    HW2 7851   0.826   6.232   2.962
 2318SOL     OW 7852   0.517   1.464   4.200
 2318SOL    HW1 7853   0.591   1.401   4.227
 2318SOL    HW2 7854   0.475   1.502   4.283
 2319SOL     OW 7855   1.463   4.629   2.130
 2319SOL    HW1 7856   1.479   4.728   2.127
 2319SOL    HW2 7857   1.373   4.611   2.169
 2320SOL     OW 7858   6.608   4.766   4.656
 2320SOL    HW1 7859   6.556   4.848   4.674
 2320SOL    HW2 7860   6.579   4.693   4.718
 2321SOL     OW 7861   3.704   5.151   4.578
 2321SOL    HW1 7862   3.761   5.071   4.595
 2321SOL    HW2 7863   3.757   5.220   4.529
 2322SOL     OW 7864   3.115   0.563   5.202
 2322SOL    HW1 7865   3.151   0.651   5.171
 2322SOL    HW2 7866   3.022   0.575   5.237
 2323SOL     OW 7867   4.881   3.610   1.990
 2323SOL    HW1 7868   4.941   3.539   1.956
 2323SOL    HW2 7869   4.824   3.573   2.064
 2324SOL     OW 7870   1.102   4.829   3.424
 2324SOL    HW1 7871   1.183   4.797   3.376
 2324SOL    HW2 7872   1.031   4.853   3.358
 2325SOL     OW 7873   0.149   2.214   0.320
 2325SOL    HW1 7874   0.109   2.280   0.383
 2325SOL    HW2 7875   0.176   2.132   0.372
 2326SOL     OW 7876   0.840   4.251   0.334
 2326SOL    HW1 7877   0.899   4.192   0.279
 2326SOL    HW2 7878   0.851   4.229   0.431
 2327SOL     OW 7879   5.237   1.508   3.802
 2327SOL    HW1 7880   5.264   1.599   3.831
 2327SOL    HW2 7881   5.252   1.443   3.876
 2328SOL     OW 7882   6.362   5.594   3.438
 2328SOL    HW1 7883   6.441   5.653   3.457
 2328SOL    HW2 7884   6.331   5.610   3.344
 2329SOL     OW 7885   0.356   5.534   2.900
 2329SOL    HW1 7886   0.358   5.598   2.977
 2329SOL    HW2 7887   0.406   5.451   2.924
 2330SOL     OW 7888   0.684   4.310   1.523
 2330SOL    HW1 7889   0.619   4.344   1.454
 2330SOL    HW2 7890   0.655   4.220   1.555
 2331SOL     OW 7891   1.322   4.289   6.160
 2331SOL    HW1 7892   1.277   4.266   6.073
 2331SOL    HW2 7893   1.263   4.261   6.236
 2332SOL     OW 7894   5.303   2.623   5.459
 2332SOL    HW1 7895   5.299   2.526   5.483
 2332SOL    HW2 7896   5.218   2.650   5.413
 2333SOL     OW 7897   3.029   4.946   4.013
 2333SOL    HW1 7898   3.063   4.935   3.920
 2333SOL    HW2 7899   2.967   4.871   4.035
 2334SOL     OW 7900   2.545   0.092   0.024
 2334SOL    HW1 7901   2.532   0.011   0.081
 2334SOL    HW2 7902   2.613   0.073   6.979
 2335SOL     OW 7903   4.468   4.956   4.713
 2335SOL    HW1 7904   4.560   4.970   4.750
 2335SOL    HW2 7905   4.431   4.869   4.746
 2336SOL     OW 7906   4.388   3.025   5.774
 2336SOL    HW1 7907   4.461   3.093   5.761
 2336SOL    HW2 7908   4.311   3.067   5.822
 2337SOL     OW 7909   6.283   0.319   4.384
 2337SOL    HW1 7910   6.297   0.296   4.288
 2337SOL    HW2 7911   6.312   0.413   4.401
 2338SOL     OW 7912   1.289   6.958   6.632
 2338SOL    HW1 7913   1.239   6.875   6.656
 2338SOL    HW2 7914   1.229   7.021   6.584
 2339SOL     OW 7915   4.517   5.022   6.961
 2339SOL    HW1 7916   4.565   5.046   0.020
 2339SOL    HW2 7917   4.451   5.093   6.938
 2340SOL     OW 7918   4.061   4.867   3.957
 2340SOL    HW1 7919   3.984   4.845   4.016
 2340SOL    HW2 7920   4.147   4.845   4.005
 2341SOL     OW 7921   5.889   4.769   6.483
 2341SOL    HW1 7922   5.900   4.752   6.385
 2341SOL    HW2 7923   5.824   4.843   6.497
 2342SOL     OW 7924   6.841   0.243   4.851
 2342SOL    HW1 7925   6.759   0.286   4.812
 2342SOL    HW2 7926   6.816   0.158   4.897
 2343SOL     OW 7927   0.595   0.279   0.376
 2343SOL    HW1 7928   0.665   0.252   0.442
 2343SOL    HW2 7929   0.609   0.375   0.351
 2344SOL     OW 7930   2.626   1.363   2.808
 2344SOL    HW1 7931   2.621   1.442   2.870
 2344SOL    HW2 7932   2.538   1.315   2.809
 2345SOL     OW 7933   1.296   1.759   2.328
 2345SOL    HW1 7934   1.234   1.816   2.381
 2345SOL    HW2 7935   1.376   1.813   2.300
 2346SOL     OW 7936   4.746   3.174   5.291
 2346SOL    HW1 7937   4.691   3.099   5.328
 2346SOL    HW2 7938   4.707   3.262   5.320
 2347SOL     OW 7939   1.578   3.440   0.891
 2347SOL    HW1 7940   1.545   3.467   0.801
 2347SOL    HW2 7941   1.657   3.379   0.881
 2348SOL     OW 7942   2.992   6.828   1.567
 2348SOL    HW1 7943   2.925   6.886   1.521
 2348SOL    HW2 7944   2.949   6.784   1.646
 2349SOL     OW 7945   4.527   4.403   6.306
 2349SOL    HW1 7946   4.614   4.362   6.279
 2349SOL    HW2 7947   4.544   4.478   6.369
 2350SOL     OW 7948   2.377   5.896   5.277
 2350SOL    HW1 7949   2.286   5.926   5.306
 2350SOL    HW2 7950   2.406   5.949   5.197
 2351SOL     OW 7951   1.692   5.216   3.338
 2351SOL    HW1 7952   1.721   5.304   3.376
 2351SOL    HW2 7953   1.718   5.142   3.400
 2352SOL     OW 7954   5.744   4.387   0.922
 2352SOL    HW1 7955   5.828   4.425   0.961
 2352SOL    HW2 7956   5.717   4.440   0.842
 2353SOL     OW 7957   2.351   3.700   6.698
 2353SOL    HW1 7958   2.304   3.744   6.774
 2353SOL    HW2 7959   2.352   3.601   6.712
 2354SOL     OW 7960   4.165   1.913   2.150
 2354SOL    HW1 7961   4.189   1.829   2.198
 2354SOL    HW2 7962   4.243   1.976   2.152
 2355SOL     OW 7963   0.362   1.745   1.853
 2355SOL    HW1 7964   0.303   1.739   1.934
 2355SOL    HW2 7965   0.307   1.728   1.771
 2356SOL     OW 7966   3.086   5.236   3.754
 2356SOL    HW1 7967   3.043   5.250   3.843
 2356SOL    HW2 7968   3.097   5.138   3.737
 2357SOL     OW 7969   0.451   4.567   0.633
 2357SOL    HW1 7970   0.535   4.575   0.686
 2357SOL    HW2 7971   0.412   4.658   0.618
 2358SOL     OW 7972   3.207   1.464   4.919
 2358SOL    HW1 7973   3.175   1.475   5.013
 2358SOL    HW2 7974   3.178   1.542   4.864
 2359SOL     OW 7975   2.127   1.866   5.713
 2359SOL    HW1 7976   2.172   1.777   5.720
 2359SOL    HW2 7977   2.070   1.867   5.631
 2360SOL     OW 7978   3.104   5.522   0.567
 2360SOL    HW1 7979   3.027   5.573   0.528
 2360SOL    HW2 7980   3.110   5.542   0.665
 2361SOL     OW 7981   3.697   5.866   1.381
 2361SOL    HW1 7982   3.681   5.885   1.284
 2361SOL    HW2 7983   3.727   5.771   1.392
 2362SOL     OW 7984   3.437   4.962   3.911
 2362SOL    HW1 7985   3.399   4.967   4.003
 2362SOL    HW2 7986   3.367   4.927   3.848
 2363SOL     OW 7987   2.051   3.922   0.837
 2363SOL    HW1 7988   2.032   4.014   0.872
 2363SOL    HW2 7989   1.989   3.856   0.879
 2364SOL     OW 7990   4.265   1.983   2.458
 2364SOL    HW1 7991   4.307   2.024   2.377
 2364SOL    HW2 7992   4.336   1.955   2.522
 2365SOL     OW 7993   4.884   4.377   2.716
 2365SOL    HW1 7994   4.857   4.472   2.701
 2365SOL    HW2 7995   4.814   4.331   2.772
 2366SOL     OW 7996   3.334   5.116   5.654
 2366SOL    HW1 7997   3.252   5.065   5.680
 2366SOL    HW2 7998   3.307   5.199   5.605
 2367SOL     OW 7999   6.038   5.230   6.026
 2367SOL    HW1 8000   6.092   5.148   6.044
 2367SOL    HW2 8001   5.950   5.223   6.074
 2368SOL     OW 8002   5.417   0.886   5.701
 2368SOL    HW1 8003   5.463   0.815   5.649
 2368SOL    HW2 8004   5.390   0.961   5.640
 2369SOL     OW 8005   3.947   2.152   4.140
 2369SOL    HW1 8006   3.868   2.191   4.187
 2369SOL    HW2 8007   4.031   2.190   4.179
 2370SOL     OW 8008   5.122   1.930   1.830
 2370SOL    HW1 8009   5.124   1.834   1.858
 2370SOL    HW2 8010   5.028   1.957   1.809
 2371SOL     OW 8011   1.211   6.454   1.671
 2371SOL    HW1 8012   1.260   6.385   1.724
 2371SOL    HW2 8013   1.113   6.435   1.672
 2372SOL     OW 8014   6.807   6.892   6.468
 2372SOL    HW1 8015   6.749   6.842   6.405
 2372SOL    HW2 8016   6.772   6.985   6.479
 2373SOL     OW 8017   6.014   4.463   5.913
 2373SOL    HW1 8018   5.984   4.458   6.009
 2373SOL    HW2 8019   5.984   4.381   5.865
 2374SOL     OW 8020   6.027   6.445   2.322
 2374SOL    HW1 8021   5.990   6.458   2.414
 2374SOL    HW2 8022   6.119   6.406   2.329
 2375SOL     OW 8023   2.307   0.531   4.416
 2375SOL    HW1 8024   2.321   0.502   4.322
 2375SOL    HW2 8025   2.392   0.518   4.468
 2376SOL     OW 8026   5.238   1.904   2.923
 2376SOL    HW1 8027   5.208   1.999   2.933
 2376SOL    HW2 8028   5.186   1.845   2.985
 2377SOL     OW 8029   4.510   3.680   5.745
 2377SOL    HW1 8030   4.574   3.605   5.727
 2377SOL    HW2 8031   4.443   3.651   5.813
 2378SOL     OW 8032   0.762   1.654   0.214
 2378SOL    HW1 8033   0.784   1.581   0.148
 2378SOL    HW2 8034   0.740   1.738   0.165
 2379SOL     OW 8035   6.990   5.248   2.404
 2379SOL    HW1 8036   6.969   5.333   2.453
 2379SOL    HW2 8037   0.025   5.269   2.327
 2380SOL     OW 8038   4.791   5.366   0.079
 2380SOL    HW1 8039   4.860   5.412   0.134
 2380SOL    HW2 8040   4.780   5.272   0.112
 2381SOL     OW 8041   2.098   3.809   3.659
 2381SOL    HW1 8042   2.137   3.720   3.632
 2381SOL    HW2 8043   2.118   3.826   3.755
 2382SOL     OW 8044   6.907   5.158   3.057
 2382SOL    HW1 8045   6.915   5.255   3.079
 2382SOL    HW2 8046   6.904   5.105   3.141
 2383SOL     OW 8047   5.232   4.025   5.917
 2383SOL    HW1 8048   5.257   3.969   5.996
 2383SOL    HW2 8049   5.180   4.105   5.948
 2384SOL     OW 8050   0.552   2.028   2.704
 2384SOL    HW1 8051   0.463   2.071   2.717
 2384SOL    HW2 8052   0.576   2.030   2.607
 2385SOL     OW 8053   0.083   1.180   0.653
 2385SOL    HW1 8054   0.015   1.251   0.671
 2385SOL    HW2 8055   0.044   1.090   0.676
 2386SOL     OW 8056   5.881   6.308   4.727
 2386SOL    HW1 8057   5.878   6.318   4.826
 2386SOL    HW2 8058   5.969   6.341   4.693
 2387SOL     OW 8059   1.025   0.980   4.053
 2387SOL    HW1 8060   0.942   0.994   4.107
 2387SOL    HW2 8061   1.105   0.992   4.112
 2388SOL     OW 8062   0.432   3.268   5.402
 2388SOL    HW1 8063   0.415   3.186   5.456
 2388SOL    HW2 8064   0.500   3.248   5.332
 2389SOL     OW 8065   4.443   5.449   2.835
 2389SOL    HW1 8066   4.499   5.530   2.849
 2389SOL    HW2 8067   4.467   5.406   2.748
 2390SOL     OW 8068   4.508   2.712   6.765
 2390SOL    HW1 8069   4.589   2.673   6.809
 2390SOL    HW2 8070   4.494   2.805   6.798
 2391SOL     OW 8071   3.574   4.648   6.540
 2391SOL    HW1 8072   3.604   4.687   6.627
 2391SOL    HW2 8073   3.500   4.583   6.556
 2392SOL     OW 8074   4.220   4.893   5.662
 2392SOL    HW1 8075   4.287   4.906   5.590
 2392SOL    HW2 8076   4.262   4.914   5.751
 2393SOL     OW 8077   4.393   4.443   0.915
 2393SOL    HW1 8078   4.440   4.487   0.991
 2393SOL    HW2 8079   4.363   4.352   0.942
 2394SOL     OW 8080   0.397   1.670   3.510
 2394SOL    HW1 8081   0.495   1.656   3.498
 2394SOL    HW2 8082   0.353   1.671   3.420
 2395SOL     OW 8083   0.965   3.090   3.916
 2395SOL    HW1 8084   0.895   3.110   3.984
 2395SOL    HW2 8085   1.033   3.163   3.914
 2396SOL     OW 8086   6.906   0.118   6.770
 2396SOL    HW1 8087   6.811   0.093   6.787
 2396SOL    HW2 8088   6.943   0.063   6.695
 2397SOL     OW 8089   1.615   3.992   5.223
 2397SOL    HW1 8090   1.527   3.967   5.262
 2397SOL    HW2 8091   1.604   4.074   5.166
 2398SOL     OW 8092   4.140   6.735   3.632
 2398SOL    HW1 8093   4.229   6.697   3.608
 2398SOL    HW2 8094   4.081   6.737   3.551
 2399SOL     OW 8095   3.476   2.093   3.092
 2399SOL    HW1 8096   3.569   2.129   3.103
 2399SOL    HW2 8097   3.476   2.021   3.023
 2400SOL     OW 8098   1.610   3.636   0.532
 2400SOL    HW1 8099   1.670   3.628   0.452
 2400SOL    HW2 8100   1.665   3.649   0.614
 2401SOL     OW 8101   1.710   6.163   6.563
 2401SOL    HW1 8102   1.748   6.252   6.536
 2401SOL    HW2 8103   1.652   6.175   6.644
 2402SOL     OW 8104   0.907   3.838   2.203
 2402SOL    HW1 8105   0.841   3.769   2.232
 2402SOL    HW2 8106   0.862   3.927   2.199
 2403SOL     OW 8107   3.268   3.601   5.007
 2403SOL    HW1 8108   3.175   3.587   5.041
 2403SOL    HW2 8109   3.283   3.698   4.989
 2404SOL     OW 8110   5.990   1.376   1.280
 2404SOL    HW1 8111   5.932   1.296   1.294
 2404SOL    HW2 8112   6.063   1.353   1.216
 2405SOL     OW 8113   1.746   3.123   0.529
 2405SOL    HW1 8114   1.773   3.216   0.506
 2405SOL    HW2 8115   1.646   3.115   0.526
 2406SOL     OW 8116   3.270   5.512   4.760
 2406SOL    HW1 8117   3.296   5.556   4.846
 2406SOL    HW2 8118   3.295   5.415   4.763
 2407SOL     OW 8119   2.829   1.356   3.228
 2407SOL    HW1 8120   2.898   1.360   3.301
 2407SOL    HW2 8121   2.805   1.449   3.200
 2408SOL     OW 8122   2.575   0.240   5.500
 2408SOL    HW1 8123   2.502   0.297   5.462
 2408SOL    HW2 8124   2.661   0.291   5.498
 2409SOL     OW 8125   0.874   3.397   0.405
 2409SOL    HW1 8126   0.873   3.368   0.500
 2409SOL    HW2 8127   0.966   3.384   0.367
 2410SOL     OW 8128   0.090   3.161   4.397
 2410SOL    HW1 8129   0.075   3.173   4.298
 2410SOL    HW2 8130   0.164   3.096   4.412
 2411SOL     OW 8131   2.729   1.775   0.013
 2411SOL    HW1 8132   2.700   1.824   0.095
 2411SOL    HW2 8133   2.649   1.744   6.988
 2412SOL     OW 8134   3.310   1.976   5.745
 2412SOL    HW1 8135   3.233   2.004   5.803
 2412SOL    HW2 8136   3.360   1.903   5.790
 2413SOL     OW 8137   0.309   3.157   0.204
 2413SOL    HW1 8138   0.316   3.068   0.250
 2413SOL    HW2 8139   0.394   3.176   0.155
 2414SOL     OW 8140   6.571   0.932   5.084
 2414SOL    HW1 8141   6.658   0.900   5.046
 2414SOL    HW2 8142   6.552   0.881   5.168
 2415SOL     OW 8143   2.993   4.871   6.238
 2415SOL    HW1 8144   3.061   4.914   6.179
 2415SOL    HW2 8145   2.965   4.936   6.309
 2416SOL     OW 8146   0.070   2.280   2.835
 2416SOL    HW1 8147   0.011   2.358   2.858
 2416SOL    HW2 8148   0.019   2.195   2.851
 2417SOL     OW 8149   2.810   2.550   1.363
 2417SOL    HW1 8150   2.752   2.523   1.286
 2417SOL    HW2 8151   2.847   2.469   1.407
 2418SOL     OW 8152   4.849   3.710   6.742
 2418SOL    HW1 8153   4.926   3.738   6.684
 2418SOL    HW2 8154   4.863   3.615   6.772
 2419SOL     OW 8155   2.733   0.645   3.420
 2419SOL    HW1 8156   2.767   0.733   3.455
 2419SOL    HW2 8157   2.701   0.589   3.496
 2420SOL     OW 8158   1.018   3.985   2.753
 2420SOL    HW1 8159   1.042   3.892   2.724
 2420SOL    HW2 8160   1.005   3.987   2.852
 2421SOL     OW 8161   3.401   6.649   3.568
 2421SOL    HW1 8162   3.356   6.564   3.595
 2421SOL    HW2 8163   3.333   6.722   3.560
 2422SOL     OW 8164   4.450   4.790   0.874
 2422SOL    HW1 8165   4.372   4.746   0.919
 2422SOL    HW2 8166   4.430   4.802   0.777
 2423SOL     OW 8167   2.351   5.281   3.595
 2423SOL    HW1 8168   2.409   5.206   3.627
 2423SOL    HW2 8169   2.269   5.243   3.551
 2424SOL     OW 8170   4.829   6.706   6.204
 2424SOL    HW1 8171   4.908   6.731   6.149
 2424SOL    HW2 8172   4.750   6.689   6.145
 2425SOL     OW 8173   4.516   5.793   4.875
 2425SOL    HW1 8174   4.557   5.771   4.963
 2425SOL    HW2 8175   4.584   5.782   4.803
 2426SOL     OW 8176   2.457   2.491   4.904
 2426SOL    HW1 8177   2.505   2.425   4.961
 2426SOL    HW2 8178   2.363   2.462   4.890
 2427SOL     OW 8179   4.968   1.035   0.507
 2427SOL    HW1 8180   5.058   1.048   0.548
 2427SOL    HW2 8181   4.919   1.122   0.507
 2428SOL     OW 8182   1.506   1.599   2.979
 2428SOL    HW1 8183   1.407   1.588   2.980
 2428SOL    HW2 8184   1.530   1.687   3.020
 2429SOL     OW 8185   6.520   5.244   1.380
 2429SOL    HW1 8186   6.602   5.300   1.393
 2429SOL    HW2 8187   6.463   5.285   1.308
 2430SOL     OW 8188   6.501   0.937   6.327
 2430SOL    HW1 8189   6.562   0.926   6.405
 2430SOL    HW2 8190   6.538   1.007   6.265
 2431SOL     OW 8191   0.775   3.255   1.813
 2431SOL    HW1 8192   0.775   3.159   1.787
 2431SOL    HW2 8193   0.869   3.285   1.829
 2432SOL     OW 8194   2.383   5.114   1.864
 2432SOL    HW1 8195   2.306   5.071   1.817
 2432SOL    HW2 8196   2.410   5.197   1.815
 2433SOL     OW 8197   7.014   4.276   5.601
 2433SOL    HW1 8198   0.052   4.261   5.525
 2433SOL    HW2 8199   6.923   4.299   5.564
 2434SOL     OW 8200   4.588   0.836   2.857
 2434SOL    HW1 8201   4.604   0.929   2.824
 2434SOL    HW2 8202   4.561   0.777   2.781
 2435SOL     OW 8203   5.952   6.848   0.113
 2435SOL    HW1 8204   5.864   6.884   0.144
 2435SOL    HW2 8205   5.942   6.810   0.021
 2436SOL     OW 8206   0.305   2.839   0.817
 2436SOL    HW1 8207   0.322   2.857   0.914
 2436SOL    HW2 8208   0.331   2.919   0.763
 2437SOL     OW 8209   6.847   3.790   1.700
 2437SOL    HW1 8210   6.768   3.731   1.685
 2437SOL    HW2 8211   6.834   3.877   1.653
 2438SOL     OW 8212   3.695   1.635   4.651
 2438SOL    HW1 8213   3.686   1.729   4.685
 2438SOL    HW2 8214   3.620   1.615   4.588
 2439SOL     OW 8215   1.734   5.407   1.309
 2439SOL    HW1 8216   1.703   5.337   1.245
 2439SOL    HW2 8217   1.660   5.429   1.373
 2440SOL     OW 8218   6.391   0.796   5.725
 2440SOL    HW1 8219   6.473   0.774   5.672
 2440SOL    HW2 8220   6.407   0.879   5.778
 2441SOL     OW 8221   5.721   0.657   0.926
 2441SOL    HW1 8222   5.693   0.722   0.997
 2441SOL    HW2 8223   5.651   0.654   0.854
 2442SOL     OW 8224   5.393   3.048   1.686
 2442SOL    HW1 8225   5.294   3.049   1.674
 2442SOL    HW2 8226   5.433   2.975   1.630
 2443SOL     OW 8227   0.506   3.500   1.417
 2443SOL    HW1 8228   0.417   3.545   1.406
 2443SOL    HW2 8229   0.526   3.445   1.336
 2444SOL     OW 8230   3.595   5.233   2.348
 2444SOL    HW1 8231   3.690   5.264   2.359
 2444SOL    HW2 8232   3.557   5.210   2.438
 2445SOL     OW 8233   0.383   1.713   1.131
 2445SOL    HW1 8234   0.409   1.642   1.196
 2445SOL    HW2 8235   0.450   1.718   1.058
 2446SOL     OW 8236   0.974   5.751   1.924
 2446SOL    HW1 8237   0.962   5.676   1.990
 2446SOL    HW2 8238   0.960   5.838   1.970
 2447SOL     OW 8239   2.198   0.147   0.184
 2447SOL    HW1 8240   2.145   0.065   0.162
 2447SOL    HW2 8241   2.291   0.135   0.151
 2448SOL     OW 8242   5.618   1.003   4.677
 2448SOL    HW1 8243   5.598   0.919   4.729
 2448SOL    HW2 8244   5.540   1.024   4.618
 2449SOL     OW 8245   1.289   4.463   1.650
 2449SOL    HW1 8246   1.338   4.396   1.593
 2449SOL    HW2 8247   1.212   4.418   1.695
 2450SOL     OW 8248   1.047   6.367   4.811
 2450SOL    HW1 8249   1.012   6.365   4.718
 2450SOL    HW2 8250   0.985   6.421   4.869
 2451SOL     OW 8251   1.497   6.438   5.592
 2451SOL    HW1 8252   1.542   6.527   5.577
 2451SOL    HW2 8253   1.407   6.439   5.549
 2452SOL     OW 8254   2.573   1.760   3.332
 2452SOL    HW1 8255   2.539   1.716   3.415
 2452SOL    HW2 8256   2.506   1.750   3.258
 2453SOL     OW 8257   1.154   1.611   5.913
 2453SOL    HW1 8258   1.242   1.599   5.868
 2453SOL    HW2 8259   1.083   1.627   5.843
 2454SOL     OW 8260   3.464   6.073   1.218
 2454SOL    HW1 8261   3.416   6.075   1.130
 2454SOL    HW2 8262   3.398   6.063   1.292
 2455SOL     OW 8263   4.267   2.287   0.993
 2455SOL    HW1 8264   4.216   2.340   0.925
 2455SOL    HW2 8265   4.224   2.198   1.004
 2456SOL     OW 8266   0.534   3.465   5.774
 2456SOL    HW1 8267   0.607   3.509   5.827
 2456SOL    HW2 8268   0.463   3.432   5.835
 2457SOL     OW 8269   4.157   2.060   5.366
 2457SOL    HW1 8270   4.095   2.048   5.443
 2457SOL    HW2 8271   4.252   2.057   5.398
 2458SOL     OW 8272   0.597   6.828   3.138
 2458SOL    HW1 8273   0.676   6.767   3.151
 2458SOL    HW2 8274   0.617   6.917   3.180
 2459SOL     OW 8275   2.021   6.906   0.511
 2459SOL    HW1 8276   2.096   6.897   0.577
 2459SOL    HW2 8277   1.990   7.000   0.508
 2460SOL     OW 8278   0.610   1.076   4.847
 2460SOL    HW1 8279   0.639   1.140   4.918
 2460SOL    HW2 8280   0.514   1.052   4.860
 2461SOL     OW 8281   4.625   1.300   3.389
 2461SOL    HW1 8282   4.662   1.300   3.482
 2461SOL    HW2 8283   4.526   1.286   3.392
 2462SOL     OW 8284   0.230   5.224   0.369
 2462SOL    HW1 8285   0.261   5.129   0.373
 2462SOL    HW2 8286   0.261   5.265   0.283
 2463SOL     OW 8287   6.357   0.526   0.073
 2463SOL    HW1 8288   6.296   0.468   0.019
 2463SOL    HW2 8289   6.405   0.471   0.141
 2464SOL     OW 8290   0.766   2.335   4.426
 2464SOL    HW1 8291   0.766   2.244   4.383
 2464SOL    HW2 8292   0.683   2.384   4.398
 2465SOL     OW 8293   0.065   6.838   5.864
 2465SOL    HW1 8294   0.084   6.795   5.775
 2465SOL    HW2 8295   0.107   6.783   5.936
 2466SOL     OW 8296   0.992   1.808   1.664
 2466SOL    HW1 8297   1.013   1.803   1.761
 2466SOL    HW2 8298   0.915   1.747   1.643
 2467SOL     OW 8299   6.144   2.658   5.324
 2467SOL    HW1 8300   6.083   2.584   5.296
 2467SOL    HW2 8301   6.235   2.642   5.285
 2468SOL     OW 8302   3.722   6.811   5.349
 2468SOL    HW1 8303   3.774   6.736   5.309
 2468SOL    HW2 8304   3.670   6.857   5.277
 2469SOL     OW 8305   3.477   1.899   5.371
 2469SOL    HW1 8306   3.473   1.956   5.289
 2469SOL    HW2 8307   3.550   1.831   5.361
 2470SOL     OW 8308   2.804   5.129   6.109
 2470SOL    HW1 8309   2.805   5.041   6.156
 2470SOL    HW2 8310   2.888   5.140   6.056
 2471SOL     OW 8311   2.838   5.365   1.791
 2471SOL    HW1 8312   2.928   5.389   1.825
 2471SOL    HW2 8313   2.846   5.292   1.723
 2472SOL     OW 8314   4.921   1.482   3.802
 2472SOL    HW1 8315   4.972   1.421   3.864
 2472SOL    HW2 8316   4.986   1.540   3.753
 2473SOL     OW 8317   0.429   4.421   3.827
 2473SOL    HW1 8318   0.407   4.323   3.833
 2473SOL    HW2 8319   0.409   4.465   3.914
 2474SOL     OW 8320   0.866   6.016   1.907
 2474SOL    HW1 8321   0.779   6.052   1.941
 2474SOL    HW2 8322   0.896   6.070   1.828
 2475SOL     OW 8323   4.568   1.049   0.271
 2475SOL    HW1 8324   4.488   1.078   0.323
 2475SOL    HW2 8325   4.586   0.952   0.289
 2476SOL     OW 8326   4.981   0.580   0.580
 2476SOL    HW1 8327   4.994   0.583   0.679
 2476SOL    HW2 8328   5.010   0.667   0.540
 2477SOL     OW 8329   3.941   0.237   3.131
 2477SOL    HW1 8330   3.896   0.245   3.220
 2477SOL    HW2 8331   3.880   0.271   3.060
 2478SOL     OW 8332   4.954   0.069   4.810
 2478SOL    HW1 8333   4.996   0.067   4.901
 2478SOL    HW2 8334   5.021   0.103   4.744
 2479SOL     OW 8335   6.146   3.259   0.625
 2479SOL    HW1 8336   6.061   3.282   0.671
 2479SOL    HW2 8337   6.127   3.234   0.530
 2480SOL     OW 8338   3.512   2.452   1.395
 2480SOL    HW1 8339   3.583   2.413   1.453
 2480SOL    HW2 8340   3.436   2.482   1.453
 2481SOL     OW 8341   3.100   0.309   1.420
 2481SOL    HW1 8342   3.136   0.296   1.512
 2481SOL    HW2 8343   3.132   0.234   1.361
 2482SOL     OW 8344   6.295   3.450   6.785
 2482SOL    HW1 8345   6.290   3.453   6.685
 2482SOL    HW2 8346   6.278   3.542   6.821
 2483SOL     OW 8347   1.444   2.547   1.018
 2483SOL    HW1 8348   1.364   2.603   0.996
 2483SOL    HW2 8349   1.419   2.479   1.087
 2484SOL     OW 8350   4.336   1.212   1.090
 2484SOL    HW1 8351   4.399   1.142   1.056
 2484SOL    HW2 8352   4.311   1.274   1.016
 2485SOL     OW 8353   0.058   2.135   6.377
 2485SOL    HW1 8354   0.157   2.130   6.386
 2485SOL    HW2 8355   0.031   2.229   6.357
 2486SOL     OW 8356   6.752   5.254   4.828
 2486SOL    HW1 8357   6.784   5.285   4.918
 2486SOL    HW2 8358   6.761   5.328   4.762
 2487SOL     OW 8359   4.970   6.442   6.589
 2487SOL    HW1 8360   4.915   6.433   6.672
 2487SOL    HW2 8361   4.971   6.538   6.560
 2488SOL     OW 8362   6.229   4.069   0.805
 2488SOL    HW1 8363   6.217   3.970   0.798
 2488SOL    HW2 8364   6.266   4.092   0.895
 2489SOL     OW 8365   6.589   5.740   4.722
 2489SOL    HW1 8366   6.676   5.761   4.677
 2489SOL    HW2 8367   6.575   5.804   4.798
 2490SOL     OW 8368   2.700   5.757   3.341
 2490SOL    HW1 8369   2.689   5.814   3.423
 2490SOL    HW2 8370   2.719   5.663   3.369
 2491SOL     OW 8371   3.669   4.756   1.472
 2491SOL    HW1 8372   3.626   4.666   1.476
 2491SOL    HW2 8373   3.751   4.752   1.415
 2492SOL     OW 8374   6.826   4.866   1.393
 2492SOL    HW1 8375   6.776   4.799   1.447
 2492SOL    HW2 8376   6.919   4.876   1.430
 2493SOL     OW 8377   5.367   6.896   0.921
 2493SOL    HW1 8378   5.280   6.901   0.871
 2493SOL    HW2 8379   5.436   6.852   0.864
 2494SOL     OW 8380   6.203   3.939   2.264
 2494SOL    HW1 8381   6.141   4.010   2.231
 2494SOL    HW2 8382   6.166   3.898   2.347
 2495SOL     OW 8383   0.315   4.757   2.851
 2495SOL    HW1 8384   0.294   4.730   2.945
 2495SOL    HW2 8385   0.342   4.676   2.799
 2496SOL     OW 8386   6.196   4.517   6.304
 2496SOL    HW1 8387   6.267   4.455   6.270
 2496SOL    HW2 8388   6.168   4.488   6.396
 2497SOL     OW 8389   0.291   0.390   2.300
 2497SOL    HW1 8390   0.193   0.389   2.278
 2497SOL    HW2 8391   0.343   0.424   2.222
 2498SOL     OW 8392   2.442   4.206   5.913
 2498SOL    HW1 8393   2.364   4.146   5.933
 2498SOL    HW2 8394   2.444   4.227   5.816
 2499SOL     OW 8395   6.566   3.546   2.157
 2499SOL    HW1 8396   6.562   3.627   2.216
 2499SOL    HW2 8397   6.640   3.486   2.187
 2500SOL     OW 8398   3.235   3.708   0.439
 2500SOL    HW1 8399   3.255   3.616   0.407
 2500SOL    HW2 8400   3.141   3.732   0.415
 2501SOL     OW 8401   5.769   5.379   6.695
 2501SOL    HW1 8402   5.720   5.429   6.624
 2501SOL    HW2 8403   5.867   5.387   6.678
 2502SOL     OW 8404   2.681   5.541   4.393
 2502SOL    HW1 8405   2.731   5.507   4.473
 2502SOL    HW2 8406   2.598   5.485   4.380
 2503SOL     OW 8407   2.815   6.942   5.657
 2503SOL    HW1 8408   2.856   0.005   5.676
 2503SOL    HW2 8409   2.843   6.877   5.728
 2504SOL     OW 8410   3.538   6.923   3.637
 2504SOL    HW1 8411   3.611   6.971   3.588
 2504SOL    HW2 8412   3.532   6.829   3.605
 2505SOL     OW 8413   0.356   5.005   3.603
 2505SOL    HW1 8414   0.269   5.035   3.641
 2505SOL    HW2 8415   0.360   5.028   3.505
 2506SOL     OW 8416   5.143   5.575   5.973
 2506SOL    HW1 8417   5.142   5.675   5.975
 2506SOL    HW2 8418   5.185   5.544   5.888
 2507SOL     OW 8419   6.757   3.308   1.545
 2507SOL    HW1 8420   6.785   3.401   1.520
 2507SOL    HW2 8421   6.659   3.298   1.529
 2508SOL     OW 8422   4.998   1.569   4.629
 2508SOL    HW1 8423   4.978   1.609   4.718
 2508SOL    HW2 8424   4.957   1.478   4.624
 2509SOL     OW 8425   0.051   4.066   5.778
 2509SOL    HW1 8426   0.076   4.153   5.735
 2509SOL    HW2 8427   0.092   4.061   5.869
 2510SOL     OW 8428   3.420   4.025   1.821
 2510SOL    HW1 8429   3.466   4.023   1.910
 2510SOL    HW2 8430   3.467   4.089   1.761
 2511SOL     OW 8431   1.833   0.514   5.110
 2511SOL    HW1 8432   1.800   0.594   5.062
 2511SOL    HW2 8433   1.924   0.489   5.076
 2512SOL     OW 8434   3.410   4.984   4.238
 2512SOL    HW1 8435   3.373   4.900   4.275
 2512SOL    HW2 8436   3.337   5.052   4.229
 2513SOL     OW 8437   2.554   5.574   5.719
 2513SOL    HW1 8438   2.586   5.494   5.768
 2513SOL    HW2 8439   2.468   5.607   5.760
 2514SOL     OW 8440   1.473   2.143   2.728
 2514SOL    HW1 8441   1.554   2.148   2.786
 2514SOL    HW2 8442   1.491   2.191   2.642
 2515SOL     OW 8443   1.254   1.395   1.231
 2515SOL    HW1 8444   1.203   1.427   1.152
 2515SOL    HW2 8445   1.303   1.311   1.208
 2516SOL     OW 8446   6.111   2.054   4.095
 2516SOL    HW1 8447   6.022   2.019   4.126
 2516SOL    HW2 8448   6.098   2.106   4.011
 2517SOL     OW 8449   1.698   1.553   4.084
 2517SOL    HW1 8450   1.671   1.625   4.148
 2517SOL    HW2 8451   1.769   1.496   4.126
 2518SOL     OW 8452   2.854   5.048   1.050
 2518SOL    HW1 8453   2.902   4.983   1.108
 2518SOL    HW2 8454   2.920   5.111   1.008
 2519SOL     OW 8455   1.111   1.247   0.888
 2519SOL    HW1 8456   1.112   1.340   0.923
 2519SOL    HW2 8457   1.194   1.199   0.917
 2520SOL     OW 8458   2.632   2.103   0.483
 2520SOL    HW1 8459   2.676   2.192   0.473
 2520SOL    HW2 8460   2.647   2.048   0.401
 2521SOL     OW 8461   4.997   1.432   5.503
 2521SOL    HW1 8462   4.949   1.463   5.421
 2521SOL    HW2 8463   4.935   1.437   5.581
 2522SOL     OW 8464   0.931   2.699   6.134
 2522SOL    HW1 8465   0.967   2.713   6.042
 2522SOL    HW2 8466   1.007   2.694   6.199
 2523SOL     OW 8467   2.214   5.000   6.939
 2523SOL    HW1 8468   2.228   4.905   6.912
 2523SOL    HW2 8469   2.138   5.039   6.887
 2524SOL     OW 8470   1.721   7.018   4.023
 2524SOL    HW1 8471   1.738   6.971   4.109
 2524SOL    HW2 8472   1.628   7.001   3.992
 2525SOL     OW 8473   6.761   2.402   4.880
 2525SOL    HW1 8474   6.834   2.402   4.949
 2525SOL    HW2 8475   6.777   2.477   4.815
 2526SOL     OW 8476   1.153   6.667   1.018
 2526SOL    HW1 8477   1.068   6.682   1.068
 2526SOL    HW2 8478   1.181   6.571   1.028
 2527SOL     OW 8479   5.066   4.637   6.319
 2527SOL    HW1 8480   5.069   4.681   6.230
 2527SOL    HW2 8481   4.978   4.655   6.363
 2528SOL     OW 8482   4.431   5.713   6.580
 2528SOL    HW1 8483   4.346   5.757   6.608
 2528SOL    HW2 8484   4.503   5.735   6.646
 2529SOL     OW 8485   0.174   6.808   6.762
 2529SOL    HW1 8486   0.117   6.745   6.814
 2529SOL    HW2 8487   0.120   6.848   6.687
 2530SOL     OW 8488   2.097   5.692   6.232
 2530SOL    HW1 8489   2.176   5.645   6.194
 2530SOL    HW2 8490   2.083   5.778   6.183
 2531SOL     OW 8491   6.472   5.150   6.083
 2531SOL    HW1 8492   6.409   5.122   6.011
 2531SOL    HW2 8493   6.559   5.178   6.042
 2532SOL     OW 8494   5.890   6.528   1.151
 2532SOL    HW1 8495   5.911   6.616   1.108
 2532SOL    HW2 8496   5.864   6.543   1.247
 2533SOL     OW 8497   4.928   1.003   3.472
 2533SOL    HW1 8498   4.970   1.091   3.447
 2533SOL    HW2 8499   4.998   0.932   3.471
 2534SOL     OW 8500   4.583   1.670   3.132
 2534SOL    HW1 8501   4.520   1.607   3.087
 2534SOL    HW2 8502   4.541   1.761   3.137
 2535SOL     OW 8503   3.788   2.949   6.247
 2535SOL    HW1 8504   3.765   2.887   6.323
 2535SOL    HW2 8505   3.715   3.015   6.234
 2536SOL     OW 8506   1.206   0.622   0.587
 2536SOL    HW1 8507   1.192   0.601   0.490
 2536SOL    HW2 8508   1.229   0.719   0.597
 2537SOL     OW 8509   4.036   0.408   6.683
 2537SOL    HW1 8510   4.075   0.356   6.607
 2537SOL    HW2 8511   4.099   0.406   6.761
 2538SOL     OW 8512   6.683   3.572   3.971
 2538SOL    HW1 8513   6.741   3.652   3.955
 2538SOL    HW2 8514   6.655   3.533   3.883
 2539SOL     OW 8515   5.168   2.117   5.528
 2539SOL    HW1 8516   5.127   2.053   5.463
 2539SOL    HW2 8517   5.201   2.067   5.608
 2540SOL     OW 8518   3.477   1.920   2.083
 2540SOL    HW1 8519   3.434   2.001   2.044
 2540SOL    HW2 8520   3.415   1.878   2.150
 2541SOL     OW 8521   3.570   6.417   4.731
 2541SOL    HW1 8522   3.490   6.477   4.741
 2541SOL    HW2 8523   3.653   6.473   4.725
 2542SOL     OW 8524   1.913   4.933   6.309
 2542SOL    HW1 8525   1.825   4.964   6.345
 2542SOL    HW2 8526   1.986   4.992   6.344
 2543SOL     OW 8527   1.855   1.024   3.741
 2543SOL    HW1 8528   1.813   1.114   3.750
 2543SOL    HW2 8529   1.843   0.973   3.826
 2544SOL     OW 8530   1.009   4.604   0.320
 2544SOL    HW1 8531   1.036   4.584   0.226
 2544SOL    HW2 8532   1.052   4.538   0.382
 2545SOL     OW 8533   2.492   6.179   3.069
 2545SOL    HW1 8534   2.462   6.169   3.163
 2545SOL    HW2 8535   2.474   6.095   3.018
 2546SOL     OW 8536   6.393   1.533   1.164
 2546SOL    HW1 8537   6.310   1.551   1.112
 2546SOL    HW2 8538   6.473   1.549   1.106
 2547SOL     OW 8539   0.366   3.758   4.888
 2547SOL    HW1 8540   0.393   3.747   4.984
 2547SOL    HW2 8541   0.427   3.705   4.830
 2548SOL     OW 8542   0.826   6.582   4.460
 2548SOL    HW1 8543   0.821   6.567   4.361
 2548SOL    HW2 8544   0.899   6.647   4.480
 2549SOL     OW 8545   6.745   2.526   1.064
 2549SOL    HW1 8546   6.718   2.509   0.969
 2549SOL    HW2 8547   6.678   2.485   1.125
 2550SOL     OW 8548   6.246   6.144   0.089
 2550SOL    HW1 8549   6.190   6.192   0.156
 2550SOL    HW2 8550   6.191   6.124   0.008
 2551SOL     OW 8551   1.412   4.227   0.026
 2551SOL    HW1 8552   1.506   4.261   0.020
 2551SOL    HW2 8553   1.401   4.147   6.993
 2552SOL     OW 8554   2.117   5.787   3.563
 2552SOL    HW1 8555   2.117   5.717   3.635
 2552SOL    HW2 8556   2.028   5.785   3.516
 2553SOL     OW 8557   3.485   3.609   0.005
 2553SOL    HW1 8558   3.567   3.653   6.994
 2553SOL    HW2 8559   3.509   3.551   0.083
 2554SOL     OW 8560   1.317   1.190   6.900
 2554SOL    HW1 8561   1.346   1.221   6.991
 2554SOL    HW2 8562   1.345   1.258   6.832
 2555SOL     OW 8563   6.192   1.671   0.180
 2555SOL    HW1 8564   6.121   1.601   0.186
 2555SOL    HW2 8565   6.239   1.678   0.268
 2556SOL     OW 8566   3.063   6.228   0.928
 2556SOL    HW1 8567   3.063   6.286   1.009
 2556SOL    HW2 8568   3.072   6.132   0.955
 2557SOL     OW 8569   2.440   3.917   0.062
 2557SOL    HW1 8570   2.353   3.894   0.019
 2557SOL    HW2 8571   2.423   3.958   0.152
 2558SOL     OW 8572   4.097   0.389   6.003
 2558SOL    HW1 8573   4.036   0.343   5.939
 2558SOL    HW2 8574   4.083   0.353   6.095
 2559SOL     OW 8575   0.353   4.597   4.877
 2559SOL    HW1 8576   0.451   4.578   4.887
 2559SOL    HW2 8577   0.340   4.689   4.840
 2560SOL     OW 8578   6.144   2.173   6.717
 2560SOL    HW1 8579   6.201   2.180   6.799
 2560SOL    HW2 8580   6.050   2.153   6.745
 2561SOL     OW 8581   3.310   5.251   4.740
 2561SOL    HW1 8582   3.310   5.228   4.642
 2561SOL    HW2 8583   3.314   5.168   4.794
 2562SOL     OW 8584   1.792   3.994   0.052
 2562SOL    HW1 8585   1.836   4.042   0.128
 2562SOL    HW2 8586   1.721   3.933   0.088
 2563SOL     OW 8587   2.295   1.203   0.134
 2563SOL    HW1 8588   2.277   1.229   0.228
 2563SOL    HW2 8589   2.386   1.161   0.128
 2564SOL     OW 8590   1.986   5.484   1.464
 2564SOL    HW1 8591   1.910   5.465   1.402
 2564SOL    HW2 8592   2.068   5.437   1.431
 2565SOL     OW 8593   2.142   0.563   1.015
 2565SOL    HW1 8594   2.066   0.554   1.079
 2565SOL    HW2 8595   2.217   0.502   1.044
 2566SOL     OW 8596   1.748   6.445   6.499
 2566SOL    HW1 8597   1.740   6.460   6.597
 2566SOL    HW2 8598   1.686   6.507   6.451
 2567SOL     OW 8599   1.310   6.195   0.223
 2567SOL    HW1 8600   1.406   6.167   0.229
 2567SOL    HW2 8601   1.304   6.294   0.228
 2568SOL     OW 8602   4.754   3.037   6.894
 2568SOL    HW1 8603   4.818   2.969   6.928
 2568SOL    HW2 8604   4.737   3.106   6.964
 2569SOL     OW 8605   2.580   0.314   3.054
 2569SOL    HW1 8606   2.585   0.391   3.118
 2569SOL    HW2 8607   2.627   0.235   3.093
 2570SOL     OW 8608   5.518   2.026   6.427
 2570SOL    HW1 8609   5.424   2.002   6.452
 2570SOL    HW2 8610   5.519   2.117   6.385
 2571SOL     OW 8611   1.268   4.221   4.761
 2571SOL    HW1 8612   1.236   4.287   4.693
 2571SOL    HW2 8613   1.287   4.134   4.716
 2572SOL     OW 8614   1.968   4.631   2.931
 2572SOL    HW1 8615   1.915   4.716   2.924
 2572SOL    HW2 8616   1.965   4.597   3.025
 2573SOL     OW 8617   0.869   0.206   0.816
 2573SOL    HW1 8618   0.781   0.255   0.817
 2573SOL    HW2 8619   0.943   0.271   0.833
 2574SOL     OW 8620   6.437   3.191   0.117
 2574SOL    HW1 8621   6.465   3.137   0.038
 2574SOL    HW2 8622   6.346   3.231   0.101
 2575SOL     OW 8623   7.026   5.519   5.897
 2575SOL    HW1 8624   0.096   5.499   5.915
 2575SOL    HW2 8625   7.017   5.614   5.868
 2576SOL     OW 8626   4.148   6.168   3.902
 2576SOL    HW1 8627   4.230   6.190   3.956
 2576SOL    HW2 8628   4.109   6.082   3.935
 2577SOL     OW 8629   2.374   4.306   2.426
 2577SOL    HW1 8630   2.294   4.264   2.384
 2577SOL    HW2 8631   2.457   4.259   2.396
 2578SOL     OW 8632   4.190   2.270   4.093
 2578SOL    HW1 8633   4.208   2.194   4.030
 2578SOL    HW2 8634   4.171   2.353   4.040
 2579SOL     OW 8635   1.053   6.350   3.816
 2579SOL    HW1 8636   1.117   6.278   3.788
 2579SOL    HW2 8637   1.102   6.418   3.870
 2580SOL     OW 8638   1.463   2.425   6.354
 2580SOL    HW1 8639   1.532   2.437   6.425
 2580SOL    HW2 8640   1.480   2.340   6.304
 2581SOL     OW 8641   3.768   0.311   5.239
 2581SOL    HW1 8642   3.674   0.319   5.206
 2581SOL    HW2 8643   3.768   0.291   5.337
 2582SOL     OW 8644   0.138   2.982   1.737
 2582SOL    HW1 8645   0.188   3.062   1.703
 2582SOL    HW2 8646   0.115   2.922   1.660
 2583SOL     OW 8647   5.806   0.121   0.949
 2583SOL    HW1 8648   5.754   0.200   0.916
 2583SOL    HW2 8649   5.776   0.098   1.042
 2584SOL     OW 8650   4.734   4.743   5.746
 2584SOL    HW1 8651   4.826   4.720   5.777
 2584SOL    HW2 8652   4.712   4.837   5.774
 2585SOL     OW 8653   3.573   5.431   6.348
 2585SOL    HW1 8654   3.492   5.395   6.302
 2585SOL    HW2 8655   3.557   5.436   6.446
 2586SOL     OW 8656   2.361   0.858   4.002
 2586SOL    HW1 8657   2.446   0.816   4.034
 2586SOL    HW2 8658   2.296   0.787   3.975
 2587SOL     OW 8659   6.720   1.402   3.725
 2587SOL    HW1 8660   6.653   1.343   3.769
 2587SOL    HW2 8661   6.812   1.365   3.740
 2588SOL     OW 8662   4.005   0.952   6.123
 2588SOL    HW1 8663   4.057   1.018   6.176
 2588SOL    HW2 8664   4.061   0.920   6.046
 2589SOL     OW 8665   1.952   6.445   0.011
 2589SOL    HW1 8666   1.954   6.543   7.016
 2589SOL    HW2 8667   2.037   6.403   7.004
 2590SOL     OW 8668   2.769   5.766   0.937
 2590SOL    HW1 8669   2.795   5.676   0.972
 2590SOL    HW2 8670   2.829   5.791   0.861
 2591SOL     OW 8671   5.939   5.682   3.971
 2591SOL    HW1 8672   5.928   5.752   4.041
 2591SOL    HW2 8673   6.013   5.709   3.908
 2592SOL     OW 8674   2.452   4.207   1.074
 2592SOL    HW1 8675   2.372   4.261   1.102
 2592SOL    HW2 8676   2.423   4.114   1.050
 2593SOL     OW 8677   3.306   4.491   0.505
 2593SOL    HW1 8678   3.224   4.525   0.459
 2593SOL    HW2 8679   3.320   4.395   0.480
 2594SOL     OW 8680   1.488   3.664   4.522
 2594SOL    HW1 8681   1.578   3.687   4.487
 2594SOL    HW2 8682   1.482   3.689   4.619
 2595SOL     OW 8683   1.733   1.296   2.619
 2595SOL    HW1 8684   1.726   1.369   2.687
 2595SOL    HW2 8685   1.693   1.327   2.533
 2596SOL     OW 8686   1.073   2.327   7.024
 2596SOL    HW1 8687   1.133   2.390   6.975
 2596SOL    HW2 8688   1.043   2.255   6.962
 2597SOL     OW 8689   7.013   5.967   6.196
 2597SOL    HW1 8690   6.925   5.937   6.159
 2597SOL    HW2 8691   7.000   6.049   6.251
 2598SOL     OW 8692   5.516   2.651   2.902
 2598SOL    HW1 8693   5.493   2.576   2.964
 2598SOL    HW2 8694   5.514   2.738   2.952
 2599SOL     OW 8695   2.905   6.152   1.766
 2599SOL    HW1 8696   2.918   6.251   1.771
 2599SOL    HW2 8697   2.990   6.106   1.791
 2600SOL     OW 8698   6.135   4.349   4.276
 2600SOL    HW1 8699   6.089   4.347   4.188
 2600SOL    HW2 8700   6.152   4.444   4.303
 2601SOL     OW 8701   6.883   1.905   3.573
 2601SOL    HW1 8702   6.911   1.815   3.607
 2601SOL    HW2 8703   6.931   1.925   3.488
 2602SOL     OW 8704   1.380   4.255   3.460
 2602SOL    HW1 8705   1.335   4.175   3.422
 2602SOL    HW2 8706   1.463   4.227   3.508
 2603SOL     OW 8707   3.120   6.540   2.815
 2603SOL    HW1 8708   3.095   6.556   2.720
 2603SOL    HW2 8709   3.088   6.616   2.871
 2604SOL     OW 8710   4.669   2.709   3.698
 2604SOL    HW1 8711   4.685   2.799   3.737
 2604SOL    HW2 8712   4.645   2.718   3.601
 2605SOL     OW 8713   1.908   4.017   1.461
 2605SOL    HW1 8714   1.842   4.092   1.462
 2605SOL    HW2 8715   1.902   3.965   1.546
 2606SOL     OW 8716   4.377   3.434   1.442
 2606SOL    HW1 8717   4.448   3.481   1.390
 2606SOL    HW2 8718   4.313   3.390   1.379
 2607SOL     OW 8719   2.634   2.233   1.363
 2607SOL    HW1 8720   2.622   2.315   1.307
 2607SOL    HW2 8721   2.676   2.161   1.308
 2608SOL     OW 8722   2.708   5.031   5.766
 2608SOL    HW1 8723   2.692   5.080   5.680
 2608SOL    HW2 8724   2.769   5.085   5.824
 2609SOL     OW 8725   6.711   2.497   0.786
 2609SOL    HW1 8726   6.657   2.572   0.747
 2609SOL    HW2 8727   6.806   2.525   0.793
 2610SOL     OW 8728   1.347   4.677   4.578
 2610SOL    HW1 8729   1.433   4.683   4.629
 2610SOL    HW2 8730   1.347   4.745   4.505
 2611SOL     OW 8731   5.027   6.915   6.657
 2611SOL    HW1 8732   4.961   6.846   6.686
 2611SOL    HW2 8733   5.016   6.998   6.711
 2612SOL     OW 8734   6.431   0.368   5.334
 2612SOL    HW1 8735   6.467   0.394   5.244
 2612SOL    HW2 8736   6.385   0.447   5.374
 2613SOL     OW 8737   0.845   6.526   6.725
 2613SOL    HW1 8738   0.828   6.510   6.823
 2613SOL    HW2 8739   0.791   6.605   6.694
 2614SOL     OW 8740   6.372   1.504   6.537
 2614SOL    HW1 8741   6.438   1.477   6.607
 2614SOL    HW2 8742   6.280   1.486   6.569
 2615SOL     OW 8743   0.636   3.404   0.235
 2615SOL    HW1 8744   0.699   3.407   0.312
 2615SOL    HW2 8745   0.660   3.475   0.169
 2616SOL     OW 8746   1.473   0.951   5.525
 2616SOL    HW1 8747   1.445   0.934   5.430
 2616SOL    HW2 8748   1.401   0.919   5.586
 2617SOL     OW 8749   4.943   0.176   0.959
 2617SOL    HW1 8750   4.846   0.153   0.971
 2617SOL    HW2 8751   4.993   0.149   1.041
 2618SOL     OW 8752   0.927   6.285   5.937
 2618SOL    HW1 8753   0.928   6.191   5.970
 2618SOL    HW2 8754   0.963   6.347   6.007
 2619SOL     OW 8755   5.378   1.095   2.461
 2619SOL    HW1 8756   5.307   1.055   2.404
 2619SOL    HW2 8757   5.468   1.071   2.425
 2620SOL     OW 8758   5.411   1.115   1.414
 2620SOL    HW1 8759   5.473   1.169   1.357
 2620SOL    HW2 8760   5.441   1.120   1.510
 2621SOL     OW 8761   1.368   6.289   1.831
 2621SOL    HW1 8762   1.427   6.209   1.842
 2621SOL    HW2 8763   1.422   6.372   1.841
 2622SOL     OW 8764   3.360   3.448   6.561
 2622SOL    HW1 8765   3.346   3.471   6.658
 2622SOL    HW2 8766   3.306   3.509   6.504
 2623SOL     OW 8767   0.707   6.501   3.746
 2623SOL    HW1 8768   0.750   6.478   3.659
 2623SOL    HW2 8769   0.718   6.424   3.809
 2624SOL     OW 8770   0.239   1.414   5.110
 2624SOL    HW1 8771   0.230   1.514   5.108
 2624SOL    HW2 8772   0.234   1.382   5.205
 2625SOL     OW 8773   2.449   4.888   6.435
 2625SOL    HW1 8774   2.356   4.916   6.455
 2625SOL    HW2 8775   2.447   4.807   6.376
 2626SOL     OW 8776   6.693   5.769   6.943
 2626SOL    HW1 8777   6.687   5.832   6.865
 2626SOL    HW2 8778   6.677   5.819   0.002
 2627SOL     OW 8779   2.012   0.438   6.127
 2627SOL    HW1 8780   2.081   0.426   6.199
 2627SOL    HW2 8781   1.932   0.484   6.165
 2628SOL     OW 8782   0.441   4.499   1.839
 2628SOL    HW1 8783   0.459   4.408   1.801
 2628SOL    HW2 8784   0.490   4.568   1.786
 2629SOL     OW 8785   3.211   3.676   2.560
 2629SOL    HW1 8786   3.134   3.734   2.533
 2629SOL    HW2 8787   3.193   3.582   2.531
 2630SOL     OW 8788   3.858   0.963   4.303
 2630SOL    HW1 8789   3.917   0.892   4.266
 2630SOL    HW2 8790   3.879   0.976   4.400
 2631SOL     OW 8791   5.911   0.498   0.039
 2631SOL    HW1 8792   5.881   0.507   6.970
 2631SOL    HW2 8793   5.836   0.461   0.094
 2632SOL     OW 8794   5.733   4.843   2.386
 2632SOL    HW1 8795   5.747   4.895   2.302
 2632SOL    HW2 8796   5.639   4.857   2.418
 2633SOL     OW 8797   0.126   3.369   6.101
 2633SOL    HW1 8798   0.106   3.446   6.161
 2633SOL    HW2 8799   0.041   3.334   6.063
 2634SOL     OW 8800   0.514   0.505   5.808
 2634SOL    HW1 8801   0.586   0.561   5.849
 2634SOL    HW2 8802   0.501   0.533   5.712
 2635SOL     OW 8803   4.857   5.631   3.369
 2635SOL    HW1 8804   4.802   5.699   3.321
 2635SOL    HW2 8805   4.954   5.651   3.358
 2636SOL     OW 8806   3.876   6.072   5.452
 2636SOL    HW1 8807   3.804   6.020   5.406
 2636SOL    HW2 8808   3.892   6.034   5.542
 2637SOL     OW 8809   0.764   0.901   3.149
 2637SOL    HW1 8810   0.779   1.000   3.139
 2637SOL    HW2 8811   0.718   0.883   3.236
 2638SOL     OW 8812   0.731   6.149   4.671
 2638SOL    HW1 8813   0.693   6.212   4.738
 2638SOL    HW2 8814   0.772   6.201   4.596
 2639SOL     OW 8815   4.327   4.825   5.206
 2639SOL    HW1 8816   4.372   4.900   5.157
 2639SOL    HW2 8817   4.233   4.852   5.226
 2640SOL     OW 8818   2.122   0.249   3.581
 2640SOL    HW1 8819   2.103   0.224   3.676
 2640SOL    HW2 8820   2.115   0.167   3.524
 2641SOL     OW 8821   6.194   2.305   6.450
 2641SOL    HW1 8822   6.291   2.316   6.428
 2641SOL    HW2 8823   6.184   2.251   6.533
 2642SOL     OW 8824   6.190   0.658   3.481
 2642SOL    HW1 8825   6.281   0.654   3.438
 2642SOL    HW2 8826   6.195   0.716   3.562
 2643SOL     OW 8827   2.290   4.541   3.657
 2643SOL    HW1 8828   2.245   4.454   3.634
 2643SOL    HW2 8829   2.295   4.598   3.575
 2644SOL     OW 8830   5.022   5.334   4.692
 2644SOL    HW1 8831   5.037   5.307   4.597
 2644SOL    HW2 8832   5.034   5.255   4.752
 2645SOL     OW 8833   4.934   5.919   3.507
 2645SOL    HW1 8834   4.942   5.858   3.586
 2645SOL    HW2 8835   5.004   5.897   3.440
 2646SOL     OW 8836   1.110   2.799   6.346
 2646SOL    HW1 8837   1.191   2.853   6.324
 2646SOL    HW2 8838   1.053   2.848   6.411
 2647SOL     OW 8839   5.201   0.235   2.284
 2647SOL    HW1 8840   5.124   0.295   2.263
 2647SOL    HW2 8841   5.204   0.160   2.218
 2648SOL     OW 8842   0.722   6.755   6.611
 2648SOL    HW1 8843   0.706   6.733   6.515
 2648SOL    HW2 8844   0.774   6.840   6.618
 2649SOL     OW 8845   4.997   1.383   3.245
 2649SOL    HW1 8846   4.961   1.318   3.179
 2649SOL    HW2 8847   4.927   1.451   3.267
 2650SOL     OW 8848   2.983   6.257   4.296
 2650SOL    HW1 8849   3.020   6.181   4.243
 2650SOL    HW2 8850   3.053   6.329   4.304
 2651SOL     OW 8851   4.602   2.231   4.690
 2651SOL    HW1 8852   4.585   2.152   4.631
 2651SOL    HW2 8853   4.518   2.285   4.698
 2652SOL     OW 8854   4.992   4.107   5.315
 2652SOL    HW1 8855   5.074   4.156   5.283
 2652SOL    HW2 8856   4.959   4.150   5.399
 2653SOL     OW 8857   2.460   5.879   0.051
 2653SOL    HW1 8858   2.363   5.895   0.066
 2653SOL    HW2 8859   2.484   5.905   6.983
 2654SOL     OW 8860   6.489   1.230   0.535
 2654SOL    HW1 8861   6.419   1.301   0.525
 2654SOL    HW2 8862   6.497   1.179   0.449
 2655SOL     OW 8863   5.087   6.854   2.543
 2655SOL    HW1 8864   5.177   6.818   2.520
 2655SOL    HW2 8865   5.090   6.954   2.539
 2656SOL     OW 8866   4.386   5.894   3.208
 2656SOL    HW1 8867   4.308   5.955   3.221
 2656SOL    HW2 8868   4.432   5.877   3.295
 2657SOL     OW 8869   0.324   3.830   6.922
 2657SOL    HW1 8870   0.362   3.815   7.014
 2657SOL    HW2 8871   0.385   3.891   6.871
 2658SOL     OW 8872   3.557   5.216   0.899
 2658SOL    HW1 8873   3.636   5.275   0.877
 2658SOL    HW2 8874   3.587   5.142   0.959
 2659SOL     OW 8875   0.117   1.968   5.184
 2659SOL    HW1 8876   0.162   2.040   5.236
 2659SOL    HW2 8877   0.102   1.999   5.090
 2660SOL     OW 8878   0.532   1.941   2.002
 2660SOL    HW1 8879   0.501   1.880   1.929
 2660SOL    HW2 8880   0.474   1.930   2.082
 2661SOL     OW 8881   1.103   1.092   1.157
 2661SOL    HW1 8882   1.082   1.003   1.197
 2661SOL    HW2 8883   1.196   1.092   1.121
 2662SOL     OW 8884   2.919   1.677   2.312
 2662SOL    HW1 8885   2.983   1.723   2.251
 2662SOL    HW2 8886   2.909   1.729   2.397
 2663SOL     OW 8887   4.219   6.901   0.385
 2663SOL    HW1 8888   4.259   6.812   0.364
 2663SOL    HW2 8889   4.292   6.967   0.402
 2664SOL     OW 8890   4.659   3.821   5.424
 2664SOL    HW1 8891   4.587   3.754   5.442
 2664SOL    HW2 8892   4.627   3.912   5.449
 2665SOL     OW 8893   2.147   3.487   4.299
 2665SOL    HW1 8894   2.174   3.398   4.335
 2665SOL    HW2 8895   2.169   3.558   4.366
 2666SOL     OW 8896   1.766   4.087   1.920
 2666SOL    HW1 8897   1.752   4.178   1.959
 2666SOL    HW2 8898   1.748   4.018   1.991
 2667SOL     OW 8899   6.928   2.713   5.079
 2667SOL    HW1 8900   6.835   2.732   5.111
 2667SOL    HW2 8901   6.950   2.775   5.003
 2668SOL     OW 8902   6.173   0.673   3.151
 2668SOL    HW1 8903   6.250   0.671   3.215
 2668SOL    HW2 8904   6.208   0.670   3.057
 2669SOL     OW 8905   2.437   0.557   0.058
 2669SOL    HW1 8906   2.452   0.605   0.145
 2669SOL    HW2 8907   2.350   0.508   0.061
 2670SOL     OW 8908   0.382   0.018   6.315
 2670SOL    HW1 8909   0.435   0.058   6.390
 2670SOL    HW2 8910   0.292   0.060   6.312
 2671SOL     OW 8911   5.262   4.654   6.029
 2671SOL    HW1 8912   5.333   4.632   6.097
 2671SOL    HW2 8913   5.206   4.573   6.011
 2672SOL     OW 8914   3.348   1.414   2.246
 2672SOL    HW1 8915   3.428   1.354   2.248
 2672SOL    HW2 8916   3.325   1.436   2.151
 2673SOL     OW 8917   3.542   0.871   2.736
 2673SOL    HW1 8918   3.604   0.799   2.704
 2673SOL    HW2 8919   3.451   0.832   2.750
 2674SOL     OW 8920   0.390   5.756   3.087
 2674SOL    HW1 8921   0.351   5.721   3.172
 2674SOL    HW2 8922   0.387   5.856   3.088
 2675SOL     OW 8923   4.876   1.317   4.189
 2675SOL    HW1 8924   4.960   1.274   4.223
 2675SOL    HW2 8925   4.833   1.368   4.263
 2676SOL     OW 8926   3.582   4.150   3.756
 2676SOL    HW1 8927   3.482   4.144   3.749
 2676SOL    HW2 8928   3.622   4.144   3.665
 2677SOL     OW 8929   2.208   5.955   1.394
 2677SOL    HW1 8930   2.116   5.942   1.431
 2677SOL    HW2 8931   2.246   5.867   1.367
 2678SOL     OW 8932   3.789   1.819   2.987
 2678SOL    HW1 8933   3.816   1.723   2.978
 2678SOL    HW2 8934   3.691   1.828   2.970
 2679SOL     OW 8935   2.243   2.967   2.569
 2679SOL    HW1 8936   2.261   2.870   2.553
 2679SOL    HW2 8937   2.176   3.000   2.503
 2680SOL     OW 8938   5.999   1.965   0.330
 2680SOL    HW1 8939   6.033   1.937   0.241
 2680SOL    HW2 8940   5.902   1.941   0.337
 2681SOL     OW 8941   1.776   2.089   3.583
 2681SOL    HW1 8942   1.821   2.037   3.510
 2681SOL    HW2 8943   1.793   2.046   3.671
 2682SOL     OW 8944   3.849   4.270   1.323
 2682SOL    HW1 8945   3.810   4.228   1.405
 2682SOL    HW2 8946   3.780   4.271   1.250
 2683SOL     OW 8947   2.329   4.218   2.027
 2683SOL    HW1 8948   2.308   4.204   2.124
 2683SOL    HW2 8949   2.270   4.159   1.971
 2684SOL     OW 8950   6.892   0.317   4.065
 2684SOL    HW1 8951   6.974   0.281   4.022
 2684SOL    HW2 8952   6.864   0.401   4.018
 2685SOL     OW 8953   0.820   5.965   5.415
 2685SOL    HW1 8954   0.727   5.955   5.451
 2685SOL    HW2 8955   0.816   6.010   5.326
 2686SOL     OW 8956   1.047   1.016   5.545
 2686SOL    HW1 8957   1.029   1.109   5.512
 2686SOL    HW2 8958   1.064   1.018   5.643
 2687SOL     OW 8959   4.053   2.039   1.564
 2687SOL    HW1 8960   4.036   2.065   1.659
 2687SOL    HW2 8961   4.150   2.051   1.543
 2688SOL     OW 8962   3.593   2.532   6.457
 2688SOL    HW1 8963   3.601   2.440   6.419
 2688SOL    HW2 8964   3.498   2.548   6.484
 2689SOL     OW 8965   0.964   4.130   3.580
 2689SOL    HW1 8966   1.041   4.120   3.642
 2689SOL    HW2 8967   0.950   4.227   3.559
 2690SOL     OW 8968   4.613   1.616   5.863
 2690SOL    HW1 8969   4.522   1.587   5.893
 2690SOL    HW2 8970   4.634   1.705   5.904
 2691SOL     OW 8971   0.048   3.624   5.608
 2691SOL    HW1 8972   0.108   3.672   5.672
 2691SOL    HW2 8973   0.069   3.526   5.610
 2692SOL     OW 8974   2.188   5.851   2.024
 2692SOL    HW1 8975   2.190   5.794   2.106
 2692SOL    HW2 8976   2.095   5.854   1.988
 2693SOL     OW 8977   1.496   6.044   3.599
 2693SOL    HW1 8978   1.501   6.134   3.643
 2693SOL    HW2 8979   1.587   6.004   3.594
 2694SOL     OW 8980   2.713   0.141   2.420
 2694SOL    HW1 8981   2.773   0.092   2.483
 2694SOL    HW2 8982   2.621   0.101   2.425
 2695SOL     OW 8983   0.490   5.217   3.762
 2695SOL    HW1 8984   0.431   5.289   3.724
 2695SOL    HW2 8985   0.448   5.128   3.746
 2696SOL     OW 8986   4.865   5.301   6.363
 2696SOL    HW1 8987   4.811   5.371   6.316
 2696SOL    HW2 8988   4.899   5.337   6.450
 2697SOL     OW 8989   4.271   2.263   6.783
 2697SOL    HW1 8990   4.192   2.245   6.725
 2697SOL    HW2 8991   4.353   2.271   6.725
 2698SOL     OW 8992   1.475   5.314   6.421
 2698SOL    HW1 8993   1.384   5.324   6.461
 2698SOL    HW2 8994   1.530   5.255   6.479
 2699SOL     OW 8995   2.726   6.216   2.115
 2699SOL    HW1 8996   2.823   6.216   2.140
 2699SOL    HW2 8997   2.705   6.134   2.062
 2700SOL     OW 8998   4.078   1.617   1.509
 2700SOL    HW1 8999   4.081   1.683   1.584
 2700SOL    HW2 9000   4.038   1.531   1.541
 2701SOL     OW 9001   4.829   3.053   4.667
 2701SOL    HW1 9002   4.768   2.974   4.677
 2701SOL    HW2 9003   4.915   3.035   4.714
 2702SOL     OW 9004   2.531   1.156   4.736
 2702SOL    HW1 9005   2.542   1.193   4.644
 2702SOL    HW2 9006   2.515   1.058   4.731
 2703SOL     OW 9007   2.471   6.637   2.519
 2703SOL    HW1 9008   2.426   6.601   2.601
 2703SOL    HW2 9009   2.559   6.592   2.507
 2704SOL     OW 9010   5.012   0.753   3.300
 2704SOL    HW1 9011   4.954   0.703   3.364
 2704SOL    HW2 9012   4.956   0.816   3.246
 2705SOL     OW 9013   0.343   0.253   5.496
 2705SOL    HW1 9014   0.374   0.192   5.424
 2705SOL    HW2 9015   0.396   0.236   5.579
 2706SOL     OW 9016   6.512   3.686   3.237
 2706SOL    HW1 9017   6.557   3.751   3.176
 2706SOL    HW2 9018   6.541   3.593   3.213
 2707SOL     OW 9019   4.327   1.216   3.299
 2707SOL    HW1 9020   4.272   1.297   3.281
 2707SOL    HW2 9021   4.329   1.158   3.218
 2708SOL     OW 9022   5.480   3.457   5.881
 2708SOL    HW1 9023   5.396   3.493   5.840
 2708SOL    HW2 9024   5.548   3.530   5.888
 2709SOL     OW 9025   5.395   1.214   5.607
 2709SOL    HW1 9026   5.475   1.185   5.555
 2709SOL    HW2 9027   5.420   1.229   5.702
 2710SOL     OW 9028   0.491   2.788   5.072
 2710SOL    HW1 9029   0.526   2.727   5.000
 2710SOL    HW2 9030   0.502   2.883   5.043
 2711SOL     OW 9031   3.871   1.188   2.007
 2711SOL    HW1 9032   3.909   1.244   1.934
 2711SOL    HW2 9033   3.777   1.217   2.026
 2712SOL     OW 9034   4.432   6.208   2.178
 2712SOL    HW1 9035   4.335   6.185   2.164
 2712SOL    HW2 9036   4.455   6.200   2.275
 2713SOL     OW 9037   3.851   4.996   5.215
 2713SOL    HW1 9038   3.764   4.947   5.205
 2713SOL    HW2 9039   3.857   5.068   5.146
 2714SOL     OW 9040   3.270   4.616   6.847
 2714SOL    HW1 9041   3.239   4.658   6.932
 2714SOL    HW2 9042   3.286   4.687   6.778
 2715SOL     OW 9043   4.164   0.187   6.456
 2715SOL    HW1 9044   4.260   0.158   6.455
 2715SOL    HW2 9045   4.136   0.211   6.363
 2716SOL     OW 9046   4.036   1.484   2.650
 2716SOL    HW1 9047   3.967   1.510   2.582
 2716SOL    HW2 9048   4.017   1.391   2.682
 2717SOL     OW 9049   1.046   1.670   1.905
 2717SOL    HW1 9050   1.073   1.698   1.997
 2717SOL    HW2 9051   1.111   1.603   1.870
 2718SOL     OW 9052   0.091   1.000   5.735
 2718SOL    HW1 9053   0.103   1.065   5.810
 2718SOL    HW2 9054   0.176   0.992   5.684
 2719SOL     OW 9055   1.481   4.945   3.191
 2719SOL    HW1 9056   1.406   4.880   3.179
 2719SOL    HW2 9057   1.452   5.036   3.162
 2720SOL     OW 9058   1.648   6.193   6.253
 2720SOL    HW1 9059   1.728   6.253   6.252
 2720SOL    HW2 9060   1.674   6.103   6.289
 2721SOL     OW 9061   2.982   6.703   1.836
 2721SOL    HW1 9062   2.968   6.734   1.930
 2721SOL    HW2 9063   3.061   6.751   1.797
 2722SOL     OW 9064   3.827   5.827   6.390
 2722SOL    HW1 9065   3.835   5.756   6.320
 2722SOL    HW2 9066   3.782   5.789   6.471
 2723SOL     OW 9067   3.316   6.188   6.519
 2723SOL    HW1 9068   3.388   6.137   6.567
 2723SOL    HW2 9069   3.262   6.124   6.464
 2724SOL     OW 9070   0.319   6.129   0.634
 2724SOL    HW1 9071   0.339   6.225   0.651
 2724SOL    HW2 9072   0.322   6.111   0.536
 2725SOL     OW 9073   6.018   4.158   4.425
 2725SOL    HW1 9074   6.057   4.228   4.365
 2725SOL    HW2 9075   5.948   4.107   4.375
 2726SOL     OW 9076   6.560   1.958   2.163
 2726SOL    HW1 9077   6.503   2.031   2.127
 2726SOL    HW2 9078   6.524   1.869   2.134
 2727SOL     OW 9079   1.648   5.242   3.850
 2727SOL    HW1 9080   1.644   5.149   3.815
 2727SOL    HW2 9081   1.686   5.303   3.780
 2728SOL     OW 9082   4.731   5.568   6.066
 2728SOL    HW1 9083   4.788   5.487   6.059
 2728SOL    HW2 9084   4.668   5.558   6.143
 2729SOL     OW 9085   5.522   0.915   6.459
 2729SOL    HW1 9086   5.484   0.896   6.550
 2729SOL    HW2 9087   5.598   0.852   6.442
 2730SOL     OW 9088   1.335   5.676   2.446
 2730SOL    HW1 9089   1.382   5.605   2.394
 2730SOL    HW2 9090   1.394   5.756   2.455
 2731SOL     OW 9091   2.895   3.708   4.085
 2731SOL    HW1 9092   2.951   3.660   4.152
 2731SOL    HW2 9093   2.846   3.784   4.130
 2732SOL     OW 9094   5.553   0.415   1.930
 2732SOL    HW1 9095   5.562   0.358   2.011
 2732SOL    HW2 9096   5.644   0.441   1.897
 2733SOL     OW 9097   0.915   5.905   6.829
 2733SOL    HW1 9098   0.937   5.888   6.925
 2733SOL    HW2 9099   0.819   5.884   6.812
 2734SOL     OW 9100   3.560   5.950   2.674
 2734SOL    HW1 9101   3.506   6.030   2.647
 2734SOL    HW2 9102   3.506   5.867   2.660
 2735SOL     OW 9103   0.711   1.179   1.362
 2735SOL    HW1 9104   0.789   1.217   1.313
 2735SOL    HW2 9105   0.626   1.209   1.318
 2736SOL     OW 9106   5.187   4.064   2.991
 2736SOL    HW1 9107   5.232   4.004   3.058
 2736SOL    HW2 9108   5.218   4.040   2.899
 2737SOL     OW 9109   2.990   0.792   5.525
 2737SOL    HW1 9110   3.011   0.877   5.476
 2737SOL    HW2 9111   2.934   0.734   5.466
 2738SOL     OW 9112   5.374   5.986   1.499
 2738SOL    HW1 9113   5.383   5.896   1.456
 2738SOL    HW2 9114   5.305   5.981   1.571
 2739SOL     OW 9115   6.764   5.362   1.338
 2739SOL    HW1 9116   6.768   5.274   1.290
 2739SOL    HW2 9117   6.821   5.357   1.420
 2740SOL     OW 9118   0.083   5.637   3.160
 2740SOL    HW1 9119   0.150   5.670   3.225
 2740SOL    HW2 9120   0.114   5.658   3.067
 2741SOL     OW 9121   1.138   0.348   5.645
 2741SOL    HW1 9122   1.159   0.347   5.547
 2741SOL    HW2 9123   1.168   0.262   5.686
 2742SOL     OW 9124   3.182   5.640   1.752
 2742SOL    HW1 9125   3.259   5.594   1.710
 2742SOL    HW2 9126   3.117   5.573   1.786
 2743SOL     OW 9127   5.517   1.840   1.996
 2743SOL    HW1 9128   5.429   1.803   2.026
 2743SOL    HW2 9129   5.509   1.871   1.901
 2744SOL     OW 9130   3.284   3.963   2.366
 2744SOL    HW1 9131   3.202   3.906   2.370
 2744SOL    HW2 9132   3.260   4.054   2.334
 2745SOL     OW 9133   0.410   6.037   0.364
 2745SOL    HW1 9134   0.486   5.980   0.395
 2745SOL    HW2 9135   0.432   6.077   0.276
 2746SOL     OW 9136   1.587   1.192   3.324
 2746SOL    HW1 9137   1.582   1.291   3.308
 2746SOL    HW2 9138   1.598   1.145   3.236
 2747SOL     OW 9139   3.781   4.933   0.686
 2747SOL    HW1 9140   3.817   5.013   0.733
 2747SOL    HW2 9141   3.708   4.892   0.740
 2748SOL     OW 9142   4.427   0.038   0.399
 2748SOL    HW1 9143   4.493   7.011   0.453
 2748SOL    HW2 9144   4.437   0.136   0.420
 2749SOL     OW 9145   3.000   1.745   0.486
 2749SOL    HW1 9146   2.927   1.692   0.529
 2749SOL    HW2 9147   3.032   1.815   0.549
 2750SOL     OW 9148   3.325   5.461   2.027
 2750SOL    HW1 9149   3.334   5.559   2.047
 2750SOL    HW2 9150   3.412   5.415   2.047
 2751SOL     OW 9151   5.982   5.324   1.132
 2751SOL    HW1 9152   6.054   5.255   1.117
 2751SOL    HW2 9153   5.893   5.282   1.115
 2752SOL     OW 9154   4.315   4.959   0.264
 2752SOL    HW1 9155   4.336   4.955   0.362
 2752SOL    HW2 9156   4.385   5.014   0.218
 2753SOL     OW 9157   5.621   5.567   5.525
 2753SOL    HW1 9158   5.541   5.531   5.573
 2753SOL    HW2 9159   5.687   5.603   5.591
 2754SOL     OW 9160   1.126   7.017   5.903
 2754SOL    HW1 9161   1.097   0.044   5.983
 2754SOL    HW2 9162   1.192   0.044   5.850
 2755SOL     OW 9163   3.236   0.475   2.090
 2755SOL    HW1 9164   3.332   0.480   2.064
 2755SOL    HW2 9165   3.199   0.568   2.099
 2756SOL     OW 9166   4.728   5.881   0.389
 2756SOL    HW1 9167   4.679   5.802   0.423
 2756SOL    HW2 9168   4.698   5.963   0.438
 2757SOL     OW 9169   0.244   4.982   1.295
 2757SOL    HW1 9170   0.171   4.950   1.355
 2757SOL    HW2 9171   0.311   4.909   1.283
 2758SOL     OW 9172   3.872   0.532   6.134
 2758SOL    HW1 9173   3.955   0.484   6.109
 2758SOL    HW2 9174   3.895   0.618   6.180
 2759SOL     OW 9175   4.935   5.328   5.070
 2759SOL    HW1 9176   4.884   5.317   5.155
 2759SOL    HW2 9177   4.981   5.417   5.069
 2760SOL     OW 9178   2.327   6.571   4.005
 2760SOL    HW1 9179   2.233   6.580   4.036
 2760SOL    HW2 9180   2.360   6.479   4.023
 2761SOL     OW 9181   2.186   5.295   3.945
 2761SOL    HW1 9182   2.129   5.299   4.027
 2761SOL    HW2 9183   2.134   5.328   3.867
 2762SOL     OW 9184   1.294   0.167   5.031
 2762SOL    HW1 9185   1.199   0.135   5.041
 2762SOL    HW2 9186   1.296   0.267   5.030
 2763SOL     OW 9187   5.104   2.344   2.301
 2763SOL    HW1 9188   5.090   2.428   2.248
 2763SOL    HW2 9189   5.122   2.268   2.238
 2764SOL     OW 9190   6.733   1.277   2.071
 2764SOL    HW1 9191   6.727   1.274   1.971
 2764SOL    HW2 9192   6.707   1.187   2.108
 2765SOL     OW 9193   5.458   2.130   2.262
 2765SOL    HW1 9194   5.481   2.204   2.325
 2765SOL    HW2 9195   5.438   2.168   2.172
 2766SOL     OW 9196   6.021   0.221   2.740
 2766SOL    HW1 9197   5.935   0.170   2.745
 2766SOL    HW2 9198   6.080   0.193   2.816
 2767SOL     OW 9199   6.391   4.372   5.570
 2767SOL    HW1 9200   6.455   4.374   5.647
 2767SOL    HW2 9201   6.389   4.279   5.531
 2768SOL     OW 9202   5.797   1.532   6.663
 2768SOL    HW1 9203   5.788   1.474   6.744
 2768SOL    HW2 9204   5.789   1.476   6.581
 2769SOL     OW 9205   1.017   4.417   1.489
 2769SOL    HW1 9206   0.968   4.331   1.505
 2769SOL    HW2 9207   1.067   4.411   1.402
 2770SOL     OW 9208   6.156   6.125   1.913
 2770SOL    HW1 9209   6.069   6.170   1.889
 2770SOL    HW2 9210   6.227   6.194   1.926
 2771SOL     OW 9211   4.814   0.710   1.108
 2771SOL    HW1 9212   4.864   0.776   1.164
 2771SOL    HW2 9213   4.719   0.708   1.137
 2772SOL     OW 9214   3.451   2.790   6.332
 2772SOL    HW1 9215   3.408   2.748   6.412
 2772SOL    HW2 9216   3.381   2.826   6.271
 2773SOL     OW 9217   4.230   4.413   0.462
 2773SOL    HW1 9218   4.187   4.344   0.403
 2773SOL    HW2 9219   4.267   4.487   0.406
 2774SOL     OW 9220   5.716   3.166   2.541
 2774SOL    HW1 9221   5.635   3.190   2.487
 2774SOL    HW2 9222   5.751   3.248   2.586
 2775SOL     OW 9223   6.900   6.813   2.465
 2775SOL    HW1 9224   6.846   6.862   2.397
 2775SOL    HW2 9225   6.992   6.797   2.430
 2776SOL     OW 9226   3.392   6.012   5.886
 2776SOL    HW1 9227   3.382   5.996   5.787
 2776SOL    HW2 9228   3.452   5.942   5.925
 2777SOL     OW 9229   2.973   1.079   3.364
 2777SOL    HW1 9230   3.052   1.045   3.313
 2777SOL    HW2 9231   2.987   1.175   3.388
 2778SOL     OW 9232   2.438   1.806   4.434
 2778SOL    HW1 9233   2.519   1.824   4.490
 2778SOL    HW2 9234   2.403   1.892   4.397
 2779SOL     OW 9235   5.723   0.770   0.458
 2779SOL    HW1 9236   5.655   0.810   0.519
 2779SOL    HW2 9237   5.721   0.819   0.371
 2780SOL     OW 9238   4.478   5.700   0.273
 2780SOL    HW1 9239   4.437   5.650   0.196
 2780SOL    HW2 9240   4.567   5.661   0.294
 2781SOL     OW 9241   5.062   4.378   0.497
 2781SOL    HW1 9242   4.996   4.453   0.508
 2781SOL    HW2 9243   5.058   4.344   0.403
 2782SOL     OW 9244   2.554   1.983   6.314
 2782SOL    HW1 9245   2.589   1.949   6.401
 2782SOL    HW2 9246   2.548   2.083   6.316
 2783SOL     OW 9247   0.290   4.318   5.894
 2783SOL    HW1 9248   0.205   4.354   5.855
 2783SOL    HW2 9249   0.368   4.365   5.851
 2784SOL     OW 9250   2.031   2.282   2.474
 2784SOL    HW1 9251   2.006   2.186   2.464
 2784SOL    HW2 9252   2.111   2.302   2.417
 2785SOL     OW 9253   6.221   1.408   1.786
 2785SOL    HW1 9254   6.318   1.417   1.810
 2785SOL    HW2 9255   6.212   1.358   1.700
 2786SOL     OW 9256   3.215   0.077   0.408
 2786SOL    HW1 9257   3.187   0.170   0.434
 2786SOL    HW2 9258   3.305   0.057   0.447
 2787SOL     OW 9259   1.950   2.691   5.578
 2787SOL    HW1 9260   2.011   2.742   5.639
 2787SOL    HW2 9261   1.909   2.754   5.512
 2788SOL     OW 9262   0.908   3.390   0.682
 2788SOL    HW1 9263   0.894   3.333   0.763
 2788SOL    HW2 9264   0.852   3.472   0.689
 2789SOL     OW 9265   6.956   2.124   4.539
 2789SOL    HW1 9266   6.997   2.155   4.625
 2789SOL    HW2 9267   6.944   2.203   4.478
 2790SOL     OW 9268   4.198   5.736   3.513
 2790SOL    HW1 9269   4.130   5.777   3.452
 2790SOL    HW2 9270   4.288   5.738   3.468
 2791SOL     OW 9271   2.096   2.688   3.102
 2791SOL    HW1 9272   2.112   2.590   3.116
 2791SOL    HW2 9273   2.017   2.716   3.155
 2792SOL     OW 9274   1.152   2.662   4.784
 2792SOL    HW1 9275   1.169   2.599   4.708
 2792SOL    HW2 9276   1.061   2.644   4.822
 2793SOL     OW 9277   5.437   1.012   3.889
 2793SOL    HW1 9278   5.515   1.051   3.938
 2793SOL    HW2 9279   5.370   1.083   3.871
 2794SOL     OW 9280   0.554   0.751   0.775
 2794SOL    HW1 9281   0.625   0.820   0.762
 2794SOL    HW2 9282   0.581   0.688   0.848
 2795SOL     OW 9283   2.054   4.206   1.947
 2795SOL    HW1 9284   2.061   4.285   2.009
 2795SOL    HW2 9285   1.959   4.173   1.945
 2796SOL     OW 9286   5.235   4.126   2.416
 2796SOL    HW1 9287   5.259   4.204   2.474
 2796SOL    HW2 9288   5.309   4.108   2.351
 2797SOL     OW 9289   4.327   4.758   4.856
 2797SOL    HW1 9290   4.306   4.833   4.918
 2797SOL    HW2 9291   4.357   4.679   4.909
 2798SOL     OW 9292   1.493   3.599   4.139
 2798SOL    HW1 9293   1.395   3.601   4.161
 2798SOL    HW2 9294   1.534   3.517   4.179
 2799SOL     OW 9295   6.626   5.425   5.773
 2799SOL    HW1 9296   6.680   5.498   5.816
 2799SOL    HW2 9297   6.615   5.349   5.837
 2800SOL     OW 9298   3.112   2.752   6.777
 2800SOL    HW1 9299   3.141   2.658   6.764
 2800SOL    HW2 9300   3.137   2.806   6.697
 2801SOL     OW 9301   4.439   5.677   2.280
 2801SOL    HW1 9302   4.497   5.649   2.356
 2801SOL    HW2 9303   4.454   5.616   2.202
 2802SOL     OW 9304   5.413   0.776   5.985
 2802SOL    HW1 9305   5.462   0.860   6.010
 2802SOL    HW2 9306   5.341   0.758   6.052
 2803SOL     OW 9307   2.023   5.845   5.978
 2803SOL    HW1 9308   2.015   5.750   5.949
 2803SOL    HW2 9309   1.935   5.878   6.012
 2804SOL     OW 9310   6.975   4.575   2.731
 2804SOL    HW1 9311   0.030   4.619   2.692
 2804SOL    HW2 9312   6.913   4.547   2.658
 2805SOL     OW 9313   5.268   4.242   6.276
 2805SOL    HW1 9314   5.258   4.319   6.340
 2805SOL    HW2 9315   5.266   4.156   6.327
 2806SOL     OW 9316   6.840   5.729   3.160
 2806SOL    HW1 9317   6.940   5.721   3.158
 2806SOL    HW2 9318   6.806   5.693   3.247
 2807SOL     OW 9319   4.212   4.824   3.738
 2807SOL    HW1 9320   4.170   4.840   3.828
 2807SOL    HW2 9321   4.144   4.840   3.666
 2808SOL     OW 9322   4.991   6.193   3.944
 2808SOL    HW1 9323   4.892   6.185   3.933
 2808SOL    HW2 9324   5.020   6.286   3.921
 2809SOL     OW 9325   5.174   3.071   0.909
 2809SOL    HW1 9326   5.265   3.111   0.901
 2809SOL    HW2 9327   5.140   3.085   1.002
 2810SOL     OW 9328   1.569   0.499   5.357
 2810SOL    HW1 9329   1.666   0.477   5.344
 2810SOL    HW2 9330   1.552   0.592   5.323
 2811SOL     OW 9331   6.806   1.090   4.161
 2811SOL    HW1 9332   6.770   1.057   4.248
 2811SOL    HW2 9333   6.765   1.039   4.085
 2812SOL     OW 9334   5.235   3.633   2.659
 2812SOL    HW1 9335   5.334   3.623   2.661
 2812SOL    HW2 9336   5.206   3.668   2.570
 2813SOL     OW 9337   6.252   1.221   6.227
 2813SOL    HW1 9338   6.338   1.236   6.276
 2813SOL    HW2 9339   6.268   1.165   6.147
 2814SOL     OW 9340   5.243   4.216   5.231
 2814SOL    HW1 9341   5.316   4.172   5.179
 2814SOL    HW2 9342   5.220   4.303   5.189
 2815SOL     OW 9343   0.306   1.055   5.246
 2815SOL    HW1 9344   0.392   1.104   5.260
 2815SOL    HW2 9345   0.320   0.981   5.181
 2816SOL     OW 9346   5.572   6.302   3.491
 2816SOL    HW1 9347   5.623   6.222   3.461
 2816SOL    HW2 9348   5.617   6.385   3.458
 2817SOL     OW 9349   1.355   1.825   1.243
 2817SOL    HW1 9350   1.273   1.878   1.263
 2817SOL    HW2 9351   1.338   1.729   1.263
 2818SOL     OW 9352   7.004   4.298   5.240
 2818SOL    HW1 9353   7.011   4.202   5.214
 2818SOL    HW2 9354   6.999   4.355   5.157
 2819SOL     OW 9355   6.172   2.937   0.439
 2819SOL    HW1 9356   6.214   2.858   0.394
 2819SOL    HW2 9357   6.209   3.021   0.401
 2820SOL     OW 9358   6.531   2.803   4.341
 2820SOL    HW1 9359   6.588   2.728   4.375
 2820SOL    HW2 9360   6.539   2.882   4.403
 2821SOL     OW 9361   1.335   3.440   4.538
 2821SOL    HW1 9362   1.380   3.529   4.527
 2821SOL    HW2 9363   1.395   3.369   4.502
 2822SOL     OW 9364   3.185   1.725   6.839
 2822SOL    HW1 9365   3.181   1.660   6.762
 2822SOL    HW2 9366   3.093   1.756   6.861
 2823SOL     OW 9367   2.108   6.466   3.376
 2823SOL    HW1 9368   2.027   6.514   3.411
 2823SOL    HW2 9369   2.145   6.516   3.298
 2824SOL     OW 9370   2.978   1.757   4.561
 2824SOL    HW1 9371   2.970   1.856   4.548
 2824SOL    HW2 9372   3.052   1.721   4.504
 2825SOL     OW 9373   6.637   6.518   1.041
 2825SOL    HW1 9374   6.597   6.435   1.080
 2825SOL    HW2 9375   6.734   6.523   1.064
 2826SOL     OW 9376   4.898   2.506   4.486
 2826SOL    HW1 9377   4.955   2.458   4.553
 2826SOL    HW2 9378   4.844   2.439   4.435
 2827SOL     OW 9379   5.695   0.713   5.828
 2827SOL    HW1 9380   5.687   0.813   5.832
 2827SOL    HW2 9381   5.764   0.683   5.894
 2828SOL     OW 9382   3.116   2.350   6.155
 2828SOL    HW1 9383   3.188   2.398   6.206
 2828SOL    HW2 9384   3.144   2.256   6.138
 2829SOL     OW 9385   1.800   7.001   6.829
 2829SOL    HW1 9386   1.761   6.909   6.836
 2829SOL    HW2 9387   1.834   7.016   6.736
 2830SOL     OW 9388   3.545   3.256   6.618
 2830SOL    HW1 9389   3.508   3.163   6.621
 2830SOL    HW2 9390   3.472   3.320   6.593
 2831SOL     OW 9391   5.876   5.853   4.378
 2831SOL    HW1 9392   5.932   5.800   4.314
 2831SOL    HW2 9393   5.932   5.879   4.457
 2832SOL     OW 9394   0.381   0.850   1.702
 2832SOL    HW1 9395   0.398   0.759   1.663
 2832SOL    HW2 9396   0.469   0.896   1.718
 2833SOL     OW 9397   5.871   2.999   2.106
 2833SOL    HW1 9398   5.864   3.098   2.099
 2833SOL    HW2 9399   5.867   2.971   2.202
 2834SOL     OW 9400   3.237   0.772   6.137
 2834SOL    HW1 9401   3.299   0.781   6.059
 2834SOL    HW2 9402   3.257   0.844   6.203
 2835SOL     OW 9403   0.976   6.500   2.974
 2835SOL    HW1 9404   1.023   6.588   2.973
 2835SOL    HW2 9405   0.999   6.451   3.058
 2836SOL     OW 9406   6.514   0.810   0.898
 2836SOL    HW1 9407   6.585   0.808   0.828
 2836SOL    HW2 9408   6.431   0.851   0.861
 2837SOL     OW 9409   5.914   3.146   3.499
 2837SOL    HW1 9410   5.820   3.150   3.532
 2837SOL    HW2 9411   5.977   3.143   3.577
 2838SOL     OW 9412   2.563   5.086   3.660
 2838SOL    HW1 9413   2.617   5.170   3.656
 2838SOL    HW2 9414   2.495   5.093   3.733
 2839SOL     OW 9415   4.839   2.005   1.336
 2839SOL    HW1 9416   4.788   2.060   1.270
 2839SOL    HW2 9417   4.859   1.916   1.297
 2840SOL     OW 9418   0.001   1.619   5.496
 2840SOL    HW1 9419   0.035   1.541   5.443
 2840SOL    HW2 9420   6.984   1.685   5.434
 2841SOL     OW 9421   0.597   6.360   1.318
 2841SOL    HW1 9422   0.621   6.263   1.313
 2841SOL    HW2 9423   0.564   6.391   1.228
 2842SOL     OW 9424   6.206   3.310   3.405
 2842SOL    HW1 9425   6.113   3.309   3.368
 2842SOL    HW2 9426   6.216   3.236   3.472
 2843SOL     OW 9427   4.088   1.998   4.818
 2843SOL    HW1 9428   4.144   2.003   4.901
 2843SOL    HW2 9429   4.089   2.086   4.771
 2844SOL     OW 9430   6.853   3.924   5.747
 2844SOL    HW1 9431   6.920   3.997   5.758
 2844SOL    HW2 9432   6.773   3.944   5.804
 2845SOL     OW 9433   6.326   4.315   5.131
 2845SOL    HW1 9434   6.333   4.219   5.160
 2845SOL    HW2 9435   6.244   4.327   5.076
 2846SOL     OW 9436   4.745   1.899   6.429
 2846SOL    HW1 9437   4.785   1.901   6.337
 2846SOL    HW2 9438   4.658   1.850   6.426
 2847SOL     OW 9439   4.709   4.612   3.988
 2847SOL    HW1 9440   4.773   4.614   3.912
 2847SOL    HW2 9441   4.696   4.705   4.023
 2848SOL     OW 9442   0.978   5.728   4.884
 2848SOL    HW1 9443   1.059   5.717   4.942
 2848SOL    HW2 9444   0.938   5.638   4.865
 2849SOL     OW 9445   2.144   2.801   1.381
 2849SOL    HW1 9446   2.165   2.717   1.331
 2849SOL    HW2 9447   2.170   2.790   1.477
 2850SOL     OW 9448   3.622   1.210   6.976
 2850SOL    HW1 9449   3.655   1.124   7.016
 2850SOL    HW2 9450   3.526   1.200   6.950
 2851SOL     OW 9451   2.496   4.555   6.466
 2851SOL    HW1 9452   2.595   4.555   6.457
 2851SOL    HW2 9453   2.471   4.550   6.563
 2852SOL     OW 9454   0.435   3.467   6.224
 2852SOL    HW1 9455   0.345   3.511   6.226
 2852SOL    HW2 9456   0.502   3.528   6.265
 2853SOL     OW 9457   3.429   3.573   1.531
 2853SOL    HW1 9458   3.334   3.542   1.522
 2853SOL    HW2 9459   3.490   3.494   1.537
 2854SOL     OW 9460   1.439   1.076   3.520
 2854SOL    HW1 9461   1.343   1.063   3.497
 2854SOL    HW2 9462   1.491   1.101   3.438
 2855SOL     OW 9463   2.834   1.167   5.039
 2855SOL    HW1 9464   2.846   1.087   4.980
 2855SOL    HW2 9465   2.888   1.243   5.003
 2856SOL     OW 9466   2.387   1.987   4.812
 2856SOL    HW1 9467   2.403   1.889   4.812
 2856SOL    HW2 9468   2.362   2.017   4.904
 2857SOL     OW 9469   2.900   3.538   2.909
 2857SOL    HW1 9470   2.874   3.523   2.814
 2857SOL    HW2 9471   2.990   3.498   2.927
 2858SOL     OW 9472   5.984   3.357   2.943
 2858SOL    HW1 9473   5.948   3.338   2.851
 2858SOL    HW2 9474   6.018   3.271   2.983
 2859SOL     OW 9475   6.215   6.871   0.498
 2859SOL    HW1 9476   6.126   6.895   0.460
 2859SOL    HW2 9477   6.281   6.859   0.424
 2860SOL     OW 9478   4.273   1.607   1.777
 2860SOL    HW1 9479   4.179   1.642   1.774
 2860SOL    HW2 9480   4.322   1.650   1.853
 2861SOL     OW 9481   3.433   5.848   5.659
 2861SOL    HW1 9482   3.505   5.779   5.646
 2861SOL    HW2 9483   3.347   5.802   5.680
 2862SOL     OW 9484   5.610   0.630   4.389
 2862SOL    HW1 9485   5.522   0.620   4.436
 2862SOL    HW2 9486   5.674   0.561   4.422
 2863SOL     OW 9487   6.100   1.747   6.959
 2863SOL    HW1 9488   6.177   1.784   6.907
 2863SOL    HW2 9489   6.133   1.708   0.018
 2864SOL     OW 9490   3.048   1.189   6.982
 2864SOL    HW1 9491   2.981   1.124   6.945
 2864SOL    HW2 9492   3.024   1.281   6.951
 2865SOL     OW 9493   4.733   5.023   4.787
 2865SOL    HW1 9494   4.744   5.089   4.861
 2865SOL    HW2 9495   4.787   5.053   4.708
 2866SOL     OW 9496   0.023   6.768   6.390
 2866SOL    HW1 9497   6.992   6.850   6.393
 2866SOL    HW2 9498   0.111   6.790   6.348
 2867SOL     OW 9499   6.316   4.239   3.200
 2867SOL    HW1 9500   6.285   4.149   3.171
 2867SOL    HW2 9501   6.277   4.261   3.290
 2868SOL     OW 9502   1.525   4.937   5.662
 2868SOL    HW1 9503   1.524   4.838   5.675
 2868SOL    HW2 9504   1.571   4.980   5.740
 2869SOL     OW 9505   6.113   1.699   2.475
 2869SOL    HW1 9506   6.106   1.712   2.574
 2869SOL    HW2 9507   6.209   1.698   2.448
 2870SOL     OW 9508   4.860   1.941   2.576
 2870SOL    HW1 9509   4.956   1.937   2.549
 2870SOL    HW2 9510   4.802   1.932   2.495
 2871SOL     OW 9511   1.608   2.089   5.920
 2871SOL    HW1 9512   1.512   2.085   5.895
 2871SOL    HW2 9513   1.662   2.030   5.860
 2872SOL     OW 9514   2.603   6.268   4.121
 2872SOL    HW1 9515   2.694   6.299   4.093
 2872SOL    HW2 9516   2.611   6.181   4.169
 2873SOL     OW 9517   6.968   5.362   1.523
 2873SOL    HW1 9518   6.913   5.385   1.604
 2873SOL    HW2 9519   0.022   5.309   1.550
 2874SOL     OW 9520   5.952   2.006   2.133
 2874SOL    HW1 9521   5.854   2.020   2.119
 2874SOL    HW2 9522   5.968   1.978   2.228
 2875SOL     OW 9523   3.461   5.151   0.262
 2875SOL    HW1 9524   3.469   5.250   0.257
 2875SOL    HW2 9525   3.527   5.115   0.328
 2876SOL     OW 9526   6.902   1.462   2.153
 2876SOL    HW1 9527   6.834   1.393   2.127
 2876SOL    HW2 9528   6.926   1.517   2.073
 2877SOL     OW 9529   2.443   3.175   6.202
 2877SOL    HW1 9530   2.431   3.131   6.291
 2877SOL    HW2 9531   2.380   3.253   6.195
 2878SOL     OW 9532   3.395   4.421   6.987
 2878SOL    HW1 9533   3.352   4.497   6.938
 2878SOL    HW2 9534   3.373   4.427   0.059
 2879SOL     OW 9535   5.271   5.075   6.787
 2879SOL    HW1 9536   5.204   5.029   6.845
 2879SOL    HW2 9537   5.306   5.010   6.719
 2880SOL     OW 9538   1.155   6.055   1.296
 2880SOL    HW1 9539   1.173   6.073   1.199
 2880SOL    HW2 9540   1.241   6.052   1.346
 2881SOL     OW 9541   0.057   6.979   0.282
 2881SOL    HW1 9542   7.008   0.006   0.322
 2881SOL    HW2 9543   0.097   6.919   0.351
 2882SOL     OW 9544   6.841   3.088   3.304
 2882SOL    HW1 9545   6.858   3.183   3.280
 2882SOL    HW2 9546   6.753   3.059   3.267
 2883SOL     OW 9547   4.610   6.858   2.317
 2883SOL    HW1 9548   4.704   6.876   2.289
 2883SOL    HW2 9549   4.550   6.929   2.280
 2884SOL     OW 9550   1.318   6.258   3.018
 2884SOL    HW1 9551   1.408   6.216   3.010
 2884SOL    HW2 9552   1.294   6.268   3.115
 2885SOL     OW 9553   0.389   2.109   3.440
 2885SOL    HW1 9554   0.389   2.207   3.455
 2885SOL    HW2 9555   0.447   2.087   3.361
 2886SOL     OW 9556   2.260   2.842   6.205
 2886SOL    HW1 9557   2.257   2.942   6.196
 2886SOL    HW2 9558   2.238   2.800   6.116
 2887SOL     OW 9559   1.844   0.947   4.797
 2887SOL    HW1 9560   1.901   0.920   4.719
 2887SOL    HW2 9561   1.881   1.030   4.838
 2888SOL     OW 9562   6.546   5.031   6.847
 2888SOL    HW1 9563   6.495   5.114   6.821
 2888SOL    HW2 9564   6.488   4.951   6.830
 2889SOL     OW 9565   0.879   0.072   2.337
 2889SOL    HW1 9566   0.919   0.095   2.425
 2889SOL    HW2 9567   0.875   6.998   2.327
 2890SOL     OW 9568   3.400   0.108   0.615
 2890SOL    HW1 9569   3.481   0.153   0.577
 2890SOL    HW2 9570   3.352   0.172   0.675
 2891SOL     OW 9571   2.783   5.070   3.877
 2891SOL    HW1 9572   2.779   5.134   3.800
 2891SOL    HW2 9573   2.863   5.090   3.933
 2892SOL     OW 9574   4.651   4.227   5.700
 2892SOL    HW1 9575   4.590   4.228   5.779
 2892SOL    HW2 9576   4.683   4.319   5.680
 2893SOL     OW 9577   2.968   0.642   6.308
 2893SOL    HW1 9578   2.979   0.723   6.366
 2893SOL    HW2 9579   2.885   0.652   6.252
 2894SOL     OW 9580   3.500   3.206   0.708
 2894SOL    HW1 9581   3.586   3.220   0.756
 2894SOL    HW2 9582   3.480   3.286   0.652
 2895SOL     OW 9583   3.034   3.870   6.386
 2895SOL    HW1 9584   3.031   3.931   6.307
 2895SOL    HW2 9585   2.951   3.881   6.441
 2896SOL     OW 9586   2.131   5.288   1.319
 2896SOL    HW1 9587   2.111   5.217   1.386
 2896SOL    HW2 9588   2.227   5.285   1.294
 2897SOL     OW 9589   1.707   6.682   3.812
 2897SOL    HW1 9590   1.644   6.657   3.738
 2897SOL    HW2 9591   1.799   6.696   3.774
 2898SOL     OW 9592   3.148   5.266   2.180
 2898SOL    HW1 9593   3.218   5.308   2.122
 2898SOL    HW2 9594   3.086   5.212   2.123
 2899SOL     OW 9595   6.614   0.197   6.903
 2899SOL    HW1 9596   6.605   0.170   6.999
 2899SOL    HW2 9597   6.598   0.295   6.894
 2900SOL     OW 9598   2.290   5.570   6.104
 2900SOL    HW1 9599   2.223   5.495   6.099
 2900SOL    HW2 9600   2.328   5.586   6.013
 2901SOL     OW 9601   2.753   1.012   1.687
 2901SOL    HW1 9602   2.803   1.081   1.740
 2901SOL    HW2 9603   2.703   1.057   1.613
 2902SOL     OW 9604   5.738   5.982   1.302
 2902SOL    HW1 9605   5.732   6.020   1.210
 2902SOL    HW2 9606   5.679   6.034   1.364
 2903SOL     OW 9607   2.344   2.185   2.500
 2903SOL    HW1 9608   2.349   2.222   2.407
 2903SOL    HW2 9609   2.323   2.259   2.564
 2904SOL     OW 9610   1.840   3.225   5.105
 2904SOL    HW1 9611   1.919   3.228   5.166
 2904SOL    HW2 9612   1.870   3.202   5.012
 2905SOL     OW 9613   1.411   2.395   1.435
 2905SOL    HW1 9614   1.387   2.493   1.434
 2905SOL    HW2 9615   1.386   2.354   1.348
 2906SOL     OW 9616   5.648   5.813   1.897
 2906SOL    HW1 9617   5.558   5.787   1.860
 2906SOL    HW2 9618   5.656   5.912   1.896
 2907SOL     OW 9619   6.616   0.863   3.699
 2907SOL    HW1 9620   6.623   0.770   3.664
 2907SOL    HW2 9621   6.556   0.917   3.639
 2908SOL     OW 9622   4.064   6.464   4.582
 2908SOL    HW1 9623   4.045   6.457   4.484
 2908SOL    HW2 9624   4.156   6.430   4.601
 2909SOL     OW 9625   2.379   5.729   4.930
 2909SOL    HW1 9626   2.411   5.654   4.988
 2909SOL    HW2 9627   2.284   5.750   4.952
 2910SOL     OW 9628   5.578   6.139   5.975
 2910SOL    HW1 9629   5.568   6.165   5.879
 2910SOL    HW2 9630   5.492   6.154   6.023
 2911SOL     OW 9631   1.634   3.978   3.536
 2911SOL    HW1 9632   1.713   4.039   3.535
 2911SOL    HW2 9633   1.597   3.974   3.629
 2912SOL     OW 9634   2.449   5.694   0.800
 2912SOL    HW1 9635   2.543   5.712   0.773
 2912SOL    HW2 9636   2.401   5.780   0.815
 2913SOL     OW 9637   1.049   2.938   3.082
 2913SOL    HW1 9638   1.094   2.889   3.007
 2913SOL    HW2 9639   1.117   2.966   3.150
 2914SOL     OW 9640   5.082   5.349   5.658
 2914SOL    HW1 9641   5.089   5.319   5.563
 2914SOL    HW2 9642   5.174   5.366   5.694
 2915SOL     OW 9643   4.505   1.209   4.329
 2915SOL    HW1 9644   4.540   1.302   4.335
 2915SOL    HW2 9645   4.407   1.208   4.347
 2916SOL     OW 9646   5.152   5.774   4.333
 2916SOL    HW1 9647   5.097   5.826   4.398
 2916SOL    HW2 9648   5.093   5.737   4.261
 2917SOL     OW 9649   4.736   1.037   2.667
 2917SOL    HW1 9650   4.677   1.107   2.627
 2917SOL    HW2 9651   4.832   1.067   2.661
 2918SOL     OW 9652   6.865   3.975   3.639
 2918SOL    HW1 9653   6.800   3.935   3.574
 2918SOL    HW2 9654   6.884   4.070   3.614
 2919SOL     OW 9655   6.685   5.955   0.133
 2919SOL    HW1 9656   6.601   5.980   0.181
 2919SOL    HW2 9657   6.764   5.972   0.192
 2920SOL     OW 9658   4.459   2.460   3.432
 2920SOL    HW1 9659   4.382   2.413   3.390
 2920SOL    HW2 9660   4.449   2.460   3.531
 2921SOL     OW 9661   0.644   0.092   2.033
 2921SOL    HW1 9662   0.732   0.114   1.989
 2921SOL    HW2 9663   0.628   0.155   2.109
 2922SOL     OW 9664   4.208   6.790   5.363
 2922SOL    HW1 9665   4.227   6.693   5.377
 2922SOL    HW2 9666   4.180   6.832   5.449
 2923SOL     OW 9667   6.306   4.128   1.529
 2923SOL    HW1 9668   6.306   4.224   1.499
 2923SOL    HW2 9669   6.245   4.117   1.607
 2924SOL     OW 9670   6.125   1.066   5.348
 2924SOL    HW1 9671   6.151   1.162   5.338
 2924SOL    HW2 9672   6.145   1.017   5.263
 2925SOL     OW 9673   5.464   4.002   1.339
 2925SOL    HW1 9674   5.481   4.032   1.245
 2925SOL    HW2 9675   5.367   3.983   1.351
 2926SOL     OW 9676   0.208   1.328   4.651
 2926SOL    HW1 9677   0.144   1.331   4.727
 2926SOL    HW2 9678   0.300   1.352   4.683
 2927SOL     OW 9679   0.580   2.526   2.808
 2927SOL    HW1 9680   0.536   2.452   2.860
 2927SOL    HW2 9681   0.570   2.612   2.858
 2928SOL     OW 9682   6.087   6.357   0.853
 2928SOL    HW1 9683   6.092   6.350   0.952
 2928SOL    HW2 9684   6.167   6.407   0.819
 2929SOL     OW 9685   0.910   6.700   6.203
 2929SOL    HW1 9686   0.815   6.694   6.233
 2929SOL    HW2 9687   0.913   6.731   6.108
 2930SOL     OW 9688   3.703   6.716   4.637
 2930SOL    HW1 9689   3.802   6.724   4.645
 2930SOL    HW2 9690   3.660   6.737   4.724
 2931SOL     OW 9691   4.169   6.089   5.864
 2931SOL    HW1 9692   4.211   6.054   5.780
 2931SOL    HW2 9693   4.121   6.174   5.843
 2932SOL     OW 9694   1.337   4.642   1.868
 2932SOL    HW1 9695   1.368   4.574   1.802
 2932SOL    HW2 9696   1.382   4.625   1.956
 2933SOL     OW 9697   4.989   1.674   3.564
 2933SOL    HW1 9698   5.056   1.713   3.501
 2933SOL    HW2 9699   4.997   1.718   3.653
 2934SOL     OW 9700   2.812   0.531   0.206
 2934SOL    HW1 9701   2.821   0.574   0.116
 2934SOL    HW2 9702   2.789   0.435   0.195
 2935SOL     OW 9703   6.146   2.174   1.280
 2935SOL    HW1 9704   6.221   2.235   1.256
 2935SOL    HW2 9705   6.144   2.097   1.216
 2936SOL     OW 9706   4.109   6.152   0.618
 2936SOL    HW1 9707   4.067   6.194   0.538
 2936SOL    HW2 9708   4.150   6.065   0.592
 2937SOL     OW 9709   3.186   4.662   0.792
 2937SOL    HW1 9710   3.223   4.664   0.699
 2937SOL    HW2 9711   3.112   4.594   0.796
 2938SOL     OW 9712   4.746   5.335   5.842
 2938SOL    HW1 9713   4.729   5.430   5.818
 2938SOL    HW2 9714   4.826   5.330   5.901
 2939SOL     OW 9715   0.189   6.315   5.710
 2939SOL    HW1 9716   0.204   6.295   5.613
 2939SOL    HW2 9717   0.106   6.368   5.721
 2940SOL     OW 9718   4.355   0.408   5.555
 2940SOL    HW1 9719   4.421   0.366   5.618
 2940SOL    HW2 9720   4.330   0.499   5.589
 2941SOL     OW 9721   2.182   2.337   4.981
 2941SOL    HW1 9722   2.185   2.425   5.029
 2941SOL    HW2 9723   2.218   2.266   5.042
 2942SOL     OW 9724   3.549   6.493   4.044
 2942SOL    HW1 9725   3.578   6.399   4.028
 2942SOL    HW2 9726   3.547   6.543   3.957
 2943SOL     OW 9727   5.968   4.243   3.279
 2943SOL    HW1 9728   6.009   4.247   3.187
 2943SOL    HW2 9729   5.895   4.312   3.285
 2944SOL     OW 9730   3.625   5.899   6.024
 2944SOL    HW1 9731   3.687   5.825   5.997
 2944SOL    HW2 9732   3.603   5.891   6.121
 2945SOL     OW 9733   3.226   3.046   3.739
 2945SOL    HW1 9734   3.140   3.095   3.747
 2945SOL    HW2 9735   3.302   3.111   3.742
 2946SOL     OW 9736   6.602   5.974   6.078
 2946SOL    HW1 9737   6.606   6.051   6.014
 2946SOL    HW2 9738   6.686   5.921   6.072
 2947SOL     OW 9739   6.571   4.680   0.049
 2947SOL    HW1 9740   6.659   4.727   0.046
 2947SOL    HW2 9741   6.586   4.582   0.057
 2948SOL     OW 9742   6.457   4.564   4.788
 2948SOL    HW1 9743   6.440   4.533   4.882
 2948SOL    HW2 9744   6.388   4.527   4.727
 2949SOL     OW 9745   1.337   6.480   0.196
 2949SOL    HW1 9746   1.252   6.532   0.187
 2949SOL    HW2 9747   1.406   6.536   0.242
 2950SOL     OW 9748   5.237   3.566   4.334
 2950SOL    HW1 9749   5.224   3.634   4.406
 2950SOL    HW2 9750   5.333   3.540   4.329
 2951SOL     OW 9751   6.626   1.248   1.301
 2951SOL    HW1 9752   6.654   1.167   1.353
 2951SOL    HW2 9753   6.534   1.235   1.266
 2952SOL     OW 9754   1.660   3.533   2.249
 2952SOL    HW1 9755   1.719   3.570   2.322
 2952SOL    HW2 9756   1.631   3.440   2.274
 2953SOL     OW 9757   5.758   0.907   2.776
 2953SOL    HW1 9758   5.779   1.003   2.760
 2953SOL    HW2 9759   5.674   0.882   2.727
 2954SOL     OW 9760   6.090   6.665   1.785
 2954SOL    HW1 9761   6.114   6.669   1.882
 2954SOL    HW2 9762   6.143   6.733   1.734
 2955SOL     OW 9763   5.976   3.001   0.656
 2955SOL    HW1 9764   5.940   3.091   0.678
 2955SOL    HW2 9765   6.023   3.004   0.568
 2956SOL     OW 9766   6.550   5.585   2.545
 2956SOL    HW1 9767   6.515   5.550   2.458
 2956SOL    HW2 9768   6.482   5.645   2.586
 2957SOL     OW 9769   0.856   3.880   1.387
 2957SOL    HW1 9770   0.778   3.831   1.426
 2957SOL    HW2 9771   0.926   3.814   1.360
 2958SOL     OW 9772   2.670   4.782   5.873
 2958SOL    HW1 9773   2.758   4.743   5.899
 2958SOL    HW2 9774   2.686   4.868   5.825
 2959SOL     OW 9775   3.904   5.167   6.886
 2959SOL    HW1 9776   3.826   5.110   6.864
 2959SOL    HW2 9777   3.893   5.204   6.978
 2960SOL     OW 9778   2.521   1.814   6.824
 2960SOL    HW1 9779   2.492   1.805   6.728
 2960SOL    HW2 9780   2.550   1.908   6.841
 2961SOL     OW 9781   5.686   2.850   4.485
 2961SOL    HW1 9782   5.699   2.765   4.536
 2961SOL    HW2 9783   5.658   2.830   4.392
 2962SOL     OW 9784   4.088   1.104   4.037
 2962SOL    HW1 9785   4.175   1.060   4.056
 2962SOL    HW2 9786   4.093   1.150   3.948
 2963SOL     OW 9787   1.896   2.742   4.701
 2963SOL    HW1 9788   1.810   2.690   4.700
 2963SOL    HW2 9789   1.972   2.680   4.718
 2964SOL     OW 9790   3.370   6.006   0.549
 2964SOL    HW1 9791   3.320   5.967   0.472
 2964SOL    HW2 9792   3.383   6.104   0.534
 2965SOL     OW 9793   0.760   2.334   5.894
 2965SOL    HW1 9794   0.725   2.312   5.803
 2965SOL    HW2 9795   0.838   2.396   5.885
 2966SOL     OW 9796   4.513   4.445   3.886
 2966SOL    HW1 9797   4.592   4.505   3.901
 2966SOL    HW2 9798   4.488   4.447   3.790
 2967SOL     OW 9799   5.652   1.721   3.942
 2967SOL    HW1 9800   5.739   1.721   3.892
 2967SOL    HW2 9801   5.626   1.626   3.962
 2968SOL     OW 9802   6.684   3.954   3.388
 2968SOL    HW1 9803   6.640   3.879   3.338
 2968SOL    HW2 9804   6.616   4.002   3.443
 2969SOL     OW 9805   4.653   1.341   5.415
 2969SOL    HW1 9806   4.726   1.400   5.379
 2969SOL    HW2 9807   4.672   1.246   5.391
 2970SOL     OW 9808   1.311   4.571   6.439
 2970SOL    HW1 9809   1.211   4.574   6.438
 2970SOL    HW2 9810   1.341   4.478   6.460
 2971SOL     OW 9811   5.357   3.266   3.551
 2971SOL    HW1 9812   5.354   3.305   3.459
 2971SOL    HW2 9813   5.444   3.289   3.595
 2972SOL     OW 9814   0.512   4.088   5.770
 2972SOL    HW1 9815   0.478   4.153   5.701
 2972SOL    HW2 9816   0.557   4.139   5.843
 2973SOL     OW 9817   5.265   5.814   4.608
 2973SOL    HW1 9818   5.190   5.863   4.565
 2973SOL    HW2 9819   5.306   5.872   4.679
 2974SOL     OW 9820   0.465   3.613   2.158
 2974SOL    HW1 9821   0.491   3.567   2.073
 2974SOL    HW2 9822   0.418   3.548   2.217
 2975SOL     OW 9823   0.329   0.975   4.792
 2975SOL    HW1 9824   0.282   0.950   4.708
 2975SOL    HW2 9825   0.296   1.064   4.825
 2976SOL     OW 9826   3.699   0.113   2.149
 2976SOL    HW1 9827   3.789   0.152   2.132
 2976SOL    HW2 9828   3.659   0.157   2.230
 2977SOL     OW 9829   3.281   6.525   4.167
 2977SOL    HW1 9830   3.278   6.619   4.199
 2977SOL    HW2 9831   3.367   6.510   4.117
 2978SOL     OW 9832   4.419   6.211   0.148
 2978SOL    HW1 9833   4.416   6.130   0.207
 2978SOL    HW2 9834   4.418   6.182   0.052
 2979SOL     OW 9835   3.162   0.665   3.374
 2979SOL    HW1 9836   3.107   0.698   3.297
 2979SOL    HW2 9837   3.125   0.699   3.459
 2980SOL     OW 9838   6.873   6.522   3.964
 2980SOL    HW1 9839   6.824   6.444   3.925
 2980SOL    HW2 9840   6.938   6.490   4.033
 2981SOL     OW 9841   2.231   0.933   5.036
 2981SOL    HW1 9842   2.240   1.010   5.100
 2981SOL    HW2 9843   2.171   0.864   5.077
 2982SOL     OW 9844   4.440   0.117   3.093
 2982SOL    HW1 9845   4.465   0.106   2.997
 2982SOL    HW2 9846   4.341   0.130   3.100
 2983SOL     OW 9847   6.417   0.224   3.398
 2983SOL    HW1 9848   6.391   0.221   3.302
 2983SOL    HW2 9849   6.339   0.253   3.453
 2984SOL     OW 9850   5.001   5.012   1.937
 2984SOL    HW1 9851   4.935   5.075   1.977
 2984SOL    HW2 9852   5.054   4.969   2.010
 2985SOL     OW 9853   6.496   2.069   3.271
 2985SOL    HW1 9854   6.534   2.046   3.361
 2985SOL    HW2 9855   6.419   2.131   3.282
 2986SOL     OW 9856   2.246   3.752   5.239
 2986SOL    HW1 9857   2.309   3.823   5.208
 2986SOL    HW2 9858   2.171   3.744   5.173
 2987SOL     OW 9859   4.499   2.484   4.852
 2987SOL    HW1 9860   4.516   2.390   4.880
 2987SOL    HW2 9861   4.410   2.490   4.806
 2988SOL     OW 9862   0.889   0.424   2.213
 2988SOL    HW1 9863   0.922   0.329   2.213
 2988SOL    HW2 9864   0.922   0.471   2.294
 2989SOL     OW 9865   6.630   4.904   0.944
 2989SOL    HW1 9866   6.598   4.950   0.861
 2989SOL    HW2 9867   6.566   4.923   1.018
 2990SOL     OW 9868   3.539   0.433   1.052
 2990SOL    HW1 9869   3.548   0.335   1.034
 2990SOL    HW2 9870   3.572   0.454   1.144
 2991SOL     OW 9871   6.435   4.590   0.799
 2991SOL    HW1 9872   6.464   4.516   0.859
 2991SOL    HW2 9873   6.514   4.628   0.750
 2992SOL     OW 9874   4.025   4.532   6.314
 2992SOL    HW1 9875   4.117   4.533   6.273
 2992SOL    HW2 9876   4.016   4.451   6.372
 2993SOL     OW 9877   1.704   5.168   1.032
 2993SOL    HW1 9878   1.628   5.165   1.097
 2993SOL    HW2 9879   1.788   5.191   1.080
 2994SOL     OW 9880   4.431   6.719   0.327
 2994SOL    HW1 9881   4.439   6.622   0.306
 2994SOL    HW2 9882   4.482   6.740   0.411
 2995SOL     OW 9883   2.836   1.367   5.856
 2995SOL    HW1 9884   2.788   1.318   5.783
 2995SOL    HW2 9885   2.807   1.462   5.858
 2996SOL     OW 9886   4.249   5.870   5.674
 2996SOL    HW1 9887   4.230   5.829   5.764
 2996SOL    HW2 9888   4.348   5.866   5.656
 2997SOL     OW 9889   5.412   6.483   0.216
 2997SOL    HW1 9890   5.318   6.461   0.189
 2997SOL    HW2 9891   5.444   6.414   0.281
 2998SOL     OW 9892   6.632   5.703   5.114
 2998SOL    HW1 9893   6.661   5.727   5.207
 2998SOL    HW2 9894   6.575   5.621   5.118
 2999SOL     OW 9895   3.317   6.226   2.557
 2999SOL    HW1 9896   3.247   6.209   2.627
 2999SOL    HW2 9897   3.278   6.210   2.466
 3000SOL     OW 9898   1.920   2.891   4.966
 3000SOL    HW1 9899   1.997   2.943   4.930
 3000SOL    HW2 9900   1.866   2.854   4.890
 3001SOL     OW 9901   4.366   0.334   5.954
 3001SOL    HW1 9902   4.269   0.350   5.971
 3001SOL    HW2 9903   4.418   0.351   6.037
 3002SOL     OW 9904   4.033   0.091   5.448
 3002SOL    HW1 9905   3.965   0.151   5.492
 3002SOL    HW2 9906   4.022   7.023   5.483
 3003SOL     OW 9907   2.456   0.227   6.272
 3003SOL    HW1 9908   2.461   0.322   6.303
 3003SOL    HW2 9909   2.370   0.211   6.223
 3004SOL     OW 9910   6.476   3.290   4.791
 3004SOL    HW1 9911   6.574   3.289   4.810
 3004SOL    HW2 9912   6.442   3.197   4.782
 3005SOL     OW 9913   4.566   2.253   1.434
 3005SOL    HW1 9914   4.482   2.201   1.452
 3005SOL    HW2 9915   4.543   2.350   1.423
 3006SOL     OW 9916   5.418   0.625   1.518
 3006SOL    HW1 9917   5.500   0.569   1.530
 3006SOL    HW2 9918   5.338   0.565   1.510
 3007SOL     OW 9919   6.614   5.422   2.239
 3007SOL    HW1 9920   6.582   5.329   2.225
 3007SOL    HW2 9921   6.542   5.476   2.283
 3008SOL     OW 9922   3.595   5.404   5.917
 3008SOL    HW1 9923   3.628   5.389   5.824
 3008SOL    HW2 9924   3.665   5.375   5.982
 3009SOL     OW 9925   1.387   0.881   3.231
 3009SOL    HW1 9926   1.340   0.801   3.194
 3009SOL    HW2 9927   1.320   0.948   3.262
 3010SOL     OW 9928   4.218   0.056   1.652
 3010SOL    HW1 9929   4.217   0.153   1.627
 3010SOL    HW2 9930   4.189   0.001   1.573
 3011SOL     OW 9931   5.444   0.843   6.704
 3011SOL    HW1 9932   5.376   0.901   6.748
 3011SOL    HW2 9933   5.470   0.768   6.766
 3012SOL     OW 9934   6.894   4.120   2.303
 3012SOL    HW1 9935   6.968   4.095   2.240
 3012SOL    HW2 9936   6.871   4.040   2.360
 3013SOL     OW 9937   5.879   4.764   2.607
 3013SOL    HW1 9938   5.838   4.805   2.526
 3013SOL    HW2 9939   5.954   4.821   2.639
 3014SOL     OW 9940   4.704   1.101   5.289
 3014SOL    HW1 9941   4.649   1.157   5.228
 3014SOL    HW2 9942   4.717   1.010   5.248
 3015SOL     OW 9943   2.918   2.543   6.585
 3015SOL    HW1 9944   2.971   2.594   6.517
 3015SOL    HW2 9945   2.823   2.540   6.557
 3016SOL     OW 9946   3.655   6.349   3.537
 3016SOL    HW1 9947   3.675   6.344   3.634
 3016SOL    HW2 9948   3.668   6.443   3.504
 3017SOL     OW 9949   6.889   6.065   1.272
 3017SOL    HW1 9950   6.951   6.075   1.194
 3017SOL    HW2 9951   6.893   5.971   1.306
 3018SOL     OW 9952   3.608   6.631   6.629
 3018SOL    HW1 9953   3.536   6.565   6.605
 3018SOL    HW2 9954   3.631   6.685   6.548
 3019SOL     OW 9955   4.996   0.392   2.179
 3019SOL    HW1 9956   5.003   0.483   2.139
 3019SOL    HW2 9957   4.903   0.379   2.215
 3020SOL     OW 9958   1.155   1.924   0.824
 3020SOL    HW1 9959   1.110   2.012   0.813
 3020SOL    HW2 9960   1.222   1.911   0.751
 3021SOL     OW 9961   3.227   1.233   6.535
 3021SOL    HW1 9962   3.153   1.167   6.547
 3021SOL    HW2 9963   3.206   1.294   6.458
 3022SOL     OW 9964   4.957   6.886   2.896
 3022SOL    HW1 9965   4.869   6.885   2.848
 3022SOL    HW2 9966   4.969   6.975   2.940
 3023SOL     OW 9967   5.455   6.507   2.199
 3023SOL    HW1 9968   5.456   6.607   2.205
 3023SOL    HW2 9969   5.368   6.472   2.234
 3024SOL     OW 9970   2.932   6.249   0.100
 3024SOL    HW1 9971   2.896   6.253   0.007
 3024SOL    HW2 9972   2.987   6.166   0.112
 3025SOL     OW 9973   2.000   2.347   1.464
 3025SOL    HW1 9974   2.039   2.344   1.556
 3025SOL    HW2 9975   1.901   2.336   1.469
 3026SOL     OW 9976   2.066   4.517   1.101
 3026SOL    HW1 9977   2.139   4.450   1.112
 3026SOL    HW2 9978   1.990   4.493   1.161
 3027SOL     OW 9979   1.231   1.578   4.008
 3027SOL    HW1 9980   1.296   1.650   4.033
 3027SOL    HW2 9981   1.142   1.599   4.048
 3028SOL     OW 9982   1.688   6.980   4.597
 3028SOL    HW1 9983   1.602   7.003   4.641
 3028SOL    HW2 9984   1.754   0.028   4.610
 3029SOL     OW 9985   5.101   6.853   5.623
 3029SOL    HW1 9986   5.133   6.777   5.678
 3029SOL    HW2 9987   5.128   6.939   5.666
 3030SOL     OW 9988   1.397   2.170   5.547
 3030SOL    HW1 9989   1.473   2.113   5.579
 3030SOL    HW2 9990   1.433   2.251   5.501
 3031SOL     OW 9991   1.337   4.772   6.747
 3031SOL    HW1 9992   1.307   4.712   6.672
 3031SOL    HW2 9993   1.278   4.758   6.826
 3032SOL     OW 9994   4.513   0.439   6.222
 3032SOL    HW1 9995   4.477   0.349   6.245
 3032SOL    HW2 9996   4.543   0.485   6.306
 3033SOL     OW 9997   5.308   4.006   6.419
 3033SOL    HW1 9998   5.267   3.917   6.397
 3033SOL    HW2 9999   5.390   3.991   6.474
 3034SOL     OW10000   2.469   0.171   4.383
 3034SOL    HW110001   2.408   0.142   4.457
 3034SOL    HW210002   2.562   0.181   4.418
 3035SOL     OW10003   6.591   0.144   0.160
 3035SOL    HW110004   6.625   0.073   0.222
 3035SOL    HW210005   6.561   0.223   0.213
 3036SOL     OW10006   1.561   4.651   6.512
 3036SOL    HW110007   1.572   4.714   6.435
 3036SOL    HW210008   1.469   4.612   6.509
 3037SOL     OW10009   6.754   6.378   5.342
 3037SOL    HW110010   6.845   6.374   5.382
 3037SOL    HW210011   6.710   6.465   5.366
 3038SOL     OW10012   5.400   0.269   5.899
 3038SOL    HW110013   5.411   0.240   5.994
 3038SOL    HW210014   5.429   0.195   5.838
 3039SOL     OW10015   0.639   5.174   1.161
 3039SOL    HW110016   0.584   5.206   1.084
 3039SOL    HW210017   0.644   5.074   1.159
 3040SOL     OW10018   2.606   3.323   6.593
 3040SOL    HW110019   2.602   3.372   6.506
 3040SOL    HW210020   2.573   3.229   6.580
 3041SOL     OW10021   1.657   2.390   5.822
 3041SOL    HW110022   1.739   2.392   5.764
 3041SOL    HW210023   1.621   2.297   5.826
 3042SOL     OW10024   4.376   0.948   1.697
 3042SOL    HW110025   4.363   1.019   1.766
 3042SOL    HW210026   4.473   0.941   1.674
 3043SOL     OW10027   0.041   5.227   0.586
 3043SOL    HW110028   0.104   5.224   0.509
 3043SOL    HW210029   0.089   5.201   0.670
 3044SOL     OW10030   3.468   4.207   6.450
 3044SOL    HW110031   3.421   4.242   6.368
 3044SOL    HW210032   3.418   4.128   6.485
 3045SOL     OW10033   5.854   2.124   3.538
 3045SOL    HW110034   5.846   2.192   3.611
 3045SOL    HW210035   5.873   2.170   3.451
 3046SOL     OW10036   1.935   2.671   6.068
 3046SOL    HW110037   2.034   2.684   6.055
 3046SOL    HW210038   1.898   2.751   6.115
 3047SOL     OW10039   6.677   4.764   2.076
 3047SOL    HW110040   6.704   4.673   2.106
 3047SOL    HW210041   6.608   4.757   2.003
 3048SOL     OW10042   3.308   2.495   1.584
 3048SOL    HW110043   3.330   2.585   1.622
 3048SOL    HW210044   3.215   2.470   1.610
 3049SOL     OW10045   1.131   0.215   2.143
 3049SOL    HW110046   1.204   0.147   2.135
 3049SOL    HW210047   1.043   0.168   2.146
 3050SOL     OW10048   4.013   5.569   3.910
 3050SOL    HW110049   4.029   5.475   3.939
 3050SOL    HW210050   3.928   5.603   3.951
 3051SOL     OW10051   2.436   4.639   5.848
 3051SOL    HW110052   2.478   4.598   5.929
 3051SOL    HW210053   2.502   4.700   5.804
 3052SOL     OW10054   4.289   6.702   2.935
 3052SOL    HW110055   4.291   6.605   2.958
 3052SOL    HW210056   4.383   6.737   2.932
 3053SOL     OW10057   5.132   6.520   0.243
 3053SOL    HW110058   5.124   6.439   0.301
 3053SOL    HW210059   5.150   6.600   0.300
 3054SOL     OW10060   1.384   3.715   6.382
 3054SOL    HW110061   1.400   3.676   6.473
 3054SOL    HW210062   1.421   3.653   6.312
 3055SOL     OW10063   6.155   6.187   2.956
 3055SOL    HW110064   6.215   6.108   2.949
 3055SOL    HW210065   6.125   6.198   3.051
 3056SOL     OW10066   6.845   0.974   0.949
 3056SOL    HW110067   6.782   0.899   0.970
 3056SOL    HW210068   6.933   0.957   0.994
 3057SOL     OW10069   6.092   5.642   2.621
 3057SOL    HW110070   6.065   5.547   2.604
 3057SOL    HW210071   6.019   5.688   2.672
 3058SOL     OW10072   6.283   4.811   1.426
 3058SOL    HW110073   6.322   4.903   1.434
 3058SOL    HW210074   6.354   4.748   1.394
 3059SOL     OW10075   1.873   2.975   4.590
 3059SOL    HW110076   1.924   2.974   4.504
 3059SOL    HW210077   1.881   2.886   4.635
 3060SOL     OW10078   6.739   0.085   0.899
 3060SOL    HW110079   6.690   0.028   0.832
 3060SOL    HW210080   6.833   0.099   0.867
 3061SOL     OW10081   6.886   0.070   6.089
 3061SOL    HW110082   6.816   0.127   6.133
 3061SOL    HW210083   6.861   0.056   5.993
 3062SOL     OW10084   2.482   6.274   6.907
 3062SOL    HW110085   2.482   6.177   6.934
 3062SOL    HW210086   2.530   6.328   6.976
 3063SOL     OW10087   2.047   4.944   1.188
 3063SOL    HW110088   2.042   4.980   1.095
 3063SOL    HW210089   2.102   4.860   1.188
 3064SOL     OW10090   6.751   3.927   2.843
 3064SOL    HW110091   6.734   4.010   2.789
 3064SOL    HW210092   6.810   3.865   2.792
 3065SOL     OW10093   1.749   1.091   0.606
 3065SOL    HW110094   1.713   1.083   0.699
 3065SOL    HW210095   1.793   1.005   0.580
 3066SOL     OW10096   6.103   5.060   1.363
 3066SOL    HW110097   6.017   5.073   1.413
 3066SOL    HW210098   6.084   5.020   1.273
 3067SOL     OW10099   5.312   6.922   3.715
 3067SOL    HW110100   5.388   6.859   3.725
 3067SOL    HW210101   5.226   6.871   3.716
 3068SOL     OW10102   5.972   5.113   0.301
 3068SOL    HW110103   5.996   5.079   0.210
 3068SOL    HW210104   5.902   5.183   0.293
 3069SOL     OW10105   0.672   5.715   3.044
 3069SOL    HW110106   0.722   5.683   2.964
 3069SOL    HW210107   0.574   5.713   3.026
 3070SOL     OW10108   4.217   1.161   4.376
 3070SOL    HW110109   4.186   1.135   4.285
 3070SOL    HW210110   4.152   1.128   4.444
 3071SOL     OW10111   5.931   6.566   3.534
 3071SOL    HW110112   6.009   6.627   3.541
 3071SOL    HW210113   5.932   6.502   3.610
 3072SOL     OW10114   0.547   0.310   2.704
 3072SOL    HW110115   0.542   0.214   2.732
 3072SOL    HW210116   0.537   0.369   2.785
 3073SOL     OW10117   1.293   3.479   4.944
 3073SOL    HW110118   1.344   3.393   4.944
 3073SOL    HW210119   1.338   3.544   4.882
 3074SOL     OW10120   5.223   3.159   5.768
 3074SOL    HW110121   5.231   3.132   5.673
 3074SOL    HW210122   5.144   3.220   5.779
 3075SOL     OW10123   2.065   5.774   1.687
 3075SOL    HW110124   2.006   5.693   1.690
 3075SOL    HW210125   2.160   5.747   1.697
 3076SOL     OW10126   0.547   0.259   5.158
 3076SOL    HW110127   0.470   0.322   5.144
 3076SOL    HW210128   0.514   0.177   5.205
 3077SOL     OW10129   4.907   4.643   3.803
 3077SOL    HW110130   4.892   4.736   3.837
 3077SOL    HW210131   4.921   4.645   3.704
 3078SOL     OW10132   2.173   3.090   1.062
 3078SOL    HW110133   2.116   3.027   1.010
 3078SOL    HW210134   2.134   3.101   1.154
 3079SOL     OW10135   6.482   2.523   5.708
 3079SOL    HW110136   6.499   2.622   5.706
 3079SOL    HW210137   6.547   2.480   5.770
 3080SOL     OW10138   6.572   5.693   0.829
 3080SOL    HW110139   6.491   5.730   0.874
 3080SOL    HW210140   6.620   5.766   0.781
 3081SOL     OW10141   6.756   4.587   5.503
 3081SOL    HW110142   6.672   4.619   5.547
 3081SOL    HW210143   6.756   4.487   5.499
 3082SOL     OW10144   2.827   6.886   2.615
 3082SOL    HW110145   2.876   6.946   2.552
 3082SOL    HW210146   2.789   6.808   2.564
 3083SOL     OW10147   3.072   0.373   1.865
 3083SOL    HW110148   3.132   0.395   1.942
 3083SOL    HW210149   3.103   0.289   1.822
 3084SOL     OW10150   5.038   6.117   5.062
 3084SOL    HW110151   4.998   6.194   5.012
 3084SOL    HW210152   4.980   6.037   5.051
 3085SOL     OW10153   0.976   5.496   1.683
 3085SOL    HW110154   0.957   5.522   1.588
 3085SOL    HW210155   0.958   5.574   1.743
 3086SOL     OW10156   5.240   1.222   3.786
 3086SOL    HW110157   5.169   1.291   3.799
 3086SOL    HW210158   5.283   1.234   3.697
 3087SOL     OW10159   6.035   2.914   3.362
 3087SOL    HW110160   6.051   2.842   3.428
 3087SOL    HW210161   6.001   2.996   3.409
 3088SOL     OW10162   3.110   4.683   5.858
 3088SOL    HW110163   3.186   4.683   5.922
 3088SOL    HW210164   3.024   4.674   5.909
 3089SOL     OW10165   1.563   2.492   0.640
 3089SOL    HW110166   1.621   2.455   0.712
 3089SOL    HW210167   1.494   2.551   0.680
 3090SOL     OW10168   0.862   1.588   1.108
 3090SOL    HW110169   0.773   1.616   1.073
 3090SOL    HW210170   0.868   1.611   1.206
 3091SOL     OW10171   2.546   0.009   0.488
 3091SOL    HW110172   2.472   0.074   0.470
 3091SOL    HW210173   2.570   0.010   0.585
 3092SOL     OW10174   4.535   5.925   0.909
 3092SOL    HW110175   4.474   5.994   0.872
 3092SOL    HW210176   4.629   5.946   0.881
 3093SOL     OW10177   4.958   5.733   4.139
 3093SOL    HW110178   4.882   5.758   4.079
 3093SOL    HW210179   5.004   5.653   4.101
 3094SOL     OW10180   3.128   5.480   5.656
 3094SOL    HW110181   3.160   5.471   5.562
 3094SOL    HW210182   3.039   5.436   5.665
 3095SOL     OW10183   3.158   4.911   5.077
 3095SOL    HW110184   3.094   4.949   5.143
 3095SOL    HW210185   3.108   4.858   5.008
 3096SOL     OW10186   1.021   0.763   5.920
 3096SOL    HW110187   1.120   0.772   5.909
 3096SOL    HW210188   0.990   0.681   5.871
 3097SOL     OW10189   1.402   2.938   0.122
 3097SOL    HW110190   1.440   2.908   0.210
 3097SOL    HW210191   1.370   2.858   0.071
 3098SOL     OW10192   3.832   2.202   0.436
 3098SOL    HW110193   3.733   2.209   0.447
 3098SOL    HW210194   3.855   2.197   0.339
 3099SOL     OW10195   1.012   6.288   5.228
 3099SOL    HW110196   0.992   6.277   5.326
 3099SOL    HW210197   1.102   6.332   5.217
 3100SOL     OW10198   6.663   6.828   0.507
 3100SOL    HW110199   6.690   6.878   0.425
 3100SOL    HW210200   6.738   6.770   0.538
 3101SOL     OW10201   4.549   7.016   0.675
 3101SOL    HW110202   4.456   0.015   0.699
 3101SOL    HW210203   4.612   0.061   0.709
 3102SOL     OW10204   1.799   4.961   1.276
 3102SOL    HW110205   1.893   4.961   1.242
 3102SOL    HW210206   1.798   4.978   1.374
 3103SOL     OW10207   3.669   3.345   2.396
 3103SOL    HW110208   3.658   3.248   2.416
 3103SOL    HW210209   3.580   3.390   2.401
 3104SOL     OW10210   6.871   5.590   3.420
 3104SOL    HW110211   6.900   5.501   3.456
 3104SOL    HW210212   6.887   5.660   3.490
 3105SOL     OW10213   6.365   6.547   3.765
 3105SOL    HW110214   6.442   6.487   3.746
 3105SOL    HW210215   6.383   6.597   3.850
 3106SOL     OW10216   6.927   2.627   4.186
 3106SOL    HW110217   6.859   2.554   4.191
 3106SOL    HW210218   6.893   2.707   4.235
 3107SOL     OW10219   3.022   6.880   4.429
 3107SOL    HW110220   3.022   6.822   4.510
 3107SOL    HW210221   2.929   6.910   4.409
 3108SOL     OW10222   3.572   0.437   3.544
 3108SOL    HW110223   3.540   0.343   3.546
 3108SOL    HW210224   3.670   0.439   3.567
 3109SOL     OW10225   4.775   5.807   3.182
 3109SOL    HW110226   4.681   5.819   3.150
 3109SOL    HW210227   4.826   5.893   3.170
 3110SOL     OW10228   0.562   3.212   2.333
 3110SOL    HW110229   0.632   3.200   2.263
 3110SOL    HW210230   0.505   3.130   2.337
 3111SOL     OW10231   6.588   4.670   3.565
 3111SOL    HW110232   6.489   4.660   3.557
 3111SOL    HW210233   6.612   4.767   3.566
 3112SOL     OW10234   3.628   3.648   6.659
 3112SOL    HW110235   3.717   3.605   6.647
 3112SOL    HW210236   3.557   3.590   6.619
 3113SOL     OW10237   3.375   0.039   3.834
 3113SOL    HW110238   3.291   0.087   3.808
 3113SOL    HW210239   3.413   7.018   3.754
 3114SOL     OW10240   5.666   5.640   0.776
 3114SOL    HW110241   5.635   5.630   0.682
 3114SOL    HW210242   5.751   5.692   0.779
 3115SOL     OW10243   2.698   3.644   1.415
 3115SOL    HW110244   2.708   3.602   1.325
 3115SOL    HW210245   2.739   3.736   1.413
 3116SOL     OW10246   0.133   1.861   6.942
 3116SOL    HW110247   0.086   1.933   6.993
 3116SOL    HW210248   0.118   1.773   6.987
 3117SOL     OW10249   3.978   4.073   5.069
 3117SOL    HW110250   4.046   4.001   5.078
 3117SOL    HW210251   3.994   4.142   5.140
 3118SOL     OW10252   5.590   4.315   0.332
 3118SOL    HW110253   5.594   4.229   0.383
 3118SOL    HW210254   5.668   4.372   0.357
 3119SOL     OW10255   1.505   4.662   5.640
 3119SOL    HW110256   1.471   4.570   5.660
 3119SOL    HW210257   1.605   4.659   5.631
 3120SOL     OW10258   3.704   5.617   5.328
 3120SOL    HW110259   3.750   5.541   5.281
 3120SOL    HW210260   3.616   5.586   5.363
 3121SOL     OW10261   0.395   6.756   2.541
 3121SOL    HW110262   0.473   6.788   2.487
 3121SOL    HW210263   0.423   6.745   2.636
 3122SOL     OW10264   3.305   5.648   0.982
 3122SOL    HW110265   3.366   5.588   1.033
 3122SOL    HW210266   3.354   5.690   0.906
 3123SOL     OW10267   3.919   6.932   4.339
 3123SOL    HW110268   3.844   6.999   4.337
 3123SOL    HW210269   3.894   6.854   4.282
 3124SOL     OW10270   4.034   0.254   6.215
 3124SOL    HW110271   4.068   0.168   6.175
 3124SOL    HW210272   3.935   0.249   6.227
 3125SOL     OW10273   6.929   1.808   5.713
 3125SOL    HW110274   6.961   1.837   5.803
 3125SOL    HW210275   7.002   1.760   5.665
 3126SOL     OW10276   4.378   5.977   0.295
 3126SOL    HW110277   4.408   5.886   0.268
 3126SOL    HW210278   4.364   5.980   0.394
 3127SOL     OW10279   0.689   1.451   3.648
 3127SOL    HW110280   0.646   1.398   3.575
 3127SOL    HW210281   0.705   1.393   3.728
 3128SOL     OW10282   1.379   1.528   0.335
 3128SOL    HW110283   1.365   1.626   0.325
 3128SOL    HW210284   1.291   1.481   0.330
 3129SOL     OW10285   0.949   3.125   4.901
 3129SOL    HW110286   0.945   3.210   4.954
 3129SOL    HW210287   1.043   3.089   4.903
 3130SOL     OW10288   1.829   5.797   3.070
 3130SOL    HW110289   1.924   5.772   3.050
 3130SOL    HW210290   1.772   5.715   3.067
 3131SOL     OW10291   6.867   3.279   3.667
 3131SOL    HW110292   6.918   3.364   3.657
 3131SOL    HW210293   6.769   3.297   3.654
 3132SOL     OW10294   5.179   6.463   5.605
 3132SOL    HW110295   5.136   6.532   5.664
 3132SOL    HW210296   5.129   6.458   5.518
 3133SOL     OW10297   2.778   1.582   3.097
 3133SOL    HW110298   2.865   1.552   3.058
 3133SOL    HW210299   2.792   1.667   3.148
 3134SOL     OW10300   4.789   2.898   2.553
 3134SOL    HW110301   4.748   2.830   2.492
 3134SOL    HW210302   4.763   2.990   2.522
 3135SOL     OW10303   3.330   1.330   3.464
 3135SOL    HW110304   3.421   1.295   3.442
 3135SOL    HW210305   3.291   1.275   3.538
 3136SOL     OW10306   5.799   6.615   5.235
 3136SOL    HW110307   5.812   6.560   5.153
 3136SOL    HW210308   5.888   6.640   5.273
 3137SOL     OW10309   6.128   1.667   4.468
 3137SOL    HW110310   6.064   1.592   4.482
 3137SOL    HW210311   6.139   1.684   4.370
 3138SOL     OW10312   5.339   1.526   5.227
 3138SOL    HW110313   5.294   1.441   5.199
 3138SOL    HW210314   5.324   1.541   5.325
 3139SOL     OW10315   4.893   6.132   5.334
 3139SOL    HW110316   4.989   6.138   5.359
 3139SOL    HW210317   4.851   6.055   5.383
 3140SOL     OW10318   6.443   6.582   6.533
 3140SOL    HW110319   6.368   6.609   6.593
 3140SOL    HW210320   6.530   6.592   6.582
 3141SOL     OW10321   1.122   4.802   0.473
 3141SOL    HW110322   1.069   4.745   0.410
 3141SOL    HW210323   1.062   4.836   0.546
 3142SOL     OW10324   3.972   6.758   6.957
 3142SOL    HW110325   3.900   6.752   6.888
 3142SOL    HW210326   3.957   6.839   7.014
 3143SOL     OW10327   7.025   1.617   0.586
 3143SOL    HW110328   0.092   1.588   0.565
 3143SOL    HW210329   0.001   1.679   0.665
 3144SOL     OW10330   1.606   3.892   6.733
 3144SOL    HW110331   1.608   3.982   6.689
 3144SOL    HW210332   1.697   3.870   6.767
 3145SOL     OW10333   3.755   6.822   3.936
 3145SOL    HW110334   3.675   6.783   3.890
 3145SOL    HW210335   3.751   6.921   3.930
 3146SOL     OW10336   2.250   0.597   3.845
 3146SOL    HW110337   2.176   0.575   3.780
 3146SOL    HW210338   2.281   0.513   3.889
 3147SOL     OW10339   4.304   3.766   0.258
 3147SOL    HW110340   4.386   3.735   0.307
 3147SOL    HW210341   4.224   3.752   0.316
 3148SOL     OW10342   3.801   5.569   4.862
 3148SOL    HW110343   3.719   5.550   4.809
 3148SOL    HW210344   3.780   5.634   4.935
 3149SOL     OW10345   3.724   6.736   5.750
 3149SOL    HW110346   3.638   6.695   5.719
 3149SOL    HW210347   3.704   6.808   5.816
 3150SOL     OW10348   6.345   0.094   4.574
 3150SOL    HW110349   6.412   0.089   4.648
 3150SOL    HW210350   6.365   0.174   4.516
 3151SOL     OW10351   3.694   0.481   6.921
 3151SOL    HW110352   3.772   0.536   6.950
 3151SOL    HW210353   3.660   0.515   6.833
 3152SOL     OW10354   1.751   4.957   0.574
 3152SOL    HW110355   1.755   5.057   0.565
 3152SOL    HW210356   1.656   4.928   0.584
 3153SOL     OW10357   0.114   4.404   2.396
 3153SOL    HW110358   0.076   4.353   2.474
 3153SOL    HW210359   0.159   4.340   2.333
 3154SOL     OW10360   5.887   2.076   6.752
 3154SOL    HW110361   5.804   2.119   6.717
 3154SOL    HW210362   5.874   1.977   6.759
 3155SOL     OW10363   5.219   5.816   0.232
 3155SOL    HW110364   5.259   5.886   0.172
 3155SOL    HW210365   5.129   5.846   0.262
 3156SOL     OW10366   3.540   3.644   3.429
 3156SOL    HW110367   3.518   3.729   3.477
 3156SOL    HW210368   3.592   3.584   3.489
 3157SOL     OW10369   2.280   2.955   4.401
 3157SOL    HW110370   2.357   2.974   4.340
 3157SOL    HW210371   2.312   2.901   4.478
 3158SOL     OW10372   4.783   5.825   1.091
 3158SOL    HW110373   4.867   5.836   1.038
 3158SOL    HW210374   4.720   5.900   1.069
 3159SOL     OW10375   5.663   4.749   1.112
 3159SOL    HW110376   5.638   4.679   1.180
 3159SOL    HW210377   5.592   4.752   1.041
 3160SOL     OW10378   5.493   4.209   6.894
 3160SOL    HW110379   5.394   4.208   6.875
 3160SOL    HW210380   5.535   4.286   6.846
 3161SOL     OW10381   0.913   1.940   2.861
 3161SOL    HW110382   0.969   1.975   2.936
 3161SOL    HW210383   0.824   1.985   2.862
 3162SOL     OW10384   6.504   6.356   6.053
 3162SOL    HW110385   6.580   6.396   6.105
 3162SOL    HW210386   6.531   6.347   5.957
 3163SOL     OW10387   2.717   4.125   5.322
 3163SOL    HW110388   2.753   4.038   5.288
 3163SOL    HW210389   2.617   4.121   5.324
 3164SOL     OW10390   5.619   5.424   6.456
 3164SOL    HW110391   5.679   5.434   6.376
 3164SOL    HW210392   5.587   5.329   6.461
 3165SOL     OW10393   0.088   2.779   1.530
 3165SOL    HW110394   7.017   2.752   1.527
 3165SOL    HW210395   0.128   2.765   1.439
 3166SOL     OW10396   5.449   2.940   6.029
 3166SOL    HW110397   5.426   3.037   6.019
 3166SOL    HW210398   5.413   2.906   6.115
 3167SOL     OW10399   0.852   4.510   2.569
 3167SOL    HW110400   0.814   4.516   2.476
 3167SOL    HW210401   0.781   4.533   2.635
 3168SOL     OW10402   5.526   2.843   0.966
 3168SOL    HW110403   5.571   2.836   0.877
 3168SOL    HW210404   5.509   2.939   0.988
 3169SOL     OW10405   1.209   1.955   4.779
 3169SOL    HW110406   1.249   1.864   4.789
 3169SOL    HW210407   1.225   2.008   4.862
 3170SOL     OW10408   4.477   0.705   6.345
 3170SOL    HW110409   4.473   0.727   6.443
 3170SOL    HW210410   4.388   0.725   6.303
 3171SOL     OW10411   6.006   6.432   3.298
 3171SOL    HW110412   6.091   6.476   3.268
 3171SOL    HW210413   5.961   6.491   3.365
 3172SOL     OW10414   6.001   0.341   5.760
 3172SOL    HW110415   6.074   0.296   5.812
 3172SOL    HW210416   5.925   0.364   5.821
 3173SOL     OW10417   1.859   1.338   1.115
 3173SOL    HW110418   1.801   1.336   1.196
 3173SOL    HW210419   1.941   1.393   1.134
 3174SOL     OW10420   1.513   4.382   5.771
 3174SOL    HW110421   1.542   4.334   5.688
 3174SOL    HW210422   1.593   4.411   5.823
 3175SOL     OW10423   0.167   5.776   1.226
 3175SOL    HW110424   0.160   5.795   1.128
 3175SOL    HW210425   0.075   5.778   1.266
 3176SOL     OW10426   1.160   5.143   6.323
 3176SOL    HW110427   1.120   5.203   6.254
 3176SOL    HW210428   1.189   5.198   6.402
 3177SOL     OW10429   6.825   6.969   4.674
 3177SOL    HW110430   6.783   6.989   4.762
 3177SOL    HW210431   6.845   6.871   4.669
 3178SOL     OW10432   1.539   3.242   1.404
 3178SOL    HW110433   1.587   3.216   1.320
 3178SOL    HW210434   1.526   3.341   1.407
 3179SOL     OW10435   1.206   2.359   3.182
 3179SOL    HW110436   1.222   2.362   3.084
 3179SOL    HW210437   1.294   2.355   3.230
 3180SOL     OW10438   5.788   1.118   5.671
 3180SOL    HW110439   5.779   1.216   5.652
 3180SOL    HW210440   5.831   1.073   5.592
 3181SOL     OW10441   0.423   1.654   2.984
 3181SOL    HW110442   0.439   1.730   3.047
 3181SOL    HW210443   0.504   1.640   2.927
 3182SOL     OW10444   1.343   4.806   5.144
 3182SOL    HW110445   1.306   4.899   5.150
 3182SOL    HW210446   1.280   4.743   5.190
 3183SOL     OW10447   3.835   3.492   1.252
 3183SOL    HW110448   3.848   3.406   1.202
 3183SOL    HW210449   3.812   3.472   1.348
 3184SOL     OW10450   2.839   1.232   2.963
 3184SOL    HW110451   2.759   1.266   2.914
 3184SOL    HW210452   2.841   1.273   3.055
 3185SOL     OW10453   0.347   6.493   5.835
 3185SOL    HW110454   0.343   6.480   5.934
 3185SOL    HW210455   0.308   6.414   5.789
 3186SOL     OW10456   3.127   0.169   1.678
 3186SOL    HW110457   3.189   0.091   1.684
 3186SOL    HW210458   3.035   0.137   1.657
 3187SOL     OW10459   3.103   4.895   0.335
 3187SOL    HW110460   3.081   4.933   0.245
 3187SOL    HW210461   3.138   4.802   0.324
 3188SOL     OW10462   4.843   0.077   3.352
 3188SOL    HW110463   4.878   7.023   3.303
 3188SOL    HW210464   4.744   0.066   3.368
 3189SOL     OW10465   0.639   0.401   1.790
 3189SOL    HW110466   0.718   0.386   1.849
 3189SOL    HW210467   0.652   0.485   1.737
 3190SOL     OW10468   0.755   6.703   1.555
 3190SOL    HW110469   0.674   6.712   1.613
 3190SOL    HW210470   0.837   6.707   1.613
 3191SOL     OW10471   3.337   0.424   1.224
 3191SOL    HW110472   3.285   0.507   1.243
 3191SOL    HW210473   3.399   0.440   1.147
 3192SOL     OW10474   6.341   2.477   3.640
 3192SOL    HW110475   6.387   2.448   3.724
 3192SOL    HW210476   6.246   2.448   3.641
 3193SOL     OW10477   4.844   4.265   0.306
 3193SOL    HW110478   4.912   4.213   0.255
 3193SOL    HW210479   4.800   4.204   0.373
 3194SOL     OW10480   1.322   4.564   5.894
 3194SOL    HW110481   1.402   4.509   5.871
 3194SOL    HW210482   1.254   4.556   5.821
 3195SOL     OW10483   0.797   3.789   3.115
 3195SOL    HW110484   0.885   3.763   3.074
 3195SOL    HW210485   0.814   3.853   3.191
 3196SOL     OW10486   0.248   6.479   5.200
 3196SOL    HW110487   0.329   6.431   5.167
 3196SOL    HW210488   0.192   6.507   5.123
 3197SOL     OW10489   1.064   4.098   4.227
 3197SOL    HW110490   1.001   4.037   4.273
 3197SOL    HW210491   1.152   4.097   4.274
 3198SOL     OW10492   5.930   0.984   0.082
 3198SOL    HW110493   6.011   1.043   0.080
 3198SOL    HW210494   5.943   0.908   0.018
 3199SOL     OW10495   3.960   2.046   2.957
 3199SOL    HW110496   3.924   2.120   2.901
 3199SOL    HW210497   3.893   1.972   2.963
 3200SOL     OW10498   6.431   2.135   0.899
 3200SOL    HW110499   6.521   2.172   0.876
 3200SOL    HW210500   6.365   2.209   0.908
 3201SOL     OW10501   4.663   4.474   3.078
 3201SOL    HW110502   4.664   4.394   3.138
 3201SOL    HW210503   4.628   4.553   3.128
 3202SOL     OW10504   1.650   5.865   1.814
 3202SOL    HW110505   1.628   5.917   1.897
 3202SOL    HW210506   1.660   5.768   1.836
 3203SOL     OW10507   6.086   0.265   1.589
 3203SOL    HW110508   6.119   0.243   1.681
 3203SOL    HW210509   6.122   0.355   1.561
 3204SOL     OW10510   6.447   6.013   1.564
 3204SOL    HW110511   6.362   6.043   1.522
 3204SOL    HW210512   6.487   5.939   1.511
 3205SOL     OW10513   1.507   3.958   2.843
 3205SOL    HW110514   1.549   3.870   2.868
 3205SOL    HW210515   1.579   4.028   2.835
 3206SOL     OW10516   1.869   6.751   0.336
 3206SOL    HW110517   1.875   6.653   0.353
 3206SOL    HW210518   1.914   6.800   0.411
 3207SOL     OW10519   1.093   1.294   3.397
 3207SOL    HW110520   0.997   1.319   3.386
 3207SOL    HW210521   1.121   1.309   3.492
 3208SOL     OW10522   6.202   0.505   5.099
 3208SOL    HW110523   6.218   0.586   5.155
 3208SOL    HW210524   6.278   0.493   5.036
 3209SOL     OW10525   2.788   0.060   2.849
 3209SOL    HW110526   2.852   7.020   2.811
 3209SOL    HW210527   2.728   0.015   2.915
 3210SOL     OW10528   0.157   5.007   2.813
 3210SOL    HW110529   0.195   5.092   2.777
 3210SOL    HW210530   0.226   4.934   2.807
 3211SOL     OW10531   0.897   4.341   2.296
 3211SOL    HW110532   0.895   4.301   2.205
 3211SOL    HW210533   0.890   4.268   2.364
 3212SOL     OW10534   4.944   3.160   5.106
 3212SOL    HW110535   4.871   3.164   5.173
 3212SOL    HW210536   4.963   3.252   5.071
 3213SOL     OW10537   5.540   6.451   1.374
 3213SOL    HW110538   5.517   6.354   1.374
 3213SOL    HW210539   5.518   6.490   1.464
 3214SOL     OW10540   4.223   4.271   6.080
 3214SOL    HW110541   4.309   4.257   6.030
 3214SOL    HW210542   4.216   4.367   6.108
 3215SOL     OW10543   6.082   1.194   0.348
 3215SOL    HW110544   6.128   1.152   0.269
 3215SOL    HW210545   6.076   1.127   0.422
 3216SOL     OW10546   6.122   6.707   4.901
 3216SOL    HW110547   6.095   6.795   4.939
 3216SOL    HW210548   6.153   6.719   4.806
 3217SOL     OW10549   6.497   4.071   0.760
 3217SOL    HW110550   6.422   4.018   0.800
 3217SOL    HW210551   6.477   4.088   0.664
 3218SOL     OW10552   3.140   0.758   2.070
 3218SOL    HW110553   3.200   0.790   1.997
 3218SOL    HW210554   3.066   0.824   2.082
 3219SOL     OW10555   6.738   6.837   3.947
 3219SOL    HW110556   6.742   6.770   4.021
 3219SOL    HW210557   6.831   6.862   3.920
 3220SOL     OW10558   6.206   2.650   5.712
 3220SOL    HW110559   6.285   2.603   5.672
 3220SOL    HW210560   6.224   2.748   5.719
 3221SOL     OW10561   4.156   0.105   2.489
 3221SOL    HW110562   4.191   0.198   2.481
 3221SOL    HW210563   4.095   0.086   2.412
 3222SOL     OW10564   5.915   3.580   2.694
 3222SOL    HW110565   5.860   3.652   2.651
 3222SOL    HW210566   5.989   3.621   2.747
 3223SOL     OW10567   2.541   4.634   4.350
 3223SOL    HW110568   2.530   4.608   4.254
 3223SOL    HW210569   2.475   4.584   4.405
 3224SOL     OW10570   3.844   5.885   1.617
 3224SOL    HW110571   3.906   5.807   1.617
 3224SOL    HW210572   3.791   5.886   1.532
 3225SOL     OW10573   2.624   2.226   0.954
 3225SOL    HW110574   2.659   2.300   1.011
 3225SOL    HW210575   2.532   2.201   0.983
 3226SOL     OW10576   0.111   1.076   4.299
 3226SOL    HW110577   0.046   1.152   4.291
 3226SOL    HW210578   0.089   1.007   4.231
 3227SOL     OW10579   2.071   1.900   5.422
 3227SOL    HW110580   2.147   1.877   5.360
 3227SOL    HW210581   1.985   1.868   5.383
 3228SOL     OW10582   5.159   3.251   4.702
 3228SOL    HW110583   5.153   3.156   4.735
 3228SOL    HW210584   5.216   3.254   4.620
 3229SOL     OW10585   3.812   2.136   5.060
 3229SOL    HW110586   3.903   2.177   5.070
 3229SOL    HW210587   3.795   2.115   4.963
 3230SOL     OW10588   1.496   0.398   3.986
 3230SOL    HW110589   1.461   0.427   4.075
 3230SOL    HW210590   1.591   0.367   3.995
 3231SOL     OW10591   5.351   5.639   0.430
 3231SOL    HW110592   5.448   5.654   0.449
 3231SOL    HW210593   5.319   5.708   0.365
 3232SOL     OW10594   2.270   4.316   3.090
 3232SOL    HW110595   2.243   4.376   3.015
 3232SOL    HW210596   2.267   4.221   3.059
 3233SOL     OW10597   1.857   3.754   0.982
 3233SOL    HW110598   1.834   3.757   1.080
 3233SOL    HW210599   1.783   3.796   0.930
 3234SOL     OW10600   6.465   2.102   4.631
 3234SOL    HW110601   6.392   2.094   4.563
 3234SOL    HW210602   6.430   2.146   4.713
 3235SOL     OW10603   5.741   0.619   2.551
 3235SOL    HW110604   5.656   0.666   2.573
 3235SOL    HW210605   5.809   0.685   2.521
 3236SOL     OW10606   0.654   3.010   1.628
 3236SOL    HW110607   0.740   2.973   1.594
 3236SOL    HW210608   0.581   2.942   1.615
 3237SOL     OW10609   3.470   6.242   4.547
 3237SOL    HW110610   3.424   6.306   4.485
 3237SOL    HW210611   3.521   6.293   4.616
 3238SOL     OW10612   5.947   6.572   6.423
 3238SOL    HW110613   5.983   6.484   6.392
 3238SOL    HW210614   5.876   6.557   6.492
 3239SOL     OW10615   0.638   5.748   5.775
 3239SOL    HW110616   0.562   5.709   5.723
 3239SOL    HW210617   0.722   5.699   5.752
 3240SOL     OW10618   0.142   1.657   4.700
 3240SOL    HW110619   0.087   1.730   4.658
 3240SOL    HW210620   0.209   1.623   4.634
 3241SOL     OW10621   4.996   0.355   5.327
 3241SOL    HW110622   5.062   0.428   5.345
 3241SOL    HW210623   5.004   0.285   5.398
 3242SOL     OW10624   3.182   6.482   0.456
 3242SOL    HW110625   3.167   6.531   0.541
 3242SOL    HW210626   3.095   6.450   0.419
 3243SOL     OW10627   3.605   5.040   0.474
 3243SOL    HW110628   3.546   5.056   0.553
 3243SOL    HW210629   3.689   4.996   0.502
 3244SOL     OW10630   1.846   6.065   5.371
 3244SOL    HW110631   1.831   6.145   5.429
 3244SOL    HW210632   1.821   5.982   5.422
 3245SOL     OW10633   2.395   2.162   5.701
 3245SOL    HW110634   2.471   2.097   5.704
 3245SOL    HW210635   2.345   2.159   5.788
 3246SOL     OW10636   5.482   6.351   3.746
 3246SOL    HW110637   5.487   6.345   3.646
 3246SOL    HW210638   5.559   6.405   3.780
 3247SOL     OW10639   6.673   1.560   5.254
 3247SOL    HW110640   6.641   1.638   5.308
 3247SOL    HW210641   6.717   1.493   5.314
 3248SOL     OW10642   5.129   3.714   2.406
 3248SOL    HW110643   5.052   3.756   2.358
 3248SOL    HW210644   5.206   3.703   2.343
 3249SOL     OW10645   3.126   4.224   5.148
 3249SOL    HW110646   3.098   4.180   5.233
 3249SOL    HW210647   3.082   4.313   5.140
 3250SOL     OW10648   4.679   5.785   1.463
 3250SOL    HW110649   4.685   5.867   1.407
 3250SOL    HW210650   4.593   5.786   1.514
 3251SOL     OW10651   3.830   1.107   3.857
 3251SOL    HW110652   3.922   1.136   3.828
 3251SOL    HW210653   3.822   1.008   3.847
 3252SOL     OW10654   3.250   2.026   3.717
 3252SOL    HW110655   3.182   2.098   3.706
 3252SOL    HW210656   3.217   1.942   3.673
 3253SOL     OW10657   4.363   3.775   0.967
 3253SOL    HW110658   4.458   3.805   0.968
 3253SOL    HW210659   4.357   3.681   0.999
 3254SOL     OW10660   5.037   4.475   2.501
 3254SOL    HW110661   5.125   4.431   2.521
 3254SOL    HW210662   4.963   4.418   2.537
 3255SOL     OW10663   3.959   4.963   1.194
 3255SOL    HW110664   3.915   5.005   1.273
 3255SOL    HW210665   3.994   5.034   1.134
 3256SOL     OW10666   6.071   6.588   5.817
 3256SOL    HW110667   6.125   6.650   5.760
 3256SOL    HW210668   6.054   6.503   5.767
 3257SOL     OW10669   2.444   1.837   1.084
 3257SOL    HW110670   2.389   1.889   1.019
 3257SOL    HW210671   2.540   1.838   1.056
 3258SOL     OW10672   5.195   0.103   1.577
 3258SOL    HW110673   5.178   0.022   1.520
 3258SOL    HW210674   5.294   0.119   1.582
 3259SOL     OW10675   6.021   6.171   3.252
 3259SOL    HW110676   6.026   6.270   3.269
 3259SOL    HW210677   6.076   6.123   3.321
 3260SOL     OW10678   1.501   2.808   0.641
 3260SOL    HW110679   1.460   2.803   0.549
 3260SOL    HW210680   1.438   2.856   0.702
 3261SOL     OW10681   4.369   0.041   3.472
 3261SOL    HW110682   4.291   0.099   3.496
 3261SOL    HW210683   4.409   0.003   3.555
 3262SOL     OW10684   4.075   1.481   4.810
 3262SOL    HW110685   4.074   1.452   4.714
 3262SOL    HW210686   3.983   1.508   4.838
 3263SOL     OW10687   3.282   5.157   2.700
 3263SOL    HW110688   3.304   5.182   2.794
 3263SOL    HW210689   3.239   5.234   2.654
 3264SOL     OW10690   4.969   4.457   5.540
 3264SOL    HW110691   4.959   4.538   5.483
 3264SOL    HW210692   5.055   4.462   5.590
 3265SOL     OW10693   5.243   0.613   6.618
 3265SOL    HW110694   5.319   0.628   6.681
 3265SOL    HW210695   5.258   0.666   6.535
 3266SOL     OW10696   0.541   2.535   0.094
 3266SOL    HW110697   0.587   2.446   0.090
 3266SOL    HW210698   0.495   2.544   0.183
 3267SOL     OW10699   4.751   2.582   1.478
 3267SOL    HW110700   4.791   2.665   1.518
 3267SOL    HW210701   4.665   2.605   1.433
 3268SOL     OW10702   1.766   4.915   6.686
 3268SOL    HW110703   1.814   4.837   6.645
 3268SOL    HW210704   1.709   4.883   6.761
 3269SOL     OW10705   4.591   3.614   0.758
 3269SOL    HW110706   4.515   3.584   0.816
 3269SOL    HW210707   4.677   3.605   0.808
 3270SOL     OW10708   0.341   5.360   4.394
 3270SOL    HW110709   0.271   5.306   4.440
 3270SOL    HW210710   0.352   5.326   4.300
 3271SOL     OW10711   4.882   0.979   1.782
 3271SOL    HW110712   4.937   0.925   1.718
 3271SOL    HW210713   4.933   1.059   1.810
 3272SOL     OW10714   4.918   0.049   6.915
 3272SOL    HW110715   4.947   7.021   6.994
 3272SOL    HW210716   4.940   0.146   6.931
 3273SOL     OW10717   1.289   0.629   3.129
 3273SOL    HW110718   1.340   0.562   3.183
 3273SOL    HW210719   1.235   0.581   3.060
 3274SOL     OW10720   3.183   2.125   7.010
 3274SOL    HW110721   3.276   2.162   7.015
 3274SOL    HW210722   3.173   2.053   0.053
 3275SOL     OW10723   4.245   0.761   0.643
 3275SOL    HW110724   4.205   0.781   0.733
 3275SOL    HW210725   4.216   0.831   0.578
 3276SOL     OW10726   2.042   6.392   0.617
 3276SOL    HW110727   2.019   6.486   0.642
 3276SOL    HW210728   2.141   6.379   0.621
 3277SOL     OW10729   0.459   5.614   5.615
 3277SOL    HW110730   0.415   5.615   5.526
 3277SOL    HW210731   0.495   5.523   5.634
 3278SOL     OW10732   1.086   1.109   0.538
 3278SOL    HW110733   1.012   1.168   0.506
 3278SOL    HW210734   1.114   1.047   0.465
 3279SOL     OW10735   2.384   5.931   1.608
 3279SOL    HW110736   2.306   5.946   1.548
 3279SOL    HW210737   2.365   5.856   1.670
 3280SOL     OW10738   2.936   6.122   4.551
 3280SOL    HW110739   2.942   6.160   4.459
 3280SOL    HW210740   2.844   6.086   4.566
 3281SOL     OW10741   2.514   6.327   0.957
 3281SOL    HW110742   2.423   6.292   0.935
 3281SOL    HW210743   2.583   6.258   0.934
 3282SOL     OW10744   2.465   5.700   2.591
 3282SOL    HW110745   2.374   5.658   2.593
 3282SOL    HW210746   2.463   5.783   2.537
 3283SOL     OW10747   2.029   0.075   4.370
 3283SOL    HW110748   2.096   0.148   4.357
 3283SOL    HW210749   2.018   0.058   4.468
 3284SOL     OW10750   0.984   4.637   5.861
 3284SOL    HW110751   1.048   4.609   5.790
 3284SOL    HW210752   1.018   4.608   5.951
 3285SOL     OW10753   0.316   2.368   4.783
 3285SOL    HW110754   0.250   2.393   4.712
 3285SOL    HW210755   0.340   2.449   4.837
 3286SOL     OW10756   4.354   4.920   5.908
 3286SOL    HW110757   4.308   4.921   5.997
 3286SOL    HW210758   4.421   4.994   5.905
 3287SOL     OW10759   0.441   4.215   1.704
 3287SOL    HW110760   0.493   4.164   1.634
 3287SOL    HW210761   0.366   4.263   1.660
 3288SOL     OW10762   1.341   6.411   6.343
 3288SOL    HW110763   1.323   6.338   6.277
 3288SOL    HW210764   1.260   6.423   6.401
 3289SOL     OW10765   1.357   5.563   4.713
 3289SOL    HW110766   1.447   5.523   4.695
 3289SOL    HW210767   1.350   5.588   4.809
 3290SOL     OW10768   0.051   4.230   3.076
 3290SOL    HW110769   0.033   4.133   3.094
 3290SOL    HW210770   7.021   4.286   3.138
 3291SOL     OW10771   1.763   0.454   1.801
 3291SOL    HW110772   1.796   0.512   1.727
 3291SOL    HW210773   1.831   0.453   1.875
 3292SOL     OW10774   0.558   5.261   4.901
 3292SOL    HW110775   0.467   5.260   4.943
 3292SOL    HW210776   0.552   5.300   4.809
 3293SOL     OW10777   5.924   0.822   2.459
 3293SOL    HW110778   5.960   0.905   2.500
 3293SOL    HW210779   6.000   0.761   2.435
 3294SOL     OW10780   1.118   6.852   0.600
 3294SOL    HW110781   1.127   6.945   0.636
 3294SOL    HW210782   1.021   6.828   0.593
 3295SOL     OW10783   1.557   2.218   6.199
 3295SOL    HW110784   1.547   2.210   6.100
 3295SOL    HW210785   1.642   2.267   6.220
 3296SOL     OW10786   0.863   6.835   2.315
 3296SOL    HW110787   0.928   6.772   2.357
 3296SOL    HW210788   0.855   6.814   2.217
 3297SOL     OW10789   2.796   1.606   6.352
 3297SOL    HW110790   2.803   1.521   6.405
 3297SOL    HW210791   2.763   1.586   6.260
 3298SOL     OW10792   6.515   3.943   2.603
 3298SOL    HW110793   6.523   3.863   2.663
 3298SOL    HW210794   6.606   3.983   2.590
 3299SOL     OW10795   0.944   1.097   4.964
 3299SOL    HW110796   0.907   1.168   4.904
 3299SOL    HW210797   0.941   1.128   5.059
 3300SOL     OW10798   0.011   0.147   4.684
 3300SOL    HW110799   6.965   0.191   4.738
 3300SOL    HW210800   0.001   0.047   4.690
 3301SOL     OW10801   0.217   3.788   2.431
 3301SOL    HW110802   0.306   3.816   2.395
 3301SOL    HW210803   0.157   3.765   2.355
 3302SOL     OW10804   1.193   5.878   5.292
 3302SOL    HW110805   1.152   5.796   5.330
 3302SOL    HW210806   1.192   5.951   5.360
 3303SOL     OW10807   3.265   3.430   3.503
 3303SOL    HW110808   3.223   3.392   3.421
 3303SOL    HW210809   3.230   3.522   3.519
 3304SOL     OW10810   1.784   0.907   2.999
 3304SOL    HW110811   1.787   0.843   2.922
 3304SOL    HW210812   1.713   0.878   3.063
 3305SOL     OW10813   0.320   2.485   0.713
 3305SOL    HW110814   0.401   2.487   0.655
 3305SOL    HW210815   0.249   2.544   0.673
 3306SOL     OW10816   1.119   3.693   2.060
 3306SOL    HW110817   1.136   3.612   2.116
 3306SOL    HW210818   1.056   3.754   2.107
 3307SOL     OW10819   0.735   6.245   0.429
 3307SOL    HW110820   0.669   6.316   0.451
 3307SOL    HW210821   0.797   6.277   0.356
 3308SOL     OW10822   5.858   6.472   0.696
 3308SOL    HW110823   5.938   6.496   0.641
 3308SOL    HW210824   5.878   6.389   0.749
 3309SOL     OW10825   1.448   5.540   2.225
 3309SOL    HW110826   1.375   5.552   2.158
 3309SOL    HW210827   1.504   5.461   2.200
 3310SOL     OW10828   1.211   6.751   2.012
 3310SOL    HW110829   1.270   6.759   1.932
 3310SOL    HW210830   1.138   6.685   1.994
 3311SOL     OW10831   4.119   6.651   1.038
 3311SOL    HW110832   4.021   6.632   1.042
 3311SOL    HW210833   4.145   6.674   0.944
 3312SOL     OW10834   2.076   3.032   6.733
 3312SOL    HW110835   2.047   2.939   6.757
 3312SOL    HW210836   2.109   3.079   6.814
 3313SOL     OW10837   6.251   6.267   4.963
 3313SOL    HW110838   6.313   6.213   5.020
 3313SOL    HW210839   6.182   6.310   5.021
 3314SOL     OW10840   0.495   4.000   6.771
 3314SOL    HW110841   0.432   3.996   6.694
 3314SOL    HW210842   0.544   4.087   6.769
 3315SOL     OW10843   6.243   3.684   3.325
 3315SOL    HW110844   6.339   3.678   3.298
 3315SOL    HW210845   6.190   3.614   3.278
 3316SOL     OW10846   4.307   1.832   0.478
 3316SOL    HW110847   4.406   1.846   0.482
 3316SOL    HW210848   4.279   1.774   0.555
 3317SOL     OW10849   4.105   2.892   1.513
 3317SOL    HW110850   4.182   2.924   1.569
 3317SOL    HW210851   4.097   2.793   1.521
 3318SOL     OW10852   2.520   5.497   5.066
 3318SOL    HW110853   2.549   5.526   5.157
 3318SOL    HW210854   2.586   5.528   4.998
 3319SOL     OW10855   6.751   6.440   6.436
 3319SOL    HW110856   6.706   6.375   6.498
 3319SOL    HW210857   6.814   6.498   6.489
 3320SOL     OW10858   0.710   0.701   0.006
 3320SOL    HW110859   0.657   0.618   0.026
 3320SOL    HW210860   0.806   0.676   7.017
 3321SOL     OW10861   4.154   3.434   4.259
 3321SOL    HW110862   4.245   3.452   4.295
 3321SOL    HW210863   4.156   3.440   4.159
 3322SOL     OW10864   4.149   2.613   1.513
 3322SOL    HW110865   4.160   2.618   1.414
 3322SOL    HW210866   4.065   2.565   1.535
 3323SOL     OW10867   2.799   4.764   0.078
 3323SOL    HW110868   2.816   4.853   0.121
 3323SOL    HW210869   2.769   4.778   7.009
 3324SOL     OW10870   5.888   2.954   1.842
 3324SOL    HW110871   5.828   2.880   1.811
 3324SOL    HW210872   5.884   2.961   1.942
 3325SOL     OW10873   1.191   4.036   6.705
 3325SOL    HW110874   1.274   4.071   6.661
 3325SOL    HW210875   1.201   3.938   6.722
 3326SOL     OW10876   6.651   1.005   1.847
 3326SOL    HW110877   6.717   1.054   1.790
 3326SOL    HW210878   6.566   0.993   1.797
 3327SOL     OW10879   4.171   6.063   1.495
 3327SOL    HW110880   4.223   6.141   1.460
 3327SOL    HW210881   4.192   5.982   1.441
 3328SOL     OW10882   5.848   6.942   4.030
 3328SOL    HW110883   5.835   6.847   4.057
 3328SOL    HW210884   5.766   6.974   3.981
 3329SOL     OW10885   5.099   0.856   6.678
 3329SOL    HW110886   5.160   0.928   6.708
 3329SOL    HW210887   5.152   0.773   6.659
 3330SOL     OW10888   6.909   6.504   3.342
 3330SOL    HW110889   6.948   6.555   3.419
 3330SOL    HW210890   6.976   6.499   3.268
 3331SOL     OW10891   1.566   3.689   2.912
 3331SOL    HW110892   1.563   3.663   3.009
 3331SOL    HW210893   1.602   3.612   2.859
 3332SOL     OW10894   3.256   5.185   0.075
 3332SOL    HW110895   3.183   5.238   0.118
 3332SOL    HW210896   3.326   5.163   0.142
 3333SOL     OW10897   2.414   3.125   1.477
 3333SOL    HW110898   2.372   3.179   1.550
 3333SOL    HW210899   2.343   3.094   1.413
 3334SOL     OW10900   1.702   2.395   2.039
 3334SOL    HW110901   1.620   2.352   2.077
 3334SOL    HW210902   1.676   2.454   1.963
 3335SOL     OW10903   3.424   4.187   5.158
 3335SOL    HW110904   3.335   4.234   5.154
 3335SOL    HW210905   3.452   4.161   5.065
 3336SOL     OW10906   4.358   5.988   4.768
 3336SOL    HW110907   4.354   6.024   4.675
 3336SOL    HW210908   4.424   5.913   4.772
 3337SOL     OW10909   3.830   3.085   3.222
 3337SOL    HW110910   3.843   3.081   3.123
 3337SOL    HW210911   3.746   3.037   3.246
 3338SOL     OW10912   2.867   2.824   1.411
 3338SOL    HW110913   2.801   2.889   1.373
 3338SOL    HW210914   2.845   2.732   1.381
 3339SOL     OW10915   1.084   0.073   6.809
 3339SOL    HW110916   1.121   0.165   6.792
 3339SOL    HW210917   1.132   0.032   6.887
 3340SOL     OW10918   3.597   0.886   5.685
 3340SOL    HW110919   3.629   0.973   5.648
 3340SOL    HW210920   3.557   0.832   5.611
 3341SOL     OW10921   0.756   4.463   1.742
 3341SOL    HW110922   0.853   4.449   1.725
 3341SOL    HW210923   0.702   4.397   1.690
 3342SOL     OW10924   6.646   0.993   2.511
 3342SOL    HW110925   6.584   1.071   2.503
 3342SOL    HW210926   6.711   0.993   2.435
 3343SOL     OW10927   3.822   5.762   0.576
 3343SOL    HW110928   3.747   5.708   0.538
 3343SOL    HW210929   3.906   5.746   0.523
 3344SOL     OW10930   0.836   3.522   1.636
 3344SOL    HW110931   0.905   3.549   1.703
 3344SOL    HW210932   0.815   3.425   1.648
 3345SOL     OW10933   5.849   5.122   1.471
 3345SOL    HW110934   5.767   5.073   1.498
 3345SOL    HW210935   5.829   5.220   1.466
 3346SOL     OW10936   1.160   0.564   0.333
 3346SOL    HW110937   1.176   0.468   0.311
 3346SOL    HW210938   1.185   0.620   0.255
 3347SOL     OW10939   1.043   3.836   5.811
 3347SOL    HW110940   0.945   3.851   5.825
 3347SOL    HW210941   1.057   3.744   5.774
 3348SOL     OW10942   3.734   4.280   6.099
 3348SOL    HW110943   3.757   4.221   6.177
 3348SOL    HW210944   3.787   4.364   6.104
 3349SOL     OW10945   2.197   5.164   2.313
 3349SOL    HW110946   2.280   5.139   2.263
 3349SOL    HW210947   2.130   5.091   2.305
 3350SOL     OW10948   1.618   4.990   4.693
 3350SOL    HW110949   1.692   4.994   4.760
 3350SOL    HW210950   1.577   4.899   4.694
 3351SOL     OW10951   5.565   0.980   1.840
 3351SOL    HW110952   5.626   0.904   1.861
 3351SOL    HW210953   5.571   1.049   1.912
 3352SOL     OW10954   5.429   1.414   0.101
 3352SOL    HW110955   5.453   1.374   0.190
 3352SOL    HW210956   5.394   1.507   0.114
 3353SOL     OW10957   3.947   0.546   6.987
 3353SOL    HW110958   3.908   0.565   0.051
 3353SOL    HW210959   4.005   0.464   6.992
 3354SOL     OW10960   2.152   3.387   0.637
 3354SOL    HW110961   2.209   3.368   0.717
 3354SOL    HW210962   2.194   3.347   0.556
 3355SOL     OW10963   0.958   0.435   4.448
 3355SOL    HW110964   0.891   0.410   4.518
 3355SOL    HW210965   0.931   0.394   4.360
 3356SOL     OW10966   2.212   0.935   6.592
 3356SOL    HW110967   2.129   0.923   6.647
 3356SOL    HW210968   2.238   1.032   6.592
 3357SOL     OW10969   3.186   2.935   3.137
 3357SOL    HW110970   3.236   2.951   3.223
 3357SOL    HW210971   3.251   2.925   3.062
 3358SOL     OW10972   0.613   1.670   1.519
 3358SOL    HW110973   0.610   1.765   1.551
 3358SOL    HW210974   0.641   1.610   1.593
 3359SOL     OW10975   0.886   6.922   4.709
 3359SOL    HW110976   0.946   7.002   4.716
 3359SOL    HW210977   0.901   6.877   4.621
 3360SOL     OW10978   2.192   5.008   4.319
 3360SOL    HW110979   2.258   4.998   4.244
 3360SOL    HW210980   2.223   4.957   4.399
 3361SOL     OW10981   6.582   6.602   5.124
 3361SOL    HW110982   6.489   6.569   5.111
 3361SOL    HW210983   6.601   6.609   5.222
 3362SOL     OW10984   3.737   0.431   3.935
 3362SOL    HW110985   3.721   0.429   3.836
 3362SOL    HW210986   3.802   0.359   3.959
 3363SOL     OW10987   5.398   4.234   0.128
 3363SOL    HW110988   5.403   4.246   0.028
 3363SOL    HW210989   5.484   4.264   0.168
 3364SOL     OW10990   1.350   3.646   1.884
 3364SOL    HW110991   1.291   3.681   1.957
 3364SOL    HW210992   1.436   3.614   1.923
 3365SOL     OW10993   1.271   3.244   2.532
 3365SOL    HW110994   1.294   3.152   2.564
 3365SOL    HW210995   1.189   3.239   2.475
 3366SOL     OW10996   6.153   3.013   4.657
 3366SOL    HW110997   6.148   2.924   4.612
 3366SOL    HW210998   6.068   3.029   4.708
 3367SOL     OW10999   3.571   3.067   3.912
 3367SOL    HW111000   3.534   2.987   3.863
 3367SOL    HW211001   3.507   3.143   3.904
 3368SOL     OW11002   2.721   0.819   3.100
 3368SOL    HW111003   2.634   0.774   3.082
 3368SOL    HW211004   2.707   0.898   3.160
 3369SOL     OW11005   4.919   2.739   0.730
 3369SOL    HW111006   5.000   2.687   0.757
 3369SOL    HW211007   4.945   2.832   0.703
 3370SOL     OW11008   0.802   5.617   2.826
 3370SOL    HW111009   0.756   5.632   2.739
 3370SOL    HW211010   0.897   5.647   2.820
 3371SOL     OW11011   2.217   2.552   1.329
 3371SOL    HW111012   2.278   2.527   1.405
 3371SOL    HW211013   2.184   2.469   1.284
 3372SOL     OW11014   5.668   3.229   3.554
 3372SOL    HW111015   5.600   3.160   3.582
 3372SOL    HW211016   5.671   3.302   3.623
 3373SOL     OW11017   0.206   4.032   1.381
 3373SOL    HW111018   0.129   4.078   1.338
 3373SOL    HW211019   0.174   3.978   1.459
 3374SOL     OW11020   0.536   6.268   4.329
 3374SOL    HW111021   0.622   6.293   4.375
 3374SOL    HW211022   0.510   6.340   4.265
 3375SOL     OW11023   0.480   6.269   5.651
 3375SOL    HW111024   0.525   6.273   5.740
 3375SOL    HW211025   0.513   6.342   5.593
 3376SOL     OW11026   3.103   3.260   4.683
 3376SOL    HW111027   3.174   3.303   4.628
 3376SOL    HW211028   3.111   3.161   4.677
 3377SOL     OW11029   6.984   5.055   4.729
 3377SOL    HW111030   6.985   4.968   4.777
 3377SOL    HW211031   6.930   5.121   4.781
 3378SOL     OW11032   1.359   5.841   0.505
 3378SOL    HW111033   1.414   5.846   0.422
 3378SOL    HW211034   1.408   5.886   0.580
 3379SOL     OW11035   6.072   3.891   4.159
 3379SOL    HW111036   6.123   3.878   4.243
 3379SOL    HW211037   5.988   3.943   4.178
 3380SOL     OW11038   2.402   5.290   1.226
 3380SOL    HW111039   2.349   5.260   1.147
 3380SOL    HW211040   2.500   5.288   1.203
 3381SOL     OW11041   2.966   4.102   6.246
 3381SOL    HW111042   2.943   4.105   6.149
 3381SOL    HW211043   2.895   4.150   6.299
 3382SOL     OW11044   6.601   4.071   6.848
 3382SOL    HW111045   6.550   4.032   6.771
 3382SOL    HW211046   6.695   4.037   6.847
 3383SOL     OW11047   3.691   5.291   0.605
 3383SOL    HW111048   3.732   5.203   0.581
 3383SOL    HW211049   3.726   5.321   0.693
 3384SOL     OW11050   2.787   2.855   6.348
 3384SOL    HW111051   2.695   2.834   6.314
 3384SOL    HW211052   2.854   2.836   6.276
 3385SOL     OW11053   6.347   2.347   4.390
 3385SOL    HW111054   6.373   2.297   4.308
 3385SOL    HW211055   6.251   2.327   4.412
 3386SOL     OW11056   0.560   5.811   4.227
 3386SOL    HW111057   0.491   5.750   4.266
 3386SOL    HW211058   0.643   5.808   4.283
 3387SOL     OW11059   6.136   1.055   2.882
 3387SOL    HW111060   6.071   1.123   2.917
 3387SOL    HW211061   6.088   0.968   2.868
 3388SOL     OW11062   6.704   3.842   0.757
 3388SOL    HW111063   6.756   3.807   0.835
 3388SOL    HW211064   6.620   3.886   0.790
 3389SOL     OW11065   6.496   5.296   6.491
 3389SOL    HW111066   6.432   5.228   6.456
 3389SOL    HW211067   6.503   5.288   6.590
 3390SOL     OW11068   2.895   5.668   0.478
 3390SOL    HW111069   2.883   5.755   0.430
 3390SOL    HW211070   2.808   5.620   0.482
 3391SOL     OW11071   4.781   3.997   5.171
 3391SOL    HW111072   4.774   4.033   5.078
 3391SOL    HW211073   4.849   4.049   5.222
 3392SOL     OW11074   4.572   6.246   6.385
 3392SOL    HW111075   4.642   6.314   6.361
 3392SOL    HW211076   4.615   6.157   6.398
 3393SOL     OW11077   3.851   6.304   0.451
 3393SOL    HW111078   3.800   6.349   0.378
 3393SOL    HW211079   3.902   6.227   0.413
 3394SOL     OW11080   3.222   5.097   1.390
 3394SOL    HW111081   3.138   5.139   1.425
 3394SOL    HW211082   3.221   4.999   1.413
 3395SOL     OW11083   2.093   6.419   2.901
 3395SOL    HW111084   2.119   6.506   2.859
 3395SOL    HW211085   2.105   6.425   3.000
 3396SOL     OW11086   4.576   0.250   4.128
 3396SOL    HW111087   4.537   0.177   4.184
 3396SOL    HW211088   4.663   0.279   4.168
 3397SOL     OW11089   2.329   6.188   0.587
 3397SOL    HW111090   2.411   6.234   0.623
 3397SOL    HW211091   2.295   6.238   0.507
 3398SOL     OW11092   6.249   1.475   6.160
 3398SOL    HW111093   6.240   1.376   6.162
 3398SOL    HW211094   6.321   1.503   6.224
 3399SOL     OW11095   6.566   6.063   2.315
 3399SOL    HW111096   6.560   6.162   2.300
 3399SOL    HW211097   6.652   6.029   2.277
 3400SOL     OW11098   3.712   2.847   5.125
 3400SOL    HW111099   3.792   2.891   5.166
 3400SOL    HW211100   3.684   2.898   5.044
 3401SOL     OW11101   0.151   3.444   3.926
 3401SOL    HW111102   0.228   3.389   3.896
 3401SOL    HW211103   0.179   3.539   3.938
 3402SOL     OW11104   5.847   3.350   0.398
 3402SOL    HW111105   5.810   3.310   0.481
 3402SOL    HW211106   5.773   3.368   0.334
 3403SOL     OW11107   5.004   6.432   6.112
 3403SOL    HW111108   4.942   6.402   6.185
 3403SOL    HW211109   5.080   6.483   6.151
 3404SOL     OW11110   4.916   5.449   2.968
 3404SOL    HW111111   4.964   5.537   2.978
 3404SOL    HW211112   4.983   5.375   2.967
 3405SOL     OW11113   4.009   5.830   0.139
 3405SOL    HW111114   4.069   5.807   0.062
 3405SOL    HW211115   3.919   5.789   0.125
 3406SOL     OW11116   3.433   5.202   1.631
 3406SOL    HW111117   3.461   5.276   1.570
 3406SOL    HW211118   3.366   5.145   1.585
 3407SOL     OW11119   1.033   3.400   0.040
 3407SOL    HW111120   1.083   3.402   0.127
 3407SOL    HW211121   1.034   3.491   7.025
 3408SOL     OW11122   4.437   6.978   3.755
 3408SOL    HW111123   4.436   6.907   3.826
 3408SOL    HW211124   4.530   7.009   3.740
 3409SOL     OW11125   3.986   2.059   6.953
 3409SOL    HW111126   4.005   2.136   7.014
 3409SOL    HW211127   3.890   2.034   6.962
 3410SOL     OW11128   6.257   0.679   2.867
 3410SOL    HW111129   6.327   0.707   2.802
 3410SOL    HW211130   6.176   0.736   2.857
 3411SOL     OW11131   5.939   3.075   5.801
 3411SOL    HW111132   5.867   3.138   5.831
 3411SOL    HW211133   5.938   3.069   5.702
 3412SOL     OW11134   5.442   2.777   3.318
 3412SOL    HW111135   5.541   2.793   3.321
 3412SOL    HW211136   5.414   2.761   3.223
 3413SOL     OW11137   6.855   1.948   0.739
 3413SOL    HW111138   6.783   1.898   0.788
 3413SOL    HW211139   6.884   2.026   0.794
 3414SOL     OW11140   3.520   3.243   2.031
 3414SOL    HW111141   3.487   3.324   2.079
 3414SOL    HW211142   3.444   3.179   2.017
 3415SOL     OW11143   2.277   1.373   5.899
 3415SOL    HW111144   2.182   1.371   5.929
 3415SOL    HW211145   2.315   1.281   5.903
 3416SOL     OW11146   6.439   6.759   6.118
 3416SOL    HW111147   6.483   6.790   6.033
 3416SOL    HW211148   6.390   6.674   6.101
 3417SOL     OW11149   5.950   0.274   2.363
 3417SOL    HW111150   5.951   0.178   2.390
 3417SOL    HW211151   6.030   0.321   2.400
 3418SOL     OW11152   4.213   5.760   0.873
 3418SOL    HW111153   4.170   5.692   0.932
 3418SOL    HW211154   4.306   5.730   0.850
 3419SOL     OW11155   2.828   4.711   5.354
 3419SOL    HW111156   2.846   4.689   5.258
 3419SOL    HW211157   2.758   4.650   5.390
 3420SOL     OW11158   4.334   1.106   2.628
 3420SOL    HW111159   4.238   1.123   2.650
 3420SOL    HW211160   4.342   1.084   2.530
 3421SOL     OW11161   6.939   1.798   4.855
 3421SOL    HW111162   7.006   1.725   4.842
 3421SOL    HW211163   6.915   1.837   4.766
 3422SOL     OW11164   3.343   5.969   1.655
 3422SOL    HW111165   3.404   6.019   1.716
 3422SOL    HW211166   3.388   5.886   1.623
 3423SOL     OW11167   2.734   4.212   5.635
 3423SOL    HW111168   2.658   4.260   5.678
 3423SOL    HW211169   2.719   4.208   5.536
 3424SOL     OW11170   4.920   0.839   2.183
 3424SOL    HW111171   4.957   0.932   2.177
 3424SOL    HW211172   4.820   0.842   2.186
 3425SOL     OW11173   6.459   3.001   6.138
 3425SOL    HW111174   6.454   3.001   6.039
 3425SOL    HW211175   6.430   2.912   6.174
 3426SOL     OW11176   6.020   4.659   0.242
 3426SOL    HW111177   6.115   4.691   0.253
 3426SOL    HW211178   5.960   4.715   0.299
 3427SOL     OW11179   1.821   1.403   6.259
 3427SOL    HW111180   1.850   1.341   6.186
 3427SOL    HW211181   1.896   1.466   6.280
 3428SOL     OW11182   5.146   0.193   4.649
 3428SOL    HW111183   5.148   0.262   4.577
 3428SOL    HW211184   5.234   0.190   4.696
 3429SOL     OW11185   4.197   6.672   0.792
 3429SOL    HW111186   4.191   6.573   0.803
 3429SOL    HW211187   4.132   6.700   0.720
 3430SOL     OW11188   2.739   4.221   6.385
 3430SOL    HW111189   2.772   4.225   6.479
 3430SOL    HW211190   2.675   4.145   6.376
 3431SOL     OW11191   0.640   4.572   2.969
 3431SOL    HW111192   0.632   4.477   2.999
 3431SOL    HW211193   0.581   4.630   3.026
 3432SOL     OW11194   0.579   4.620   0.163
 3432SOL    HW111195   0.498   4.666   0.126
 3432SOL    HW211196   0.550   4.542   0.219
 3433SOL     OW11197   0.772   0.906   0.230
 3433SOL    HW111198   0.755   0.868   0.139
 3433SOL    HW211199   0.811   0.835   0.289
 3434SOL     OW11200   3.711   2.666   1.808
 3434SOL    HW111201   3.783   2.709   1.862
 3434SOL    HW211202   3.721   2.566   1.813
 3435SOL     OW11203   1.803   2.275   1.114
 3435SOL    HW111204   1.762   2.292   1.204
 3435SOL    HW211205   1.871   2.346   1.096
 3436SOL     OW11206   3.909   6.465   6.052
 3436SOL    HW111207   3.853   6.516   6.117
 3436SOL    HW211208   4.005   6.491   6.063
 3437SOL     OW11209   1.465   6.527   6.658
 3437SOL    HW111210   1.444   6.587   6.581
 3437SOL    HW211211   1.405   6.446   6.654
 3438SOL     OW11212   2.630   4.265   0.893
 3438SOL    HW111213   2.659   4.187   0.837
 3438SOL    HW211214   2.555   4.237   0.953
 3439SOL     OW11215   3.518   6.166   0.243
 3439SOL    HW111216   3.567   6.092   0.290
 3439SOL    HW211217   3.463   6.217   0.309
 3440SOL     OW11218   3.802   3.670   5.805
 3440SOL    HW111219   3.777   3.764   5.783
 3440SOL    HW211220   3.771   3.610   5.731
 3441SOL     OW11221   6.880   4.908   4.510
 3441SOL    HW111222   6.924   4.976   4.569
 3441SOL    HW211223   6.782   4.924   4.508
 3442SOL     OW11224   0.896   2.909   0.824
 3442SOL    HW111225   0.929   2.990   0.873
 3442SOL    HW211226   0.921   2.916   0.728
 3443SOL     OW11227   0.606   6.070   2.736
 3443SOL    HW111228   0.581   5.975   2.756
 3443SOL    HW211229   0.591   6.126   2.817
 3444SOL     OW11230   7.011   3.684   5.940
 3444SOL    HW111231   6.949   3.631   5.882
 3444SOL    HW211232   0.033   3.751   5.885
 3445SOL     OW11233   6.478   4.997   4.713
 3445SOL    HW111234   6.526   4.991   4.800
 3445SOL    HW211235   6.392   4.946   4.719
 3446SOL     OW11236   4.496   1.691   0.749
 3446SOL    HW111237   4.554   1.643   0.683
 3446SOL    HW211238   4.402   1.660   0.739
 3447SOL     OW11239   5.160   1.338   6.427
 3447SOL    HW111240   5.080   1.300   6.379
 3447SOL    HW211241   5.226   1.264   6.444
 3448SOL     OW11242   0.784   5.068   5.564
 3448SOL    HW111243   0.863   5.096   5.511
 3448SOL    HW211244   0.805   5.075   5.662
 3449SOL     OW11245   0.899   3.774   5.500
 3449SOL    HW111246   0.945   3.854   5.461
 3449SOL    HW211247   0.816   3.803   5.548
 3450SOL     OW11248   2.814   6.712   2.396
 3450SOL    HW111249   2.747   6.767   2.346
 3450SOL    HW211250   2.779   6.619   2.407
 3451SOL     OW11251   2.091   2.454   0.839
 3451SOL    HW111252   2.166   2.393   0.861
 3451SOL    HW211253   2.046   2.423   0.755
 3452SOL     OW11254   4.310   1.443   5.929
 3452SOL    HW111255   4.304   1.344   5.924
 3452SOL    HW211256   4.253   1.476   6.004
 3453SOL     OW11257   4.374   6.216   6.188
 3453SOL    HW111258   4.451   6.249   6.242
 3453SOL    HW211259   4.289   6.238   6.235
 3454SOL     OW11260   0.752   3.479   2.414
 3454SOL    HW111261   0.668   3.431   2.441
 3454SOL    HW211262   0.790   3.527   2.493
 3455SOL     OW11263   0.752   3.773   6.655
 3455SOL    HW111264   0.818   3.847   6.672
 3455SOL    HW211265   0.799   3.685   6.657
 3456SOL     OW11266   4.465   5.552   3.376
 3456SOL    HW111267   4.516   5.511   3.452
 3456SOL    HW211268   4.415   5.480   3.327
 3457SOL     OW11269   4.217   4.539   0.724
 3457SOL    HW111270   4.194   4.484   0.644
 3457SOL    HW211271   4.287   4.493   0.778
 3458SOL     OW11272   4.383   1.651   2.035
 3458SOL    HW111273   4.463   1.660   2.095
 3458SOL    HW211274   4.306   1.703   2.073
 3459SOL     OW11275   5.955   6.357   1.888
 3459SOL    HW111276   5.947   6.452   1.918
 3459SOL    HW211277   5.882   6.336   1.824
 3460SOL     OW11278   3.699   1.737   5.282
 3460SOL    HW111279   3.743   1.653   5.314
 3460SOL    HW211280   3.747   1.772   5.201
 3461SOL     OW11281   4.869   4.915   3.894
 3461SOL    HW111282   4.937   4.988   3.901
 3461SOL    HW211283   4.800   4.926   3.965
 3462SOL     OW11284   0.805   4.578   6.414
 3462SOL    HW111285   0.905   4.581   6.409
 3462SOL    HW211286   0.768   4.565   6.322
 3463SOL     OW11287   5.668   3.641   0.195
 3463SOL    HW111288   5.674   3.541   0.186
 3463SOL    HW211289   5.588   3.665   0.248
 3464SOL     OW11290   0.132   4.456   3.442
 3464SOL    HW111291   0.035   4.480   3.437
 3464SOL    HW211292   0.175   4.505   3.518
 3465SOL     OW11293   0.669   2.845   2.378
 3465SOL    HW111294   0.613   2.918   2.340
 3465SOL    HW211295   0.616   2.792   2.444
 3466SOL     OW11296   6.538   3.534   3.715
 3466SOL    HW111297   6.513   3.614   3.662
 3466SOL    HW211298   6.584   3.468   3.656
 3467SOL     OW11299   1.395   2.499   5.981
 3467SOL    HW111300   1.344   2.415   6.000
 3467SOL    HW211301   1.345   2.554   5.915
 3468SOL     OW11302   5.139   6.295   1.944
 3468SOL    HW111303   5.062   6.299   1.881
 3468SOL    HW211304   5.214   6.351   1.909
 3469SOL     OW11305   5.512   3.991   0.588
 3469SOL    HW111306   5.571   3.992   0.507
 3469SOL    HW211307   5.566   4.011   0.669
 3470SOL     OW11308   6.431   4.949   1.164
 3470SOL    HW111309   6.466   4.950   1.258
 3470SOL    HW211310   6.337   4.915   1.164
 3471SOL     OW11311   4.334   6.762   4.154
 3471SOL    HW111312   4.367   6.695   4.221
 3471SOL    HW211313   4.327   6.852   4.199
 3472SOL     OW11314   4.055   1.111   5.149
 3472SOL    HW111315   4.075   1.163   5.066
 3472SOL    HW211316   4.051   1.014   5.128
 3473SOL     OW11317   4.790   0.142   3.923
 3473SOL    HW111318   4.879   0.133   3.968
 3473SOL    HW211319   4.731   0.201   3.978
 3474SOL     OW11320   4.966   4.174   0.678
 3474SOL    HW111321   4.903   4.204   0.750
 3474SOL    HW211322   4.988   4.251   0.619
 3475SOL     OW11323   1.890   5.687   5.239
 3475SOL    HW111324   1.849   5.762   5.291
 3475SOL    HW211325   1.860   5.693   5.143
 3476SOL     OW11326   4.177   1.827   4.628
 3476SOL    HW111327   4.102   1.781   4.580
 3476SOL    HW211328   4.139   1.892   4.694
 3477SOL     OW11329   4.577   5.263   1.917
 3477SOL    HW111330   4.581   5.347   1.862
 3477SOL    HW211331   4.601   5.185   1.860
 3478SOL     OW11332   4.388   4.153   0.281
 3478SOL    HW111333   4.409   4.131   0.186
 3478SOL    HW211334   4.450   4.225   0.313
 3479SOL     OW11335   1.274   0.258   0.967
 3479SOL    HW111336   1.312   0.231   0.879
 3479SOL    HW211337   1.324   0.212   1.040
 3480SOL     OW11338   1.404   0.005   4.365
 3480SOL    HW111339   1.454   6.952   4.401
 3480SOL    HW211340   1.355   7.004   4.282
 3481SOL     OW11341   1.889   6.337   6.788
 3481SOL    HW111342   1.904   6.253   6.840
 3481SOL    HW211343   1.841   6.403   6.845
 3482SOL     OW11344   0.772   2.454   2.053
 3482SOL    HW111345   0.700   2.523   2.047
 3482SOL    HW211346   0.733   2.368   2.085
 3483SOL     OW11347   3.514   1.597   0.678
 3483SOL    HW111348   3.559   1.545   0.605
 3483SOL    HW211349   3.446   1.539   0.722
 3484SOL     OW11350   3.939   3.918   3.780
 3484SOL    HW111351   3.873   3.974   3.829
 3484SOL    HW211352   3.980   3.851   3.843
 3485SOL     OW11353   5.804   1.473   5.172
 3485SOL    HW111354   5.792   1.557   5.224
 3485SOL    HW211355   5.895   1.471   5.131
 3486SOL     OW11356   5.209   0.837   2.952
 3486SOL    HW111357   5.223   0.783   3.035
 3486SOL    HW211358   5.297   0.860   2.912
 3487SOL     OW11359   0.523   0.537   0.591
 3487SOL    HW111360   0.551   0.544   0.495
 3487SOL    HW211361   0.529   0.627   0.634
 3488SOL     OW11362   6.192   4.043   3.967
 3488SOL    HW111363   6.267   4.105   3.992
 3488SOL    HW211364   6.168   3.987   4.046
 3489SOL     OW11365   2.795   5.093   0.034
 3489SOL    HW111366   2.702   5.072   0.063
 3489SOL    HW211367   2.810   5.192   0.037
 3490SOL     OW11368   4.152   3.466   0.816
 3490SOL    HW111369   4.235   3.487   0.867
 3490SOL    HW211370   4.159   3.374   0.778
 3491SOL     OW11371   6.627   3.394   5.749
 3491SOL    HW111372   6.617   3.403   5.650
 3491SOL    HW211373   6.691   3.464   5.782
 3492SOL     OW11374   5.990   4.798   6.808
 3492SOL    HW111375   6.005   4.700   6.822
 3492SOL    HW211376   5.953   4.813   6.716
 3493SOL     OW11377   0.060   4.983   1.822
 3493SOL    HW111378   7.021   5.050   1.860
 3493SOL    HW211379   0.146   5.029   1.800
 3494SOL     OW11380   3.097   6.708   1.047
 3494SOL    HW111381   3.122   6.729   1.141
 3494SOL    HW211382   3.141   6.773   0.985
 3495SOL     OW11383   5.768   3.947   6.748
 3495SOL    HW111384   5.738   3.907   6.834
 3495SOL    HW211385   5.797   4.042   6.764
 3496SOL     OW11386   0.681   4.867   0.911
 3496SOL    HW111387   0.693   4.814   0.827
 3496SOL    HW211388   0.743   4.945   0.910
 3497SOL     OW11389   4.326   0.004   4.623
 3497SOL    HW111390   4.414   0.050   4.617
 3497SOL    HW211391   4.338   6.931   4.612
 3498SOL     OW11392   1.006   1.895   0.553
 3498SOL    HW111393   0.955   1.895   0.640
 3498SOL    HW211394   1.023   1.801   0.525
 3499SOL     OW11395   0.131   4.363   4.409
 3499SOL    HW111396   0.176   4.434   4.463
 3499SOL    HW211397   0.034   4.385   4.398
 3500SOL     OW11398   5.892   3.273   0.711
 3500SOL    HW111399   5.916   3.275   0.808
 3500SOL    HW211400   5.792   3.276   0.702
 3501SOL     OW11401   0.434   4.695   3.152
 3501SOL    HW111402   0.367   4.769   3.144
 3501SOL    HW211403   0.392   4.616   3.196
 3502SOL     OW11404   0.784   4.998   1.677
 3502SOL    HW111405   0.792   5.097   1.667
 3502SOL    HW211406   0.752   4.977   1.769
 3503SOL     OW11407   3.370   0.008   3.238
 3503SOL    HW111408   3.462   7.006   3.265
 3503SOL    HW211409   3.310   6.954   3.236
 3504SOL     OW11410   2.092   2.857   2.894
 3504SOL    HW111411   2.121   2.804   2.974
 3504SOL    HW211412   2.021   2.807   2.845
 3505SOL     OW11413   4.802   6.874   4.738
 3505SOL    HW111414   4.831   6.969   4.731
 3505SOL    HW211415   4.716   6.861   4.689
 3506SOL     OW11416   6.210   4.959   2.235
 3506SOL    HW111417   6.261   4.885   2.192
 3506SOL    HW211418   6.155   5.006   2.166
 3507SOL     OW11419   6.677   0.525   5.667
 3507SOL    HW111420   6.592   0.473   5.671
 3507SOL    HW211421   6.747   0.471   5.621
 3508SOL     OW11422   6.439   4.056   0.470
 3508SOL    HW111423   6.520   4.114   0.482
 3508SOL    HW211424   6.381   4.095   0.399
 3509SOL     OW11425   5.903   0.507   6.744
 3509SOL    HW111426   5.984   0.549   6.784
 3509SOL    HW211427   5.930   0.445   6.670
 3510SOL     OW11428   1.787   1.977   2.294
 3510SOL    HW111429   1.786   2.053   2.230
 3510SOL    HW211430   1.829   2.006   2.380
 3511SOL     OW11431   0.743   1.031   4.617
 3511SOL    HW111432   0.701   1.039   4.707
 3511SOL    HW211433   0.727   0.939   4.580
 3512SOL     OW11434   3.510   2.840   0.951
 3512SOL    HW111435   3.608   2.853   0.967
 3512SOL    HW211436   3.470   2.789   1.027
 3513SOL     OW11437   5.482   4.083   1.089
 3513SOL    HW111438   5.427   4.038   1.019
 3513SOL    HW211439   5.498   4.178   1.063
 3514SOL     OW11440   2.275   6.585   2.113
 3514SOL    HW111441   2.213   6.652   2.072
 3514SOL    HW211442   2.226   6.498   2.124
 3515SOL     OW11443   4.018   6.079   3.351
 3515SOL    HW111444   3.970   6.023   3.419
 3515SOL    HW211445   4.113   6.092   3.380
 3516SOL     OW11446   2.034   1.348   0.372
 3516SOL    HW111447   2.131   1.368   0.390
 3516SOL    HW211448   2.027   1.282   0.298
 3517SOL     OW11449   0.458   0.651   6.414
 3517SOL    HW111450   0.361   0.669   6.402
 3517SOL    HW211451   0.475   0.553   6.411
 3518SOL     OW11452   4.315   3.602   5.951
 3518SOL    HW111453   4.225   3.596   5.909
 3518SOL    HW211454   4.330   3.695   5.985
 3519SOL     OW11455   3.389   6.980   0.190
 3519SOL    HW111456   3.355   0.033   0.240
 3519SOL    HW211457   3.352   6.896   0.229
 3520SOL     OW11458   3.524   5.388   1.468
 3520SOL    HW111459   3.620   5.370   1.490
 3520SOL    HW211460   3.503   5.353   1.377
 3521SOL     OW11461   6.541   2.494   6.337
 3521SOL    HW111462   6.612   2.562   6.319
 3521SOL    HW211463   6.577   2.421   6.395
 3522SOL     OW11464   2.756   0.730   0.661
 3522SOL    HW111465   2.768   0.824   0.692
 3522SOL    HW211466   2.783   0.724   0.565
 3523SOL     OW11467   2.775   4.417   5.335
 3523SOL    HW111468   2.779   4.319   5.318
 3523SOL    HW211469   2.843   4.463   5.279
 3524SOL     OW11470   2.421   0.549   2.634
 3524SOL    HW111471   2.324   0.563   2.656
 3524SOL    HW211472   2.471   0.526   2.718
 3525SOL     OW11473   1.137   3.760   2.677
 3525SOL    HW111474   1.224   3.797   2.647
 3525SOL    HW211475   1.100   3.699   2.606
 3526SOL     OW11476   3.946   6.484   3.566
 3526SOL    HW111477   3.862   6.538   3.579
 3526SOL    HW211478   3.976   6.448   3.654
 3527SOL     OW11479   5.253   3.422   6.433
 3527SOL    HW111480   5.308   3.399   6.353
 3527SOL    HW211481   5.288   3.374   6.513
 3528SOL     OW11482   1.739   6.346   4.943
 3528SOL    HW111483   1.648   6.376   4.971
 3528SOL    HW211484   1.784   6.300   5.019
 3529SOL     OW11485   3.837   6.133   0.110
 3529SOL    HW111486   3.923   6.085   0.127
 3529SOL    HW211487   3.764   6.091   0.162
 3530SOL     OW11488   1.654   6.674   2.992
 3530SOL    HW111489   1.749   6.656   2.966
 3530SOL    HW211490   1.619   6.752   2.939
 3531SOL     OW11491   5.196   4.631   6.708
 3531SOL    HW111492   5.103   4.597   6.696
 3531SOL    HW211493   5.258   4.555   6.728
 3532SOL     OW11494   2.037   6.632   0.739
 3532SOL    HW111495   2.071   6.726   0.735
 3532SOL    HW211496   2.049   6.596   0.831
 3533SOL     OW11497   1.526   0.847   3.638
 3533SOL    HW111498   1.523   0.857   3.737
 3533SOL    HW211499   1.487   0.928   3.595
 3534SOL     OW11500   5.331   0.505   5.166
 3534SOL    HW111501   5.280   0.524   5.250
 3534SOL    HW211502   5.270   0.462   5.100
 3535SOL     OW11503   5.095   6.506   6.992
 3535SOL    HW111504   5.095   6.514   0.066
 3535SOL    HW211505   5.128   6.415   6.966
 3536SOL     OW11506   0.843   3.602   2.689
 3536SOL    HW111507   0.904   3.545   2.743
 3536SOL    HW211508   0.748   3.573   2.703
 3537SOL     OW11509   2.859   4.979   1.365
 3537SOL    HW111510   2.933   5.045   1.373
 3537SOL    HW211511   2.827   4.954   1.456
 3538SOL     OW11512   3.861   0.811   3.519
 3538SOL    HW111513   3.813   0.804   3.606
 3538SOL    HW211514   3.800   0.852   3.451
 3539SOL     OW11515   5.035   5.874   6.011
 3539SOL    HW111516   5.028   5.947   6.080
 3539SOL    HW211517   4.949   5.823   6.008
 3540SOL     OW11518   3.241   4.744   6.103
 3540SOL    HW111519   3.228   4.704   6.194
 3540SOL    HW211520   3.265   4.841   6.111
 3541SOL     OW11521   1.241   2.461   2.029
 3541SOL    HW111522   1.189   2.442   2.112
 3541SOL    HW211523   1.237   2.559   2.009
 3542SOL     OW11524   5.864   1.766   6.804
 3542SOL    HW111525   5.840   1.683   6.753
 3542SOL    HW211526   5.943   1.747   6.863
 3543SOL     OW11527   0.497   1.991   3.688
 3543SOL    HW111528   0.464   2.049   3.613
 3543SOL    HW211529   0.450   2.015   3.772
 3544SOL     OW11530   2.984   4.498   0.500
 3544SOL    HW111531   2.964   4.529   0.407
 3544SOL    HW211532   2.919   4.427   0.526
 3545SOL     OW11533   4.056   6.486   0.565
 3545SOL    HW111534   4.005   6.569   0.587
 3545SOL    HW211535   4.003   6.431   0.500
 3546SOL     OW11536   6.621   4.673   1.157
 3546SOL    HW111537   6.540   4.732   1.152
 3546SOL    HW211538   6.698   4.721   1.115
 3547SOL     OW11539   0.955   4.121   4.916
 3547SOL    HW111540   0.921   4.169   4.997
 3547SOL    HW211541   0.947   4.022   4.930
 3548SOL     OW11542   6.284   0.209   6.235
 3548SOL    HW111543   6.258   0.117   6.264
 3548SOL    HW211544   6.239   0.231   6.149
 3549SOL     OW11545   2.207   6.339   6.949
 3549SOL    HW111546   2.298   6.327   6.910
 3549SOL    HW211547   2.213   6.347   0.023
 3550SOL     OW11548   5.738   1.393   5.595
 3550SOL    HW111549   5.642   1.415   5.581
 3550SOL    HW211550   5.794   1.473   5.572
 3551SOL     OW11551   5.732   1.951   4.957
 3551SOL    HW111552   5.640   1.990   4.960
 3551SOL    HW211553   5.793   2.003   5.017
 3552SOL     OW11554   6.783   6.795   3.327
 3552SOL    HW111555   6.815   6.701   3.323
 3552SOL    HW211556   6.685   6.797   3.346
 3553SOL     OW11557   6.480   5.709   6.406
 3553SOL    HW111558   6.535   5.666   6.334
 3553SOL    HW211559   6.461   5.804   6.382
 3554SOL     OW11560   4.656   4.391   6.767
 3554SOL    HW111561   4.640   4.368   6.863
 3554SOL    HW211562   4.747   4.433   6.757
 3555SOL     OW11563   2.391   1.843   5.356
 3555SOL    HW111564   2.481   1.859   5.396
 3555SOL    HW211565   2.401   1.789   5.272
 3556SOL     OW11566   6.011   1.470   0.221
 3556SOL    HW111567   6.013   1.373   0.242
 3556SOL    HW211568   5.927   1.510   0.257
 3557SOL     OW11569   5.622   6.486   1.836
 3557SOL    HW111570   5.612   6.441   1.924
 3557SOL    HW211571   5.570   6.571   1.836
 3558SOL     OW11572   3.329   5.698   2.198
 3558SOL    HW111573   3.318   5.762   2.121
 3558SOL    HW211574   3.427   5.687   2.217
 3559SOL     OW11575   4.061   6.412   6.362
 3559SOL    HW111576   4.094   6.318   6.346
 3559SOL    HW211577   3.962   6.414   6.353
 3560SOL     OW11578   2.174   5.537   4.318
 3560SOL    HW111579   2.263   5.568   4.352
 3560SOL    HW211580   2.166   5.438   4.329
 3561SOL     OW11581   4.646   3.422   5.379
 3561SOL    HW111582   4.673   3.476   5.299
 3561SOL    HW211583   4.546   3.412   5.380
 3562SOL     OW11584   2.789   1.416   0.645
 3562SOL    HW111585   2.772   1.361   0.726
 3562SOL    HW211586   2.820   1.357   0.570
 3563SOL     OW11587   0.220   2.322   6.701
 3563SOL    HW111588   0.246   2.272   6.619
 3563SOL    HW211589   0.251   2.273   6.782
 3564SOL     OW11590   6.292   3.385   2.767
 3564SOL    HW111591   6.308   3.298   2.814
 3564SOL    HW211592   6.379   3.421   2.733
 3565SOL     OW11593   5.124   6.650   5.806
 3565SOL    HW111594   5.195   6.657   5.876
 3565SOL    HW211595   5.049   6.594   5.840
 3566SOL     OW11596   1.244   0.930   5.348
 3566SOL    HW111597   1.184   0.970   5.417
 3566SOL    HW211598   1.265   0.998   5.278
 3567SOL     OW11599   6.847   3.863   0.279
 3567SOL    HW111600   6.752   3.878   0.251
 3567SOL    HW211601   6.889   3.796   0.218
 3568SOL     OW11602   4.695   3.491   5.731
 3568SOL    HW111603   4.732   3.446   5.813
 3568SOL    HW211604   4.769   3.528   5.676
 3569SOL     OW11605   1.881   0.435   3.580
 3569SOL    HW111606   1.882   0.472   3.673
 3569SOL    HW211607   1.965   0.385   3.562
 3570SOL     OW11608   5.874   1.443   4.505
 3570SOL    HW111609   5.943   1.372   4.497
 3570SOL    HW211610   5.900   1.507   4.577
 3571SOL     OW11611   6.428   5.535   4.822
 3571SOL    HW111612   6.488   5.607   4.788
 3571SOL    HW211613   6.431   5.534   4.922
 3572SOL     OW11614   6.204   6.315   5.600
 3572SOL    HW111615   6.220   6.384   5.530
 3572SOL    HW211616   6.226   6.224   5.563
 3573SOL     OW11617   0.307   1.860   1.385
 3573SOL    HW111618   0.298   1.832   1.289
 3573SOL    HW211619   0.358   1.945   1.391
 3574SOL     OW11620   6.226   3.858   0.499
 3574SOL    HW111621   6.183   3.866   0.409
 3574SOL    HW211622   6.301   3.923   0.507
 3575SOL     OW11623   6.289   6.314   2.308
 3575SOL    HW111624   6.378   6.338   2.347
 3575SOL    HW211625   6.283   6.350   2.215
 3576SOL     OW11626   6.502   0.931   6.957
 3576SOL    HW111627   6.431   0.873   6.998
 3576SOL    HW211628   6.587   0.921   7.009
 3577SOL     OW11629   3.033   3.925   0.169
 3577SOL    HW111630   3.002   4.014   0.200
 3577SOL    HW211631   3.126   3.932   0.132
 3578SOL     OW11632   3.584   4.331   1.716
 3578SOL    HW111633   3.663   4.276   1.743
 3578SOL    HW211634   3.603   4.427   1.732
 3579SOL     OW11635   1.721   4.433   5.177
 3579SOL    HW111636   1.783   4.464   5.105
 3579SOL    HW211637   1.719   4.500   5.251
 3580SOL     OW11638   6.655   3.270   1.230
 3580SOL    HW111639   6.620   3.291   1.321
 3580SOL    HW211640   6.749   3.304   1.222
 3581SOL     OW11641   6.099   1.154   3.561
 3581SOL    HW111642   6.075   1.090   3.489
 3581SOL    HW211643   6.042   1.138   3.641
 3582SOL     OW11644   0.017   0.290   5.075
 3582SOL    HW111645   0.097   0.231   5.062
 3582SOL    HW211646   6.965   0.252   5.024
 3583SOL     OW11647   1.535   5.129   1.524
 3583SOL    HW111648   1.635   5.124   1.528
 3583SOL    HW211649   1.501   5.182   1.602
 3584SOL     OW11650   5.653   0.340   5.638
 3584SOL    HW111651   5.617   0.280   5.567
 3584SOL    HW211652   5.593   0.419   5.648
 3585SOL     OW11653   2.338   4.745   3.349
 3585SOL    HW111654   2.344   4.765   3.251
 3585SOL    HW211655   2.270   4.805   3.391
 3586SOL     OW11656   0.923   0.988   6.083
 3586SOL    HW111657   0.940   0.896   6.047
 3586SOL    HW211658   0.838   1.024   6.044
 3587SOL     OW11659   3.880   6.474   6.642
 3587SOL    HW111660   3.850   6.534   6.567
 3587SOL    HW211661   3.980   6.471   6.644
 3588SOL     OW11662   1.836   1.789   5.327
 3588SOL    HW111663   1.845   1.753   5.419
 3588SOL    HW211664   1.741   1.817   5.311
 3589SOL     OW11665   3.733   0.343   4.578
 3589SOL    HW111666   3.759   0.265   4.636
 3589SOL    HW211667   3.702   0.419   4.636
 3590SOL     OW11668   1.473   5.046   0.004
 3590SOL    HW111669   1.500   5.141   0.016
 3590SOL    HW211670   1.381   5.032   0.040
 3591SOL     OW11671   5.508   2.459   5.277
 3591SOL    HW111672   5.458   2.445   5.362
 3591SOL    HW211673   5.443   2.471   5.202
 3592SOL     OW11674   5.005   2.251   1.798
 3592SOL    HW111675   4.956   2.295   1.722
 3592SOL    HW211676   5.047   2.321   1.856
 3593SOL     OW11677   1.295   5.253   4.412
 3593SOL    HW111678   1.199   5.225   4.412
 3593SOL    HW211679   1.345   5.202   4.342
 3594SOL     OW11680   3.960   1.693   4.519
 3594SOL    HW111681   3.880   1.646   4.557
 3594SOL    HW211682   3.971   1.667   4.423
 3595SOL     OW11683   2.293   6.810   5.825
 3595SOL    HW111684   2.220   6.773   5.882
 3595SOL    HW211685   2.334   6.736   5.772
 3596SOL     OW11686   0.180   3.984   3.590
 3596SOL    HW111687   0.120   4.033   3.528
 3596SOL    HW211688   0.262   4.038   3.608
 3597SOL     OW11689   3.431   0.294   3.754
 3597SOL    HW111690   3.442   0.235   3.834
 3597SOL    HW211691   3.427   0.238   3.672
 3598SOL     OW11692   1.596   0.643   0.196
 3598SOL    HW111693   1.607   0.554   0.240
 3598SOL    HW211694   1.676   0.662   0.138
 3599SOL     OW11695   6.627   1.640   4.364
 3599SOL    HW111696   6.696   1.603   4.427
 3599SOL    HW211697   6.569   1.705   4.412
 3600SOL     OW11698   6.976   0.209   1.265
 3600SOL    HW111699   6.949   0.116   1.292
 3600SOL    HW211700   6.896   0.257   1.229
 3601SOL     OW11701   6.256   3.716   5.515
 3601SOL    HW111702   6.188   3.751   5.451
 3601SOL    HW211703   6.210   3.675   5.594
 3602SOL     OW11704   2.675   1.436   1.068
 3602SOL    HW111705   2.748   1.503   1.082
 3602SOL    HW211706   2.599   1.456   1.131
 3603SOL     OW11707   4.236   5.449   4.475
 3603SOL    HW111708   4.246   5.538   4.519
 3603SOL    HW211709   4.219   5.462   4.377
 3604SOL     OW11710   6.496   4.090   3.530
 3604SOL    HW111711   6.458   4.178   3.559
 3604SOL    HW211712   6.515   4.034   3.610
 3605SOL     OW11713   6.131   2.805   6.541
 3605SOL    HW111714   6.206   2.758   6.493
 3605SOL    HW211715   6.112   2.892   6.496
 3606SOL     OW11716   1.735   4.246   3.155
 3606SOL    HW111717   1.714   4.149   3.143
 3606SOL    HW211718   1.786   4.259   3.240
 3607SOL     OW11719   4.313   6.904   0.038
 3607SOL    HW111720   4.245   6.832   0.035
 3607SOL    HW211721   4.269   6.993   0.025
 3608SOL     OW11722   0.515   3.148   2.642
 3608SOL    HW111723   0.436   3.166   2.584
 3608SOL    HW211724   0.598   3.177   2.596
 3609SOL     OW11725   6.279   6.782   4.650
 3609SOL    HW111726   6.359   6.794   4.592
 3609SOL    HW211727   6.199   6.824   4.607
 3610SOL     OW11728   1.948   5.548   5.651
 3610SOL    HW111729   1.986   5.584   5.566
 3610SOL    HW211730   1.904   5.460   5.634
 3611SOL     OW11731   4.481   5.207   5.990
 3611SOL    HW111732   4.472   5.285   6.052
 3611SOL    HW211733   4.560   5.220   5.931
 3612SOL     OW11734   1.797   6.462   1.261
 3612SOL    HW111735   1.721   6.420   1.311
 3612SOL    HW211736   1.767   6.550   1.224
 3613SOL     OW11737   5.025   5.156   6.213
 3613SOL    HW111738   4.955   5.208   6.262
 3613SOL    HW211739   5.069   5.215   6.145
 3614SOL     OW11740   3.709   3.583   4.437
 3614SOL    HW111741   3.667   3.562   4.525
 3614SOL    HW211742   3.806   3.558   4.441
 3615SOL     OW11743   6.106   6.402   6.234
 3615SOL    HW111744   6.024   6.400   6.177
 3615SOL    HW211745   6.169   6.330   6.204
 3616SOL     OW11746   5.979   0.719   4.885
 3616SOL    HW111747   5.928   0.749   4.966
 3616SOL    HW211748   5.915   0.698   4.812
 3617SOL     OW11749   6.704   0.652   0.135
 3617SOL    HW111750   6.710   0.612   0.043
 3617SOL    HW211751   6.729   0.749   0.130
 3618SOL     OW11752   2.916   6.987   6.486
 3618SOL    HW111753   2.824   7.019   6.464
 3618SOL    HW211754   2.918   6.951   6.579
 3619SOL     OW11755   5.103   4.144   4.122
 3619SOL    HW111756   5.100   4.244   4.126
 3619SOL    HW211757   5.074   4.105   4.209
 3620SOL     OW11758   5.938   1.576   4.738
 3620SOL    HW111759   6.032   1.606   4.758
 3620SOL    HW211760   5.877   1.609   4.810
 3621SOL     OW11761   1.522   3.570   6.184
 3621SOL    HW111762   1.530   3.590   6.087
 3621SOL    HW211763   1.515   3.471   6.197
 3622SOL     OW11764   0.390   3.508   0.757
 3622SOL    HW111765   0.403   3.596   0.711
 3622SOL    HW211766   0.293   3.487   0.762
 3623SOL     OW11767   0.054   5.420   3.746
 3623SOL    HW111768   0.042   5.332   3.792
 3623SOL    HW211769   6.998   5.475   3.759
 3624SOL     OW11770   1.773   1.297   1.650
 3624SOL    HW111771   1.692   1.269   1.702
 3624SOL    HW211772   1.758   1.388   1.612
 3625SOL     OW11773   0.650   3.321   4.397
 3625SOL    HW111774   0.713   3.397   4.382
 3625SOL    HW211775   0.613   3.291   4.309
 3626SOL     OW11776   2.735   3.855   5.249
 3626SOL    HW111777   2.637   3.874   5.244
 3626SOL    HW211778   2.750   3.756   5.249
 3627SOL     OW11779   3.412   3.274   3.654
 3627SOL    HW111780   3.372   3.303   3.740
 3627SOL    HW211781   3.384   3.335   3.581
 3628SOL     OW11782   3.040   5.455   2.858
 3628SOL    HW111783   3.022   5.441   2.760
 3628SOL    HW211784   3.117   5.517   2.869
 3629SOL     OW11785   5.599   2.915   5.212
 3629SOL    HW111786   5.509   2.959   5.213
 3629SOL    HW211787   5.614   2.868   5.298
 3630SOL     OW11788   5.545   1.279   4.819
 3630SOL    HW111789   5.579   1.186   4.805
 3630SOL    HW211790   5.550   1.329   4.733
 3631SOL     OW11791   2.146   0.901   3.664
 3631SOL    HW111792   2.239   0.863   3.660
 3631SOL    HW211793   2.081   0.833   3.632
 3632SOL     OW11794   3.930   6.865   6.339
 3632SOL    HW111795   3.930   6.841   6.436
 3632SOL    HW211796   4.015   6.913   6.316
 3633SOL     OW11797   1.583   3.201   5.637
 3633SOL    HW111798   1.671   3.154   5.642
 3633SOL    HW211799   1.540   3.202   5.727
 3634SOL     OW11800   3.242   6.187   6.026
 3634SOL    HW111801   3.223   6.269   5.973
 3634SOL    HW211802   3.300   6.126   5.972
 3635SOL     OW11803   1.922   1.228   4.886
 3635SOL    HW111804   2.010   1.189   4.860
 3635SOL    HW211805   1.936   1.317   4.930
 3636SOL     OW11806   1.737   5.740   6.599
 3636SOL    HW111807   1.759   5.709   6.506
 3636SOL    HW211808   1.643   5.774   6.602
 3637SOL     OW11809   5.492   1.921   1.739
 3637SOL    HW111810   5.455   2.003   1.696
 3637SOL    HW211811   5.592   1.923   1.733
 3638SOL     OW11812   6.363   4.461   3.555
 3638SOL    HW111813   6.299   4.393   3.518
 3638SOL    HW211814   6.327   4.553   3.537
 3639SOL     OW11815   2.846   5.816   6.946
 3639SOL    HW111816   2.943   5.804   6.967
 3639SOL    HW211817   2.807   5.729   6.916
 3640SOL     OW11818   3.333   6.626   1.269
 3640SOL    HW111819   3.319   6.582   1.180
 3640SOL    HW211820   3.362   6.558   1.336
 3641SOL     OW11821   2.186   0.373   4.601
 3641SOL    HW111822   2.133   0.414   4.675
 3641SOL    HW211823   2.195   0.438   4.526
 3642SOL     OW11824   5.996   7.009   2.430
 3642SOL    HW111825   5.913   6.993   2.483
 3642SOL    HW211826   6.068   6.948   2.463
 3643SOL     OW11827   3.578   4.694   5.864
 3643SOL    HW111828   3.512   4.619   5.858
 3643SOL    HW211829   3.558   4.762   5.794
 3644SOL     OW11830   6.921   0.109   0.434
 3644SOL    HW111831   6.842   0.163   0.462
 3644SOL    HW211832   7.003   0.166   0.436
 3645SOL     OW11833   3.788   6.299   2.771
 3645SOL    HW111834   3.697   6.320   2.736
 3645SOL    HW211835   3.821   6.376   2.827
 3646SOL     OW11836   6.493   5.331   3.738
 3646SOL    HW111837   6.458   5.335   3.645
 3646SOL    HW211838   6.424   5.365   3.801
 3647SOL     OW11839   2.148   2.677   1.636
 3647SOL    HW111840   2.198   2.723   1.709
 3647SOL    HW211841   2.208   2.613   1.589
 3648SOL     OW11842   3.335   5.737   3.449
 3648SOL    HW111843   3.247   5.731   3.497
 3648SOL    HW211844   3.364   5.832   3.444
 3649SOL     OW11845   3.644   3.064   2.457
 3649SOL    HW111846   3.592   2.993   2.504
 3649SOL    HW211847   3.733   3.027   2.429
 3650SOL     OW11848   6.000   6.728   1.492
 3650SOL    HW111849   5.926   6.681   1.444
 3650SOL    HW211850   6.015   6.685   1.581
 3651SOL     OW11851   1.231   6.191   2.235
 3651SOL    HW111852   1.190   6.190   2.144
 3651SOL    HW211853   1.255   6.097   2.262
 3652SOL     OW11854   4.478   5.022   2.632
 3652SOL    HW111855   4.384   5.026   2.666
 3652SOL    HW211856   4.481   4.971   2.546
 3653SOL     OW11857   0.265   2.605   4.339
 3653SOL    HW111858   0.365   2.595   4.341
 3653SOL    HW211859   0.225   2.532   4.284
 3654SOL     OW11860   1.329   5.696   1.270
 3654SOL    HW111861   1.388   5.760   1.223
 3654SOL    HW211862   1.376   5.660   1.351
 3655SOL     OW11863   0.591   0.762   3.887
 3655SOL    HW111864   0.605   0.668   3.917
 3655SOL    HW211865   0.658   0.784   3.816
 3656SOL     OW11866   2.859   1.079   2.613
 3656SOL    HW111867   2.866   1.047   2.708
 3656SOL    HW211868   2.769   1.057   2.576
 3657SOL     OW11869   3.813   4.961   1.883
 3657SOL    HW111870   3.890   5.006   1.928
 3657SOL    HW211871   3.756   4.916   1.952
 3658SOL     OW11872   2.070   5.434   5.888
 3658SOL    HW111873   1.997   5.410   5.951
 3658SOL    HW211874   2.030   5.459   5.799
 3659SOL     OW11875   1.058   4.378   0.524
 3659SOL    HW111876   0.978   4.319   0.537
 3659SOL    HW211877   1.111   4.346   0.446
 3660SOL     OW11878   4.539   5.280   1.167
 3660SOL    HW111879   4.600   5.247   1.096
 3660SOL    HW211880   4.444   5.268   1.139
 3661SOL     OW11881   4.891   1.702   0.978
 3661SOL    HW111882   4.846   1.616   0.956
 3661SOL    HW211883   4.824   1.776   0.976
 3662SOL     OW11884   2.810   6.382   5.081
 3662SOL    HW111885   2.901   6.408   5.113
 3662SOL    HW211886   2.811   6.286   5.054
 3663SOL     OW11887   1.120   3.769   6.471
 3663SOL    HW111888   1.213   3.758   6.434
 3663SOL    HW211889   1.057   3.790   6.396
 3664SOL     OW11890   4.150   0.515   0.947
 3664SOL    HW111891   4.151   0.547   0.852
 3664SOL    HW211892   4.181   0.588   1.007
 3665SOL     OW11893   1.252   6.526   5.509
 3665SOL    HW111894   1.213   6.483   5.428
 3665SOL    HW211895   1.262   6.624   5.493
 3666SOL     OW11896   0.797   4.891   4.138
 3666SOL    HW111897   0.727   4.924   4.201
 3666SOL    HW211898   0.794   4.944   4.053
 3667SOL     OW11899   0.353   1.471   6.795
 3667SOL    HW111900   0.255   1.480   6.816
 3667SOL    HW211901   0.403   1.543   6.843
 3668SOL     OW11902   1.736   6.223   1.919
 3668SOL    HW111903   1.657   6.162   1.921
 3668SOL    HW211904   1.820   6.168   1.922
 3669SOL     OW11905   6.030   1.942   3.802
 3669SOL    HW111906   6.029   1.878   3.725
 3669SOL    HW211907   5.938   1.976   3.819
 3670SOL     OW11908   2.475   5.481   6.296
 3670SOL    HW111909   2.399   5.529   6.251
 3670SOL    HW211910   2.556   5.539   6.296
 3671SOL     OW11911   1.122   0.845   2.872
 3671SOL    HW111912   1.176   0.772   2.914
 3671SOL    HW211913   1.144   0.932   2.915
 3672SOL     OW11914   6.927   6.900   0.624
 3672SOL    HW111915   6.905   6.975   0.560
 3672SOL    HW211916   6.931   6.936   0.717
 3673SOL     OW11917   4.254   0.533   6.837
 3673SOL    HW111918   4.285   0.608   6.778
 3673SOL    HW211919   4.222   0.570   6.924
 3674SOL     OW11920   1.398   6.466   0.882
 3674SOL    HW111921   1.491   6.499   0.862
 3674SOL    HW211922   1.343   6.470   0.799
 3675SOL     OW11923   1.723   1.545   4.485
 3675SOL    HW111924   1.769   1.534   4.397
 3675SOL    HW211925   1.754   1.473   4.548
 3676SOL     OW11926   2.328   5.070   3.004
 3676SOL    HW111927   2.376   5.152   3.035
 3676SOL    HW211928   2.244   5.096   2.956
 3677SOL     OW11929   6.384   6.869   3.495
 3677SOL    HW111930   6.363   6.964   3.516
 3677SOL    HW211931   6.445   6.831   3.564
 3678SOL     OW11932   0.970   1.537   3.529
 3678SOL    HW111933   1.005   1.466   3.590
 3678SOL    HW211934   0.959   1.623   3.580
 3679SOL     OW11935   0.192   1.128   1.466
 3679SOL    HW111936   0.110   1.087   1.426
 3679SOL    HW211937   0.261   1.139   1.395
 3680SOL     OW11938   6.661   4.047   4.571
 3680SOL    HW111939   6.594   3.984   4.610
 3680SOL    HW211940   6.736   3.995   4.530
 3681SOL     OW11941   5.341   5.961   4.852
 3681SOL    HW111942   5.395   6.019   4.913
 3681SOL    HW211943   5.303   5.884   4.903
 3682SOL     OW11944   0.388   2.566   6.632
 3682SOL    HW111945   0.355   2.489   6.686
 3682SOL    HW211946   0.325   2.583   6.556
 3683SOL     OW11947   5.131   5.771   3.293
 3683SOL    HW111948   5.211   5.818   3.330
 3683SOL    HW211949   5.161   5.700   3.230
 3684SOL     OW11950   1.880   2.894   0.570
 3684SOL    HW111951   1.835   2.822   0.623
 3684SOL    HW211952   1.816   2.968   0.551
 3685SOL     OW11953   6.551   6.778   6.366
 3685SOL    HW111954   6.512   6.771   6.274
 3685SOL    HW211955   6.514   6.706   6.423
 3686SOL     OW11956   6.007   4.202   1.284
 3686SOL    HW111957   6.079   4.266   1.257
 3686SOL    HW211958   5.968   4.159   1.202
 3687SOL     OW11959   2.977   1.127   6.613
 3687SOL    HW111960   2.976   1.219   6.651
 3687SOL    HW211961   3.007   1.063   6.684
 3688SOL     OW11962   0.077   3.335   6.911
 3688SOL    HW111963   0.058   3.301   7.004
 3688SOL    HW211964   0.018   3.287   6.846
 3689SOL     OW11965   2.932   0.569   3.754
 3689SOL    HW111966   2.946   0.630   3.831
 3689SOL    HW211967   2.836   0.541   3.751
 3690SOL     OW11968   4.883   6.526   5.140
 3690SOL    HW111969   4.836   6.444   5.174
 3690SOL    HW211970   4.821   6.577   5.080
 3691SOL     OW11971   3.763   2.733   0.223
 3691SOL    HW111972   3.699   2.692   0.288
 3691SOL    HW211973   3.849   2.754   0.270
 3692SOL     OW11974   1.490   0.140   6.759
 3692SOL    HW111975   1.574   0.090   6.739
 3692SOL    HW211976   1.411   0.083   6.738
 3693SOL     OW11977   2.526   1.861   2.919
 3693SOL    HW111978   2.542   1.953   2.955
 3693SOL    HW211979   2.496   1.867   2.824
 3694SOL     OW11980   2.132   5.746   3.024
 3694SOL    HW111981   2.148   5.709   2.932
 3694SOL    HW211982   2.137   5.846   3.020
 3695SOL     OW11983   1.642   2.560   1.759
 3695SOL    HW111984   1.696   2.545   1.677
 3695SOL    HW211985   1.545   2.548   1.737
 3696SOL     OW11986   3.036   6.468   5.735
 3696SOL    HW111987   3.034   6.495   5.832
 3696SOL    HW211988   3.088   6.536   5.683
 3697SOL     OW11989   5.343   0.128   3.907
 3697SOL    HW111990   5.262   0.187   3.913
 3697SOL    HW211991   5.354   0.096   3.813
 3698SOL     OW11992   3.023   0.481   5.657
 3698SOL    HW111993   2.962   0.537   5.713
 3698SOL    HW211994   3.117   0.490   5.690
 3699SOL     OW11995   1.299   3.963   2.023
 3699SOL    HW111996   1.351   3.925   2.099
 3699SOL    HW211997   1.225   3.901   1.999
 3700SOL     OW11998   0.555   0.259   4.341
 3700SOL    HW111999   0.470   0.301   4.310
 3700SOL    HW212000   0.594   0.205   4.266
 3701SOL     OW12001   5.528   0.551   3.314
 3701SOL    HW112002   5.483   0.469   3.279
 3701SOL    HW212003   5.548   0.612   3.237
 3702SOL     OW12004   4.181   0.937   6.932
 3702SOL    HW112005   4.168   0.899   7.023
 3702SOL    HW212006   4.164   0.866   6.863
 3703SOL     OW12007   4.607   4.604   0.235
 3703SOL    HW112008   4.536   4.573   0.172
 3703SOL    HW212009   4.584   4.695   0.270
 3704SOL     OW12010   2.512   0.147   2.191
 3704SOL    HW112011   2.448   0.093   2.136
 3704SOL    HW212012   2.536   0.231   2.142
 3705SOL     OW12013   5.432   1.039   4.238
 3705SOL    HW112014   5.372   1.118   4.231
 3705SOL    HW212015   5.400   0.967   4.175
 3706SOL     OW12016   2.177   1.951   3.883
 3706SOL    HW112017   2.146   2.044   3.863
 3706SOL    HW212018   2.097   1.893   3.902
 3707SOL     OW12019   4.409   2.552   5.284
 3707SOL    HW112020   4.462   2.485   5.233
 3707SOL    HW212021   4.315   2.551   5.252
 3708SOL     OW12022   5.992   6.986   5.928
 3708SOL    HW112023   5.946   7.021   5.847
 3708SOL    HW212024   5.998   6.886   5.922
 3709SOL     OW12025   4.491   0.249   0.178
 3709SOL    HW112026   4.566   0.302   0.217
 3709SOL    HW212027   4.404   0.291   0.205
 3710SOL     OW12028   6.843   4.969   0.632
 3710SOL    HW112029   6.889   4.941   0.716
 3710SOL    HW212030   6.861   5.066   0.615
 3711SOL     OW12031   6.565   5.026   3.089
 3711SOL    HW112032   6.525   5.031   2.997
 3711SOL    HW212033   6.540   5.107   3.141
 3712SOL     OW12034   1.867   0.209   0.465
 3712SOL    HW112035   1.829   0.188   0.375
 3712SOL    HW212036   1.792   0.230   0.528
 3713SOL     OW12037   4.198   5.913   6.199
 3713SOL    HW112038   4.283   5.944   6.158
 3713SOL    HW212039   4.122   5.930   6.137
 3714SOL     OW12040   3.784   1.134   5.627
 3714SOL    HW112041   3.879   1.121   5.598
 3714SOL    HW212042   3.777   1.117   5.725
 3715SOL     OW12043   5.145   3.769   4.142
 3715SOL    HW112044   5.139   3.683   4.191
 3715SOL    HW212045   5.148   3.752   4.044
 3716SOL     OW12046   0.338   1.587   4.468
 3716SOL    HW112047   0.259   1.541   4.425
 3716SOL    HW212048   0.392   1.520   4.519
 3717SOL     OW12049   5.576   0.136   0.301
 3717SOL    HW112050   5.509   0.142   0.375
 3717SOL    HW212051   5.604   0.228   0.273
 3718SOL     OW12052   0.711   5.549   0.437
 3718SOL    HW112053   0.627   5.597   0.412
 3718SOL    HW212054   0.689   5.456   0.466
 3719SOL     OW12055   3.914   4.956   6.217
 3719SOL    HW112056   3.942   4.894   6.290
 3719SOL    HW212057   3.825   4.928   6.182
 3720SOL     OW12058   0.266   1.762   6.006
 3720SOL    HW112059   0.317   1.847   6.013
 3720SOL    HW212060   0.187   1.776   5.947
 3721SOL     OW12061   4.494   3.300   0.634
 3721SOL    HW112062   4.477   3.368   0.562
 3721SOL    HW212063   4.566   3.333   0.695
 3722SOL     OW12064   6.104   5.820   1.606
 3722SOL    HW112065   6.014   5.807   1.648
 3722SOL    HW212066   6.152   5.733   1.603
 3723SOL     OW12067   4.314   1.343   0.815
 3723SOL    HW112068   4.248   1.343   0.739
 3723SOL    HW212069   4.296   1.421   0.875
 3724SOL     OW12070   0.098   5.014   5.698
 3724SOL    HW112071   0.008   4.970   5.699
 3724SOL    HW212072   0.146   4.991   5.613
 3725SOL     OW12073   6.727   0.328   0.774
 3725SOL    HW112074   6.695   0.303   0.865
 3725SOL    HW212075   6.826   0.342   0.776
 3726SOL     OW12076   5.659   3.192   1.407
 3726SOL    HW112077   5.626   3.264   1.469
 3726SOL    HW212078   5.718   3.129   1.458
 3727SOL     OW12079   2.497   2.711   5.179
 3727SOL    HW112080   2.542   2.695   5.092
 3727SOL    HW212081   2.497   2.809   5.199
 3728SOL     OW12082   0.495   3.433   6.844
 3728SOL    HW112083   0.501   3.522   6.800
 3728SOL    HW212084   0.427   3.377   6.797
 3729SOL     OW12085   0.246   2.810   3.284
 3729SOL    HW112086   0.320   2.815   3.351
 3729SOL    HW212087   0.159   2.834   3.327
 3730SOL     OW12088   2.810   0.730   0.384
 3730SOL    HW112089   2.797   0.656   0.318
 3730SOL    HW212090   2.757   0.810   0.355
 3731SOL     OW12091   2.818   6.628   6.682
 3731SOL    HW112092   2.778   6.604   6.594
 3731SOL    HW212093   2.746   6.635   6.751
 3732SOL     OW12094   2.152   3.653   4.499
 3732SOL    HW112095   2.193   3.743   4.501
 3732SOL    HW212096   2.131   3.623   4.592
 3733SOL     OW12097   2.590   3.396   1.160
 3733SOL    HW112098   2.602   3.324   1.228
 3733SOL    HW212099   2.678   3.436   1.138
 3734SOL     OW12100   5.335   0.377   2.978
 3734SOL    HW112101   5.361   0.321   2.900
 3734SOL    HW212102   5.373   0.338   3.062
 3735SOL     OW12103   3.319   1.715   1.734
 3735SOL    HW112104   3.273   1.637   1.777
 3735SOL    HW212105   3.312   1.708   1.635
 3736SOL     OW12106   4.922   1.264   6.272
 3736SOL    HW112107   4.857   1.325   6.227
 3736SOL    HW212108   4.878   1.177   6.293
 3737SOL     OW12109   4.082   6.627   3.309
 3737SOL    HW112110   4.129   6.712   3.329
 3737SOL    HW212111   4.051   6.585   3.395
 3738SOL     OW12112   7.001   6.875   3.924
 3738SOL    HW112113   0.033   6.953   3.904
 3738SOL    HW212114   0.009   6.795   3.873
 3739SOL     OW12115   0.584   3.882   1.999
 3739SOL    HW112116   0.562   3.884   1.901
 3739SOL    HW212117   0.584   3.788   2.031
 3740SOL     OW12118   5.338   1.166   0.034
 3740SOL    HW112119   5.330   1.128   0.127
 3740SOL    HW212120   5.370   1.260   0.039
 3741SOL     OW12121   3.682   2.041   6.907
 3741SOL    HW112122   3.670   2.108   6.834
 3741SOL    HW212123   3.657   1.950   6.873
 3742SOL     OW12124   2.890   3.725   5.538
 3742SOL    HW112125   2.957   3.772   5.595
 3742SOL    HW212126   2.799   3.760   5.559
 3743SOL     OW12127   0.787   6.010   5.775
 3743SOL    HW112128   0.728   5.929   5.776
 3743SOL    HW212129   0.734   6.091   5.795
 3744SOL     OW12130   6.929   5.432   3.032
 3744SOL    HW112131   6.878   5.504   2.987
 3744SOL    HW212132   6.972   5.468   3.115
 3745SOL     OW12133   5.148   5.900   1.793
 3745SOL    HW112134   5.127   5.816   1.843
 3745SOL    HW212135   5.065   5.955   1.783
 3746SOL     OW12136   3.957   1.834   2.377
 3746SOL    HW112137   4.016   1.822   2.297
 3746SOL    HW212138   4.006   1.882   2.449
 3747SOL     OW12139   2.542   0.299   0.861
 3747SOL    HW112140   2.594   0.368   0.910
 3747SOL    HW212141   2.446   0.304   0.888
 3748SOL     OW12142   5.792   0.729   2.209
 3748SOL    HW112143   5.793   0.793   2.132
 3748SOL    HW212144   5.842   0.768   2.286
 3749SOL     OW12145   1.439   0.540   4.991
 3749SOL    HW112146   1.471   0.634   5.001
 3749SOL    HW212147   1.516   0.477   5.004
 3750SOL     OW12148   0.013   4.672   6.955
 3750SOL    HW112149   0.060   4.604   7.011
 3750SOL    HW212150   0.027   4.652   6.858
 3751SOL     OW12151   1.809   4.057   1.139
 3751SOL    HW112152   1.819   3.969   1.186
 3751SOL    HW212153   1.769   4.124   1.202
 3752SOL     OW12154   5.679   6.245   6.894
 3752SOL    HW112155   5.692   6.316   6.963
 3752SOL    HW212156   5.625   6.281   6.818
 3753SOL     OW12157   6.957   0.288   3.512
 3753SOL    HW112158   6.979   0.193   3.489
 3753SOL    HW212159   6.953   0.342   3.428
 3754SOL     OW12160   1.965   1.227   0.891
 3754SOL    HW112161   1.912   1.268   0.965
 3754SOL    HW212162   2.002   1.299   0.833
 3755SOL     OW12163   3.161   5.111   4.191
 3755SOL    HW112164   3.149   5.205   4.222
 3755SOL    HW212165   3.082   5.084   4.136
 3756SOL     OW12166   1.655   6.458   0.835
 3756SOL    HW112167   1.713   6.388   0.795
 3756SOL    HW212168   1.693   6.549   0.816
 3757SOL     OW12169   0.143   4.588   1.128
 3757SOL    HW112170   0.205   4.510   1.117
 3757SOL    HW212171   0.068   4.563   1.189
 3758SOL     OW12172   2.170   0.079   4.015
 3758SOL    HW112173   2.217   0.037   3.937
 3758SOL    HW212174   2.150   0.008   4.083
 3759SOL     OW12175   5.290   0.517   4.011
 3759SOL    HW112176   5.293   0.420   3.987
 3759SOL    HW212177   5.366   0.565   3.968
 3760SOL     OW12178   1.154   1.118   3.028
 3760SOL    HW112179   1.188   1.109   3.122
 3760SOL    HW212180   1.216   1.177   2.976
 3761SOL     OW12181   4.846   1.503   5.305
 3761SOL    HW112182   4.911   1.530   5.234
 3761SOL    HW212183   4.784   1.579   5.324
 3762SOL     OW12184   6.957   2.911   3.714
 3762SOL    HW112185   7.008   2.996   3.707
 3762SOL    HW212186   6.998   2.842   3.655
 3763SOL     OW12187   0.931   4.489   6.828
 3763SOL    HW112188   0.860   4.451   6.888
 3763SOL    HW212189   0.982   4.414   6.786
 3764SOL     OW12190   2.615   0.510   2.859
 3764SOL    HW112191   2.620   0.543   2.953
 3764SOL    HW212192   2.674   0.567   2.801
 3765SOL     OW12193   5.450   2.455   3.078
 3765SOL    HW112194   5.424   2.362   3.052
 3765SOL    HW212195   5.538   2.454   3.125
 3766SOL     OW12196   1.590   3.570   1.975
 3766SOL    HW112197   1.570   3.472   1.976
 3766SOL    HW212198   1.627   3.598   2.064
 3767SOL     OW12199   1.584   5.526   6.301
 3767SOL    HW112200   1.574   5.437   6.345
 3767SOL    HW212201   1.519   5.591   6.340
 3768SOL     OW12202   1.450   7.010   2.665
 3768SOL    HW112203   1.375   0.046   2.686
 3768SOL    HW212204   1.510   0.027   2.597
 3769SOL     OW12205   5.268   5.508   4.128
 3769SOL    HW112206   5.209   5.428   4.121
 3769SOL    HW212207   5.305   5.514   4.221
 3770SOL     OW12208   2.323   0.935   1.294
 3770SOL    HW112209   2.312   0.907   1.198
 3770SOL    HW212210   2.392   1.008   1.299
 3771SOL     OW12211   6.423   5.474   5.591
 3771SOL    HW112212   6.513   5.489   5.631
 3771SOL    HW212213   6.374   5.405   5.644
 3772SOL     OW12214   1.461   6.034   1.357
 3772SOL    HW112215   1.444   5.990   1.445
 3772SOL    HW212216   1.530   6.106   1.368
 3773SOL     OW12217   5.248   5.357   6.998
 3773SOL    HW112218   5.339   5.367   6.958
 3773SOL    HW212219   5.198   5.286   6.949
 3774SOL     OW12220   6.504   4.970   1.686
 3774SOL    HW112221   6.435   5.023   1.637
 3774SOL    HW212222   6.588   5.025   1.693
 3775SOL     OW12223   4.658   5.211   5.059
 3775SOL    HW112224   4.565   5.247   5.069
 3775SOL    HW212225   4.724   5.282   5.084
 3776SOL     OW12226   4.189   2.880   6.075
 3776SOL    HW112227   4.165   2.863   6.171
 3776SOL    HW212228   4.203   2.793   6.028
 3777SOL     OW12229   2.894   4.814   4.404
 3777SOL    HW112230   2.839   4.845   4.326
 3777SOL    HW212231   2.835   4.763   4.467
 3778SOL     OW12232   3.722   5.619   6.572
 3778SOL    HW112233   3.623   5.635   6.567
 3778SOL    HW212234   3.761   5.671   6.648
 3779SOL     OW12235   6.807   4.816   7.019
 3779SOL    HW112236   6.804   4.866   6.932
 3779SOL    HW212237   6.886   4.755   7.019
 3780SOL     OW12238   5.525   3.416   2.002
 3780SOL    HW112239   5.481   3.489   1.950
 3780SOL    HW212240   5.595   3.456   2.062
 3781SOL     OW12241   2.070   6.056   4.850
 3781SOL    HW112242   2.059   6.019   4.758
 3781SOL    HW212243   2.097   5.983   4.912
 3782SOL     OW12244   4.034   5.167   1.052
 3782SOL    HW112245   4.019   5.136   0.958
 3782SOL    HW212246   4.122   5.215   1.058
 3783SOL     OW12247   4.717   5.286   4.437
 3783SOL    HW112248   4.777   5.223   4.486
 3783SOL    HW212249   4.624   5.278   4.474
 3784SOL     OW12250   6.007   2.925   4.975
 3784SOL    HW112251   6.086   2.973   5.013
 3784SOL    HW212252   5.927   2.985   4.981
 3785SOL     OW12253   1.556   2.659   3.361
 3785SOL    HW112254   1.580   2.648   3.264
 3785SOL    HW212255   1.456   2.661   3.370
 3786SOL     OW12256   1.996   3.209   4.692
 3786SOL    HW112257   1.950   3.129   4.655
 3786SOL    HW212258   1.930   3.281   4.709
 3787SOL     OW12259   5.158   6.722   4.039
 3787SOL    HW112260   5.256   6.702   4.035
 3787SOL    HW212261   5.139   6.778   4.120
 3788SOL     OW12262   5.127   2.830   5.588
 3788SOL    HW112263   5.046   2.790   5.544
 3788SOL    HW212264   5.166   2.763   5.652
 3789SOL     OW12265   2.639   2.453   1.120
 3789SOL    HW112266   2.683   2.486   1.036
 3789SOL    HW212267   2.563   2.513   1.143
 3790SOL     OW12268   0.801   6.561   1.322
 3790SOL    HW112269   0.737   6.491   1.293
 3790SOL    HW212270   0.762   6.614   1.398
 3791SOL     OW12271   5.235   0.684   5.796
 3791SOL    HW112272   5.181   0.640   5.868
 3791SOL    HW212273   5.301   0.746   5.838
 3792SOL     OW12274   6.884   0.305   4.394
 3792SOL    HW112275   6.894   0.335   4.299
 3792SOL    HW212276   6.890   0.205   4.397
 3793SOL     OW12277   4.272   4.775   0.566
 3793SOL    HW112278   4.188   4.814   0.527
 3793SOL    HW212279   4.251   4.685   0.605
 3794SOL     OW12280   1.039   4.896   6.081
 3794SOL    HW112281   1.126   4.891   6.033
 3794SOL    HW212282   1.054   4.881   6.179
 3795SOL     OW12283   3.044   6.456   1.140
 3795SOL    HW112284   2.953   6.444   1.178
 3795SOL    HW212285   3.051   6.545   1.094
 3796SOL     OW12286   4.500   1.191   0.702
 3796SOL    HW112287   4.489   1.101   0.744
 3796SOL    HW212288   4.422   1.249   0.726
 3797SOL     OW12289   0.192   3.497   1.591
 3797SOL    HW112290   0.202   3.398   1.587
 3797SOL    HW212291   0.138   3.528   1.512
 3798SOL     OW12292   1.485   5.430   3.945
 3798SOL    HW112293   1.488   5.414   4.044
 3798SOL    HW212294   1.564   5.387   3.902
 3799SOL     OW12295   0.036   1.130   3.323
 3799SOL    HW112296   6.967   1.107   3.302
 3799SOL    HW212297   0.084   1.154   3.238
 3800SOL     OW12298   5.693   2.428   3.229
 3800SOL    HW112299   5.762   2.500   3.232
 3800SOL    HW212300   5.730   2.348   3.181
 3801SOL     OW12301   6.333   0.965   1.445
 3801SOL    HW112302   6.299   0.999   1.357
 3801SOL    HW212303   6.311   0.868   1.453
 3802SOL     OW12304   6.041   3.776   1.856
 3802SOL    HW112305   6.097   3.850   1.893
 3802SOL    HW212306   6.010   3.801   1.764
 3803SOL     OW12307   3.384   4.102   4.660
 3803SOL    HW112308   3.413   4.008   4.642
 3803SOL    HW212309   3.288   4.112   4.636
 3804SOL     OW12310   3.854   5.874   3.510
 3804SOL    HW112311   3.893   5.948   3.564
 3804SOL    HW212312   3.785   5.826   3.564
 3805SOL     OW12313   2.298   2.588   6.654
 3805SOL    HW112314   2.295   2.625   6.747
 3805SOL    HW212315   2.267   2.658   6.589
 3806SOL     OW12316   2.488   4.929   1.370
 3806SOL    HW112317   2.546   4.847   1.363
 3806SOL    HW212318   2.541   5.003   1.412
 3807SOL     OW12319   1.586   4.026   3.804
 3807SOL    HW112320   1.527   3.999   3.880
 3807SOL    HW212321   1.676   4.054   3.839
 3808SOL     OW12322   2.788   6.613   5.334
 3808SOL    HW112323   2.782   6.713   5.336
 3808SOL    HW212324   2.715   6.577   5.276
 3809SOL     OW12325   5.300   2.055   2.002
 3809SOL    HW112326   5.242   2.024   1.927
 3809SOL    HW212327   5.289   1.995   2.080
 3810SOL     OW12328   4.724   2.046   2.773
 3810SOL    HW112329   4.789   2.109   2.814
 3810SOL    HW212330   4.771   1.988   2.707
 3811SOL     OW12331   0.102   5.362   5.226
 3811SOL    HW112332   0.095   5.278   5.280
 3811SOL    HW212333   0.075   5.344   5.132
 3812SOL     OW12334   5.038   5.350   0.556
 3812SOL    HW112335   4.970   5.287   0.518
 3812SOL    HW212336   5.072   5.313   0.642
 3813SOL     OW12337   6.412   4.389   0.238
 3813SOL    HW112338   6.344   4.316   0.230
 3813SOL    HW212339   6.425   4.411   0.335
 3814SOL     OW12340   6.906   0.637   4.812
 3814SOL    HW112341   6.958   0.597   4.887
 3814SOL    HW212342   6.964   0.699   4.760
 3815SOL     OW12343   6.186   3.750   5.961
 3815SOL    HW112344   6.275   3.706   5.952
 3815SOL    HW212345   6.193   3.845   5.928
 3816SOL     OW12346   6.534   6.266   1.662
 3816SOL    HW112347   6.493   6.183   1.627
 3816SOL    HW212348   6.585   6.312   1.589
 3817SOL     OW12349   4.468   3.483   1.694
 3817SOL    HW112350   4.523   3.561   1.663
 3817SOL    HW212351   4.422   3.441   1.616
 3818SOL     OW12352   6.026   6.012   2.599
 3818SOL    HW112353   6.113   6.053   2.572
 3818SOL    HW212354   5.979   5.977   2.517
 3819SOL     OW12355   6.022   3.577   3.572
 3819SOL    HW112356   5.979   3.618   3.653
 3819SOL    HW212357   6.121   3.568   3.588
 3820SOL     OW12358   3.477   6.101   4.934
 3820SOL    HW112359   3.474   6.085   5.033
 3820SOL    HW212360   3.542   6.174   4.915
 3821SOL     OW12361   1.143   0.307   0.236
 3821SOL    HW112362   1.060   0.333   0.187
 3821SOL    HW212363   1.216   0.286   0.170
 3822SOL     OW12364   4.607   0.666   1.931
 3822SOL    HW112365   4.518   0.640   1.893
 3822SOL    HW212366   4.669   0.587   1.927
 3823SOL     OW12367   5.944   5.914   5.884
 3823SOL    HW112368   5.873   5.957   5.941
 3823SOL    HW212369   5.966   5.824   5.922
 3824SOL     OW12370   2.212   2.956   0.286
 3824SOL    HW112371   2.231   2.859   0.298
 3824SOL    HW212372   2.286   2.998   0.234
 3825SOL     OW12373   0.870   4.853   5.773
 3825SOL    HW112374   0.906   4.773   5.821
 3825SOL    HW212375   0.839   4.826   5.682
 3826SOL     OW12376   5.669   4.041   4.086
 3826SOL    HW112377   5.729   4.008   4.013
 3826SOL    HW212378   5.582   3.991   4.083
 3827SOL     OW12379   0.445   1.774   0.451
 3827SOL    HW112380   0.483   1.685   0.478
 3827SOL    HW212381   0.508   1.846   0.479
 3828SOL     OW12382   4.092   3.402   3.569
 3828SOL    HW112383   4.106   3.496   3.600
 3828SOL    HW212384   4.064   3.345   3.646
 3829SOL     OW12385   1.050   3.632   1.781
 3829SOL    HW112386   1.078   3.709   1.723
 3829SOL    HW212387   1.079   3.650   1.876
 3830SOL     OW12388   5.734   0.802   3.599
 3830SOL    HW112389   5.731   0.884   3.541
 3830SOL    HW212390   5.826   0.762   3.595
 3831SOL     OW12391   4.833   2.137   3.662
 3831SOL    HW112392   4.833   2.088   3.575
 3831SOL    HW212393   4.744   2.126   3.706
 3832SOL     OW12394   6.787   0.940   3.487
 3832SOL    HW112395   6.788   1.020   3.548
 3832SOL    HW212396   6.777   0.970   3.392
 3833SOL     OW12397   1.512   2.492   5.170
 3833SOL    HW112398   1.503   2.500   5.071
 3833SOL    HW212399   1.462   2.567   5.214
 3834SOL     OW12400   4.840   3.927   0.767
 3834SOL    HW112401   4.842   3.969   0.858
 3834SOL    HW212402   4.848   3.999   0.697
 3835SOL     OW12403   4.125   5.945   5.135
 3835SOL    HW112404   4.156   5.866   5.083
 3835SOL    HW212405   4.128   6.027   5.077
 3836SOL     OW12406   7.022   6.411   5.393
 3836SOL    HW112407   0.043   6.326   5.371
 3836SOL    HW212408   0.064   6.483   5.410
 3837SOL     OW12409   4.695   4.517   6.048
 3837SOL    HW112410   4.603   4.556   6.049
 3837SOL    HW212411   4.762   4.590   6.029
 3838SOL     OW12412   0.766   0.609   4.198
 3838SOL    HW112413   0.820   0.606   4.115
 3838SOL    HW212414   0.756   0.704   4.228
 3839SOL     OW12415   5.151   0.866   3.561
 3839SOL    HW112416   5.099   0.916   3.630
 3839SOL    HW212417   5.202   0.792   3.605
 3840SOL     OW12418   2.793   1.220   6.225
 3840SOL    HW112419   2.698   1.214   6.194
 3840SOL    HW212420   2.808   1.154   6.299
 3841SOL     OW12421   6.021   4.586   4.440
 3841SOL    HW112422   6.036   4.628   4.350
 3841SOL    HW212423   5.923   4.580   4.458
 3842SOL     OW12424   1.799   3.795   5.334
 3842SOL    HW112425   1.867   3.804   5.407
 3842SOL    HW212426   1.739   3.875   5.334
 3843SOL     OW12427   5.122   2.344   0.038
 3843SOL    HW112428   5.066   2.273   7.021
 3843SOL    HW212429   5.192   2.375   6.998
 3844SOL     OW12430   0.310   6.807   1.606
 3844SOL    HW112431   0.317   6.849   1.516
 3844SOL    HW212432   0.366   6.724   1.609
 3845SOL     OW12433   2.129   5.368   0.576
 3845SOL    HW112434   2.169   5.317   0.500
 3845SOL    HW212435   2.086   5.451   0.541
 3846SOL     OW12436   0.569   3.020   3.252
 3846SOL    HW112437   0.654   3.021   3.199
 3846SOL    HW212438   0.500   3.076   3.205
 3847SOL     OW12439   6.855   2.043   6.983
 3847SOL    HW112440   6.872   2.065   6.887
 3847SOL    HW212441   6.766   1.998   6.992
 3848SOL     OW12442   5.560   3.838   2.348
 3848SOL    HW112443   5.491   3.825   2.420
 3848SOL    HW212444   5.590   3.934   2.348
 3849SOL     OW12445   0.122   4.817   6.382
 3849SOL    HW112446   0.094   4.798   6.288
 3849SOL    HW212447   0.110   4.914   6.401
 3850SOL     OW12448   2.909   2.307   1.508
 3850SOL    HW112449   2.863   2.248   1.575
 3850SOL    HW212450   2.942   2.252   1.432
 3851SOL     OW12451   0.366   6.478   2.514
 3851SOL    HW112452   0.374   6.577   2.515
 3851SOL    HW212453   0.315   6.447   2.593
 3852SOL     OW12454   1.927   6.708   5.435
 3852SOL    HW112455   1.903   6.744   5.345
 3852SOL    HW212456   2.013   6.659   5.429
 3853SOL     OW12457   2.846   6.668   3.003
 3853SOL    HW112458   2.836   6.696   3.098
 3853SOL    HW212459   2.913   6.726   2.958
 3854SOL     OW12460   1.139   2.330   2.250
 3854SOL    HW112461   1.053   2.334   2.301
 3854SOL    HW212462   1.144   2.244   2.200
 3855SOL     OW12463   3.617   6.751   0.268
 3855SOL    HW112464   3.613   6.739   0.169
 3855SOL    HW212465   3.524   6.752   0.306
 3856SOL     OW12466   0.484   2.978   6.932
 3856SOL    HW112467   0.466   3.070   6.966
 3856SOL    HW212468   0.398   2.930   6.916
 3857SOL     OW12469   2.211   0.410   6.348
 3857SOL    HW112470   2.201   0.310   6.349
 3857SOL    HW212471   2.196   0.446   6.440
 3858SOL     OW12472   4.899   0.743   3.809
 3858SOL    HW112473   4.982   0.697   3.777
 3858SOL    HW212474   4.820   0.709   3.756
 3859SOL     OW12475   6.296   6.978   2.067
 3859SOL    HW112476   6.296   0.003   1.981
 3859SOL    HW212477   6.390   6.973   2.103
 3860SOL     OW12478   1.472   6.926   3.966
 3860SOL    HW112479   1.444   6.871   3.887
 3860SOL    HW212480   1.400   6.923   4.036
 3861SOL     OW12481   2.907   5.768   1.494
 3861SOL    HW112482   2.861   5.722   1.570
 3861SOL    HW212483   2.961   5.703   1.441
 3862SOL     OW12484   1.781   0.075   3.741
 3862SOL    HW112485   1.712   0.045   3.807
 3862SOL    HW212486   1.864   0.101   3.791
 3863SOL     OW12487   3.643   0.239   0.626
 3863SOL    HW112488   3.638   0.297   0.708
 3863SOL    HW212489   3.637   0.297   0.544
 3864SOL     OW12490   2.100   0.513   5.034
 3864SOL    HW112491   2.079   0.610   5.049
 3864SOL    HW212492   2.199   0.499   5.041
 3865SOL     OW12493   3.465   0.900   0.697
 3865SOL    HW112494   3.553   0.898   0.745
 3865SOL    HW212495   3.472   0.960   0.618
 3866SOL     OW12496   2.817   2.056   6.616
 3866SOL    HW112497   2.877   2.045   6.695
 3866SOL    HW212498   2.773   1.969   6.595
 3867SOL     OW12499   0.673   3.107   2.081
 3867SOL    HW112500   0.724   3.192   2.088
 3867SOL    HW212501   0.581   3.125   2.046
 3868SOL     OW12502   4.640   0.781   0.354
 3868SOL    HW112503   4.635   0.783   0.454
 3868SOL    HW212504   4.707   0.712   0.326
 3869SOL     OW12505   5.563   2.133   3.554
 3869SOL    HW112506   5.654   2.091   3.558
 3869SOL    HW212507   5.556   2.203   3.625
 3870SOL     OW12508   0.285   0.746   4.448
 3870SOL    HW112509   0.248   0.823   4.499
 3870SOL    HW212510   0.339   0.780   4.371
 3871SOL     OW12511   2.606   4.989   4.906
 3871SOL    HW112512   2.691   5.039   4.891
 3871SOL    HW212513   2.528   5.046   4.882
 3872SOL     OW12514   2.854   3.611   5.276
 3872SOL    HW112515   2.868   3.528   5.330
 3872SOL    HW212516   2.864   3.691   5.336
 3873SOL     OW12517   4.544   1.909   0.574
 3873SOL    HW112518   4.639   1.926   0.547
 3873SOL    HW212519   4.541   1.836   0.642
 3874SOL     OW12520   2.847   1.028   6.877
 3874SOL    HW112521   2.772   1.044   6.812
 3874SOL    HW212522   2.917   0.972   6.834
 3875SOL     OW12523   1.087   2.317   6.262
 3875SOL    HW112524   1.168   2.268   6.294
 3875SOL    HW212525   1.092   2.413   6.289
 3876SOL     OW12526   3.837   5.091   1.416
 3876SOL    HW112527   3.795   5.169   1.368
 3876SOL    HW212528   3.774   5.059   1.487
 3877SOL     OW12529   6.381   1.424   6.828
 3877SOL    HW112530   6.416   1.386   6.914
 3877SOL    HW212531   6.458   1.441   6.766
 3878SOL     OW12532   4.769   0.792   4.358
 3878SOL    HW112533   4.725   0.724   4.300
 3878SOL    HW212534   4.748   0.884   4.324
 3879SOL     OW12535   5.938   5.735   0.741
 3879SOL    HW112536   6.031   5.697   0.744
 3879SOL    HW212537   5.894   5.707   0.656
 3880SOL     OW12538   4.653   4.860   4.063
 3880SOL    HW112539   4.654   4.932   4.133
 3880SOL    HW212540   4.568   4.866   4.010
 3881SOL     OW12541   0.928   3.865   0.440
 3881SOL    HW112542   1.025   3.842   0.448
 3881SOL    HW212543   0.883   3.798   0.382
 3882SOL     OW12544   0.869   1.824   6.901
 3882SOL    HW112545   0.825   1.752   6.847
 3882SOL    HW212546   0.941   1.783   6.958
 3883SOL     OW12547   5.056   5.711   2.914
 3883SOL    HW112548   5.132   5.754   2.963
 3883SOL    HW212549   4.983   5.778   2.902
 3884SOL     OW12550   0.730   4.913   1.944
 3884SOL    HW112551   0.803   4.872   1.999
 3884SOL    HW212552   0.671   4.968   2.003
 3885SOL     OW12553   5.577   5.842   2.860
 3885SOL    HW112554   5.650   5.795   2.909
 3885SOL    HW212555   5.599   5.940   2.854
 3886SOL     OW12556   3.479   6.585   5.710
 3886SOL    HW112557   3.442   6.517   5.646
 3886SOL    HW212558   3.512   6.540   5.792
 3887SOL     OW12559   0.471   6.737   2.183
 3887SOL    HW112560   0.501   6.796   2.258
 3887SOL    HW212561   0.498   6.778   2.095
 3888SOL     OW12562   6.042   5.698   4.248
 3888SOL    HW112563   6.014   5.617   4.300
 3888SOL    HW212564   6.141   5.702   4.244
 3889SOL     OW12565   4.822   3.498   6.456
 3889SOL    HW112566   4.768   3.581   6.469
 3889SOL    HW212567   4.760   3.419   6.453
 3890SOL     OW12568   5.654   2.950   4.162
 3890SOL    HW112569   5.591   2.961   4.238
 3890SOL    HW212570   5.603   2.949   4.076
 3891SOL     OW12571   6.226   5.386   3.024
 3891SOL    HW112572   6.211   5.292   2.994
 3891SOL    HW212573   6.292   5.431   2.964
 3892SOL     OW12574   7.025   1.719   1.306
 3892SOL    HW112575   0.055   1.768   1.238
 3892SOL    HW212576   6.928   1.730   1.283
 3893SOL     OW12577   4.061   3.436   2.034
 3893SOL    HW112578   4.003   3.391   2.102
 3893SOL    HW212579   4.118   3.505   2.079
 3894SOL     OW12580   4.210   0.886   5.954
 3894SOL    HW112581   4.292   0.942   5.945
 3894SOL    HW212582   4.235   0.792   5.978
 3895SOL     OW12583   1.975   0.200   4.619
 3895SOL    HW112584   2.049   0.266   4.610
 3895SOL    HW212585   1.900   0.241   4.671
 3896SOL     OW12586   0.531   0.477   0.023
 3896SOL    HW112587   0.542   0.381   0.052
 3896SOL    HW212588   0.518   0.480   6.950
 3897SOL     OW12589   4.790   6.355   1.653
 3897SOL    HW112590   4.879   6.394   1.629
 3897SOL    HW212591   4.738   6.423   1.704
 3898SOL     OW12592   4.097   3.040   0.492
 3898SOL    HW112593   4.180   3.019   0.543
 3898SOL    HW212594   4.028   2.970   0.510
 3899SOL     OW12595   3.432   6.446   6.494
 3899SOL    HW112596   3.424   6.466   6.397
 3899SOL    HW212597   3.405   6.351   6.511
 3900SOL     OW12598   4.880   3.738   3.392
 3900SOL    HW112599   4.932   3.763   3.311
 3900SOL    HW212600   4.823   3.815   3.420
 3901SOL     OW12601   2.693   0.277   0.179
 3901SOL    HW112602   2.634   0.220   0.121
 3901SOL    HW212603   2.721   0.226   0.260
 3902SOL     OW12604   6.005   3.212   2.657
 3902SOL    HW112605   6.074   3.272   2.617
 3902SOL    HW212606   5.975   3.145   2.589
 3903SOL     OW12607   3.306   5.448   6.744
 3903SOL    HW112608   3.274   5.543   6.747
 3903SOL    HW212609   3.241   5.392   6.694
 3904SOL     OW12610   0.931   0.396   0.063
 3904SOL    HW112611   0.936   0.487   0.021
 3904SOL    HW212612   0.889   0.332   7.024
 3905SOL     OW12613   6.703   5.954   5.208
 3905SOL    HW112614   6.733   6.047   5.188
 3905SOL    HW212615   6.757   5.917   5.284
 3906SOL     OW12616   6.277   6.498   5.408
 3906SOL    HW112617   6.263   6.513   5.310
 3906SOL    HW212618   6.267   6.584   5.457
 3907SOL     OW12619   6.580   0.911   3.990
 3907SOL    HW112620   6.497   0.855   3.988
 3907SOL    HW212621   6.645   0.877   3.922
 3908SOL     OW12622   1.514   2.950   5.901
 3908SOL    HW112623   1.586   2.911   5.844
 3908SOL    HW212624   1.437   2.977   5.844
 3909SOL     OW12625   5.870   5.288   4.102
 3909SOL    HW112626   5.898   5.340   4.183
 3909SOL    HW212627   5.950   5.256   4.053
 3910SOL     OW12628   3.937   3.953   3.038
 3910SOL    HW112629   3.938   3.893   3.117
 3910SOL    HW212630   4.006   4.025   3.049
 3911SOL     OW12631   6.371   2.295   5.624
 3911SOL    HW112632   6.406   2.378   5.668
 3911SOL    HW212633   6.423   2.277   5.540
 3912SOL     OW12634   5.426   2.745   6.258
 3912SOL    HW112635   5.504   2.718   6.201
 3912SOL    HW212636   5.350   2.684   6.241
 3913SOL     OW12637   1.325   6.744   0.324
 3913SOL    HW112638   1.370   6.722   0.410
 3913SOL    HW212639   1.294   6.839   0.326
 3914SOL     OW12640   3.222   5.742   6.007
 3914SOL    HW112641   3.202   5.839   6.020
 3914SOL    HW212642   3.316   5.724   6.035
 3915SOL     OW12643   6.511   5.820   1.361
 3915SOL    HW112644   6.546   5.889   1.298
 3915SOL    HW212645   6.586   5.765   1.397
 3916SOL     OW12646   1.086   0.005   3.253
 3916SOL    HW112647   1.151   7.000   3.323
 3916SOL    HW212648   1.069   0.103   3.265
 3917SOL     OW12649   1.997   6.995   6.548
 3917SOL    HW112650   2.075   0.020   6.511
 3917SOL    HW212651   1.980   6.914   6.492
 3918SOL     OW12652   5.776   3.660   0.975
 3918SOL    HW112653   5.791   3.742   0.920
 3918SOL    HW212654   5.730   3.686   1.060
 3919SOL     OW12655   2.987   6.526   0.107
 3919SOL    HW112656   2.975   6.427   0.120
 3919SOL    HW212657   2.897   6.569   0.101
 3920SOL     OW12658   2.108   1.596   6.681
 3920SOL    HW112659   2.051   1.643   6.749
 3920SOL    HW212660   2.124   1.502   6.710
 3921SOL     OW12661   1.448   3.786   1.670
 3921SOL    HW112662   1.404   3.718   1.728
 3921SOL    HW212663   1.460   3.871   1.721
 3922SOL     OW12664   0.952   4.766   1.152
 3922SOL    HW112665   0.989   4.785   1.243
 3922SOL    HW212666   0.992   4.682   1.116
 3923SOL     OW12667   6.843   0.293   0.084
 3923SOL    HW112668   6.759   0.312   0.135
 3923SOL    HW212669   6.841   0.198   0.051
 3924SOL     OW12670   6.991   4.681   4.404
 3924SOL    HW112671   6.940   4.598   4.426
 3924SOL    HW212672   6.953   4.758   4.454
 3925SOL     OW12673   1.985   5.295   2.571
 3925SOL    HW112674   2.079   5.266   2.591
 3925SOL    HW212675   1.946   5.337   2.653
 3926SOL     OW12676   4.510   4.472   2.195
 3926SOL    HW112677   4.573   4.536   2.152
 3926SOL    HW212678   4.476   4.407   2.126
 3927SOL     OW12679   0.632   3.580   6.426
 3927SOL    HW112680   0.711   3.530   6.461
 3927SOL    HW212681   0.598   3.643   6.495
 3928SOL     OW12682   5.694   5.808   6.231
 3928SOL    HW112683   5.774   5.763   6.270
 3928SOL    HW212684   5.611   5.758   6.259
 3929SOL     OW12685   1.079   1.674   4.905
 3929SOL    HW112686   1.176   1.679   4.880
 3929SOL    HW212687   1.050   1.760   4.945
 3930SOL     OW12688   2.299   1.584   3.063
 3930SOL    HW112689   2.391   1.551   3.042
 3930SOL    HW212690   2.236   1.557   2.990
 3931SOL     OW12691   6.189   1.270   1.538
 3931SOL    HW112692   6.107   1.325   1.526
 3931SOL    HW212693   6.241   1.268   1.452
 3932SOL     OW12694   1.746   2.420   4.127
 3932SOL    HW112695   1.683   2.498   4.134
 3932SOL    HW212696   1.840   2.453   4.133
 3933SOL     OW12697   1.162   6.819   5.540
 3933SOL    HW112698   1.114   6.890   5.592
 3933SOL    HW212699   1.121   6.812   5.449
 3934SOL     OW12700   5.381   0.365   6.434
 3934SOL    HW112701   5.312   0.327   6.497
 3934SOL    HW212702   5.366   0.463   6.425
 3935SOL     OW12703   4.625   0.800   0.618
 3935SOL    HW112704   4.567   0.863   0.670
 3935SOL    HW212705   4.721   0.828   0.626
 3936SOL     OW12706   7.011   4.942   3.182
 3936SOL    HW112707   0.035   5.005   3.242
 3936SOL    HW212708   6.939   4.895   3.235
 3937SOL     OW12709   0.454   1.389   2.639
 3937SOL    HW112710   0.456   1.355   2.733
 3937SOL    HW212711   0.411   1.479   2.637
 3938SOL     OW12712   0.543   1.964   2.422
 3938SOL    HW112713   0.492   1.907   2.358
 3938SOL    HW212714   0.509   2.057   2.419
 3939SOL     OW12715   2.813   1.657   1.957
 3939SOL    HW112716   2.742   1.727   1.944
 3939SOL    HW212717   2.884   1.692   2.018
 3940SOL     OW12718   3.570   3.605   1.248
 3940SOL    HW112719   3.669   3.591   1.250
 3940SOL    HW212720   3.537   3.623   1.341
 3941SOL     OW12721   4.180   4.115   6.314
 3941SOL    HW112722   4.204   4.144   6.222
 3941SOL    HW212723   4.106   4.172   6.349
 3942SOL     OW12724   6.753   6.443   5.909
 3942SOL    HW112725   6.761   6.433   6.008
 3942SOL    HW212726   6.707   6.529   5.888
 3943SOL     OW12727   0.245   3.763   4.280
 3943SOL    HW112728   0.236   3.843   4.222
 3943SOL    HW212729   0.341   3.733   4.281
 3944SOL     OW12730   5.450   2.672   4.376
 3944SOL    HW112731   5.537   2.644   4.416
 3944SOL    HW212732   5.400   2.728   4.441
 3945SOL     OW12733   6.737   0.723   1.071
 3945SOL    HW112734   6.791   0.716   1.155
 3945SOL    HW212735   6.740   0.636   1.022
 3946SOL     OW12736   4.121   5.071   3.224
 3946SOL    HW112737   4.084   4.981   3.245
 3946SOL    HW212738   4.111   5.130   3.305
 3947SOL     OW12739   5.972   5.779   6.647
 3947SOL    HW112740   5.925   5.855   6.692
 3947SOL    HW212741   6.053   5.813   6.600
 3948SOL     OW12742   5.904   4.567   1.358
 3948SOL    HW112743   5.897   4.482   1.411
 3948SOL    HW212744   5.874   4.550   1.264
 3949SOL     OW12745   4.934   6.472   3.486
 3949SOL    HW112746   4.903   6.488   3.580
 3949SOL    HW212747   4.991   6.390   3.483
 3950SOL     OW12748   1.293   5.599   0.658
 3950SOL    HW112749   1.246   5.550   0.585
 3950SOL    HW212750   1.266   5.696   0.656
 3951SOL     OW12751   5.656   0.255   2.159
 3951SOL    HW112752   5.746   0.236   2.120
 3951SOL    HW212753   5.667   0.307   2.244
 3952SOL     OW12754   6.017   2.523   0.645
 3952SOL    HW112755   6.067   2.608   0.660
 3952SOL    HW212756   6.043   2.484   0.556
 3953SOL     OW12757   3.824   4.047   2.321
 3953SOL    HW112758   3.913   4.088   2.300
 3953SOL    HW212759   3.797   4.072   2.414
 3954SOL     OW12760   3.951   4.814   5.615
 3954SOL    HW112761   3.933   4.722   5.580
 3954SOL    HW212762   4.050   4.830   5.618
 3955SOL     OW12763   3.817   0.854   5.284
 3955SOL    HW112764   3.844   0.923   5.351
 3955SOL    HW212765   3.772   0.779   5.330
 3956SOL     OW12766   1.866   0.865   1.536
 3956SOL    HW112767   1.885   0.935   1.604
 3956SOL    HW212768   1.889   0.775   1.573
 3957SOL     OW12769   3.565   0.879   4.593
 3957SOL    HW112770   3.512   0.940   4.535
 3957SOL    HW212771   3.559   0.786   4.559
 3958SOL     OW12772   5.884   0.969   5.443
 3958SOL    HW112773   5.879   0.889   5.384
 3958SOL    HW212774   5.960   1.028   5.413
 3959SOL     OW12775   4.891   4.980   0.789
 3959SOL    HW112776   4.847   4.984   0.699
 3959SOL    HW212777   4.824   4.951   0.858
 3960SOL     OW12778   5.645   2.413   4.193
 3960SOL    HW112779   5.547   2.414   4.214
 3960SOL    HW212780   5.695   2.368   4.267
 3961SOL     OW12781   5.710   6.477   3.853
 3961SOL    HW112782   5.795   6.442   3.815
 3961SOL    HW212783   5.729   6.534   3.933
 3962SOL     OW12784   0.277   5.021   5.475
 3962SOL    HW112785   0.360   4.979   5.511
 3962SOL    HW212786   0.274   5.009   5.376
 3963SOL     OW12787   4.674   6.581   2.093
 3963SOL    HW112788   4.581   6.610   2.067
 3963SOL    HW212789   4.732   6.661   2.106
 3964SOL     OW12790   5.074   3.755   3.585
 3964SOL    HW112791   5.001   3.715   3.529
 3964SOL    HW212792   5.040   3.838   3.629
 3965SOL     OW12793   4.834   3.865   4.637
 3965SOL    HW112794   4.851   3.766   4.644
 3965SOL    HW212795   4.888   3.913   4.706
 3966SOL     OW12796   2.562   6.371   6.661
 3966SOL    HW112797   2.537   6.321   6.744
 3966SOL    HW212798   2.564   6.308   6.583
 3967SOL     OW12799   2.318   4.812   3.085
 3967SOL    HW112800   2.348   4.755   3.009
 3967SOL    HW212801   2.337   4.908   3.064
 3968SOL     OW12802   4.320   6.884   0.917
 3968SOL    HW112803   4.307   6.961   0.855
 3968SOL    HW212804   4.281   6.801   0.876
 3969SOL     OW12805   1.865   5.627   1.955
 3969SOL    HW112806   1.833   5.586   2.040
 3969SOL    HW212807   1.913   5.557   1.901
 3970SOL     OW12808   5.465   6.264   2.430
 3970SOL    HW112809   5.412   6.327   2.373
 3970SOL    HW212810   5.541   6.227   2.377
 3971SOL     OW12811   2.758   5.702   3.949
 3971SOL    HW112812   2.674   5.714   3.897
 3971SOL    HW212813   2.786   5.790   3.988
 3972SOL     OW12814   2.434   4.065   0.294
 3972SOL    HW112815   2.447   4.067   0.394
 3972SOL    HW212816   2.475   4.147   0.254
 3973SOL     OW12817   1.246   5.528   0.257
 3973SOL    HW112818   1.244   5.493   0.163
 3973SOL    HW212819   1.248   5.452   0.321
 3974SOL     OW12820   2.140   0.910   5.350
 3974SOL    HW112821   2.184   0.879   5.435
 3974SOL    HW212822   2.185   0.992   5.317
 3975SOL     OW12823   5.480   1.956   6.083
 3975SOL    HW112824   5.484   2.044   6.036
 3975SOL    HW212825   5.385   1.922   6.082
 3976SOL     OW12826   2.446   5.556   2.347
 3976SOL    HW112827   2.497   5.583   2.428
 3976SOL    HW212828   2.406   5.466   2.361
 3977SOL     OW12829   0.510   3.685   6.727
 3977SOL    HW112830   0.592   3.732   6.694
 3977SOL    HW212831   0.456   3.748   6.783
 3978SOL     OW12832   6.639   4.324   3.872
 3978SOL    HW112833   6.651   4.229   3.844
 3978SOL    HW212834   6.560   4.331   3.933
 3979SOL     OW12835   3.630   0.240   6.505
 3979SOL    HW112836   3.665   0.153   6.540
 3979SOL    HW212837   3.532   0.248   6.527
 3980SOL     OW12838   5.930   6.289   5.864
 3980SOL    HW112839   5.863   6.266   5.794
 3980SOL    HW212840   6.021   6.297   5.822
 3981SOL     OW12841   4.863   6.559   0.335
 3981SOL    HW112842   4.832   6.588   0.425
 3981SOL    HW212843   4.950   6.602   0.313
 3982SOL     OW12844   2.667   6.227   2.841
 3982SOL    HW112845   2.593   6.223   2.908
 3982SOL    HW212846   2.736   6.159   2.863
 3983SOL     OW12847   3.881   5.549   3.653
 3983SOL    HW112848   3.910   5.600   3.572
 3983SOL    HW212849   3.945   5.566   3.727
 3984SOL     OW12850   6.436   2.379   2.769
 3984SOL    HW112851   6.386   2.369   2.683
 3984SOL    HW212852   6.402   2.313   2.835
 3985SOL     OW12853   3.737   5.300   6.168
 3985SOL    HW112854   3.704   5.206   6.157
 3985SOL    HW212855   3.683   5.345   6.239
 3986SOL     OW12856   5.082   0.814   1.649
 3986SOL    HW112857   5.153   0.792   1.715
 3986SOL    HW212858   5.123   0.857   1.569
 3987SOL     OW12859   2.891   5.177   5.364
 3987SOL    HW112860   2.862   5.187   5.269
 3987SOL    HW212861   2.991   5.186   5.370
 3988SOL     OW12862   4.453   5.237   0.381
 3988SOL    HW112863   4.526   5.294   0.420
 3988SOL    HW212864   4.420   5.174   0.451
 3989SOL     OW12865   6.295   2.148   6.983
 3989SOL    HW112866   6.285   2.099   0.044
 3989SOL    HW212867   6.353   2.229   6.997
 3990SOL     OW12868   5.994   2.445   2.488
 3990SOL    HW112869   5.997   2.373   2.418
 3990SOL    HW212870   5.926   2.513   2.463
 3991SOL     OW12871   6.827   0.445   3.280
 3991SOL    HW112872   6.807   0.529   3.331
 3991SOL    HW212873   6.915   0.454   3.234
 3992SOL     OW12874   3.337   2.596   0.863
 3992SOL    HW112875   3.270   2.634   0.799
 3992SOL    HW212876   3.290   2.569   0.948
 3993SOL     OW12877   1.301   3.169   1.587
 3993SOL    HW112878   1.256   3.242   1.639
 3993SOL    HW212879   1.384   3.205   1.544
 3994SOL     OW12880   2.602   6.553   5.142
 3994SOL    HW112881   2.617   6.648   5.116
 3994SOL    HW212882   2.669   6.494   5.096
 3995SOL     OW12883   1.709   2.894   5.132
 3995SOL    HW112884   1.739   2.877   5.226
 3995SOL    HW212885   1.789   2.912   5.074
 3996SOL     OW12886   7.017   6.073   4.674
 3996SOL    HW112887   0.066   6.017   4.640
 3996SOL    HW212888   7.022   6.164   4.634
 3997SOL     OW12889   5.542   0.271   4.399
 3997SOL    HW112890   5.453   0.249   4.438
 3997SOL    HW212891   5.603   0.193   4.408
 3998SOL     OW12892   4.581   2.101   3.870
 3998SOL    HW112893   4.549   2.185   3.914
 3998SOL    HW212894   4.553   2.022   3.924
 3999SOL     OW12895   5.647   2.240   5.175
 3999SOL    HW112896   5.678   2.160   5.227
 3999SOL    HW212897   5.591   2.298   5.234
 4000SOL     OW12898   3.898   0.113   3.763
 4000SOL    HW112899   3.989   0.073   3.753
 4000SOL    HW212900   3.904   0.197   3.818
 4001SOL     OW12901   1.010   2.259   3.565
 4001SOL    HW112902   0.973   2.167   3.577
 4001SOL    HW212903   1.063   2.263   3.480
 4002SOL     OW12904   2.014   3.526   1.839
 4002SOL    HW112905   2.018   3.474   1.753
 4002SOL    HW212906   2.091   3.499   1.897
 4003SOL     OW12907   3.270   1.181   4.781
 4003SOL    HW112908   3.321   1.244   4.840
 4003SOL    HW212909   3.218   1.233   4.713
 4004SOL     OW12910   6.758   1.865   5.077
 4004SOL    HW112911   6.832   1.853   5.012
 4004SOL    HW212912   6.697   1.785   5.074
 4005SOL     OW12913   5.284   5.266   5.830
 4005SOL    HW112914   5.355   5.302   5.770
 4005SOL    HW212915   5.326   5.219   5.907
 4006SOL     OW12916   3.464   6.071   2.198
 4006SOL    HW112917   3.510   6.132   2.262
 4006SOL    HW212918   3.530   6.039   2.130
 4007SOL     OW12919   6.706   2.309   6.451
 4007SOL    HW112920   6.764   2.307   6.370
 4007SOL    HW212921   6.762   2.293   6.533
 4008SOL     OW12922   2.580   2.251   5.353
 4008SOL    HW112923   2.490   2.226   5.388
 4008SOL    HW212924   2.603   2.344   5.384
 4009SOL     OW12925   3.953   3.025   2.567
 4009SOL    HW112926   3.883   3.017   2.638
 4009SOL    HW212927   3.928   2.968   2.489
 4010SOL     OW12928   2.121   3.195   6.487
 4010SOL    HW112929   2.092   3.290   6.482
 4010SOL    HW212930   2.080   3.152   6.568
 4011SOL     OW12931   0.615   2.299   1.033
 4011SOL    HW112932   0.661   2.262   1.114
 4011SOL    HW212933   0.648   2.392   1.015
 4012SOL     OW12934   6.617   3.311   3.560
 4012SOL    HW112935   6.568   3.306   3.473
 4012SOL    HW212936   6.575   3.247   3.625
 4013SOL     OW12937   4.720   2.454   3.423
 4013SOL    HW112938   4.623   2.438   3.441
 4013SOL    HW212939   4.736   2.551   3.409
 4014SOL     OW12940   5.687   5.781   2.391
 4014SOL    HW112941   5.692   5.834   2.476
 4014SOL    HW212942   5.668   5.685   2.413
 4015SOL     OW12943   4.542   3.555   6.827
 4015SOL    HW112944   4.627   3.518   6.864
 4015SOL    HW212945   4.561   3.637   6.773
 4016SOL     OW12946   3.090   6.611   4.987
 4016SOL    HW112947   2.998   6.628   4.952
 4016SOL    HW212948   3.086   6.585   5.083
 4017SOL     OW12949   6.772   6.224   6.679
 4017SOL    HW112950   6.814   6.292   6.739
 4017SOL    HW212951   6.710   6.167   6.732
 4018SOL     OW12952   2.665   6.126   0.536
 4018SOL    HW112953   2.626   6.207   0.580
 4018SOL    HW212954   2.649   6.046   0.593
 4019SOL     OW12955   5.353   5.146   3.457
 4019SOL    HW112956   5.268   5.163   3.508
 4019SOL    HW212957   5.425   5.206   3.490
 4020SOL     OW12958   5.369   2.529   5.057
 4020SOL    HW112959   5.329   2.462   4.995
 4020SOL    HW212960   5.303   2.601   5.076
 4021SOL     OW12961   3.967   4.359   6.857
 4021SOL    HW112962   3.993   4.373   6.761
 4021SOL    HW212963   3.870   4.379   6.868
 4022SOL     OW12964   5.012   0.265   1.459
 4022SOL    HW112965   4.970   0.220   1.380
 4022SOL    HW212966   5.058   0.197   1.516
 4023SOL     OW12967   6.856   0.437   5.272
 4023SOL    HW112968   6.933   0.383   5.237
 4023SOL    HW212969   6.784   0.440   5.203
 4024SOL     OW12970   3.824   4.938   4.372
 4024SOL    HW112971   3.797   4.925   4.467
 4024SOL    HW212972   3.923   4.956   4.367
 4025SOL     OW12973   1.267   4.071   2.751
 4025SOL    HW112974   1.173   4.040   2.748
 4025SOL    HW212975   1.327   3.996   2.780
 4026SOL     OW12976   5.301   6.769   4.658
 4026SOL    HW112977   5.220   6.783   4.716
 4026SOL    HW212978   5.377   6.823   4.695
 4027SOL     OW12979   4.584   5.112   1.367
 4027SOL    HW112980   4.568   5.176   1.291
 4027SOL    HW212981   4.647   5.153   1.432
 4028SOL     OW12982   2.724   6.722   4.164
 4028SOL    HW112983   2.778   6.793   4.118
 4028SOL    HW212984   2.628   6.752   4.169
 4029SOL     OW12985   2.294   4.252   3.900
 4029SOL    HW112986   2.210   4.243   3.953
 4029SOL    HW212987   2.278   4.310   3.821
 4030SOL     OW12988   1.223   1.462   6.179
 4030SOL    HW112989   1.198   1.514   6.098
 4030SOL    HW212990   1.275   1.381   6.152
 4031SOL     OW12991   4.988   5.466   4.024
 4031SOL    HW112992   4.950   5.428   4.108
 4031SOL    HW212993   4.913   5.498   3.966
 4032SOL     OW12994   5.110   6.943   4.489
 4032SOL    HW112995   5.035   6.960   4.554
 4032SOL    HW212996   5.154   6.856   4.511
 4033SOL     OW12997   3.216   3.792   5.411
 4033SOL    HW112998   3.250   3.698   5.421
 4033SOL    HW212999   3.226   3.840   5.498
 4034SOL     OW13000   6.408   2.730   4.122
 4034SOL    HW113001   6.465   2.782   4.186
 4034SOL    HW213002   6.467   2.676   4.061
 4035SOL     OW13003   0.415   5.592   1.014
 4035SOL    HW113004   0.422   5.686   0.981
 4035SOL    HW213005   0.461   5.585   1.103
 4036SOL     OW13006   6.398   5.941   2.905
 4036SOL    HW113007   6.423   6.029   2.864
 4036SOL    HW213008   6.395   5.872   2.833
 4037SOL     OW13009   6.566   4.209   6.294
 4037SOL    HW113010   6.653   4.235   6.253
 4037SOL    HW213011   6.492   4.226   6.229
 4038SOL     OW13012   6.583   4.944   3.547
 4038SOL    HW113013   6.517   5.005   3.503
 4038SOL    HW213014   6.593   4.967   3.643
 4039SOL     OW13015   4.493   5.635   0.906
 4039SOL    HW113016   4.573   5.593   0.864
 4039SOL    HW213017   4.503   5.734   0.905
 4040SOL     OW13018   3.591   6.546   1.126
 4040SOL    HW113019   3.501   6.509   1.100
 4040SOL    HW213020   3.600   6.546   1.225
 4041SOL     OW13021   1.184   0.081   3.796
 4041SOL    HW113022   1.223   7.015   3.785
 4041SOL    HW213023   1.247   0.149   3.759
 4042SOL     OW13024   5.873   5.196   2.221
 4042SOL    HW113025   5.931   5.205   2.302
 4042SOL    HW213026   5.909   5.255   2.148
 4043SOL     OW13027   5.754   3.995   2.140
 4043SOL    HW113028   5.697   4.066   2.182
 4043SOL    HW213029   5.765   3.920   2.204
 4044SOL     OW13030   6.765   5.843   2.923
 4044SOL    HW113031   6.790   5.818   3.017
 4044SOL    HW213032   6.776   5.942   2.912
 4045SOL     OW13033   1.928   4.730   5.869
 4045SOL    HW113034   1.945   4.819   5.828
 4045SOL    HW213035   2.015   4.682   5.882
 4046SOL     OW13036   0.362   2.912   1.070
 4046SOL    HW113037   0.383   2.977   1.143
 4046SOL    HW213038   0.436   2.845   1.062
 4047SOL     OW13039   3.137   4.145   1.852
 4047SOL    HW113040   3.230   4.134   1.888
 4047SOL    HW213041   3.096   4.056   1.836
 4048SOL     OW13042   4.884   2.341   1.064
 4048SOL    HW113043   4.811   2.311   1.125
 4048SOL    HW213044   4.928   2.261   1.022
 4049SOL     OW13045   6.674   0.777   5.658
 4049SOL    HW113046   6.759   0.805   5.703
 4049SOL    HW213047   6.666   0.678   5.659
 4050SOL     OW13048   2.440   0.528   1.471
 4050SOL    HW113049   2.485   0.439   1.468
 4050SOL    HW213050   2.429   0.556   1.567
 4051SOL     OW13051   1.922   4.158   0.917
 4051SOL    HW113052   1.873   4.109   0.990
 4051SOL    HW213053   1.889   4.252   0.912
 4052SOL     OW13054   1.736   6.382   1.645
 4052SOL    HW113055   1.676   6.359   1.722
 4052SOL    HW213056   1.794   6.460   1.670
 4053SOL     OW13057   2.977   4.958   3.426
 4053SOL    HW113058   2.983   4.965   3.526
 4053SOL    HW213059   2.890   4.915   3.401
 4054SOL     OW13060   5.264   1.774   6.897
 4054SOL    HW113061   5.182   1.729   6.864
 4054SOL    HW213062   5.246   1.816   6.986
 4055SOL     OW13063   4.321   2.958   0.611
 4055SOL    HW113064   4.315   2.872   0.662
 4055SOL    HW213065   4.415   2.971   0.578
 4056SOL     OW13066   3.904   3.264   1.107
 4056SOL    HW113067   3.885   3.167   1.118
 4056SOL    HW213068   3.953   3.279   1.021
 4057SOL     OW13069   6.434   2.237   0.473
 4057SOL    HW113070   6.402   2.330   0.453
 4057SOL    HW213071   6.367   2.191   0.531
 4058SOL     OW13072   1.493   1.377   4.784
 4058SOL    HW113073   1.516   1.440   4.858
 4058SOL    HW213074   1.576   1.329   4.754
 4059SOL     OW13075   6.117   1.724   5.140
 4059SOL    HW113076   6.141   1.676   5.224
 4059SOL    HW213077   6.142   1.820   5.148
 4060SOL     OW13078   3.787   5.994   4.868
 4060SOL    HW113079   3.814   6.090   4.880
 4060SOL    HW213080   3.869   5.939   4.848
 4061SOL     OW13081   2.575   2.929   1.510
 4061SOL    HW113082   2.612   2.895   1.424
 4061SOL    HW213083   2.497   2.988   1.492
 4062SOL     OW13084   3.969   6.081   2.846
 4062SOL    HW113085   3.918   6.146   2.789
 4062SOL    HW213086   3.948   5.988   2.816
 4063SOL     OW13087   2.712   5.306   6.291
 4063SOL    HW113088   2.613   5.316   6.301
 4063SOL    HW213089   2.731   5.227   6.232
 4064SOL     OW13090   6.003   0.014   4.241
 4064SOL    HW113091   5.951   6.997   4.168
 4064SOL    HW213092   5.976   7.000   4.329
 4065SOL     OW13093   6.415   4.876   0.138
 4065SOL    HW113094   6.372   4.833   0.218
 4065SOL    HW213095   6.493   4.821   0.109
 4066SOL     OW13096   6.317   5.116   1.539
 4066SOL    HW113097   6.248   5.098   1.470
 4066SOL    HW213098   6.398   5.155   1.496
 4067SOL     OW13099   5.903   0.706   1.555
 4067SOL    HW113100   5.891   0.796   1.597
 4067SOL    HW213101   5.862   0.706   1.464
 4068SOL     OW13102   5.893   1.317   4.861
 4068SOL    HW113103   5.874   1.230   4.814
 4068SOL    HW213104   5.899   1.390   4.793
 4069SOL     OW13105   6.654   5.972   1.167
 4069SOL    HW113106   6.671   5.978   1.069
 4069SOL    HW213107   6.727   6.020   1.217
 4070SOL     OW13108   7.002   3.606   2.848
 4070SOL    HW113109   7.023   3.650   2.936
 4070SOL    HW213110   0.048   3.540   2.826
 4071SOL     OW13111   2.341   0.417   3.483
 4071SOL    HW113112   2.312   0.478   3.410
 4071SOL    HW213113   2.263   0.393   3.540
 4072SOL     OW13114   1.135   0.336   4.104
 4072SOL    HW113115   1.173   0.357   4.014
 4072SOL    HW213116   1.036   0.326   4.097
 4073SOL     OW13117   2.748   5.419   1.467
 4073SOL    HW113118   2.763   5.451   1.373
 4073SOL    HW213119   2.693   5.487   1.517
 4074SOL     OW13120   0.263   3.247   0.885
 4074SOL    HW113121   0.164   3.234   0.881
 4074SOL    HW213122   0.287   3.300   0.966
 4075SOL     OW13123   5.128   0.631   3.744
 4075SOL    HW113124   5.218   0.623   3.787
 4075SOL    HW213125   5.118   0.560   3.675
 4076SOL     OW13126   1.975   2.326   3.283
 4076SOL    HW113127   1.894   2.376   3.314
 4076SOL    HW213128   1.999   2.255   3.349
 4077SOL     OW13129   3.284   0.992   0.875
 4077SOL    HW113130   3.277   1.090   0.856
 4077SOL    HW213131   3.347   0.950   0.809
 4078SOL     OW13132   4.960   3.934   2.771
 4078SOL    HW113133   5.049   3.977   2.755
 4078SOL    HW213134   4.918   3.909   2.683
 4079SOL     OW13135   5.915   0.265   4.172
 4079SOL    HW113136   5.919   0.172   4.207
 4079SOL    HW213137   5.823   0.286   4.141
 4080SOL     OW13138   3.596   2.885   3.006
 4080SOL    HW113139   3.508   2.914   2.969
 4080SOL    HW213140   3.661   2.871   2.931
 4081SOL     OW13141   2.649   2.526   6.478
 4081SOL    HW113142   2.564   2.572   6.452
 4081SOL    HW213143   2.636   2.427   6.476
 4082SOL     OW13144   1.128   2.521   5.549
 4082SOL    HW113145   1.098   2.596   5.490
 4082SOL    HW213146   1.053   2.455   5.560
 4083SOL     OW13147   5.900   5.278   2.877
 4083SOL    HW113148   5.917   5.180   2.887
 4083SOL    HW213149   5.956   5.329   2.943
 4084SOL     OW13150   4.380   0.822   2.340
 4084SOL    HW113151   4.359   0.917   2.316
 4084SOL    HW213152   4.338   0.800   2.429
 4085SOL     OW13153   2.699   4.647   2.617
 4085SOL    HW113154   2.660   4.557   2.597
 4085SOL    HW213155   2.737   4.686   2.533
 4086SOL     OW13156   6.264   4.825   4.693
 4086SOL    HW113157   6.276   4.732   4.658
 4086SOL    HW213158   6.168   4.853   4.682
 4087SOL     OW13159   1.997   0.621   1.925
 4087SOL    HW113160   1.917   0.681   1.928
 4087SOL    HW213161   2.076   0.668   1.963
 4088SOL     OW13162   0.323   1.911   5.748
 4088SOL    HW113163   0.353   1.827   5.702
 4088SOL    HW213164   0.229   1.932   5.720
 4089SOL     OW13165   1.019   0.940   2.591
 4089SOL    HW113166   1.032   0.898   2.681
 4089SOL    HW213167   0.933   0.906   2.551
 4090SOL     OW13168   2.211   2.697   5.996
 4090SOL    HW113169   2.264   2.613   6.010
 4090SOL    HW213170   2.218   2.725   5.900
 4091SOL     OW13171   3.257   5.796   1.958
 4091SOL    HW113172   3.223   5.877   1.910
 4091SOL    HW213173   3.231   5.714   1.907
 4092SOL     OW13174   5.231   2.022   5.802
 4092SOL    HW113175   5.140   2.053   5.829
 4092SOL    HW213176   5.298   2.055   5.868
 4093SOL     OW13177   5.245   4.297   3.555
 4093SOL    HW113178   5.285   4.384   3.585
 4093SOL    HW213179   5.203   4.251   3.633
 4094SOL     OW13180   0.054   6.529   0.298
 4094SOL    HW113181   0.045   6.605   0.234
 4094SOL    HW213182   0.055   6.563   0.391
 4095SOL     OW13183   1.516   4.929   0.734
 4095SOL    HW113184   1.473   4.949   0.822
 4095SOL    HW213185   1.470   4.851   0.691
 4096SOL     OW13186   0.480   0.364   6.364
 4096SOL    HW113187   0.468   0.286   6.426
 4096SOL    HW213188   0.413   0.357   6.289
 4097SOL     OW13189   0.118   3.821   4.791
 4097SOL    HW113190   0.214   3.801   4.809
 4097SOL    HW213191   0.097   3.802   4.695
 4098SOL     OW13192   0.935   5.053   1.409
 4098SOL    HW113193   0.899   5.036   1.501
 4098SOL    HW213194   0.864   5.097   1.354
 4099SOL     OW13195   6.432   3.691   5.876
 4099SOL    HW113196   6.502   3.737   5.931
 4099SOL    HW213197   6.454   3.702   5.779
 4100SOL     OW13198   2.071   1.819   2.612
 4100SOL    HW113199   1.979   1.780   2.610
 4100SOL    HW213200   2.084   1.869   2.698
 4101SOL     OW13201   6.721   5.946   6.718
 4101SOL    HW113202   6.740   6.008   6.794
 4101SOL    HW213203   6.797   5.948   6.653
 4102SOL     OW13204   1.523   5.897   0.288
 4102SOL    HW113205   1.543   5.991   0.261
 4102SOL    HW213206   1.478   5.849   0.213
 4103SOL     OW13207   2.176   6.023   3.102
 4103SOL    HW113208   2.258   5.990   3.150
 4103SOL    HW213209   2.110   6.057   3.168
 4104SOL     OW13210   2.118   5.991   5.298
 4104SOL    HW113211   2.148   6.084   5.278
 4104SOL    HW213212   2.032   5.993   5.349
 4105SOL     OW13213   4.297   0.357   2.478
 4105SOL    HW113214   4.394   0.339   2.467
 4105SOL    HW213215   4.274   0.445   2.436
 4106SOL     OW13216   1.502   0.170   2.054
 4106SOL    HW113217   1.599   0.148   2.060
 4106SOL    HW213218   1.448   0.088   2.073
 4107SOL     OW13219   1.331   1.109   0.993
 4107SOL    HW113220   1.414   1.155   0.964
 4107SOL    HW213221   1.335   1.012   0.967
 4108SOL     OW13222   6.536   6.012   5.537
 4108SOL    HW113223   6.518   6.084   5.471
 4108SOL    HW213224   6.623   5.968   5.517
 4109SOL     OW13225   5.315   6.307   4.767
 4109SOL    HW113226   5.365   6.222   4.781
 4109SOL    HW213227   5.370   6.369   4.711
 4110SOL     OW13228   4.837   3.050   0.319
 4110SOL    HW113229   4.915   2.991   0.338
 4110SOL    HW213230   4.765   2.998   0.273
 4111SOL     OW13231   5.754   5.092   4.353
 4111SOL    HW113232   5.681   5.115   4.289
 4111SOL    HW213233   5.735   5.136   4.441
 4112SOL     OW13234   4.271   6.167   4.346
 4112SOL    HW113235   4.303   6.072   4.347
 4112SOL    HW213236   4.172   6.169   4.330
 4113SOL     OW13237   4.194   5.724   4.972
 4113SOL    HW113238   4.206   5.625   4.976
 4113SOL    HW213239   4.267   5.765   4.918
 4114SOL     OW13240   0.368   0.775   1.298
 4114SOL    HW113241   0.413   0.845   1.243
 4114SOL    HW213242   0.271   0.772   1.274
 4115SOL     OW13243   4.517   5.815   3.690
 4115SOL    HW113244   4.421   5.844   3.692
 4115SOL    HW213245   4.521   5.716   3.699
 4116SOL     OW13246   5.380   3.405   3.282
 4116SOL    HW113247   5.470   3.449   3.285
 4116SOL    HW213248   5.309   3.473   3.301
 4117SOL     OW13249   1.030   0.968   3.536
 4117SOL    HW113250   0.959   1.030   3.502
 4117SOL    HW213251   1.011   0.945   3.632
 4118SOL     OW13252   1.340   6.678   0.661
 4118SOL    HW113253   1.279   6.748   0.623
 4118SOL    HW213254   1.363   6.702   0.755
 4119SOL     OW13255   7.001   0.499   4.563
 4119SOL    HW113256   6.952   0.529   4.646
 4119SOL    HW213257   6.965   0.411   4.533
 4120SOL     OW13258   2.329   0.678   6.350
 4120SOL    HW113259   2.334   0.683   6.450
 4120SOL    HW213260   2.319   0.582   6.323
 4121SOL     OW13261   6.829   1.049   2.267
 4121SOL    HW113262   6.740   1.037   2.223
 4121SOL    HW213263   6.900   1.053   2.197
 4122SOL     OW13264   0.772   5.360   3.234
 4122SOL    HW113265   0.782   5.261   3.234
 4122SOL    HW213266   0.692   5.385   3.288
 4123SOL     OW13267   5.059   4.108   1.233
 4123SOL    HW113268   5.098   4.132   1.144
 4123SOL    HW213269   5.084   4.014   1.256
 4124SOL     OW13270   6.420   6.464   6.904
 4124SOL    HW113271   6.448   6.421   6.990
 4124SOL    HW213272   6.339   6.417   6.869
 4125SOL     OW13273   6.368   2.547   0.577
 4125SOL    HW113274   6.362   2.543   0.677
 4125SOL    HW213275   6.284   2.512   0.537
 4126SOL     OW13276   0.694   3.397   3.795
 4126SOL    HW113277   0.780   3.419   3.841
 4126SOL    HW213278   0.619   3.399   3.861
 4127SOL     OW13279   5.160   2.326   3.963
 4127SOL    HW113280   5.093   2.317   4.037
 4127SOL    HW213281   5.151   2.416   3.920
 4128SOL     OW13282   6.787   2.657   6.348
 4128SOL    HW113283   6.860   2.681   6.413
 4128SOL    HW213284   6.744   2.740   6.314
 4129SOL     OW13285   3.084   1.681   0.839
 4129SOL    HW113286   3.030   1.765   0.849
 4129SOL    HW213287   3.047   1.610   0.899
 4130SOL     OW13288   6.241   2.738   0.256
 4130SOL    HW113289   6.183   2.804   0.208
 4130SOL    HW213290   6.228   2.648   0.216
 4131SOL     OW13291   5.133   6.763   3.351
 4131SOL    HW113292   5.097   6.747   3.443
 4131SOL    HW213293   5.164   6.677   3.312
 4132SOL     OW13294   6.394   4.609   3.234
 4132SOL    HW113295   6.437   4.614   3.324
 4132SOL    HW213296   6.434   4.534   3.182
 4133SOL     OW13297   5.519   6.629   2.622
 4133SOL    HW113298   5.551   6.651   2.714
 4133SOL    HW213299   5.595   6.635   2.557
 4134SOL     OW13300   1.925   3.361   1.147
 4134SOL    HW113301   1.915   3.452   1.186
 4134SOL    HW213302   1.989   3.364   1.070
 4135SOL     OW13303   5.908   0.922   1.208
 4135SOL    HW113304   6.001   0.886   1.206
 4135SOL    HW213305   5.846   0.853   1.245
 4136SOL     OW13306   0.266   4.344   1.036
 4136SOL    HW113307   0.192   4.361   0.970
 4136SOL    HW213308   0.354   4.368   0.994
 4137SOL     OW13309   0.742   2.837   6.585
 4137SOL    HW113310   0.650   2.812   6.555
 4137SOL    HW213311   0.744   2.841   6.685
 4138SOL     OW13312   4.170   6.989   6.695
 4138SOL    HW113313   4.237   6.927   6.655
 4138SOL    HW213314   4.173   0.051   6.647
 4139SOL     OW13315   2.008   4.047   2.666
 4139SOL    HW113316   2.054   4.128   2.703
 4139SOL    HW213317   2.076   3.975   2.650
 4140SOL     OW13318   2.156   0.423   6.661
 4140SOL    HW113319   2.237   0.389   6.709
 4140SOL    HW213320   2.171   0.518   6.633
 4141SOL     OW13321   4.981   1.484   6.610
 4141SOL    HW113322   4.961   1.559   6.548
 4141SOL    HW213323   5.070   1.444   6.587
 4142SOL     OW13324   6.252   5.226   1.776
 4142SOL    HW113325   6.271   5.174   1.692
 4142SOL    HW213326   6.221   5.164   1.848
 4143SOL     OW13327   6.537   3.747   6.531
 4143SOL    HW113328   6.525   3.666   6.472
 4143SOL    HW213329   6.611   3.730   6.596
 4144SOL     OW13330   4.288   1.182   1.530
 4144SOL    HW113331   4.327   1.190   1.622
 4144SOL    HW213332   4.338   1.242   1.467
 4145SOL     OW13333   6.503   0.279   1.557
 4145SOL    HW113334   6.451   0.216   1.499
 4145SOL    HW213335   6.518   0.237   1.646
 4146SOL     OW13336   4.643   6.865   1.580
 4146SOL    HW113337   4.603   6.954   1.603
 4146SOL    HW213338   4.682   6.824   1.663
 4147SOL     OW13339   4.884   4.907   6.613
 4147SOL    HW113340   4.872   4.817   6.570
 4147SOL    HW213341   4.919   4.972   6.546
 4148SOL     OW13342   2.551   1.468   5.207
 4148SOL    HW113343   2.538   1.387   5.150
 4148SOL    HW213344   2.632   1.517   5.176
 4149SOL     OW13345   1.385   3.822   6.898
 4149SOL    HW113346   1.313   3.791   6.836
 4149SOL    HW213347   1.468   3.842   6.845
 4150SOL     OW13348   5.735   1.927   0.297
 4150SOL    HW113349   5.647   1.951   0.339
 4150SOL    HW213350   5.723   1.918   0.198
 4151SOL     OW13351   2.620   5.823   4.605
 4151SOL    HW113352   2.527   5.856   4.585
 4151SOL    HW213353   2.653   5.769   4.528
 4152SOL     OW13354   2.658   4.378   1.453
 4152SOL    HW113355   2.668   4.329   1.367
 4152SOL    HW213356   2.561   4.379   1.480
 4153SOL     OW13357   6.792   6.000   2.173
 4153SOL    HW113358   6.830   6.089   2.148
 4153SOL    HW213359   6.866   5.942   2.209
 4154SOL     OW13360   0.649   0.065   3.803
 4154SOL    HW113361   0.733   0.037   3.852
 4154SOL    HW213362   0.673   0.127   3.729
 4155SOL     OW13363   0.041   0.740   2.025
 4155SOL    HW113364   0.084   0.730   2.115
 4155SOL    HW213365   7.011   0.823   2.023
 4156SOL     OW13366   0.537   4.944   5.553
 4156SOL    HW113367   0.547   4.917   5.649
 4156SOL    HW213368   0.619   4.993   5.524
 4157SOL     OW13369   5.847   5.990   0.686
 4157SOL    HW113370   5.896   5.903   0.689
 4157SOL    HW213371   5.839   6.027   0.778
 4158SOL     OW13372   0.387   3.171   1.252
 4158SOL    HW113373   0.457   3.099   1.252
 4158SOL    HW213374   0.309   3.142   1.306
 4159SOL     OW13375   3.223   0.792   4.467
 4159SOL    HW113376   3.292   0.864   4.465
 4159SOL    HW213377   3.132   0.831   4.481
 4160SOL     OW13378   0.729   6.410   6.175
 4160SOL    HW113379   0.649   6.361   6.209
 4160SOL    HW213380   0.710   6.446   6.083
 4161SOL     OW13381   3.143   3.408   2.972
 4161SOL    HW113382   3.169   3.373   2.882
 4161SOL    HW213383   3.113   3.332   3.030
 4162SOL     OW13384   5.475   5.279   1.535
 4162SOL    HW113385   5.552   5.264   1.598
 4162SOL    HW213386   5.446   5.192   1.496
 4163SOL     OW13387   3.998   6.192   1.693
 4163SOL    HW113388   3.969   6.149   1.779
 4163SOL    HW213389   4.036   6.122   1.632
 4164SOL     OW13390   5.980   1.567   6.205
 4164SOL    HW113391   6.076   1.546   6.190
 4164SOL    HW213392   5.968   1.605   6.296
 4165SOL     OW13393   4.055   1.363   4.541
 4165SOL    HW113394   3.989   1.387   4.470
 4165SOL    HW213395   4.041   1.269   4.570
 4166SOL     OW13396   6.167   1.810   1.200
 4166SOL    HW113397   6.102   1.748   1.245
 4166SOL    HW213398   6.196   1.771   1.113
 4167SOL     OW13399   4.129   5.258   4.852
 4167SOL    HW113400   4.187   5.214   4.784
 4167SOL    HW213401   4.187   5.310   4.916
 4168SOL     OW13402   5.102   4.162   0.129
 4168SOL    HW113403   5.170   4.235   0.141
 4168SOL    HW213404   5.146   4.073   0.142
 4169SOL     OW13405   5.259   2.778   6.508
 4169SOL    HW113406   5.324   2.835   6.457
 4169SOL    HW213407   5.304   2.744   6.591
 4170SOL     OW13408   0.538   2.342   5.360
 4170SOL    HW113409   0.542   2.245   5.336
 4170SOL    HW213410   0.613   2.391   5.316
 4171SOL     OW13411   0.535   1.671   6.917
 4171SOL    HW113412   0.623   1.643   6.879
 4171SOL    HW213413   0.501   1.751   6.867
 4172SOL     OW13414   2.989   3.086   0.091
 4172SOL    HW113415   3.084   3.119   0.087
 4172SOL    HW213416   2.976   3.014   0.022
 4173SOL     OW13417   4.774   1.394   6.072
 4173SOL    HW113418   4.737   1.329   6.005
 4173SOL    HW213419   4.731   1.483   6.059
 4174SOL     OW13420   4.588   0.184   4.647
 4174SOL    HW113421   4.586   0.135   4.735
 4174SOL    HW213422   4.619   0.277   4.662
 4175SOL     OW13423   1.372   4.706   6.200
 4175SOL    HW113424   1.354   4.669   6.291
 4175SOL    HW213425   1.379   4.805   6.205
 4176SOL     OW13426   5.235   6.591   6.196
 4176SOL    HW113427   5.263   6.618   6.288
 4176SOL    HW213428   5.296   6.634   6.129
 4177SOL     OW13429   3.917   4.867   3.236
 4177SOL    HW113430   3.916   4.828   3.144
 4177SOL    HW213431   3.825   4.897   3.260
 4178SOL     OW13432   4.328   6.238   1.270
 4178SOL    HW113433   4.279   6.189   1.198
 4178SOL    HW213434   4.291   6.330   1.280
 4179SOL     OW13435   4.157   2.287   0.019
 4179SOL    HW113436   4.209   2.280   6.960
 4179SOL    HW213437   4.215   2.262   0.097
 4180SOL     OW13438   4.143   3.642   0.542
 4180SOL    HW113439   4.043   3.642   0.548
 4180SOL    HW213440   4.179   3.564   0.594
 4181SOL     OW13441   5.339   6.975   6.011
 4181SOL    HW113442   5.319   7.003   5.917
 4181SOL    HW213443   5.363   0.030   6.065
 4182SOL     OW13444   0.806   5.822   5.117
 4182SOL    HW113445   0.834   5.902   5.169
 4182SOL    HW213446   0.840   5.830   5.023
 4183SOL     OW13447   4.023   1.841   1.088
 4183SOL    HW113448   3.993   1.761   1.037
 4183SOL    HW213449   3.957   1.862   1.160
 4184SOL     OW13450   3.997   5.510   3.336
 4184SOL    HW113451   4.034   5.435   3.390
 4184SOL    HW213452   3.997   5.485   3.239
 4185SOL     OW13453   4.753   4.256   3.231
 4185SOL    HW113454   4.729   4.172   3.280
 4185SOL    HW213455   4.847   4.251   3.199
 4186SOL     OW13456   1.934   5.626   7.020
 4186SOL    HW113457   1.979   5.676   6.946
 4186SOL    HW213458   1.984   5.640   0.079
 4187SOL     OW13459   2.067   3.585   6.102
 4187SOL    HW113460   2.051   3.618   6.009
 4187SOL    HW213461   1.982   3.547   6.138
 4188SOL     OW13462   4.438   6.652   6.981
 4188SOL    HW113463   4.482   6.566   6.957
 4188SOL    HW213464   4.371   6.675   6.911
 4189SOL     OW13465   4.284   5.182   3.590
 4189SOL    HW113466   4.340   5.230   3.523
 4189SOL    HW213467   4.309   5.085   3.591
 4190SOL     OW13468   6.391   6.525   1.506
 4190SOL    HW113469   6.362   6.569   1.421
 4190SOL    HW213470   6.491   6.526   1.511
 4191SOL     OW13471   4.687   3.273   6.514
 4191SOL    HW113472   4.673   3.193   6.456
 4191SOL    HW213473   4.613   3.278   6.582
 4192SOL     OW13474   1.607   3.835   0.183
 4192SOL    HW113475   1.576   3.915   0.235
 4192SOL    HW213476   1.532   3.799   0.129
 4193SOL     OW13477   0.286   0.538   0.184
 4193SOL    HW113478   0.264   0.583   0.098
 4193SOL    HW213479   0.382   0.509   0.183
 4194SOL     OW13480   5.384   1.678   5.924
 4194SOL    HW113481   5.472   1.688   5.877
 4194SOL    HW213482   5.400   1.661   6.022
 4195SOL     OW13483   3.423   6.977   0.917
 4195SOL    HW113484   3.491   6.906   0.932
 4195SOL    HW213485   3.408   6.988   0.818
 4196SOL     OW13486   6.183   3.006   2.325
 4196SOL    HW113487   6.276   2.988   2.291
 4196SOL    HW213488   6.159   2.937   2.393
 4197SOL     OW13489   3.297   0.539   6.820
 4197SOL    HW113490   3.242   0.549   6.903
 4197SOL    HW213491   3.294   0.625   6.769
 4198SOL     OW13492   6.670   2.629   2.625
 4198SOL    HW113493   6.716   2.566   2.562
 4198SOL    HW213494   6.669   2.590   2.717
 4199SOL     OW13495   0.447   3.964   6.194
 4199SOL    HW113496   0.532   3.915   6.211
 4199SOL    HW213497   0.385   3.951   6.271
 4200SOL     OW13498   4.501   1.977   4.142
 4200SOL    HW113499   4.516   2.066   4.186
 4200SOL    HW213500   4.403   1.957   4.139
 4201SOL     OW13501   5.831   6.998   3.624
 4201SOL    HW113502   5.814   6.933   3.699
 4201SOL    HW213503   5.923   6.983   3.588
 4202SOL     OW13504   4.616   3.749   1.283
 4202SOL    HW113505   4.554   3.766   1.359
 4202SOL    HW213506   4.662   3.835   1.257
 4203SOL     OW13507   6.418   4.497   5.316
 4203SOL    HW113508   6.391   4.415   5.266
 4203SOL    HW213509   6.417   4.477   5.414
 4204SOL     OW13510   1.667   4.231   6.994
 4204SOL    HW113511   1.672   4.236   6.894
 4204SOL    HW213512   1.742   4.175   0.003
 4205SOL     OW13513   4.568   6.565   6.283
 4205SOL    HW113514   4.583   6.515   6.197
 4205SOL    HW213515   4.469   6.575   6.298
 4206SOL     OW13516   1.903   2.246   3.940
 4206SOL    HW113517   1.873   2.329   3.986
 4206SOL    HW213518   1.984   2.266   3.885
 4207SOL     OW13519   0.791   2.021   2.319
 4207SOL    HW113520   0.767   2.087   2.247
 4207SOL    HW213521   0.707   1.985   2.360
 4208SOL     OW13522   2.124   2.185   3.736
 4208SOL    HW113523   2.155   2.153   3.646
 4208SOL    HW213524   2.115   2.284   3.736
 4209SOL     OW13525   6.802   6.541   2.132
 4209SOL    HW113526   6.819   6.456   2.182
 4209SOL    HW213527   6.760   6.520   2.044
 4210SOL     OW13528   2.939   3.859   5.039
 4210SOL    HW113529   2.933   3.761   5.021
 4210SOL    HW213530   2.871   3.884   5.109
 4211SOL     OW13531   3.961   2.845   5.269
 4211SOL    HW113532   4.039   2.784   5.284
 4211SOL    HW213533   3.926   2.876   5.358
 4212SOL     OW13534   0.205   2.007   3.018
 4212SOL    HW113535   0.267   2.057   2.958
 4212SOL    HW213536   0.112   2.011   2.982
 4213SOL     OW13537   2.998   0.114   4.190
 4213SOL    HW113538   3.076   0.068   4.148
 4213SOL    HW213539   3.031   0.190   4.245
 4214SOL     OW13540   6.852   6.131   3.031
 4214SOL    HW113541   6.830   6.216   2.984
 4214SOL    HW213542   6.933   6.089   2.990
 4215SOL     OW13543   5.616   6.979   5.796
 4215SOL    HW113544   5.548   7.001   5.726
 4215SOL    HW213545   5.639   6.882   5.791
 4216SOL     OW13546   2.418   5.524   1.932
 4216SOL    HW113547   2.484   5.566   1.994
 4216SOL    HW213548   2.338   5.495   1.983
 4217SOL     OW13549   1.251   0.118   2.805
 4217SOL    HW113550   1.271   0.209   2.841
 4217SOL    HW213551   1.167   0.084   2.846
 4218SOL     OW13552   3.005   0.947   0.309
 4218SOL    HW113553   3.014   1.040   0.274
 4218SOL    HW213554   2.924   0.904   0.270
 4219SOL     OW13555   3.924   5.539   2.758
 4219SOL    HW113556   3.906   5.590   2.842
 4219SOL    HW213557   3.838   5.510   2.717
 4220SOL     OW13558   5.630   1.533   1.237
 4220SOL    HW113559   5.532   1.554   1.227
 4220SOL    HW213560   5.651   1.521   1.334
 4221SOL     OW13561   1.238   6.408   0.586
 4221SOL    HW113562   1.312   6.389   0.522
 4221SOL    HW213563   1.239   6.506   0.609
 4222SOL     OW13564   4.900   3.290   3.977
 4222SOL    HW113565   4.879   3.385   4.003
 4222SOL    HW213566   4.899   3.232   4.059
 4223SOL     OW13567   3.993   3.698   2.353
 4223SOL    HW113568   4.032   3.618   2.398
 4223SOL    HW213569   3.972   3.768   2.421
 4224SOL     OW13570   4.453   5.197   4.475
 4224SOL    HW113571   4.424   5.149   4.558
 4224SOL    HW213572   4.373   5.229   4.425
 4225SOL     OW13573   1.105   1.874   6.154
 4225SOL    HW113574   1.119   1.910   6.061
 4225SOL    HW213575   1.189   1.886   6.207
 4226SOL     OW13576   0.803   5.416   4.916
 4226SOL    HW113577   0.737   5.341   4.911
 4226SOL    HW213578   0.779   5.477   4.992
 4227SOL     OW13579   5.045   5.532   1.707
 4227SOL    HW113580   5.053   5.583   1.793
 4227SOL    HW213581   5.014   5.439   1.726
 4228SOL     OW13582   1.603   4.634   4.116
 4228SOL    HW113583   1.645   4.664   4.202
 4228SOL    HW213584   1.513   4.596   4.134
 4229SOL     OW13585   5.845   5.577   5.698
 4229SOL    HW113586   5.838   5.507   5.769
 4229SOL    HW213587   5.941   5.590   5.672
 4230SOL     OW13588   0.233   1.132   1.736
 4230SOL    HW113589   0.209   1.046   1.781
 4230SOL    HW213590   0.242   1.117   1.637
 4231SOL     OW13591   0.081   1.886   6.515
 4231SOL    HW113592   0.147   1.823   6.473
 4231SOL    HW213593   0.068   1.964   6.454
 4232SOL     OW13594   1.682   5.131   4.108
 4232SOL    HW113595   1.778   5.130   4.135
 4232SOL    HW213596   1.671   5.181   4.023
 4233SOL     OW13597   4.441   5.665   1.940
 4233SOL    HW113598   4.493   5.744   1.974
 4233SOL    HW213599   4.344   5.678   1.961
 4234SOL     OW13600   3.441   5.131   5.905
 4234SOL    HW113601   3.461   5.226   5.928
 4234SOL    HW213602   3.396   5.127   5.816
 4235SOL     OW13603   0.226   5.865   6.087
 4235SOL    HW113604   0.138   5.912   6.094
 4235SOL    HW213605   0.236   5.828   5.994
 4236SOL     OW13606   0.571   5.391   2.682
 4236SOL    HW113607   0.635   5.379   2.758
 4236SOL    HW213608   0.590   5.477   2.635
 4237SOL     OW13609   0.395   4.610   4.245
 4237SOL    HW113610   0.355   4.695   4.211
 4237SOL    HW213611   0.333   4.534   4.225
 4238SOL     OW13612   3.519   6.596   2.338
 4238SOL    HW113613   3.443   6.600   2.273
 4238SOL    HW213614   3.495   6.538   2.415
 4239SOL     OW13615   4.346   1.332   3.865
 4239SOL    HW113616   4.349   1.306   3.962
 4239SOL    HW213617   4.414   1.403   3.848
 4240SOL     OW13618   6.018   6.809   2.224
 4240SOL    HW113619   6.022   6.900   2.265
 4240SOL    HW213620   5.922   6.781   2.214
 4241SOL     OW13621   6.143   4.159   0.576
 4241SOL    HW113622   6.153   4.257   0.595
 4241SOL    HW213623   6.155   4.108   0.661
 4242SOL     OW13624   3.048   1.697   3.306
 4242SOL    HW113625   3.114   1.723   3.236
 4242SOL    HW213626   2.963   1.750   3.293
 4243SOL     OW13627   4.756   0.765   3.083
 4243SOL    HW113628   4.708   0.790   2.999
 4243SOL    HW213629   4.695   0.711   3.141
 4244SOL     OW13630   3.377   2.911   4.196
 4244SOL    HW113631   3.437   2.846   4.150
 4244SOL    HW213632   3.424   2.949   4.276
 4245SOL     OW13633   5.398   0.600   6.883
 4245SOL    HW113634   5.437   0.509   6.895
 4245SOL    HW213635   5.405   0.651   6.969
 4246SOL     OW13636   0.119   3.547   0.105
 4246SOL    HW113637   0.101   3.466   0.050
 4246SOL    HW213638   0.209   3.539   0.149
 4247SOL     OW13639   0.314   5.658   4.949
 4247SOL    HW113640   0.386   5.727   4.941
 4247SOL    HW213641   0.316   5.617   5.040
 4248SOL     OW13642   2.240   3.891   5.773
 4248SOL    HW113643   2.191   3.963   5.823
 4248SOL    HW213644   2.253   3.919   5.679
 4249SOL     OW13645   5.663   4.323   5.860
 4249SOL    HW113646   5.666   4.386   5.938
 4249SOL    HW213647   5.583   4.344   5.804
 4250SOL     OW13648   0.940   4.964   2.911
 4250SOL    HW113649   1.030   4.983   2.871
 4250SOL    HW213650   0.951   4.943   3.008
 4251SOL     OW13651   5.448   3.732   0.322
 4251SOL    HW113652   5.405   3.814   0.283
 4251SOL    HW213653   5.378   3.673   0.361
 4252SOL     OW13654   0.364   5.969   5.164
 4252SOL    HW113655   0.283   5.919   5.131
 4252SOL    HW213656   0.375   5.953   5.262
 4253SOL     OW13657   4.376   6.456   3.011
 4253SOL    HW113658   4.324   6.400   3.076
 4253SOL    HW213659   4.358   6.426   2.918
 4254SOL     OW13660   2.859   4.190   1.538
 4254SOL    HW113661   2.914   4.261   1.581
 4254SOL    HW213662   2.764   4.222   1.529
 4255SOL     OW13663   0.230   2.133   4.423
 4255SOL    HW113664   0.295   2.178   4.484
 4255SOL    HW213665   0.222   2.037   4.448
 4256SOL     OW13666   2.067   0.667   1.613
 4256SOL    HW113667   2.062   0.655   1.712
 4256SOL    HW213668   2.149   0.718   1.590
 4257SOL     OW13669   4.118   2.270   4.809
 4257SOL    HW113670   4.198   2.252   4.866
 4257SOL    HW213671   4.076   2.357   4.837
 4258SOL     OW13672   5.201   6.773   2.112
 4258SOL    HW113673   5.173   6.720   2.031
 4258SOL    HW213674   5.141   6.750   2.188
 4259SOL     OW13675   1.935   2.519   1.058
 4259SOL    HW113676   1.918   2.615   1.080
 4259SOL    HW213677   2.022   2.511   1.010
 4260SOL     OW13678   4.486   5.812   3.435
 4260SOL    HW113679   4.483   5.717   3.404
 4260SOL    HW213680   4.520   5.815   3.529
 4261SOL     OW13681   2.034   1.518   2.859
 4261SOL    HW113682   1.958   1.492   2.800
 4261SOL    HW213683   2.056   1.442   2.921
 4262SOL     OW13684   6.996   5.860   6.640
 4262SOL    HW113685   0.028   5.875   6.560
 4262SOL    HW213686   7.002   5.940   6.700
 4263SOL     OW13687   3.940   5.315   5.988
 4263SOL    HW113688   3.873   5.311   6.062
 4263SOL    HW213689   3.972   5.223   5.967
 4264SOL     OW13690   0.222   0.007   0.705
 4264SOL    HW113691   0.269   6.991   0.783
 4264SOL    HW213692   0.283   0.072   0.660
 4265SOL     OW13693   0.201   2.483   0.192
 4265SOL    HW113694   0.276   2.529   0.240
 4265SOL    HW213695   0.173   2.402   0.244
 4266SOL     OW13696   3.362   4.872   1.202
 4266SOL    HW113697   3.453   4.860   1.164
 4266SOL    HW213698   3.325   4.783   1.229
 4267SOL     OW13699   2.034   4.329   5.949
 4267SOL    HW113700   2.074   4.404   5.897
 4267SOL    HW213701   1.996   4.363   6.035
 4268SOL     OW13702   1.462   1.112   0.327
 4268SOL    HW113703   1.434   1.132   0.421
 4268SOL    HW213704   1.561   1.115   0.321
 4269SOL     OW13705   2.961   3.830   0.801
 4269SOL    HW113706   2.989   3.887   0.724
 4269SOL    HW213707   2.971   3.733   0.776
 4270SOL     OW13708   3.619   2.921   5.594
 4270SOL    HW113709   3.606   2.958   5.686
 4270SOL    HW213710   3.557   2.844   5.580
 4271SOL     OW13711   1.085   6.761   6.937
 4271SOL    HW113712   0.997   6.782   6.980
 4271SOL    HW213713   1.081   6.783   6.840
 4272SOL     OW13714   6.835   4.222   3.518
 4272SOL    HW113715   6.779   4.171   3.453
 4272SOL    HW213716   6.786   4.305   3.546
 4273SOL     OW13717   5.552   6.014   4.693
 4273SOL    HW113718   5.479   5.961   4.734
 4273SOL    HW213719   5.517   6.065   4.614
 4274SOL     OW13720   2.010   0.198   3.831
 4274SOL    HW113721   2.071   0.150   3.894
 4274SOL    HW213722   2.008   0.296   3.854
 4275SOL     OW13723   1.072   6.743   6.655
 4275SOL    HW113724   1.078   6.649   6.686
 4275SOL    HW213725   1.065   6.745   6.555
 4276SOL     OW13726   1.730   4.190   2.264
 4276SOL    HW113727   1.639   4.215   2.230
 4276SOL    HW213728   1.732   4.091   2.282
 4277SOL     OW13729   0.892   5.093   3.964
 4277SOL    HW113730   0.851   5.184   3.973
 4277SOL    HW213731   0.970   5.086   4.026
 4278SOL     OW13732   0.511   6.327   5.269
 4278SOL    HW113733   0.518   6.227   5.275
 4278SOL    HW213734   0.571   6.360   5.196
 4279SOL     OW13735   3.319   5.671   4.198
 4279SOL    HW113736   3.307   5.751   4.256
 4279SOL    HW213737   3.256   5.599   4.228
 4280SOL     OW13738   4.909   3.400   3.420
 4280SOL    HW113739   4.934   3.390   3.516
 4280SOL    HW213740   4.860   3.487   3.408
 4281SOL     OW13741   2.477   3.842   5.437
 4281SOL    HW113742   2.468   3.872   5.341
 4281SOL    HW213743   2.396   3.790   5.463
 4282SOL     OW13744   0.815   2.830   1.142
 4282SOL    HW113745   0.803   2.909   1.202
 4282SOL    HW213746   0.780   2.851   1.051
 4283SOL     OW13747   2.116   0.304   4.177
 4283SOL    HW113748   2.212   0.332   4.183
 4283SOL    HW213749   2.108   0.225   4.116
 4284SOL     OW13750   6.333   2.105   2.798
 4284SOL    HW113751   6.303   2.079   2.890
 4284SOL    HW213752   6.428   2.076   2.784
 4285SOL     OW13753   0.965   6.241   5.496
 4285SOL    HW113754   0.970   6.309   5.569
 4285SOL    HW213755   0.922   6.158   5.529
 4286SOL     OW13756   5.817   5.619   6.831
 4286SOL    HW113757   5.790   5.532   6.788
 4286SOL    HW213758   5.846   5.601   6.925
 4287SOL     OW13759   4.213   6.696   4.893
 4287SOL    HW113760   4.297   6.651   4.924
 4287SOL    HW213761   4.134   6.649   4.930
 4288SOL     OW13762   1.663   6.490   2.682
 4288SOL    HW113763   1.640   6.394   2.692
 4288SOL    HW213764   1.738   6.513   2.745
 4289SOL     OW13765   5.605   3.556   0.780
 4289SOL    HW113766   5.673   3.598   0.839
 4289SOL    HW213767   5.572   3.623   0.713
 4290SOL     OW13768   2.134   1.127   2.268
 4290SOL    HW113769   2.080   1.110   2.186
 4290SOL    HW213770   2.203   1.055   2.279
 4291SOL     OW13771   6.168   4.861   1.149
 4291SOL    HW113772   6.069   4.862   1.138
 4291SOL    HW213773   6.198   4.768   1.170
 4292SOL     OW13774   6.027   5.700   6.031
 4292SOL    HW113775   6.047   5.691   6.129
 4292SOL    HW213776   6.077   5.631   5.979
 4293SOL     OW13777   0.062   2.542   6.741
 4293SOL    HW113778   0.108   2.457   6.715
 4293SOL    HW213779   0.083   2.563   6.836
 4294SOL     OW13780   4.887   2.628   6.064
 4294SOL    HW113781   4.958   2.683   6.019
 4294SOL    HW213782   4.874   2.542   6.014
 4295SOL     OW13783   3.975   6.727   4.639
 4295SOL    HW113784   3.995   6.629   4.636
 4295SOL    HW213785   4.027   6.774   4.568
 4296SOL     OW13786   2.011   1.484   0.832
 4296SOL    HW113787   1.982   1.570   0.876
 4296SOL    HW213788   2.057   1.505   0.746
 4297SOL     OW13789   5.809   0.932   6.255
 4297SOL    HW113790   5.721   0.888   6.236
 4297SOL    HW213791   5.831   0.922   6.352
 4298SOL     OW13792   2.982   5.336   1.191
 4298SOL    HW113793   2.952   5.275   1.264
 4298SOL    HW213794   3.013   5.281   1.113
 4299SOL     OW13795   0.906   4.013   6.675
 4299SOL    HW113796   0.998   4.051   6.665
 4299SOL    HW213797   0.848   4.044   6.600
 4300SOL     OW13798   5.932   0.344   6.340
 4300SOL    HW113799   5.843   0.347   6.385
 4300SOL    HW213800   5.938   0.263   6.282
 4301SOL     OW13801   2.544   1.438   0.473
 4301SOL    HW113802   2.610   1.463   0.545
 4301SOL    HW213803   2.594   1.401   0.394
 4302SOL     OW13804   0.984   6.521   0.143
 4302SOL    HW113805   0.992   6.602   0.202
 4302SOL    HW213806   0.920   6.540   0.068
 4303SOL     OW13807   0.244   3.342   1.863
 4303SOL    HW113808   0.267   3.439   1.861
 4303SOL    HW213809   0.186   3.323   1.943
 4304SOL     OW13810   3.153   2.996   4.699
 4304SOL    HW113811   3.119   3.003   4.793
 4304SOL    HW213812   3.236   2.940   4.697
 4305SOL     OW13813   6.520   1.291   4.285
 4305SOL    HW113814   6.429   1.297   4.324
 4305SOL    HW213815   6.527   1.353   4.206
 4306SOL     OW13816   6.457   6.037   5.818
 4306SOL    HW113817   6.473   6.031   5.719
 4306SOL    HW213818   6.361   6.058   5.834
 4307SOL     OW13819   4.948   3.199   6.574
 4307SOL    HW113820   4.877   3.263   6.544
 4307SOL    HW213821   4.905   3.120   6.617
 4308SOL     OW13822   4.452   6.549   4.925
 4308SOL    HW113823   4.427   6.478   4.991
 4308SOL    HW213824   4.474   6.507   4.837
 4309SOL     OW13825   1.353   1.552   0.651
 4309SOL    HW113826   1.312   1.609   0.723
 4309SOL    HW213827   1.340   1.596   0.562
 4310SOL     OW13828   1.242   0.973   2.420
 4310SOL    HW113829   1.308   0.999   2.491
 4310SOL    HW213830   1.150   0.970   2.459
 4311SOL     OW13831   1.567   6.009   4.009
 4311SOL    HW113832   1.652   5.984   4.056
 4311SOL    HW213833   1.539   5.933   3.949
 4312SOL     OW13834   2.144   5.423   2.400
 4312SOL    HW113835   2.064   5.396   2.453
 4312SOL    HW213836   2.180   5.344   2.351
 4313SOL     OW13837   4.821   0.505   1.895
 4313SOL    HW113838   4.842   0.463   1.806
 4313SOL    HW213839   4.904   0.543   1.934
 4314SOL     OW13840   4.881   3.453   2.756
 4314SOL    HW113841   4.923   3.523   2.814
 4314SOL    HW213842   4.893   3.477   2.660
 4315SOL     OW13843   2.334   1.832   2.022
 4315SOL    HW113844   2.291   1.871   2.104
 4315SOL    HW213845   2.348   1.734   2.035
 4316SOL     OW13846   6.935   0.340   2.433
 4316SOL    HW113847   6.924   0.427   2.384
 4316SOL    HW213848   6.970   0.272   2.369
 4317SOL     OW13849   3.943   0.749   3.038
 4317SOL    HW113850   3.901   0.838   3.057
 4317SOL    HW213851   4.012   0.730   3.108
 4318SOL     OW13852   0.511   2.768   4.095
 4318SOL    HW113853   0.556   2.817   4.020
 4318SOL    HW213854   0.419   2.804   4.107
 4319SOL     OW13855   2.537   3.541   5.740
 4319SOL    HW113856   2.476   3.472   5.778
 4319SOL    HW213857   2.558   3.610   5.809
 4320SOL     OW13858   0.441   6.307   2.839
 4320SOL    HW113859   0.486   6.279   2.754
 4320SOL    HW213860   0.396   6.395   2.826
 4321SOL     OW13861   0.981   0.547   5.015
 4321SOL    HW113862   0.964   0.641   4.986
 4321SOL    HW213863   0.910   0.517   5.078
 4322SOL     OW13864   5.512   1.063   0.390
 4322SOL    HW113865   5.582   0.992   0.374
 4322SOL    HW213866   5.422   1.023   0.377
 4323SOL     OW13867   6.655   2.596   4.009
 4323SOL    HW113868   6.731   2.613   3.947
 4323SOL    HW213869   6.686   2.539   4.085
 4324SOL     OW13870   6.164   4.042   5.831
 4324SOL    HW113871   6.092   3.995   5.780
 4324SOL    HW213872   6.243   4.056   5.772
 4325SOL     OW13873   1.798   1.930   5.776
 4325SOL    HW113874   1.882   1.982   5.792
 4325SOL    HW213875   1.792   1.856   5.842
 4326SOL     OW13876   6.161   2.011   5.832
 4326SOL    HW113877   6.092   2.015   5.903
 4326SOL    HW213878   6.177   1.915   5.806
 4327SOL     OW13879   5.595   0.258   3.135
 4327SOL    HW113880   5.595   0.178   3.195
 4327SOL    HW213881   5.665   0.322   3.166
 4328SOL     OW13882   5.346   5.241   0.564
 4328SOL    HW113883   5.360   5.329   0.610
 4328SOL    HW213884   5.349   5.254   0.465
 4329SOL     OW13885   3.701   1.386   5.875
 4329SOL    HW113886   3.669   1.360   5.784
 4329SOL    HW213887   3.751   1.473   5.869
 4330SOL     OW13888   0.711   0.238   6.606
 4330SOL    HW113889   0.709   0.329   6.565
 4330SOL    HW213890   0.765   0.176   6.550
 4331SOL     OW13891   5.696   2.887   0.754
 4331SOL    HW113892   5.712   2.900   0.656
 4331SOL    HW213893   5.741   2.803   0.785
 4332SOL     OW13894   5.468   3.456   1.185
 4332SOL    HW113895   5.496   3.417   1.097
 4332SOL    HW213896   5.377   3.497   1.176
 4333SOL     OW13897   5.554   1.753   5.522
 4333SOL    HW113898   5.496   1.672   5.515
 4333SOL    HW213899   5.505   1.832   5.485
 4334SOL     OW13900   4.386   1.101   1.937
 4334SOL    HW113901   4.466   1.052   1.970
 4334SOL    HW213902   4.310   1.087   2.000
 4335SOL     OW13903   3.733   3.872   5.338
 4335SOL    HW113904   3.668   3.817   5.286
 4335SOL    HW213905   3.685   3.924   5.408
 4336SOL     OW13906   1.691   6.371   4.247
 4336SOL    HW113907   1.618   6.406   4.305
 4336SOL    HW213908   1.700   6.428   4.166
 4337SOL     OW13909   0.471   4.980   0.716
 4337SOL    HW113910   0.564   4.945   0.717
 4337SOL    HW213911   0.443   5.004   0.809
 4338SOL     OW13912   6.509   6.320   3.704
 4338SOL    HW113913   6.455   6.260   3.645
 4338SOL    HW213914   6.586   6.357   3.652
 4339SOL     OW13915   6.231   0.960   6.454
 4339SOL    HW113916   6.249   0.966   6.356
 4339SOL    HW213917   6.313   0.987   6.504
 4340SOL     OW13918   4.925   2.874   1.852
 4340SOL    HW113919   4.857   2.877   1.925
 4340SOL    HW213920   4.961   2.966   1.835
 4341SOL     OW13921   0.418   4.237   0.083
 4341SOL    HW113922   0.368   4.159   0.121
 4341SOL    HW213923   0.437   4.304   0.155
 4342SOL     OW13924   7.006   2.998   3.074
 4342SOL    HW113925   0.001   2.961   3.164
 4342SOL    HW213926   6.920   3.049   3.078
 4343SOL     OW13927   2.485   1.920   1.390
 4343SOL    HW113928   2.427   1.854   1.343
 4343SOL    HW213929   2.429   1.975   1.453
 4344SOL     OW13930   2.288   4.067   2.942
 4344SOL    HW113931   2.324   4.119   2.864
 4344SOL    HW213932   2.241   3.986   2.909
 4345SOL     OW13933   2.223   1.916   6.053
 4345SOL    HW113934   2.217   1.983   5.979
 4345SOL    HW213935   2.219   1.963   6.141
 4346SOL     OW13936   0.905   2.807   1.458
 4346SOL    HW113937   0.976   2.813   1.387
 4346SOL    HW213938   0.948   2.816   1.548
 4347SOL     OW13939   6.392   5.543   2.878
 4347SOL    HW113940   6.456   5.568   2.951
 4347SOL    HW213941   6.382   5.619   2.814
 4348SOL     OW13942   0.736   3.832   6.963
 4348SOL    HW113943   0.700   3.868   6.877
 4348SOL    HW213944   0.749   3.908   0.002
 4349SOL     OW13945   6.979   0.037   3.374
 4349SOL    HW113946   7.005   0.093   3.296
 4349SOL    HW213947   6.919   6.988   3.344
 4350SOL     OW13948   5.347   1.487   4.103
 4350SOL    HW113949   5.285   1.437   4.163
 4350SOL    HW213950   5.316   1.582   4.094
 4351SOL     OW13951   3.132   6.653   0.700
 4351SOL    HW113952   3.063   6.722   0.680
 4351SOL    HW213953   3.222   6.696   0.706
 4352SOL     OW13954   6.448   1.164   1.987
 4352SOL    HW113955   6.490   1.254   1.976
 4352SOL    HW213956   6.415   1.132   1.898
 4353SOL     OW13957   3.394   5.477   0.637
 4353SOL    HW113958   3.457   5.400   0.629
 4353SOL    HW213959   3.327   5.458   0.710
 4354SOL     OW13960   1.655   0.239   1.271
 4354SOL    HW113961   1.719   0.205   1.339
 4354SOL    HW213962   1.628   0.333   1.294
 4355SOL     OW13963   4.748   1.114   0.973
 4355SOL    HW113964   4.847   1.119   0.968
 4355SOL    HW213965   4.708   1.181   0.911
 4356SOL     OW13966   4.135   4.237   0.298
 4356SOL    HW113967   4.068   4.164   0.282
 4356SOL    HW213968   4.225   4.208   0.264
 4357SOL     OW13969   6.381   1.064   6.663
 4357SOL    HW113970   6.384   1.093   6.759
 4357SOL    HW213971   6.458   1.003   6.644
 4358SOL     OW13972   0.324   0.255   1.594
 4358SOL    HW113973   0.408   0.202   1.606
 4358SOL    HW213974   0.264   0.241   1.672
 4359SOL     OW13975   6.179   2.619   4.216
 4359SOL    HW113976   6.266   2.659   4.185
 4359SOL    HW213977   6.109   2.690   4.219
 4360SOL     OW13978   2.279   3.255   0.861
 4360SOL    HW113979   2.366   3.212   0.838
 4360SOL    HW213980   2.239   3.209   0.940
 4361SOL     OW13981   5.031   1.673   2.192
 4361SOL    HW113982   5.006   1.767   2.213
 4361SOL    HW213983   5.025   1.618   2.276
 4362SOL     OW13984   5.735   4.828   4.120
 4362SOL    HW113985   5.801   4.890   4.163
 4362SOL    HW213986   5.706   4.759   4.187
 4363SOL     OW13987   5.261   1.539   5.713
 4363SOL    HW113988   5.303   1.579   5.795
 4363SOL    HW213989   5.190   1.474   5.741
 4364SOL     OW13990   3.502   3.429   4.982
 4364SOL    HW113991   3.427   3.489   5.010
 4364SOL    HW213992   3.509   3.352   5.046
 4365SOL     OW13993   2.834   1.484   1.379
 4365SOL    HW113994   2.765   1.522   1.440
 4365SOL    HW213995   2.814   1.387   1.362
 4366SOL     OW13996   5.487   5.290   1.222
 4366SOL    HW113997   5.519   5.347   1.298
 4366SOL    HW213998   5.448   5.205   1.257
 4367SOL     OW13999   0.590   6.481   0.213
 4367SOL    HW114000   0.678   6.527   0.227
 4367SOL    HW214001   0.606   6.390   0.175
 4368SOL     OW14002   5.206   3.640   1.777
 4368SOL    HW114003   5.154   3.574   1.832
 4368SOL    HW214004   5.303   3.636   1.802
 4369SOL     OW14005   3.061   5.922   1.713
 4369SOL    HW114006   3.152   5.955   1.736
 4369SOL    HW214007   3.068   5.842   1.653
 4370SOL     OW14008   5.668   5.526   2.743
 4370SOL    HW114009   5.746   5.466   2.727
 4370SOL    HW214010   5.617   5.494   2.823
 4371SOL     OW14011   0.053   1.810   2.444
 4371SOL    HW114012   6.995   1.860   2.468
 4371SOL    HW214013   0.079   1.833   2.350
 4372SOL     OW14014   4.777   6.745   3.569
 4372SOL    HW114015   4.711   6.784   3.504
 4372SOL    HW214016   4.810   6.658   3.534
 4373SOL     OW14017   0.234   1.723   6.284
 4373SOL    HW114018   0.151   1.670   6.303
 4373SOL    HW214019   0.266   1.703   6.191
 4374SOL     OW14020   2.954   2.219   1.009
 4374SOL    HW114021   2.929   2.166   0.928
 4374SOL    HW214022   2.921   2.313   0.999
 4375SOL     OW14023   3.235   6.768   4.267
 4375SOL    HW114024   3.180   6.803   4.344
 4375SOL    HW214025   3.285   6.844   4.225
 4376SOL     OW14026   6.248   1.710   4.225
 4376SOL    HW114027   6.348   1.712   4.224
 4376SOL    HW214028   6.214   1.717   4.132
 4377SOL     OW14029   5.849   5.164   6.559
 4377SOL    HW114030   5.806   5.080   6.590
 4377SOL    HW214031   5.805   5.243   6.602
 4378SOL     OW14032   2.265   1.222   3.495
 4378SOL    HW114033   2.204   1.283   3.444
 4378SOL    HW214034   2.351   1.213   3.444
 4379SOL     OW14035   2.758   2.069   5.265
 4379SOL    HW114036   2.743   2.052   5.168
 4379SOL    HW214037   2.707   2.149   5.294
 4380SOL     OW14038   0.659   1.319   2.040
 4380SOL    HW114039   0.727   1.246   2.050
 4380SOL    HW214040   0.569   1.279   2.022
 4381SOL     OW14041   1.719   5.938   6.339
 4381SOL    HW114042   1.754   5.846   6.358
 4381SOL    HW214043   1.717   5.991   6.423
 4382SOL     OW14044   0.017   3.951   5.058
 4382SOL    HW114045   6.948   3.982   5.049
 4382SOL    HW214046   0.028   3.864   5.010
 4383SOL     OW14047   6.688   3.424   6.724
 4383SOL    HW114048   6.621   3.386   6.660
 4383SOL    HW214049   6.780   3.401   6.694
 4384SOL     OW14050   5.854   6.735   3.748
 4384SOL    HW114051   5.821   6.653   3.702
 4384SOL    HW214052   5.945   6.718   3.786
 4385SOL     OW14053   4.258   1.492   5.223
 4385SOL    HW114054   4.205   1.450   5.149
 4385SOL    HW214055   4.229   1.587   5.236
 4386SOL     OW14056   2.034   3.709   5.070
 4386SOL    HW114057   2.049   3.736   4.975
 4386SOL    HW214058   1.955   3.758   5.107
 4387SOL     OW14059   6.514   1.875   0.428
 4387SOL    HW114060   6.504   1.779   0.400
 4387SOL    HW214061   6.606   1.906   0.406
 4388SOL     OW14062   5.075   3.560   6.655
 4388SOL    HW114063   5.086   3.572   6.557
 4388SOL    HW214064   5.045   3.466   6.673
 4389SOL     OW14065   0.719   3.325   0.986
 4389SOL    HW114066   0.707   3.412   1.034
 4389SOL    HW214067   0.657   3.322   0.907
 4390SOL     OW14068   6.645   1.342   0.741
 4390SOL    HW114069   6.631   1.303   0.650
 4390SOL    HW214070   6.659   1.268   0.807
 4391SOL     OW14071   1.473   5.933   0.788
 4391SOL    HW114072   1.463   6.026   0.824
 4391SOL    HW214073   1.515   5.875   0.859
 4392SOL     OW14074   1.533   2.955   5.469
 4392SOL    HW114075   1.584   2.953   5.556
 4392SOL    HW214076   1.444   2.997   5.485
 4393SOL     OW14077   5.024   0.637   2.020
 4393SOL    HW114078   5.105   0.629   1.962
 4393SOL    HW214079   5.010   0.733   2.046
 4394SOL     OW14080   1.344   0.623   2.185
 4394SOL    HW114081   1.247   0.638   2.201
 4394SOL    HW214082   1.357   0.548   2.120
 4395SOL     OW14083   2.641   5.144   1.530
 4395SOL    HW114084   2.646   5.134   1.629
 4395SOL    HW214085   2.654   5.241   1.506
 4396SOL     OW14086   2.959   0.490   3.007
 4396SOL    HW114087   2.997   0.414   3.060
 4396SOL    HW214088   2.978   0.576   3.055
 4397SOL     OW14089   3.191   1.590   4.522
 4397SOL    HW114090   3.207   1.550   4.432
 4397SOL    HW214091   3.270   1.574   4.581
 4398SOL     OW14092   2.037   2.992   5.336
 4398SOL    HW114093   1.953   2.950   5.371
 4398SOL    HW214094   2.091   2.923   5.288
 4399SOL     OW14095   2.691   6.388   1.900
 4399SOL    HW114096   2.694   6.333   1.983
 4399SOL    HW214097   2.782   6.391   1.859
 4400SOL     OW14098   2.098   5.636   4.595
 4400SOL    HW114099   2.089   5.603   4.501
 4400SOL    HW214100   2.040   5.581   4.655
 4401SOL     OW14101   3.251   6.630   0.006
 4401SOL    HW114102   3.174   6.582   0.049
 4401SOL    HW214103   3.259   6.601   6.936
 4402SOL     OW14104   1.775   0.480   3.178
 4402SOL    HW114105   1.725   0.563   3.152
 4402SOL    HW214106   1.872   0.491   3.157
 4403SOL     OW14107   0.974   5.094   2.057
 4403SOL    HW114108   0.951   5.015   2.114
 4403SOL    HW214109   0.894   5.123   2.006
 4404SOL     OW14110   0.220   6.701   6.048
 4404SOL    HW114111   0.264   6.618   6.083
 4404SOL    HW214112   0.287   6.755   5.997
 4405SOL     OW14113   1.971   5.637   2.630
 4405SOL    HW114114   2.053   5.633   2.574
 4405SOL    HW214115   1.990   5.593   2.719
 4406SOL     OW14116   5.552   4.127   2.283
 4406SOL    HW114117   5.583   4.207   2.334
 4406SOL    HW214118   5.504   4.156   2.201
 4407SOL     OW14119   6.202   6.698   2.042
 4407SOL    HW114120   6.269   6.772   2.045
 4407SOL    HW214121   6.121   6.725   2.094
 4408SOL     OW14122   4.173   0.936   0.436
 4408SOL    HW114123   4.218   1.020   0.405
 4408SOL    HW214124   4.125   0.893   0.360
 4409SOL     OW14125   2.858   0.391   3.383
 4409SOL    HW114126   2.840   0.489   3.389
 4409SOL    HW214127   2.948   0.371   3.424
 4410SOL     OW14128   0.506   6.529   1.137
 4410SOL    HW114129   0.570   6.488   1.073
 4410SOL    HW214130   0.511   6.628   1.130
 4411SOL     OW14131   3.697   4.637   5.398
 4411SOL    HW114132   3.737   4.553   5.362
 4411SOL    HW214133   3.598   4.628   5.402
 4412SOL     OW14134   4.649   6.230   2.711
 4412SOL    HW114135   4.622   6.179   2.629
 4412SOL    HW214136   4.567   6.259   2.761
 4413SOL     OW14137   4.696   6.177   3.942
 4413SOL    HW114138   4.617   6.222   3.900
 4413SOL    HW214139   4.715   6.091   3.895
 4414SOL     OW14140   4.898   3.836   1.466
 4414SOL    HW114141   4.831   3.813   1.537
 4414SOL    HW214142   4.849   3.856   1.381
 4415SOL     OW14143   2.311   2.788   1.825
 4415SOL    HW114144   2.302   2.888   1.823
 4415SOL    HW214145   2.402   2.762   1.793
 4416SOL     OW14146   4.953   2.315   3.496
 4416SOL    HW114147   4.937   2.261   3.579
 4416SOL    HW214148   4.869   2.364   3.472
 4417SOL     OW14149   6.738   4.366   2.284
 4417SOL    HW114150   6.673   4.390   2.212
 4417SOL    HW214151   6.797   4.291   2.252
 4418SOL     OW14152   6.213   6.726   5.650
 4418SOL    HW114153   6.299   6.689   5.685
 4418SOL    HW214154   6.232   6.807   5.595
 4419SOL     OW14155   6.652   5.517   6.590
 4419SOL    HW114156   6.597   5.477   6.517
 4419SOL    HW214157   6.598   5.520   6.675
 4420SOL     OW14158   3.627   2.288   0.766
 4420SOL    HW114159   3.586   2.231   0.838
 4420SOL    HW214160   3.616   2.384   0.791
 4421SOL     OW14161   1.678   2.455   0.119
 4421SOL    HW114162   1.595   2.450   0.174
 4421SOL    HW214163   1.740   2.381   0.147
 4422SOL     OW14164   6.486   3.546   6.370
 4422SOL    HW114165   6.520   3.480   6.302
 4422SOL    HW214166   6.432   3.497   6.439
 4423SOL     OW14167   6.129   4.354   4.911
 4423SOL    HW114168   6.102   4.445   4.879
 4423SOL    HW214169   6.138   4.292   4.833
 4424SOL     OW14170   4.950   5.810   2.378
 4424SOL    HW114171   5.038   5.855   2.391
 4424SOL    HW214172   4.905   5.845   2.296
 4425SOL     OW14173   1.488   5.207   1.211
 4425SOL    HW114174   1.472   5.180   1.305
 4425SOL    HW214175   1.402   5.201   1.159
 4426SOL     OW14176   0.760   0.395   4.637
 4426SOL    HW114177   0.682   0.456   4.629
 4426SOL    HW214178   0.728   0.303   4.661
 4427SOL     OW14179   2.576   5.628   2.103
 4427SOL    HW114180   2.532   5.597   2.188
 4427SOL    HW214181   2.559   5.725   2.090
 4428SOL     OW14182   5.865   5.974   4.053
 4428SOL    HW114183   5.804   5.934   4.121
 4428SOL    HW214184   5.827   6.061   4.021
 4429SOL     OW14185   2.956   6.047   3.374
 4429SOL    HW114186   2.945   5.990   3.292
 4429SOL    HW214187   2.947   6.143   3.349
 4430SOL     OW14188   5.349   3.663   5.118
 4430SOL    HW114189   5.361   3.734   5.187
 4430SOL    HW214190   5.302   3.585   5.159
 4431SOL     OW14191   3.813   6.689   4.216
 4431SOL    HW114192   3.740   6.647   4.269
 4431SOL    HW214193   3.782   6.704   4.122
 4432SOL     OW14194   0.657   3.766   6.203
 4432SOL    HW114195   0.635   3.713   6.121
 4432SOL    HW214196   0.650   3.708   6.284
 4433SOL     OW14197   1.326   0.888   5.736
 4433SOL    HW114198   1.283   0.968   5.778
 4433SOL    HW214199   1.339   0.817   5.806
 4434SOL     OW14200   0.338   0.500   2.542
 4434SOL    HW114201   0.265   0.465   2.599
 4434SOL    HW214202   0.329   0.462   2.450
 4435SOL     OW14203   2.784   4.314   0.551
 4435SOL    HW114204   2.703   4.348   0.504
 4435SOL    HW214205   2.759   4.239   0.612
 4436SOL     OW14206   4.377   1.833   1.544
 4436SOL    HW114207   4.356   1.740   1.513
 4436SOL    HW214208   4.410   1.829   1.638
 4437SOL     OW14209   6.631   4.419   0.082
 4437SOL    HW114210   6.690   4.369   0.145
 4437SOL    HW214211   6.536   4.412   0.112
 4438SOL     OW14212   3.881   0.562   5.552
 4438SOL    HW114213   3.897   0.613   5.636
 4438SOL    HW214214   3.785   0.534   5.548
 4439SOL     OW14215   2.723   6.523   2.791
 4439SOL    HW114216   2.697   6.427   2.795
 4439SOL    HW214217   2.821   6.532   2.806
 4440SOL     OW14218   1.557   4.827   6.899
 4440SOL    HW114219   1.491   4.803   6.828
 4440SOL    HW214220   1.530   4.913   6.942
 4441SOL     OW14221   6.967   2.139   0.923
 4441SOL    HW114222   7.021   2.217   0.956
 4441SOL    HW214223   6.933   2.087   1.001
 4442SOL     OW14224   2.364   5.587   6.769
 4442SOL    HW114225   2.372   5.571   6.867
 4442SOL    HW214226   2.344   5.501   6.722
 4443SOL     OW14227   0.980   5.672   6.008
 4443SOL    HW114228   0.969   5.573   6.005
 4443SOL    HW214229   1.034   5.697   6.088
 4444SOL     OW14230   6.120   5.322   0.066
 4444SOL    HW114231   6.162   5.359   0.149
 4444SOL    HW214232   6.169   5.239   0.037
 4445SOL     OW14233   0.704   4.809   0.638
 4445SOL    HW114234   0.739   4.720   0.611
 4445SOL    HW214235   0.677   4.861   0.557
 4446SOL     OW14236   4.829   1.753   1.250
 4446SOL    HW114237   4.732   1.744   1.269
 4446SOL    HW214238   4.848   1.722   1.157
 4447SOL     OW14239   4.379   5.752   5.313
 4447SOL    HW114240   4.304   5.710   5.366
 4447SOL    HW214241   4.340   5.802   5.235
 4448SOL     OW14242   3.970   6.384   1.493
 4448SOL    HW114243   3.964   6.317   1.567
 4448SOL    HW214244   3.915   6.464   1.516
 4449SOL     OW14245   3.426   1.368   5.499
 4449SOL    HW114246   3.420   1.330   5.591
 4449SOL    HW214247   3.519   1.356   5.463
 4450SOL     OW14248   2.707   6.856   0.156
 4450SOL    HW114249   2.738   6.931   0.215
 4450SOL    HW214250   2.627   6.812   0.197
 4451SOL     OW14251   4.809   5.357   3.411
 4451SOL    HW114252   4.823   5.453   3.388
 4451SOL    HW214253   4.812   5.302   3.328
 4452SOL     OW14254   4.709   6.211   4.204
 4452SOL    HW114255   4.665   6.207   4.114
 4452SOL    HW214256   4.749   6.122   4.225
 4453SOL     OW14257   6.531   4.495   0.473
 4453SOL    HW114258   6.567   4.478   0.565
 4453SOL    HW214259   6.606   4.527   0.414
 4454SOL     OW14260   1.308   2.938   0.788
 4454SOL    HW114261   1.256   2.959   0.870
 4454SOL    HW214262   1.267   2.985   0.710
 4455SOL     OW14263   1.067   0.050   5.131
 4455SOL    HW114264   0.975   0.076   5.102
 4455SOL    HW214265   1.084   6.980   5.107
 4456SOL     OW14266   2.505   6.994   4.702
 4456SOL    HW114267   2.426   0.008   4.655
 4456SOL    HW214268   2.568   6.957   4.634
 4457SOL     OW14269   1.615   1.776   4.241
 4457SOL    HW114270   1.574   1.742   4.326
 4457SOL    HW214271   1.687   1.841   4.263
 4458SOL     OW14272   1.022   3.697   7.008
 4458SOL    HW114273   1.074   3.749   6.940
 4458SOL    HW214274   0.927   3.689   6.978
 4459SOL     OW14275   0.501   2.858   3.461
 4459SOL    HW114276   0.532   2.928   3.397
 4459SOL    HW214277   0.466   2.902   3.544
 4460SOL     OW14278   0.051   2.249   4.777
 4460SOL    HW114279   0.145   2.216   4.787
 4460SOL    HW214280   0.027   2.305   4.856
 4461SOL     OW14281   1.878   0.677   0.770
 4461SOL    HW114282   1.959   0.711   0.818
 4461SOL    HW214283   1.887   0.696   0.673
 4462SOL     OW14284   6.689   3.873   3.103
 4462SOL    HW114285   6.742   3.939   3.157
 4462SOL    HW214286   6.718   3.877   3.008
 4463SOL     OW14287   5.493   1.964   0.771
 4463SOL    HW114288   5.481   2.042   0.710
 4463SOL    HW214289   5.588   1.932   0.766
 4464SOL     OW14290   0.243   4.286   1.510
 4464SOL    HW114291   0.155   4.331   1.530
 4464SOL    HW214292   0.226   4.201   1.460
 4465SOL     OW14293   3.634   5.738   1.770
 4465SOL    HW114294   3.699   5.759   1.697
 4465SOL    HW214295   3.555   5.691   1.731
 4466SOL     OW14296   1.450   2.319   2.112
 4466SOL    HW114297   1.430   2.224   2.135
 4466SOL    HW214298   1.365   2.366   2.088
 4467SOL     OW14299   5.378   5.359   2.740
 4467SOL    HW114300   5.322   5.441   2.735
 4467SOL    HW214301   5.473   5.384   2.760
 4468SOL     OW14302   1.910   3.188   1.365
 4468SOL    HW114303   1.884   3.230   1.452
 4468SOL    HW214304   1.927   3.259   1.298
 4469SOL     OW14305   2.599   6.097   1.664
 4469SOL    HW114306   2.521   6.045   1.630
 4469SOL    HW214307   2.678   6.080   1.605
 4470SOL     OW14308   1.846   6.930   2.999
 4470SOL    HW114309   1.826   7.002   3.066
 4470SOL    HW214310   1.775   6.928   2.930
 4471SOL     OW14311   0.878   0.062   6.436
 4471SOL    HW114312   0.824   0.020   6.364
 4471SOL    HW214313   0.887   7.025   6.513
 4472SOL     OW14314   1.757   2.728   0.739
 4472SOL    HW114315   1.744   2.652   0.803
 4472SOL    HW214316   1.668   2.758   0.705
 4473SOL     OW14317   0.414   2.709   4.794
 4473SOL    HW114318   0.346   2.672   4.857
 4473SOL    HW214319   0.375   2.788   4.746
 4474SOL     OW14320   3.364   5.975   0.944
 4474SOL    HW114321   3.365   5.917   0.863
 4474SOL    HW214322   3.269   5.990   0.972
 4475SOL     OW14323   1.064   3.920   0.995
 4475SOL    HW114324   1.117   3.924   0.910
 4475SOL    HW214325   0.986   3.859   0.982
 4476SOL     OW14326   5.338   0.825   4.073
 4476SOL    HW114327   5.275   0.762   4.028
 4476SOL    HW214328   5.372   0.892   4.007
 4477SOL     OW14329   0.929   0.811   4.894
 4477SOL    HW114330   0.921   0.787   4.798
 4477SOL    HW214331   0.890   0.902   4.910
 4478SOL     OW14332   1.643   6.894   1.420
 4478SOL    HW114333   1.738   6.915   1.396
 4478SOL    HW214334   1.615   6.949   1.498
 4479SOL     OW14335   1.790   2.143   6.663
 4479SOL    HW114336   1.859   2.088   6.617
 4479SOL    HW214337   1.721   2.172   6.597
 4480SOL     OW14338   1.123   6.768   3.855
 4480SOL    HW114339   1.039   6.752   3.803
 4480SOL    HW214340   1.193   6.805   3.794
 4481SOL     OW14341   2.088   4.048   6.211
 4481SOL    HW114342   2.002   4.089   6.242
 4481SOL    HW214343   2.091   3.952   6.240
 4482SOL     OW14344   2.467   6.901   1.723
 4482SOL    HW114345   2.520   6.890   1.807
 4482SOL    HW214346   2.381   6.850   1.731
 4483SOL     OW14347   1.380   3.799   0.785
 4483SOL    HW114348   1.396   3.813   0.687
 4483SOL    HW214349   1.460   3.831   0.836
 4484SOL     OW14350   2.378   1.166   6.857
 4484SOL    HW114351   2.387   1.067   6.865
 4484SOL    HW214352   2.369   1.206   6.949
 4485SOL     OW14353   6.603   2.420   5.088
 4485SOL    HW114354   6.669   2.380   5.152
 4485SOL    HW214355   6.651   2.447   5.004
 4486SOL     OW14356   4.852   5.066   4.552
 4486SOL    HW114357   4.947   5.040   4.539
 4486SOL    HW214358   4.793   4.988   4.531
 4487SOL     OW14359   0.698   2.845   6.854
 4487SOL    HW114360   0.611   2.881   6.889
 4487SOL    HW214361   0.700   2.746   6.862
 4488SOL     OW14362   0.022   4.000   3.217
 4488SOL    HW114363   6.987   3.945   3.273
 4488SOL    HW214364   0.049   4.083   3.267
 4489SOL     OW14365   4.188   6.443   6.026
 4489SOL    HW114366   4.211   6.346   6.033
 4489SOL    HW214367   4.240   6.494   6.095
 4490SOL     OW14368   5.271   1.462   1.845
 4490SOL    HW114369   5.297   1.416   1.930
 4490SOL    HW214370   5.346   1.521   1.814
 4491SOL     OW14371   0.779   3.005   3.060
 4491SOL    HW114372   0.872   2.982   3.089
 4491SOL    HW214373   0.768   3.104   3.059
 4492SOL     OW14374   0.153   0.907   2.389
 4492SOL    HW114375   0.146   0.964   2.471
 4492SOL    HW214376   0.145   0.966   2.308
 4493SOL     OW14377   5.488   1.309   5.831
 4493SOL    HW114378   5.580   1.334   5.802
 4493SOL    HW214379   5.480   1.319   5.930
 4494SOL     OW14380   1.546   0.266   1.809
 4494SOL    HW114381   1.619   0.334   1.816
 4494SOL    HW214382   1.522   0.233   1.900
 4495SOL     OW14383   4.416   6.495   0.995
 4495SOL    HW114384   4.354   6.435   0.945
 4495SOL    HW214385   4.445   6.570   0.936
 4496SOL     OW14386   2.845   6.289   5.779
 4496SOL    HW114387   2.772   6.322   5.718
 4496SOL    HW214388   2.928   6.342   5.764
 4497SOL     OW14389   3.430   1.254   5.770
 4497SOL    HW114390   3.339   1.218   5.748
 4497SOL    HW214391   3.443   1.253   5.869
 4498SOL     OW14392   0.194   4.836   4.750
 4498SOL    HW114393   0.112   4.800   4.794
 4498SOL    HW214394   0.175   4.926   4.711
 4499SOL     OW14395   5.569   1.213   2.057
 4499SOL    HW114396   5.490   1.249   2.106
 4499SOL    HW214397   5.623   1.289   2.021
 4500SOL     OW14398   4.212   5.922   0.530
 4500SOL    HW114399   4.152   5.874   0.466
 4500SOL    HW214400   4.270   5.857   0.578
 4501SOL     OW14401   6.180   0.635   2.432
 4501SOL    HW114402   6.153   0.579   2.354
 4501SOL    HW214403   6.227   0.577   2.499
 4502SOL     OW14404   0.031   3.553   6.523
 4502SOL    HW114405   0.087   3.583   6.600
 4502SOL    HW214406   0.082   3.562   6.438
 4503SOL     OW14407   3.443   1.615   2.883
 4503SOL    HW114408   3.367   1.569   2.836
 4503SOL    HW214409   3.431   1.605   2.982
 4504SOL     OW14410   0.759   2.566   2.422
 4504SOL    HW114411   0.691   2.511   2.471
 4504SOL    HW214412   0.770   2.654   2.468
 4505SOL     OW14413   5.693   3.635   3.530
 4505SOL    HW114414   5.619   3.610   3.467
 4505SOL    HW214415   5.756   3.558   3.540
 4506SOL     OW14416   5.053   2.854   5.960
 4506SOL    HW114417   5.042   2.951   5.938
 4506SOL    HW214418   5.072   2.844   6.058
 4507SOL     OW14419   6.360   1.926   3.622
 4507SOL    HW114420   6.285   1.909   3.558
 4507SOL    HW214421   6.447   1.926   3.573
 4508SOL     OW14422   0.170   4.642   0.408
 4508SOL    HW114423   0.157   4.691   0.322
 4508SOL    HW214424   0.185   4.708   0.482
 4509SOL     OW14425   5.117   2.589   2.185
 4509SOL    HW114426   5.207   2.623   2.214
 4509SOL    HW214427   5.055   2.666   2.172
 4510SOL     OW14428   4.168   1.305   4.998
 4510SOL    HW114429   4.267   1.298   5.005
 4510SOL    HW214430   4.144   1.376   4.931
 4511SOL     OW14431   6.786   4.940   6.805
 4511SOL    HW114432   6.699   4.985   6.827
 4511SOL    HW214433   6.834   4.992   6.735
 4512SOL     OW14434   3.072   3.226   5.392
 4512SOL    HW114435   3.007   3.301   5.405
 4512SOL    HW214436   3.022   3.143   5.367
 4513SOL     OW14437   0.312   6.685   0.724
 4513SOL    HW114438   0.399   6.668   0.770
 4513SOL    HW214439   0.289   6.782   0.729
 4514SOL     OW14440   4.164   4.833   0.072
 4514SOL    HW114441   4.196   4.878   0.155
 4514SOL    HW214442   4.064   4.834   0.070
 4515SOL     OW14443   3.604   1.040   6.689
 4515SOL    HW114444   3.659   0.961   6.716
 4515SOL    HW214445   3.658   1.123   6.697
 4516SOL     OW14446   2.978   2.505   5.615
 4516SOL    HW114447   2.977   2.406   5.603
 4516SOL    HW214448   3.027   2.548   5.538
 4517SOL     OW14449   4.394   1.036   5.459
 4517SOL    HW114450   4.379   1.055   5.362
 4517SOL    HW214451   4.326   0.970   5.491
 4518SOL     OW14452   0.669   6.379   0.941
 4518SOL    HW114453   0.627   6.295   0.907
 4518SOL    HW214454   0.766   6.379   0.918
 4519SOL     OW14455   4.725   6.672   0.129
 4519SOL    HW114456   4.769   6.622   0.203
 4519SOL    HW214457   4.771   6.651   0.042
 4520SOL     OW14458   4.471   5.549   5.169
 4520SOL    HW114459   4.450   5.620   5.237
 4520SOL    HW214460   4.566   5.558   5.141
 4521SOL     OW14461   4.280   2.288   4.371
 4521SOL    HW114462   4.234   2.200   4.374
 4521SOL    HW214463   4.230   2.350   4.310
 4522SOL     OW14464   5.591   3.840   3.403
 4522SOL    HW114465   5.642   3.919   3.369
 4522SOL    HW214466   5.647   3.792   3.470
 4523SOL     OW14467   6.836   2.866   5.932
 4523SOL    HW114468   6.809   2.936   5.865
 4523SOL    HW214469   6.922   2.824   5.903
 4524SOL     OW14470   1.884   3.590   2.393
 4524SOL    HW114471   1.907   3.640   2.477
 4524SOL    HW214472   1.964   3.587   2.333
 4525SOL     OW14473   3.488   2.704   5.634
 4525SOL    HW114474   3.510   2.632   5.569
 4525SOL    HW214475   3.518   2.677   5.725
 4526SOL     OW14476   1.213   0.048   5.389
 4526SOL    HW114477   1.149   0.046   5.466
 4526SOL    HW214478   1.162   0.055   5.303
 4527SOL     OW14479   0.722   1.719   2.665
 4527SOL    HW114480   0.813   1.734   2.625
 4527SOL    HW214481   0.657   1.783   2.623
 4528SOL     OW14482   4.978   0.696   4.985
 4528SOL    HW114483   4.973   0.786   4.941
 4528SOL    HW214484   5.047   0.697   5.056
 4529SOL     OW14485   2.341   1.478   3.724
 4529SOL    HW114486   2.251   1.513   3.747
 4529SOL    HW214487   2.332   1.387   3.684
 4530SOL     OW14488   4.184   5.843   6.592
 4530SOL    HW114489   4.147   5.871   6.504
 4530SOL    HW214490   4.191   5.922   6.652
 4531SOL     OW14491   1.843   6.203   5.155
 4531SOL    HW114492   1.937   6.235   5.148
 4531SOL    HW214493   1.836   6.134   5.227
 4532SOL     OW14494   6.463   1.360   2.938
 4532SOL    HW114495   6.446   1.282   2.878
 4532SOL    HW214496   6.389   1.426   2.929
 4533SOL     OW14497   2.749   0.553   1.322
 4533SOL    HW114498   2.732   0.515   1.412
 4533SOL    HW214499   2.846   0.543   1.299
 4534SOL     OW14500   4.853   1.780   4.271
 4534SOL    HW114501   4.791   1.782   4.192
 4534SOL    HW214502   4.893   1.871   4.284
 4535SOL     OW14503   1.544   0.320   0.351
 4535SOL    HW114504   1.569   0.343   0.444
 4535SOL    HW214505   1.609   0.254   0.314
 4536SOL     OW14506   3.575   0.134   6.031
 4536SOL    HW114507   3.489   0.096   6.065
 4536SOL    HW214508   3.621   0.183   6.104
 4537SOL     OW14509   2.943   3.252   3.513
 4537SOL    HW114510   2.937   3.338   3.563
 4537SOL    HW214511   2.946   3.176   3.579
 4538SOL     OW14512   0.226   2.231   0.736
 4538SOL    HW114513   0.142   2.240   0.683
 4538SOL    HW214514   0.257   2.321   0.765
 4539SOL     OW14515   1.501   5.999   5.280
 4539SOL    HW114516   1.514   6.061   5.357
 4539SOL    HW214517   1.405   5.971   5.276
 4540SOL     OW14518   1.416   2.126   0.430
 4540SOL    HW114519   1.319   2.103   0.444
 4540SOL    HW214520   1.457   2.151   0.518
 4541SOL     OW14521   4.319   3.247   6.606
 4541SOL    HW114522   4.223   3.270   6.626
 4541SOL    HW214523   4.323   3.186   6.527
 4542SOL     OW14524   0.208   1.281   6.373
 4542SOL    HW114525   0.217   1.375   6.406
 4542SOL    HW214526   0.169   1.224   6.445
 4543SOL     OW14527   3.520   2.147   0.560
 4543SOL    HW114528   3.569   2.192   0.634
 4543SOL    HW214529   3.492   2.055   0.588
 4544SOL     OW14530   4.827   6.839   0.816
 4544SOL    HW114531   4.901   6.813   0.878
 4544SOL    HW214532   4.741   6.845   0.866
 4545SOL     OW14533   2.375   2.742   5.740
 4545SOL    HW114534   2.426   2.806   5.683
 4545SOL    HW214535   2.392   2.648   5.707
 4546SOL     OW14536   3.266   0.686   5.436
 4546SOL    HW114537   3.190   0.745   5.466
 4546SOL    HW214538   3.231   0.619   5.370
 4547SOL     OW14539   0.077   0.152   0.100
 4547SOL    HW114540   0.081   0.074   0.163
 4547SOL    HW214541   0.053   0.235   0.151
 4548SOL     OW14542   3.052   1.830   2.080
 4548SOL    HW114543   3.019   1.827   1.986
 4548SOL    HW214544   3.083   1.923   2.102
 4549SOL     OW14545   0.495   3.622   4.229
 4549SOL    HW114546   0.561   3.620   4.304
 4549SOL    HW214547   0.520   3.555   4.160
 4550SOL     OW14548   2.181   5.275   4.485
 4550SOL    HW114549   2.141   5.207   4.424
 4550SOL    HW214550   2.242   5.231   4.550
 4551SOL     OW14551   2.392   2.497   5.630
 4551SOL    HW114552   2.449   2.512   5.549
 4551SOL    HW214553   2.447   2.459   5.704
 4552SOL     OW14554   4.898   0.886   0.733
 4552SOL    HW114555   4.949   0.923   0.812
 4552SOL    HW214556   4.895   0.955   0.661
 4553SOL     OW14557   0.373   6.148   0.071
 4553SOL    HW114558   0.278   6.175   0.061
 4553SOL    HW214559   0.381   6.048   0.063
 4554SOL     OW14560   6.008   6.894   2.839
 4554SOL    HW114561   6.017   6.844   2.753
 4554SOL    HW214562   5.971   6.833   2.909
 4555SOL     OW14563   0.717   1.074   1.065
 4555SOL    HW114564   0.763   1.083   1.154
 4555SOL    HW214565   0.748   1.146   1.004
 4556SOL     OW14566   5.071   4.680   4.129
 4556SOL    HW114567   5.154   4.675   4.073
 4556SOL    HW214568   5.029   4.770   4.116
 4557SOL     OW14569   0.302   4.850   4.216
 4557SOL    HW114570   0.234   4.912   4.176
 4557SOL    HW214571   0.305   4.862   4.315
 4558SOL     OW14572   1.508   4.389   4.752
 4558SOL    HW114573   1.449   4.316   4.718
 4558SOL    HW214574   1.461   4.439   4.825
 4559SOL     OW14575   0.242   2.834   4.083
 4559SOL    HW114576   0.184   2.755   4.062
 4559SOL    HW214577   0.185   2.917   4.089
 4560SOL     OW14578   5.367   4.348   2.916
 4560SOL    HW114579   5.273   4.369   2.941
 4560SOL    HW214580   5.417   4.316   2.997
 4561SOL     OW14581   5.053   2.809   3.935
 4561SOL    HW114582   5.135   2.846   3.980
 4561SOL    HW214583   5.079   2.729   3.880
 4562SOL     OW14584   3.480   1.197   0.211
 4562SOL    HW114585   3.419   1.269   0.243
 4562SOL    HW214586   3.514   1.221   0.119
 4563SOL     OW14587   0.554   4.502   2.194
 4563SOL    HW114588   0.637   4.519   2.248
 4563SOL    HW214589   0.579   4.483   2.100
 4564SOL     OW14590   2.194   3.857   2.595
 4564SOL    HW114591   2.287   3.885   2.620
 4564SOL    HW214592   2.175   3.767   2.634
 4565SOL     OW14593   1.429   6.830   5.818
 4565SOL    HW114594   1.398   6.925   5.811
 4565SOL    HW214595   1.508   6.825   5.880
 4566SOL     OW14596   6.467   4.413   3.069
 4566SOL    HW114597   6.432   4.350   3.137
 4566SOL    HW214598   6.562   4.389   3.046
 4567SOL     OW14599   0.043   6.955   6.582
 4567SOL    HW114600   0.114   6.942   6.513
 4567SOL    HW214601   6.992   6.894   6.564
 4568SOL     OW14602   1.377   5.196   3.522
 4568SOL    HW114603   1.321   5.191   3.604
 4568SOL    HW214604   1.431   5.113   3.513
 4569SOL     OW14605   1.869   1.665   3.042
 4569SOL    HW114606   1.916   1.617   2.967
 4569SOL    HW214607   1.840   1.599   3.111
 4570SOL     OW14608   5.233   5.439   1.496
 4570SOL    HW114609   5.311   5.399   1.544
 4570SOL    HW214610   5.264   5.518   1.442
 4571SOL     OW14611   2.493   3.690   6.224
 4571SOL    HW114612   2.444   3.683   6.137
 4571SOL    HW214613   2.522   3.785   6.238
 4572SOL     OW14614   3.480   2.832   2.307
 4572SOL    HW114615   3.467   2.762   2.237
 4572SOL    HW214616   3.531   2.908   2.268
 4573SOL     OW14617   3.017   5.286   0.321
 4573SOL    HW114618   2.920   5.293   0.299
 4573SOL    HW214619   3.034   5.200   0.369
 4574SOL     OW14620   4.654   1.013   1.963
 4574SOL    HW114621   4.707   0.988   1.882
 4574SOL    HW214622   4.661   0.941   2.032
 4575SOL     OW14623   0.932   0.244   5.391
 4575SOL    HW114624   0.901   0.300   5.468
 4575SOL    HW214625   0.902   0.285   5.305
 4576SOL     OW14626   3.387   4.439   6.559
 4576SOL    HW114627   3.306   4.437   6.617
 4576SOL    HW214628   3.419   4.346   6.543
 4577SOL     OW14629   0.977   1.913   2.150
 4577SOL    HW114630   0.933   1.867   2.073
 4577SOL    HW214631   0.907   1.949   2.212
 4578SOL     OW14632   1.477   1.446   1.901
 4578SOL    HW114633   1.420   1.476   1.978
 4578SOL    HW214634   1.498   1.349   1.912
 4579SOL     OW14635   4.779   0.567   3.565
 4579SOL    HW114636   4.755   0.663   3.558
 4579SOL    HW214637   4.713   0.512   3.514
 4580SOL     OW14638   0.350   1.272   0.675
 4580SOL    HW114639   0.356   1.275   0.775
 4580SOL    HW214640   0.258   1.241   0.649
 4581SOL     OW14641   2.618   0.488   1.052
 4581SOL    HW114642   2.589   0.571   1.101
 4581SOL    HW214643   2.714   0.497   1.026
 4582SOL     OW14644   6.736   0.578   3.866
 4582SOL    HW114645   6.826   0.577   3.823
 4582SOL    HW214646   6.668   0.606   3.798
 4583SOL     OW14647   2.045   0.534   6.919
 4583SOL    HW114648   2.059   0.462   6.986
 4583SOL    HW214649   1.993   0.499   6.841
 4584SOL     OW14650   0.416   1.754   4.218
 4584SOL    HW114651   0.507   1.788   4.197
 4584SOL    HW214652   0.393   1.775   4.313
 4585SOL     OW14653   1.266   2.723   3.128
 4585SOL    HW114654   1.314   2.805   3.158
 4585SOL    HW214655   1.214   2.684   3.204
 4586SOL     OW14656   6.180   4.922   6.484
 4586SOL    HW114657   6.157   4.993   6.551
 4586SOL    HW214658   6.256   4.953   6.427
 4587SOL     OW14659   3.681   3.923   5.798
 4587SOL    HW114660   3.673   3.958   5.891
 4587SOL    HW214661   3.589   3.902   5.763
 4588SOL     OW14662   3.274   3.991   6.503
 4588SOL    HW114663   3.228   3.930   6.438
 4588SOL    HW214664   3.277   3.948   6.593
 4589SOL     OW14665   5.852   6.312   2.172
 4589SOL    HW114666   5.888   6.261   2.094
 4589SOL    HW214667   5.926   6.365   2.213
 4590SOL     OW14668   4.026   5.702   1.646
 4590SOL    HW114669   4.108   5.717   1.591
 4590SOL    HW214670   4.032   5.613   1.691
 4591SOL     OW14671   2.470   0.764   4.995
 4591SOL    HW114672   2.457   0.688   4.931
 4591SOL    HW214673   2.386   0.818   5.001
 4592SOL     OW14674   2.117   1.490   3.987
 4592SOL    HW114675   2.066   1.499   3.901
 4592SOL    HW214676   2.151   1.580   4.014
 4593SOL     OW14677   1.333   5.850   4.627
 4593SOL    HW114678   1.254   5.860   4.687
 4593SOL    HW214679   1.401   5.791   4.672
 4594SOL     OW14680   2.464   6.868   3.203
 4594SOL    HW114681   2.514   6.787   3.232
 4594SOL    HW214682   2.394   6.843   3.137
 4595SOL     OW14683   5.473   2.202   5.927
 4595SOL    HW114684   5.549   2.220   5.864
 4595SOL    HW214685   5.495   2.239   6.017
 4596SOL     OW14686   0.781   0.688   2.245
 4596SOL    HW114687   0.831   0.602   2.233
 4596SOL    HW214688   0.771   0.707   2.343
 4597SOL     OW14689   2.642   5.960   0.775
 4597SOL    HW114690   2.659   6.053   0.806
 4597SOL    HW214691   2.662   5.896   0.850
 4598SOL     OW14692   0.607   4.387   0.331
 4598SOL    HW114693   0.542   4.365   0.403
 4598SOL    HW214694   0.689   4.331   0.342
 4599SOL     OW14695   3.950   6.504   1.843
 4599SOL    HW114696   3.896   6.433   1.889
 4599SOL    HW214697   3.899   6.538   1.764
 4600SOL     OW14698   0.644   6.648   6.382
 4600SOL    HW114699   0.554   6.605   6.376
 4600SOL    HW214700   0.713   6.577   6.399
 4601SOL     OW14701   1.825   0.358   5.333
 4601SOL    HW114702   1.828   0.265   5.296
 4601SOL    HW214703   1.850   0.423   5.260
 4602SOL     OW14704   2.881   1.931   5.898
 4602SOL    HW114705   2.826   1.990   5.958
 4602SOL    HW214706   2.924   1.987   5.827
 4603SOL     OW14707   4.236   6.882   1.167
 4603SOL    HW114708   4.205   6.788   1.184
 4603SOL    HW214709   4.286   6.885   1.080
 4604SOL     OW14710   6.827   0.026   4.424
 4604SOL    HW114711   6.857   0.027   4.519
 4604SOL    HW214712   6.728   0.038   4.421
 4605SOL     OW14713   3.485   0.402   1.457
 4605SOL    HW114714   3.428   0.374   1.380
 4605SOL    HW214715   3.428   0.412   1.539
 4606SOL     OW14716   6.934   6.326   4.940
 4606SOL    HW114717   7.021   6.372   4.960
 4606SOL    HW214718   6.862   6.394   4.928
 4607SOL     OW14719   1.823   1.869   0.711
 4607SOL    HW114720   1.875   1.908   0.787
 4607SOL    HW214721   1.727   1.861   0.737
 4608SOL     OW14722   0.214   2.613   4.962
 4608SOL    HW114723   0.120   2.577   4.970
 4608SOL    HW214724   0.262   2.601   5.049
 4609SOL     OW14725   5.076   5.567   6.967
 4609SOL    HW114726   5.137   5.489   6.983
 4609SOL    HW214727   5.127   5.640   6.921
 4610SOL     OW14728   5.165   5.030   0.250
 4610SOL    HW114729   5.181   4.943   0.296
 4610SOL    HW214730   5.115   5.013   0.165
 4611SOL     OW14731   0.074   1.128   6.551
 4611SOL    HW114732   0.117   1.038   6.551
 4611SOL    HW214733   7.010   1.122   6.596
 4612SOL     OW14734   2.159   1.371   1.778
 4612SOL    HW114735   2.076   1.373   1.835
 4612SOL    HW214736   2.232   1.325   1.828
 4613SOL     OW14737   1.649   4.944   1.826
 4613SOL    HW114738   1.562   4.906   1.793
 4613SOL    HW214739   1.688   4.881   1.894
 4614SOL     OW14740   6.786   4.429   4.074
 4614SOL    HW114741   6.783   4.529   4.065
 4614SOL    HW214742   6.742   4.387   3.995
 4615SOL     OW14743   1.739   4.203   6.732
 4615SOL    HW114744   1.738   4.285   6.674
 4615SOL    HW214745   1.801   4.135   6.692
 4616SOL     OW14746   0.816   3.289   5.943
 4616SOL    HW114747   0.861   3.379   5.949
 4616SOL    HW214748   0.817   3.246   6.033
 4617SOL     OW14749   0.091   2.586   3.990
 4617SOL    HW114750   0.006   2.616   4.032
 4617SOL    HW214751   0.103   2.488   4.006
 4618SOL     OW14752   1.895   4.067   5.726
 4618SOL    HW114753   1.802   4.089   5.695
 4618SOL    HW214754   1.892   4.035   5.821
 4619SOL     OW14755   4.870   6.396   6.338
 4619SOL    HW114756   4.820   6.478   6.311
 4619SOL    HW214757   4.902   6.406   6.432
 4620SOL     OW14758   0.536   5.216   2.236
 4620SOL    HW114759   0.455   5.171   2.272
 4620SOL    HW214760   0.562   5.174   2.148
 4621SOL     OW14761   3.335   0.072   2.597
 4621SOL    HW114762   3.262   0.099   2.660
 4621SOL    HW214763   3.418   0.123   2.619
 4622SOL     OW14764   5.690   6.763   0.381
 4622SOL    HW114765   5.767   6.701   0.399
 4622SOL    HW214766   5.606   6.723   0.417
 4623SOL     OW14767   3.262   4.895   1.903
 4623SOL    HW114768   3.313   4.820   1.860
 4623SOL    HW214769   3.164   4.884   1.883
 4624SOL     OW14770   4.404   1.400   2.089
 4624SOL    HW114771   4.330   1.365   2.146
 4624SOL    HW214772   4.391   1.498   2.073
 4625SOL     OW14773   2.045   6.067   1.807
 4625SOL    HW114774   1.984   6.109   1.739
 4625SOL    HW214775   2.085   5.984   1.768
 4626SOL     OW14776   4.126   3.236   1.577
 4626SOL    HW114777   4.189   3.179   1.524
 4626SOL    HW214778   4.165   3.254   1.667
 4627SOL     OW14779   5.482   0.089   5.213
 4627SOL    HW114780   5.509   0.181   5.241
 4627SOL    HW214781   5.492   0.026   5.290
 4628SOL     OW14782   5.417   4.464   3.717
 4628SOL    HW114783   5.485   4.426   3.654
 4628SOL    HW214784   5.376   4.546   3.676
 4629SOL     OW14785   1.924   5.487   0.430
 4629SOL    HW114786   1.982   5.513   0.353
 4629SOL    HW214787   1.829   5.511   0.409
 4630SOL     OW14788   2.184   3.745   1.433
 4630SOL    HW114789   2.198   3.692   1.517
 4630SOL    HW214790   2.178   3.842   1.457
 4631SOL     OW14791   6.940   0.697   2.827
 4631SOL    HW114792   6.841   0.697   2.813
 4631SOL    HW214793   6.986   0.677   2.741
 4632SOL     OW14794   3.316   5.198   2.979
 4632SOL    HW114795   3.221   5.193   3.009
 4632SOL    HW214796   3.356   5.107   2.981
 4633SOL     OW14797   5.147   1.850   4.861
 4633SOL    HW114798   5.163   1.895   4.949
 4633SOL    HW214799   5.234   1.814   4.827
 4634SOL     OW14800   4.094   3.794   5.241
 4634SOL    HW114801   4.054   3.826   5.327
 4634SOL    HW214802   4.173   3.736   5.261
 4635SOL     OW14803   4.277   5.960   1.735
 4635SOL    HW114804   4.269   6.027   1.809
 4635SOL    HW214805   4.245   6.001   1.650
 4636SOL     OW14806   1.458   5.268   6.801
 4636SOL    HW114807   1.413   5.199   6.744
 4636SOL    HW214808   1.512   5.223   6.872
 4637SOL     OW14809   3.259   1.616   3.483
 4637SOL    HW114810   3.290   1.522   3.467
 4637SOL    HW214811   3.174   1.632   3.434
 4638SOL     OW14812   4.273   4.593   0.247
 4638SOL    HW114813   4.321   4.536   0.179
 4638SOL    HW214814   4.240   4.676   0.203
 4639SOL     OW14815   3.972   2.315   1.705
 4639SOL    HW114816   3.876   2.317   1.735
 4639SOL    HW214817   3.987   2.387   1.637
 4640SOL     OW14818   6.305   3.746   6.936
 4640SOL    HW114819   6.383   3.690   6.908
 4640SOL    HW214820   6.331   3.842   6.936
 4641SOL     OW14821   1.726   5.622   4.705
 4641SOL    HW114822   1.818   5.620   4.744
 4641SOL    HW214823   1.680   5.535   4.723
 4642SOL     OW14824   6.509   1.147   4.677
 4642SOL    HW114825   6.536   1.186   4.589
 4642SOL    HW214826   6.589   1.108   4.721
 4643SOL     OW14827   0.729   1.897   0.107
 4643SOL    HW114828   0.664   1.971   0.091
 4643SOL    HW214829   0.794   1.891   0.031
 4644SOL     OW14830   1.604   0.412   0.592
 4644SOL    HW114831   1.545   0.340   0.628
 4644SOL    HW214832   1.589   0.496   0.644
 4645SOL     OW14833   6.360   1.286   4.951
 4645SOL    HW114834   6.409   1.315   5.033
 4645SOL    HW214835   6.382   1.347   4.875
 4646SOL     OW14836   2.511   4.445   3.813
 4646SOL    HW114837   2.438   4.473   3.751
 4646SOL    HW214838   2.499   4.348   3.836
 4647SOL     OW14839   1.510   6.678   1.489
 4647SOL    HW114840   1.583   6.742   1.464
 4647SOL    HW214841   1.480   6.629   1.407
 4648SOL     OW14842   2.617   1.424   4.645
 4648SOL    HW114843   2.602   1.352   4.578
 4648SOL    HW214844   2.529   1.452   4.684
 4649SOL     OW14845   5.793   1.708   0.578
 4649SOL    HW114846   5.769   1.704   0.481
 4649SOL    HW214847   5.819   1.617   0.610
 4650SOL     OW14848   5.342   6.257   0.797
 4650SOL    HW114849   5.376   6.326   0.860
 4650SOL    HW214850   5.313   6.175   0.848
 4651SOL     OW14851   6.901   3.278   6.003
 4651SOL    HW114852   6.827   3.339   6.031
 4651SOL    HW214853   6.885   3.187   6.040
 4652SOL     OW14854   0.089   6.543   4.973
 4652SOL    HW114855   0.082   6.640   4.948
 4652SOL    HW214856   0.114   6.490   4.891
 4653SOL     OW14857   6.725   5.676   1.087
 4653SOL    HW114858   6.795   5.670   1.016
 4653SOL    HW214859   6.635   5.682   1.044
 4654SOL     OW14860   0.496   0.250   5.713
 4654SOL    HW114861   0.574   0.187   5.711
 4654SOL    HW214862   0.524   0.335   5.758
 4655SOL     OW14863   5.152   3.067   2.048
 4655SOL    HW114864   5.062   3.086   2.086
 4655SOL    HW214865   5.211   3.030   2.119
 4656SOL     OW14866   0.090   1.084   2.166
 4656SOL    HW114867   0.126   1.177   2.155
 4656SOL    HW214868   0.072   1.044   2.076
 4657SOL     OW14869   3.380   1.051   3.224
 4657SOL    HW114870   3.381   0.996   3.307
 4657SOL    HW214871   3.386   1.148   3.249
 4658SOL     OW14872   1.292   2.141   6.288
 4658SOL    HW114873   1.375   2.137   6.233
 4658SOL    HW214874   1.285   2.058   6.344
 4659SOL     OW14875   1.761   4.144   0.267
 4659SOL    HW114876   1.715   4.232   0.255
 4659SOL    HW214877   1.790   4.134   0.362
 4660SOL     OW14878   0.827   5.227   3.525
 4660SOL    HW114879   0.873   5.139   3.538
 4660SOL    HW214880   0.894   5.301   3.530
 4661SOL     OW14881   0.956   1.547   6.091
 4661SOL    HW114882   0.912   1.621   6.141
 4661SOL    HW214883   1.033   1.584   6.038
 4662SOL     OW14884   1.687   0.280   5.570
 4662SOL    HW114885   1.595   0.250   5.547
 4662SOL    HW214886   1.735   0.308   5.487
 4663SOL     OW14887   1.386   0.240   0.129
 4663SOL    HW114888   1.435   0.285   0.204
 4663SOL    HW214889   1.385   0.301   0.050
 4664SOL     OW14890   5.901   0.164   6.119
 4664SOL    HW114891   5.879   0.245   6.066
 4664SOL    HW214892   5.942   0.095   6.059
 4665SOL     OW14893   0.810   0.540   3.604
 4665SOL    HW114894   0.729   0.534   3.545
 4665SOL    HW214895   0.887   0.575   3.550
 4666SOL     OW14896   1.688   2.346   5.453
 4666SOL    HW114897   1.681   2.435   5.408
 4666SOL    HW214898   1.762   2.348   5.520
 4667SOL     OW14899   6.456   3.837   1.187
 4667SOL    HW114900   6.425   3.833   1.282
 4667SOL    HW214901   6.522   3.912   1.177
 4668SOL     OW14902   4.973   2.040   4.771
 4668SOL    HW114903   4.884   2.012   4.737
 4668SOL    HW214904   5.021   1.961   4.808
 4669SOL     OW14905   4.993   7.011   6.404
 4669SOL    HW114906   5.051   6.983   6.327
 4669SOL    HW214907   5.041   6.992   6.489
 4670SOL     OW14908   0.222   2.838   6.758
 4670SOL    HW114909   0.175   2.751   6.770
 4670SOL    HW214910   0.264   2.841   6.667
 4671SOL     OW14911   0.755   3.253   1.492
 4671SOL    HW114912   0.702   3.181   1.536
 4671SOL    HW214913   0.852   3.229   1.492
 4672SOL     OW14914   3.447   4.187   6.812
 4672SOL    HW114915   3.362   4.151   6.774
 4672SOL    HW214916   3.425   4.253   6.884
 4673SOL     OW14917   6.256   0.856   0.754
 4673SOL    HW114918   6.230   0.947   0.721
 4673SOL    HW214919   6.244   0.789   0.682
 4674SOL     OW14920   0.712   2.653   0.667
 4674SOL    HW114921   0.655   2.697   0.736
 4674SOL    HW214922   0.807   2.650   0.699
 4675SOL     OW14923   1.778   5.386   6.639
 4675SOL    HW114924   1.759   5.288   6.643
 4675SOL    HW214925   1.797   5.413   6.544
 4676SOL     OW14926   0.802   6.332   3.968
 4676SOL    HW114927   0.893   6.339   3.927
 4676SOL    HW214928   0.759   6.246   3.941
 4677SOL     OW14929   3.940   6.996   0.088
 4677SOL    HW114930   3.967   7.004   0.184
 4677SOL    HW214931   3.844   7.024   0.078
 4678SOL     OW14932   2.477   4.514   6.763
 4678SOL    HW114933   2.498   4.416   6.761
 4678SOL    HW214934   2.497   4.550   6.854
 4679SOL     OW14935   2.709   6.638   5.943
 4679SOL    HW114936   2.663   6.724   5.925
 4679SOL    HW214937   2.740   6.598   5.856
 4680SOL     OW14938   1.717   4.465   0.271
 4680SOL    HW114939   1.751   4.514   0.351
 4680SOL    HW214940   1.774   4.486   0.191
 4681SOL     OW14941   6.815   5.788   4.606
 4681SOL    HW114942   6.860   5.861   4.657
 4681SOL    HW214943   6.868   5.767   4.524
 4682SOL     OW14944   3.497   6.213   0.931
 4682SOL    HW114945   3.448   6.126   0.926
 4682SOL    HW214946   3.592   6.199   0.906
 4683SOL     OW14947   6.704   4.319   2.958
 4683SOL    HW114948   6.755   4.405   2.967
 4683SOL    HW214949   6.761   4.251   2.911
 4684SOL     OW14950   1.251   1.350   4.908
 4684SOL    HW114951   1.343   1.354   4.869
 4684SOL    HW214952   1.204   1.437   4.893
 4685SOL     OW14953   5.046   4.002   4.909
 4685SOL    HW114954   4.958   4.043   4.935
 4685SOL    HW214955   5.096   3.976   4.991
 4686SOL     OW14956   5.542   5.920   0.432
 4686SOL    HW114957   5.453   5.930   0.476
 4686SOL    HW214958   5.548   5.980   0.352
 4687SOL     OW14959   5.424   6.511   4.612
 4687SOL    HW114960   5.446   6.511   4.515
 4687SOL    HW214961   5.476   6.582   4.659
 4688SOL     OW14962   1.083   2.201   0.790
 4688SOL    HW114963   0.990   2.197   0.828
 4688SOL    HW214964   1.085   2.264   0.712
 4689SOL     OW14965   1.788   5.339   4.975
 4689SOL    HW114966   1.853   5.264   4.988
 4689SOL    HW214967   1.723   5.341   5.050
 4690SOL     OW14968   1.352   1.867   0.651
 4690SOL    HW114969   1.349   1.867   0.551
 4690SOL    HW214970   1.445   1.850   0.682
 4691SOL     OW14971   3.935   4.349   0.499
 4691SOL    HW114972   4.024   4.379   0.465
 4691SOL    HW214973   3.945   4.260   0.544
 4692SOL     OW14974   0.386   6.029   3.011
 4692SOL    HW114975   0.387   6.067   2.919
 4692SOL    HW214976   0.463   6.066   3.063
 4693SOL     OW14977   0.681   0.978   4.137
 4693SOL    HW114978   0.686   0.938   4.045
 4693SOL    HW214979   0.749   0.935   4.195
 4694SOL     OW14980   1.159   1.064   6.217
 4694SOL    HW114981   1.209   0.998   6.273
 4694SOL    HW214982   1.074   1.023   6.183
 4695SOL     OW14983   2.895   3.086   1.740
 4695SOL    HW114984   2.947   3.144   1.803
 4695SOL    HW214985   2.896   2.992   1.771
 4696SOL     OW14986   5.706   3.366   0.170
 4696SOL    HW114987   5.771   3.307   0.123
 4696SOL    HW214988   5.624   3.314   0.194
 4697SOL     OW14989   0.916   4.979   0.100
 4697SOL    HW114990   0.895   4.889   0.138
 4697SOL    HW214991   0.835   5.015   0.053
 4698SOL     OW14992   6.083   3.511   1.839
 4698SOL    HW114993   6.069   3.604   1.873
 4698SOL    HW214994   6.102   3.450   1.916
 4699SOL     OW14995   6.491   6.981   3.092
 4699SOL    HW114996   6.463   0.042   3.133
 4699SOL    HW214997   6.431   6.961   3.015
 4700SOL     OW14998   5.424   6.626   6.966
 4700SOL    HW114999   5.385   6.717   6.978
 4700SOL    HW215000   5.410   6.572   0.024
 4701SOL     OW15001   0.187   0.812   0.540
 4701SOL    HW115002   0.119   0.883   0.558
 4701SOL    HW215003   0.279   0.853   0.547
 4702SOL     OW15004   2.935   2.956   6.874
 4702SOL    HW115005   2.860   2.980   6.813
 4702SOL    HW215006   2.994   2.888   6.829
 4703SOL     OW15007   1.695   1.333   1.358
 4703SOL    HW115008   1.729   1.259   1.416
 4703SOL    HW215009   1.738   1.419   1.385
 4704SOL     OW15010   4.626   7.009   0.193
 4704SOL    HW115011   4.716   0.016   0.222
 4704SOL    HW215012   4.566   0.062   0.176
 4705SOL     OW15013   3.118   4.020   3.629
 4705SOL    HW115014   3.055   3.949   3.662
 4705SOL    HW215015   3.173   4.054   3.706
 4706SOL     OW15016   4.932   5.373   1.177
 4706SOL    HW115017   4.954   5.309   1.250
 4706SOL    HW215018   4.879   5.450   1.215
 4707SOL     OW15019   3.650   6.266   1.645
 4707SOL    HW115020   3.696   6.234   1.727
 4707SOL    HW215021   3.717   6.279   1.572
 4708SOL     OW15022   1.646   2.807   2.664
 4708SOL    HW115023   1.657   2.746   2.585
 4708SOL    HW215024   1.619   2.898   2.633
 4709SOL     OW15025   3.094   3.461   0.001
 4709SOL    HW115026   2.995   3.460   7.010
 4709SOL    HW215027   3.134   3.543   6.985
 4710SOL     OW15028   5.121   2.326   0.796
 4710SOL    HW115029   5.069   2.273   0.864
 4710SOL    HW215030   5.144   2.415   0.834
 4711SOL     OW15031   3.083   6.603   3.182
 4711SOL    HW115032   3.121   6.511   3.195
 4711SOL    HW215033   2.986   6.596   3.160
 4712SOL     OW15034   1.505   4.243   0.465
 4712SOL    HW115035   1.604   4.234   0.455
 4712SOL    HW215036   1.475   4.330   0.425
 4713SOL     OW15037   2.451   6.349   1.222
 4713SOL    HW115038   2.462   6.353   1.123
 4713SOL    HW215039   2.362   6.309   1.244
 4714SOL     OW15040   3.152   2.395   0.671
 4714SOL    HW115041   3.125   2.481   0.713
 4714SOL    HW215042   3.241   2.405   0.627
 4715SOL     OW15043   5.576   4.036   4.569
 4715SOL    HW115044   5.566   3.950   4.519
 4715SOL    HW215045   5.555   4.113   4.509
 4716SOL     OW15046   3.222   5.261   0.563
 4716SOL    HW115047   3.139   5.207   0.575
 4716SOL    HW215048   3.198   5.357   0.545
 4717SOL     OW15049   1.652   5.390   4.235
 4717SOL    HW115050   1.725   5.392   4.166
 4717SOL    HW215051   1.603   5.303   4.228
 4718SOL     OW15052   5.344   1.172   6.525
 4718SOL    HW115053   5.414   1.144   6.460
 4718SOL    HW215054   5.361   1.266   6.555
 4719SOL     OW15055   4.203   3.303   1.850
 4719SOL    HW115056   4.239   3.235   1.915
 4719SOL    HW215057   4.148   3.370   1.899
 4720SOL     OW15058   2.978   0.750   3.941
 4720SOL    HW115059   3.053   0.797   3.987
 4720SOL    HW215060   2.902   0.815   3.927
 4721SOL     OW15061   0.928   1.783   0.874
 4721SOL    HW115062   1.016   1.828   0.863
 4721SOL    HW215063   0.912   1.721   0.798
 4722SOL     OW15064   2.768   0.483   2.098
 4722SOL    HW115065   2.811   0.513   2.013
 4722SOL    HW215066   2.728   0.562   2.145
 4723SOL     OW15067   2.572   6.674   6.175
 4723SOL    HW115068   2.636   6.644   6.105
 4723SOL    HW215069   2.610   6.656   6.266
 4724SOL     OW15070   4.068   4.966   1.509
 4724SOL    HW115071   3.978   4.990   1.474
 4724SOL    HW215072   4.138   4.995   1.444
 4725SOL     OW15073   5.565   5.412   3.289
 4725SOL    HW115074   5.563   5.491   3.351
 4725SOL    HW215075   5.629   5.430   3.215
 4726SOL     OW15076   0.316   6.118   5.499
 4726SOL    HW115077   0.287   6.058   5.574
 4726SOL    HW215078   0.387   6.181   5.531
 4727SOL     OW15079   6.697   6.665   0.767
 4727SOL    HW115080   6.606   6.685   0.804
 4727SOL    HW215081   6.764   6.665   0.842
 4728SOL     OW15082   0.136   0.946   0.138
 4728SOL    HW115083   0.232   0.972   0.141
 4728SOL    HW215084   0.098   0.946   0.231
 4729SOL     OW15085   2.773   0.229   0.739
 4729SOL    HW115086   2.778   0.225   0.639
 4729SOL    HW215087   2.679   0.247   0.767
 4730SOL     OW15088   2.184   0.797   5.585
 4730SOL    HW115089   2.283   0.805   5.599
 4730SOL    HW215090   2.157   0.701   5.588
 4731SOL     OW15091   5.841   2.049   6.329
 4731SOL    HW115092   5.795   1.963   6.348
 4731SOL    HW215093   5.818   2.080   6.237
 4732SOL     OW15094   0.407   1.546   0.614
 4732SOL    HW115095   0.353   1.603   0.675
 4732SOL    HW215096   0.360   1.459   0.599
 4733SOL     OW15097   6.786   3.357   4.089
 4733SOL    HW115098   6.766   3.335   4.185
 4733SOL    HW215099   6.745   3.445   4.066
 4734SOL     OW15100   5.070   4.457   5.947
 4734SOL    HW115101   5.096   4.377   6.000
 4734SOL    HW215102   4.973   4.478   5.963
 4735SOL     OW15103   7.007   4.539   3.819
 4735SOL    HW115104   0.041   4.601   3.767
 4735SOL    HW215105   6.994   4.576   3.911
 4736SOL     OW15106   2.127   0.114   1.310
 4736SOL    HW115107   2.144   0.209   1.337
 4736SOL    HW215108   2.183   0.091   1.231
 4737SOL     OW15109   3.435   5.527   1.696
 4737SOL    HW115110   3.420   5.438   1.741
 4737SOL    HW215111   3.475   5.511   1.606
 4738SOL     OW15112   0.172   6.308   3.311
 4738SOL    HW115113   0.181   6.382   3.244
 4738SOL    HW215114   0.202   6.340   3.401
 4739SOL     OW15115   4.634   0.508   1.299
 4739SOL    HW115116   4.591   0.568   1.232
 4739SOL    HW215117   4.598   0.528   1.390
 4740SOL     OW15118   1.082   2.281   3.830
 4740SOL    HW115119   1.053   2.296   3.736
 4740SOL    HW215120   1.121   2.189   3.839
 4741SOL     OW15121   3.907   3.740   1.231
 4741SOL    HW115122   3.860   3.759   1.145
 4741SOL    HW215123   3.887   3.646   1.260
 4742SOL     OW15124   3.755   1.239   0.607
 4742SOL    HW115125   3.703   1.157   0.582
 4742SOL    HW215126   3.830   1.213   0.668
 4743SOL     OW15127   1.837   5.294   0.763
 4743SOL    HW115128   1.856   5.270   0.668
 4743SOL    HW215129   1.829   5.210   0.817
 4744SOL     OW15130   2.489   6.049   1.255
 4744SOL    HW115131   2.517   6.144   1.245
 4744SOL    HW215132   2.390   6.045   1.272
 4745SOL     OW15133   1.158   3.381   0.315
 4745SOL    HW115134   1.218   3.302   0.305
 4745SOL    HW215135   1.213   3.463   0.334
 4746SOL     OW15136   4.492   5.533   4.183
 4746SOL    HW115137   4.519   5.629   4.179
 4746SOL    HW215138   4.393   5.528   4.199
 4747SOL     OW15139   2.171   0.913   0.187
 4747SOL    HW115140   2.176   0.850   0.109
 4747SOL    HW215141   2.255   0.966   0.193
 4748SOL     OW15142   2.005   6.736   1.489
 4748SOL    HW115143   1.970   6.819   1.445
 4748SOL    HW215144   2.039   6.673   1.420
 4749SOL     OW15145   2.301   1.714   0.323
 4749SOL    HW115146   2.345   1.719   0.412
 4749SOL    HW215147   2.319   1.625   0.281
 4750SOL     OW15148   4.890   2.980   5.439
 4750SOL    HW115149   4.876   3.068   5.393
 4750SOL    HW215150   4.802   2.946   5.470
 4751SOL     OW15151   4.741   0.815   3.401
 4751SOL    HW115152   4.799   0.893   3.378
 4751SOL    HW215153   4.691   0.835   3.485
 4752SOL     OW15154   5.326   1.834   6.650
 4752SOL    HW115155   5.426   1.844   6.651
 4752SOL    HW215156   5.293   1.823   6.744
 4753SOL     OW15157   3.258   6.579   4.784
 4753SOL    HW115158   3.211   6.528   4.712
 4753SOL    HW215159   3.194   6.598   4.859
 4754SOL     OW15160   4.555   4.624   6.433
 4754SOL    HW115161   4.539   4.663   6.524
 4754SOL    HW215162   4.600   4.691   6.375
 4755SOL     OW15163   0.767   0.911   1.367
 4755SOL    HW115164   0.727   1.001   1.383
 4755SOL    HW215165   0.821   0.884   1.447
 4756SOL     OW15166   6.565   4.003   5.378
 4756SOL    HW115167   6.497   3.997   5.305
 4756SOL    HW215168   6.526   3.968   5.463
 4757SOL     OW15169   1.761   3.646   0.298
 4757SOL    HW115170   1.693   3.698   0.245
 4757SOL    HW215171   1.847   3.698   0.300
 4758SOL     OW15172   2.373   5.794   3.468
 4758SOL    HW115173   2.304   5.787   3.541
 4758SOL    HW215174   2.461   5.817   3.508
 4759SOL     OW15175   0.535   6.682   1.715
 4759SOL    HW115176   0.522   6.742   1.795
 4759SOL    HW215177   0.554   6.589   1.746
 4760SOL     OW15178   1.721   5.885   0.581
 4760SOL    HW115179   1.775   5.903   0.662
 4760SOL    HW215180   1.640   5.831   0.606
 4761SOL     OW15181   5.684   6.746   1.678
 4761SOL    HW115182   5.759   6.812   1.685
 4761SOL    HW215183   5.706   6.678   1.609
 4762SOL     OW15184   1.950   0.299   2.443
 4762SOL    HW115185   2.000   0.264   2.521
 4762SOL    HW215186   1.861   0.255   2.437
 4763SOL     OW15187   5.733   5.502   2.448
 4763SOL    HW115188   5.682   5.421   2.418
 4763SOL    HW215189   5.799   5.476   2.518
 4764SOL     OW15190   5.118   2.946   0.433
 4764SOL    HW115191   5.046   2.957   0.501
 4764SOL    HW215192   5.206   2.933   0.479
 4765SOL     OW15193   3.849   1.642   5.922
 4765SOL    HW115194   3.828   1.736   5.896
 4765SOL    HW215195   3.915   1.604   5.857
 4766SOL     OW15196   0.871   0.762   4.634
 4766SOL    HW115197   0.932   0.749   4.556
 4766SOL    HW215198   0.777   0.772   4.601
 4767SOL     OW15199   2.101   4.085   3.218
 4767SOL    HW115200   2.094   4.185   3.222
 4767SOL    HW215201   2.161   4.059   3.142
 4768SOL     OW15202   4.400   2.552   6.544
 4768SOL    HW115203   4.385   2.456   6.569
 4768SOL    HW215204   4.409   2.608   6.626
 4769SOL     OW15205   1.766   3.354   0.133
 4769SOL    HW115206   1.750   3.427   0.200
 4769SOL    HW215207   1.770   3.266   0.180
 4770SOL     OW15208   0.285   1.557   4.060
 4770SOL    HW115209   0.371   1.541   4.108
 4770SOL    HW215210   0.297   1.631   3.993
 4771SOL     OW15211   1.702   0.016   4.330
 4771SOL    HW115212   1.720   6.987   4.412
 4771SOL    HW215213   1.777   0.082   4.317
 4772SOL     OW15214   3.093   5.567   2.290
 4772SOL    HW115215   3.085   5.489   2.228
 4772SOL    HW215216   3.158   5.632   2.252
 4773SOL     OW15217   2.893   4.861   4.989
 4773SOL    HW115218   2.878   4.771   5.030
 4773SOL    HW215219   2.840   4.930   5.038
 4774SOL     OW15220   0.699   4.489   0.737
 4774SOL    HW115221   0.774   4.458   0.795
 4774SOL    HW215222   0.735   4.526   0.651
 4775SOL     OW15223   5.955   5.755   5.218
 4775SOL    HW115224   6.042   5.769   5.264
 4775SOL    HW215225   5.951   5.812   5.135
 4776SOL     OW15226   0.404   1.152   5.808
 4776SOL    HW115227   0.354   1.108   5.882
 4776SOL    HW215228   0.496   1.113   5.801
 4777SOL     OW15229   2.103   0.179   2.739
 4777SOL    HW115230   2.162   0.194   2.818
 4777SOL    HW215231   2.015   0.224   2.754
 4778SOL     OW15232   1.842   1.352   0.595
 4778SOL    HW115233   1.805   1.260   0.589
 4778SOL    HW215234   1.920   1.361   0.532
 4779SOL     OW15235   5.088   0.541   4.797
 4779SOL    HW115236   5.104   0.624   4.743
 4779SOL    HW215237   5.024   0.560   4.871
 4780SOL     OW15238   4.725   2.789   4.695
 4780SOL    HW115239   4.795   2.722   4.721
 4780SOL    HW215240   4.642   2.741   4.667
 4781SOL     OW15241   1.667   5.401   1.603
 4781SOL    HW115242   1.761   5.384   1.633
 4781SOL    HW215243   1.604   5.348   1.660
 4782SOL     OW15244   6.744   6.656   4.162
 4782SOL    HW115245   6.648   6.631   4.173
 4782SOL    HW215246   6.788   6.593   4.098
 4783SOL     OW15247   0.366   3.906   5.931
 4783SOL    HW115248   0.386   3.907   6.029
 4783SOL    HW215249   0.430   3.966   5.883
 4784SOL     OW15250   5.136   3.641   6.908
 4784SOL    HW115251   5.204   3.704   6.870
 4784SOL    HW215252   5.087   3.596   6.834
 4785SOL     OW15253   0.861   0.350   4.205
 4785SOL    HW115254   0.804   0.303   4.137
 4785SOL    HW215255   0.822   0.440   4.225
 4786SOL     OW15256   0.602   5.827   0.205
 4786SOL    HW115257   0.702   5.820   0.212
 4786SOL    HW215258   0.561   5.792   0.289
 4787SOL     OW15259   4.719   1.160   4.835
 4787SOL    HW115260   4.709   1.206   4.924
 4787SOL    HW215261   4.660   1.080   4.832
 4788SOL     OW15262   0.112   5.790   0.951
 4788SOL    HW115263   0.026   5.748   0.921
 4788SOL    HW215264   0.139   5.860   0.885
 4789SOL     OW15265   6.345   1.096   2.732
 4789SOL    HW115266   6.262   1.086   2.787
 4789SOL    HW215267   6.383   1.005   2.712
 4790SOL     OW15268   6.653   1.821   4.615
 4790SOL    HW115269   6.556   1.835   4.595
 4790SOL    HW215270   6.705   1.902   4.588
 4791SOL     OW15271   0.742   7.017   0.314
 4791SOL    HW115272   0.728   0.078   0.362
 4791SOL    HW215273   0.826   7.022   0.261
 4792SOL     OW15274   1.757   3.311   2.430
 4792SOL    HW115275   1.837   3.370   2.414
 4792SOL    HW215276   1.696   3.356   2.495
 4793SOL     OW15277   1.370   3.816   6.063
 4793SOL    HW115278   1.383   3.734   6.008
 4793SOL    HW215279   1.454   3.836   6.114
 4794SOL     OW15280   4.846   1.829   4.601
 4794SOL    HW115281   4.906   1.752   4.578
 4794SOL    HW215282   4.780   1.843   4.527
 4795SOL     OW15283   0.132   0.854   6.338
 4795SOL    HW115284   0.211   0.915   6.332
 4795SOL    HW215285   0.155   0.766   6.296
 4796SOL     OW15286   4.390   1.421   5.471
 4796SOL    HW115287   4.331   1.432   5.391
 4796SOL    HW215288   4.483   1.399   5.442
 4797SOL     OW15289   2.124   5.079   6.444
 4797SOL    HW115290   2.164   4.993   6.474
 4797SOL    HW215291   2.078   5.123   6.520
 4798SOL     OW15292   4.058   5.722   0.400
 4798SOL    HW115293   4.049   5.763   0.310
 4798SOL    HW215294   4.057   5.623   0.392
 4799SOL     OW15295   4.313   2.667   0.335
 4799SOL    HW115296   4.347   2.670   0.240
 4799SOL    HW215297   4.390   2.675   0.398
 4800SOL     OW15298   0.245   4.269   6.880
 4800SOL    HW115299   0.327   4.248   6.935
 4800SOL    HW215300   0.199   4.183   6.858
 4801SOL     OW15301   5.582   2.323   2.496
 4801SOL    HW115302   5.568   2.351   2.592
 4801SOL    HW215303   5.606   2.403   2.441
 4802SOL     OW15304   6.560   0.043   4.364
 4802SOL    HW115305   6.578   0.027   4.266
 4802SOL    HW215306   6.573   0.139   4.385
 4803SOL     OW15307   5.172   3.951   5.481
 4803SOL    HW115308   5.248   3.904   5.435
 4803SOL    HW215309   5.102   3.974   5.414
 4804SOL     OW15310   5.342   2.144   0.605
 4804SOL    HW115311   5.279   2.189   0.668
 4804SOL    HW215312   5.320   2.171   0.511
 4805SOL     OW15313   5.671   1.650   6.994
 4805SOL    HW115314   5.704   1.556   6.997
 4805SOL    HW215315   5.731   1.704   6.934
 4806SOL     OW15316   1.248   1.646   3.431
 4806SOL    HW115317   1.271   1.560   3.385
 4806SOL    HW215318   1.243   1.630   3.530
 4807SOL     OW15319   0.235   4.468   6.128
 4807SOL    HW115320   0.221   4.418   6.214
 4807SOL    HW215321   0.229   4.405   6.051
 4808SOL     OW15322   3.519   5.905   1.972
 4808SOL    HW115323   3.419   5.904   1.977
 4808SOL    HW215324   3.550   5.839   1.903
 4809SOL     OW15325   3.269   3.804   1.680
 4809SOL    HW115326   3.323   3.749   1.616
 4809SOL    HW215327   3.330   3.866   1.730
 4810SOL     OW15328   1.826   5.724   4.212
 4810SOL    HW115329   1.816   5.819   4.182
 4810SOL    HW215330   1.754   5.702   4.278
 4811SOL     OW15331   3.450   3.451   4.315
 4811SOL    HW115332   3.397   3.505   4.250
 4811SOL    HW215333   3.522   3.508   4.355
 4812SOL     OW15334   1.655   6.703   3.278
 4812SOL    HW115335   1.674   6.687   3.181
 4812SOL    HW215336   1.705   6.636   3.333
 4813SOL     OW15337   0.797   1.895   5.207
 4813SOL    HW115338   0.733   1.924   5.278
 4813SOL    HW215339   0.763   1.812   5.163
 4814SOL     OW15340   6.331   3.877   1.430
 4814SOL    HW115341   6.330   3.974   1.457
 4814SOL    HW215342   6.305   3.821   1.509
 4815SOL     OW15343   6.199   4.575   2.676
 4815SOL    HW115344   6.189   4.512   2.753
 4815SOL    HW215345   6.137   4.548   2.603
 4816SOL     OW15346   3.416   0.797   2.469
 4816SOL    HW115347   3.427   0.894   2.451
 4816SOL    HW215348   3.381   0.783   2.562
 4817SOL     OW15349   3.948   1.829   1.384
 4817SOL    HW115350   3.977   1.907   1.440
 4817SOL    HW215351   3.997   1.747   1.414
 4818SOL     OW15352   3.788   0.107   4.735
 4818SOL    HW115353   3.781   0.015   4.774
 4818SOL    HW215354   3.874   0.149   4.764
 4819SOL     OW15355   3.144   0.901   0.031
 4819SOL    HW115356   3.096   0.928   0.115
 4819SOL    HW215357   3.243   0.907   0.045
 4820SOL     OW15358   5.740   4.412   1.742
 4820SOL    HW115359   5.740   4.448   1.835
 4820SOL    HW215360   5.660   4.353   1.729
 4821SOL     OW15361   0.412   5.984   1.907
 4821SOL    HW115362   0.393   6.072   1.951
 4821SOL    HW215363   0.364   5.980   1.819
 4822SOL     OW15364   0.883   3.954   1.710
 4822SOL    HW115365   0.800   3.899   1.721
 4822SOL    HW215366   0.956   3.897   1.672
 4823SOL     OW15367   1.212   1.056   3.315
 4823SOL    HW115368   1.127   1.004   3.302
 4823SOL    HW215369   1.190   1.147   3.349
 4824SOL     OW15370   5.657   2.665   2.019
 4824SOL    HW115371   5.682   2.628   1.929
 4824SOL    HW215372   5.634   2.762   2.010
 4825SOL     OW15373   0.064   3.154   3.769
 4825SOL    HW115374   0.103   3.156   3.861
 4825SOL    HW215375   7.002   3.201   3.768
 4826SOL     OW15376   6.993   6.622   6.872
 4826SOL    HW115377   6.936   6.625   6.790
 4826SOL    HW215378   6.957   6.686   6.940
 4827SOL     OW15379   5.115   1.342   0.390
 4827SOL    HW115380   5.167   1.421   0.359
 4827SOL    HW215381   5.018   1.358   0.376
 4828SOL     OW15382   5.298   3.096   6.743
 4828SOL    HW115383   5.349   3.182   6.750
 4828SOL    HW215384   5.320   3.051   6.657
 4829SOL     OW15385   4.085   0.379   5.077
 4829SOL    HW115386   4.012   0.419   5.131
 4829SOL    HW215387   4.116   0.294   5.120
 4830SOL     OW15388   4.482   6.258   5.345
 4830SOL    HW115389   4.468   6.243   5.247
 4830SOL    HW215390   4.409   6.213   5.396
 4831SOL     OW15391   5.874   3.295   6.270
 4831SOL    HW115392   5.962   3.336   6.245
 4831SOL    HW215393   5.858   3.215   6.213
 4832SOL     OW15394   1.678   2.654   6.315
 4832SOL    HW115395   1.628   2.604   6.386
 4832SOL    HW215396   1.680   2.599   6.232
 4833SOL     OW15397   6.449   1.558   3.329
 4833SOL    HW115398   6.502   1.495   3.386
 4833SOL    HW215399   6.510   1.626   3.287
 4834SOL     OW15400   5.676   0.846   3.242
 4834SOL    HW115401   5.613   0.798   3.180
 4834SOL    HW215402   5.752   0.786   3.266
 4835SOL     OW15403   1.601   1.149   6.025
 4835SOL    HW115404   1.567   1.158   5.931
 4835SOL    HW215405   1.614   1.053   6.047
 4836SOL     OW15406   5.605   3.183   1.869
 4836SOL    HW115407   5.533   3.158   1.804
 4836SOL    HW215408   5.588   3.275   1.903
 4837SOL     OW15409   0.108   3.800   1.083
 4837SOL    HW115410   0.111   3.808   1.183
 4837SOL    HW215411   0.068   3.883   1.044
 4838SOL     OW15412   2.936   5.140   2.418
 4838SOL    HW115413   2.855   5.081   2.410
 4838SOL    HW215414   2.992   5.129   2.336
 4839SOL     OW15415   0.583   6.818   6.862
 4839SOL    HW115416   0.613   6.758   6.787
 4839SOL    HW215417   0.579   6.912   6.831
 4840SOL     OW15418   6.178   6.655   6.582
 4840SOL    HW115419   6.222   6.744   6.570
 4840SOL    HW215420   6.130   6.629   6.498
 4841SOL     OW15421   2.453   5.915   2.141
 4841SOL    HW115422   2.505   5.982   2.090
 4841SOL    HW215423   2.369   5.893   2.092
 4842SOL     OW15424   3.803   6.593   1.611
 4842SOL    HW115425   3.797   6.625   1.516
 4842SOL    HW215426   3.721   6.620   1.661
 4843SOL     OW15427   0.900   2.642   6.474
 4843SOL    HW115428   0.977   2.663   6.415
 4843SOL    HW215429   0.843   2.723   6.485
 4844SOL     OW15430   0.707   1.600   5.448
 4844SOL    HW115431   0.747   1.686   5.480
 4844SOL    HW215432   0.696   1.603   5.349
 4845SOL     OW15433   5.738   5.200   3.745
 4845SOL    HW115434   5.790   5.283   3.764
 4845SOL    HW215435   5.788   5.120   3.778
 4846SOL     OW15436   0.137   5.191   6.978
 4846SOL    HW115437   0.127   5.252   6.899
 4846SOL    HW215438   0.047   5.159   7.007
 4847SOL     OW15439   4.706   2.742   4.372
 4847SOL    HW115440   4.781   2.692   4.416
 4847SOL    HW215441   4.635   2.761   4.440
 4848SOL     OW15442   2.458   2.214   1.914
 4848SOL    HW115443   2.414   2.140   1.964
 4848SOL    HW215444   2.464   2.191   1.817
 4849SOL     OW15445   0.987   6.454   6.128
 4849SOL    HW115446   0.898   6.427   6.164
 4849SOL    HW215447   1.008   6.547   6.156
 4850SOL     OW15448   4.328   0.723   3.731
 4850SOL    HW115449   4.286   0.795   3.676
 4850SOL    HW215450   4.388   0.667   3.673
 4851SOL     OW15451   5.390   0.987   5.101
 4851SOL    HW115452   5.489   1.000   5.096
 4851SOL    HW215453   5.359   0.931   5.024
 4852SOL     OW15454   1.834   2.033   1.807
 4852SOL    HW115455   1.779   2.081   1.739
 4852SOL    HW215456   1.778   1.961   1.849
 4853SOL     OW15457   3.490   1.925   1.398
 4853SOL    HW115458   3.431   1.844   1.402
 4853SOL    HW215459   3.576   1.901   1.354
 4854SOL     OW15460   3.793   0.208   0.318
 4854SOL    HW115461   3.878   0.200   0.267
 4854SOL    HW215462   3.807   0.178   0.412
 4855SOL     OW15463   6.816   2.906   2.642
 4855SOL    HW115464   6.755   2.830   2.621
 4855SOL    HW215465   6.909   2.884   2.611
 4856SOL     OW15466   1.791   3.679   3.465
 4856SOL    HW115467   1.852   3.739   3.413
 4856SOL    HW215468   1.741   3.733   3.533
 4857SOL     OW15469   0.763   1.266   6.355
 4857SOL    HW115470   0.712   1.339   6.309
 4857SOL    HW215471   0.861   1.281   6.342
 4858SOL     OW15472   1.467   0.691   3.957
 4858SOL    HW115473   1.525   0.725   4.032
 4858SOL    HW215474   1.495   0.598   3.934
 4859SOL     OW15475   3.476   5.650   5.893
 4859SOL    HW115476   3.518   5.559   5.898
 4859SOL    HW215477   3.526   5.706   5.826
 4860SOL     OW15478   4.418   4.039   0.539
 4860SOL    HW115479   4.324   4.018   0.566
 4860SOL    HW215480   4.422   4.056   0.441
 4861SOL     OW15481   5.198   3.529   5.780
 4861SOL    HW115482   5.150   3.447   5.749
 4861SOL    HW215483   5.158   3.609   5.736
 4862SOL     OW15484   0.960   6.211   1.050
 4862SOL    HW115485   0.885   6.159   1.010
 4862SOL    HW215486   0.987   6.285   0.988
 4863SOL     OW15487   5.024   3.968   6.534
 4863SOL    HW115488   4.962   3.913   6.479
 4863SOL    HW215489   5.103   3.995   6.478
 4864SOL     OW15490   3.176   0.912   4.067
 4864SOL    HW115491   3.266   0.941   4.101
 4864SOL    HW215492   3.106   0.976   4.100
 4865SOL     OW15493   2.008   6.469   5.189
 4865SOL    HW115494   1.910   6.462   5.207
 4865SOL    HW215495   2.026   6.552   5.135
 4866SOL     OW15496   6.509   4.011   6.582
 4866SOL    HW115497   6.492   3.914   6.569
 4866SOL    HW215498   6.425   4.062   6.564
 4867SOL     OW15499   4.664   0.520   2.623
 4867SOL    HW115500   4.696   0.520   2.717
 4867SOL    HW215501   4.640   0.614   2.596
 4868SOL     OW15502   0.116   4.382   0.810
 4868SOL    HW115503   0.110   4.418   0.717
 4868SOL    HW215504   0.032   4.405   0.860
 4869SOL     OW15505   0.718   0.996   0.726
 4869SOL    HW115506   0.663   1.050   0.790
 4869SOL    HW215507   0.813   0.994   0.757
 4870SOL     OW15508   0.555   6.852   1.939
 4870SOL    HW115509   0.500   6.912   1.881
 4870SOL    HW215510   0.627   6.905   1.984
 4871SOL     OW15511   1.614   1.211   3.683
 4871SOL    HW115512   1.588   1.280   3.751
 4871SOL    HW215513   1.533   1.171   3.641
 4872SOL     OW15514   5.867   6.054   3.046
 4872SOL    HW115515   5.930   6.088   3.116
 4872SOL    HW215516   5.843   6.129   2.984
 4873SOL     OW15517   6.344   5.265   4.767
 4873SOL    HW115518   6.386   5.353   4.789
 4873SOL    HW215519   6.413   5.193   4.770
 4874SOL     OW15520   5.026   3.175   3.078
 4874SOL    HW115521   4.978   3.143   3.160
 4874SOL    HW215522   5.124   3.162   3.090
 4875SOL     OW15523   5.531   6.030   5.049
 4875SOL    HW115524   5.529   6.062   5.144
 4875SOL    HW215525   5.589   5.949   5.043
 4876SOL     OW15526   1.218   0.945   2.146
 4876SOL    HW115527   1.209   0.911   2.240
 4876SOL    HW215528   1.299   0.905   2.104
 4877SOL     OW15529   6.933   1.504   5.952
 4877SOL    HW115530   6.892   1.588   5.986
 4877SOL    HW215531   6.963   1.518   5.857
 4878SOL     OW15532   0.145   3.350   2.163
 4878SOL    HW115533   0.210   3.352   2.239
 4878SOL    HW215534   0.089   3.268   2.168
 4879SOL     OW15535   5.999   0.814   2.801
 4879SOL    HW115536   5.991   0.716   2.782
 4879SOL    HW215537   5.911   0.857   2.785
 4880SOL     OW15538   6.578   2.799   6.577
 4880SOL    HW115539   6.656   2.764   6.526
 4880SOL    HW215540   6.509   2.728   6.587
 4881SOL     OW15541   1.721   2.831   1.734
 4881SOL    HW115542   1.672   2.744   1.726
 4881SOL    HW215543   1.709   2.884   1.650
 4882SOL     OW15544   4.535   2.562   4.543
 4882SOL    HW115545   4.465   2.503   4.583
 4882SOL    HW215546   4.625   2.518   4.553
 4883SOL     OW15547   5.803   4.479   0.404
 4883SOL    HW115548   5.867   4.444   0.336
 4883SOL    HW215549   5.814   4.578   0.412
 4884SOL     OW15550   1.611   0.767   1.709
 4884SOL    HW115551   1.651   0.701   1.645
 4884SOL    HW215552   1.519   0.737   1.734
 4885SOL     OW15553   1.309   4.199   0.632
 4885SOL    HW115554   1.248   4.262   0.585
 4885SOL    HW215555   1.395   4.191   0.581
 4886SOL     OW15556   2.484   0.974   2.097
 4886SOL    HW115557   2.469   0.880   2.065
 4886SOL    HW215558   2.412   0.998   2.163
 4887SOL     OW15559   5.640   6.438   0.075
 4887SOL    HW115560   5.561   6.484   0.116
 4887SOL    HW215561   5.716   6.440   0.140
 4888SOL     OW15562   4.170   0.420   2.732
 4888SOL    HW115563   4.206   0.424   2.639
 4888SOL    HW215564   4.151   0.325   2.757
 4889SOL     OW15565   0.026   3.012   4.122
 4889SOL    HW115566   0.027   3.103   4.081
 4889SOL    HW215567   6.958   2.978   4.126
 4890SOL     OW15568   6.679   1.314   4.496
 4890SOL    HW115569   6.633   1.309   4.407
 4890SOL    HW215570   6.683   1.409   4.525
 4891SOL     OW15571   3.148   5.348   6.552
 4891SOL    HW115572   3.055   5.311   6.550
 4891SOL    HW215573   3.208   5.290   6.498
 4892SOL     OW15574   5.160   5.251   2.310
 4892SOL    HW115575   5.113   5.332   2.345
 4892SOL    HW215576   5.093   5.192   2.264
 4893SOL     OW15577   1.153   3.327   1.008
 4893SOL    HW115578   1.145   3.426   1.007
 4893SOL    HW215579   1.247   3.301   1.030
 4894SOL     OW15580   5.472   6.720   1.830
 4894SOL    HW115581   5.553   6.745   1.777
 4894SOL    HW215582   5.452   6.792   1.897
 4895SOL     OW15583   6.812   4.549   5.183
 4895SOL    HW115584   6.909   4.572   5.180
 4895SOL    HW215585   6.783   4.514   5.094
 4896SOL     OW15586   2.442   4.770   4.760
 4896SOL    HW115587   2.471   4.682   4.721
 4896SOL    HW215588   2.504   4.796   4.834
 4897SOL     OW15589   1.641   0.150   5.189
 4897SOL    HW115590   1.580   0.194   5.255
 4897SOL    HW215591   1.593   0.075   5.144
 4898SOL     OW15592   5.161   1.725   3.334
 4898SOL    HW115593   5.105   1.727   3.252
 4898SOL    HW215594   5.187   1.818   3.359
 4899SOL     OW15595   6.363   6.770   1.339
 4899SOL    HW115596   6.288   6.837   1.341
 4899SOL    HW215597   6.350   6.708   1.262
 4900SOL     OW15598   3.755   6.122   5.787
 4900SOL    HW115599   3.801   6.035   5.778
 4900SOL    HW215600   3.724   6.135   5.882
 4901SOL     OW15601   0.884   0.516   6.706
 4901SOL    HW115602   0.911   0.429   6.749
 4901SOL    HW215603   0.855   0.499   6.612
 4902SOL     OW15604   2.366   0.341   5.384
 4902SOL    HW115605   2.346   0.398   5.305
 4902SOL    HW215606   2.281   0.321   5.433
 4903SOL     OW15607   4.962   3.719   3.108
 4903SOL    HW115608   4.924   3.628   3.125
 4903SOL    HW215609   5.016   3.717   3.023
 4904SOL     OW15610   1.436   0.179   0.650
 4904SOL    HW115611   1.449   0.113   0.576
 4904SOL    HW215612   1.339   0.204   0.655
 4905SOL     OW15613   2.834   6.721   3.269
 4905SOL    HW115614   2.749   6.669   3.279
 4905SOL    HW215615   2.854   6.770   3.354
 4906SOL     OW15616   4.941   3.610   4.796
 4906SOL    HW115617   4.881   3.553   4.740
 4906SOL    HW215618   4.894   3.637   4.880
 4907SOL     OW15619   4.228   1.922   0.241
 4907SOL    HW115620   4.285   1.868   0.179
 4907SOL    HW215621   4.235   1.886   0.334
 4908SOL     OW15622   3.753   0.006   0.622
 4908SOL    HW115623   3.701   0.091   0.629
 4908SOL    HW215624   3.746   6.981   0.707
 4909SOL     OW15625   5.286   4.855   4.790
 4909SOL    HW115626   5.266   4.876   4.885
 4909SOL    HW215627   5.261   4.760   4.770
 4910SOL     OW15628   4.739   2.128   6.158
 4910SOL    HW115629   4.766   2.117   6.062
 4910SOL    HW215630   4.759   2.221   6.188
 4911SOL     OW15631   6.439   3.435   2.464
 4911SOL    HW115632   6.474   3.453   2.556
 4911SOL    HW215633   6.379   3.510   2.436
 4912SOL     OW15634   5.685   2.364   3.916
 4912SOL    HW115635   5.674   2.332   4.010
 4912SOL    HW215636   5.667   2.462   3.911
 4913SOL     OW15637   0.894   4.252   5.354
 4913SOL    HW115638   0.862   4.234   5.262
 4913SOL    HW215639   0.908   4.351   5.365
 4914SOL     OW15640   4.211   0.718   3.975
 4914SOL    HW115641   4.286   0.690   4.034
 4914SOL    HW215642   4.245   0.733   3.882
 4915SOL     OW15643   3.702   5.421   5.659
 4915SOL    HW115644   3.652   5.378   5.584
 4915SOL    HW215645   3.795   5.383   5.662
 4916SOL     OW15646   5.785   2.021   3.874
 4916SOL    HW115647   5.734   2.097   3.834
 4916SOL    HW215648   5.722   1.960   3.921
 4917SOL     OW15649   4.183   6.630   0.091
 4917SOL    HW115650   4.114   6.650   0.021
 4917SOL    HW215651   4.266   6.595   0.047
 4918SOL     OW15652   5.564   4.902   3.555
 4918SOL    HW115653   5.568   4.974   3.487
 4918SOL    HW215654   5.559   4.813   3.510
 4919SOL     OW15655   3.360   3.747   1.999
 4919SOL    HW115656   3.411   3.763   2.084
 4919SOL    HW215657   3.422   3.755   1.921
 4920SOL     OW15658   5.842   1.760   6.080
 4920SOL    HW115659   5.908   1.689   6.056
 4920SOL    HW215660   5.763   1.718   6.125
 4921SOL     OW15661   0.059   0.260   2.166
 4921SOL    HW115662   0.069   0.324   2.090
 4921SOL    HW215663   0.060   0.166   2.130
 4922SOL     OW15664   3.190   1.357   6.073
 4922SOL    HW115665   3.148   1.299   6.003
 4922SOL    HW215666   3.171   1.453   6.052
 4923SOL     OW15667   3.539   1.213   1.830
 4923SOL    HW115668   3.439   1.204   1.827
 4923SOL    HW215669   3.580   1.125   1.854
 4924SOL     OW15670   2.447   0.587   5.192
 4924SOL    HW115671   2.455   0.652   5.116
 4924SOL    HW215672   2.505   0.617   5.267
 4925SOL     OW15673   5.760   5.804   3.736
 4925SOL    HW115674   5.713   5.720   3.761
 4925SOL    HW215675   5.822   5.831   3.810
 4926SOL     OW15676   5.030   2.612   1.013
 4926SOL    HW115677   5.125   2.591   0.990
 4926SOL    HW215678   5.023   2.636   1.110
 4927SOL     OW15679   3.057   1.485   6.981
 4927SOL    HW115680   3.151   1.466   7.009
 4927SOL    HW215681   3.041   1.584   6.985
 4928SOL     OW15682   6.274   2.384   0.940
 4928SOL    HW115683   6.272   2.482   0.921
 4928SOL    HW215684   6.256   2.369   1.038
 4929SOL     OW15685   0.897   6.540   4.990
 4929SOL    HW115686   0.955   6.544   5.072
 4929SOL    HW215687   0.807   6.505   5.015
 4930SOL     OW15688   5.350   6.059   2.615
 4930SOL    HW115689   5.371   6.113   2.534
 4930SOL    HW215690   5.427   6.065   2.679
 4931SOL     OW15691   6.889   6.359   0.696
 4931SOL    HW115692   6.819   6.332   0.630
 4931SOL    HW215693   6.851   6.424   0.761
 4932SOL     OW15694   3.868   3.423   2.612
 4932SOL    HW115695   3.844   3.402   2.517
 4932SOL    HW215696   3.968   3.419   2.623
 4933SOL     OW15697   1.670   0.546   5.928
 4933SOL    HW115698   1.706   0.547   5.835
 4933SOL    HW215699   1.611   0.626   5.941
 4934SOL     OW15700   4.245   6.202   2.459
 4934SOL    HW115701   4.270   6.120   2.510
 4934SOL    HW215702   4.218   6.178   2.366
 4935SOL     OW15703   0.241   0.823   5.499
 4935SOL    HW115704   0.201   0.756   5.561
 4935SOL    HW215705   0.233   0.791   5.405
 4936SOL     OW15706   4.122   2.623   1.237
 4936SOL    HW115707   4.054   2.691   1.212
 4936SOL    HW215708   4.093   2.533   1.205
 4937SOL     OW15709   4.534   2.818   5.180
 4937SOL    HW115710   4.457   2.763   5.211
 4937SOL    HW215711   4.552   2.798   5.083
 4938SOL     OW15712   3.948   4.906   6.656
 4938SOL    HW115713   3.984   4.891   6.564
 4938SOL    HW215714   3.985   4.837   6.718
 4939SOL     OW15715   4.823   3.393   5.956
 4939SOL    HW115716   4.889   3.325   5.987
 4939SOL    HW215717   4.821   3.470   6.020
 4940SOL     OW15718   2.269   6.154   3.915
 4940SOL    HW115719   2.235   6.076   3.862
 4940SOL    HW215720   2.267   6.236   3.859
 4941SOL     OW15721   5.617   0.379   0.974
 4941SOL    HW115722   5.690   0.446   0.991
 4941SOL    HW215723   5.583   0.390   0.880
 4942SOL     OW15724   4.616   2.642   6.054
 4942SOL    HW115725   4.582   2.613   6.143
 4942SOL    HW215726   4.716   2.644   6.055
 4943SOL     OW15727   5.247   2.437   1.535
 4943SOL    HW115728   5.264   2.362   1.599
 4943SOL    HW215729   5.334   2.477   1.506
 4944SOL     OW15730   2.175   4.153   2.272
 4944SOL    HW115731   2.168   4.054   2.287
 4944SOL    HW215732   2.086   4.196   2.289
 4945SOL     OW15733   6.843   6.519   4.644
 4945SOL    HW115734   6.823   6.605   4.597
 4945SOL    HW215735   6.762   6.461   4.644
 4946SOL     OW15736   0.311   4.284   2.231
 4946SOL    HW115737   0.403   4.302   2.266
 4946SOL    HW215738   0.289   4.352   2.161
 4947SOL     OW15739   6.301   0.142   1.420
 4947SOL    HW115740   6.284   0.043   1.427
 4947SOL    HW215741   6.226   0.191   1.463
 4948SOL     OW15742   2.344   1.224   1.894
 4948SOL    HW115743   2.441   1.235   1.871
 4948SOL    HW215744   2.333   1.229   1.993
 4949SOL     OW15745   5.426   2.155   5.035
 4949SOL    HW115746   5.500   2.194   5.090
 4949SOL    HW215747   5.369   2.229   4.999
 4950SOL     OW15748   3.348   5.062   5.228
 4950SOL    HW115749   3.288   4.997   5.181
 4950SOL    HW215750   3.429   5.015   5.263
 4951SOL     OW15751   4.528   2.221   4.275
 4951SOL    HW115752   4.511   2.320   4.272
 4951SOL    HW215753   4.472   2.180   4.347
 4952SOL     OW15754   0.015   4.809   5.133
 4952SOL    HW115755   0.101   4.775   5.169
 4952SOL    HW215756   6.991   4.858   5.205
 4953SOL     OW15757   1.820   5.499   2.214
 4953SOL    HW115758   1.842   5.407   2.245
 4953SOL    HW215759   1.853   5.566   2.281
 4954SOL     OW15760   6.816   6.369   6.918
 4954SOL    HW115761   6.775   6.378   7.009
 4954SOL    HW215762   6.897   6.427   6.913
 4955SOL     OW15763   1.055   0.814   0.936
 4955SOL    HW115764   1.021   0.892   0.883
 4955SOL    HW215765   1.017   0.818   1.029
 4956SOL     OW15766   6.302   6.954   4.246
 4956SOL    HW115767   6.375   6.991   4.303
 4956SOL    HW215768   6.224   7.017   4.248
 4957SOL     OW15769   1.991   6.288   3.797
 4957SOL    HW115770   2.000   6.266   3.894
 4957SOL    HW215771   2.077   6.324   3.763
 4958SOL     OW15772   0.377   6.552   6.413
 4958SOL    HW115773   0.347   6.643   6.385
 4958SOL    HW215774   0.343   6.533   6.505
 4959SOL     OW15775   0.131   1.365   0.217
 4959SOL    HW115776   0.115   1.277   0.260
 4959SOL    HW215777   0.188   1.422   0.277
 4960SOL     OW15778   3.815   6.544   5.229
 4960SOL    HW115779   3.890   6.504   5.177
 4960SOL    HW215780   3.785   6.480   5.300
 4961SOL     OW15781   4.507   0.642   6.054
 4961SOL    HW115782   4.505   0.562   6.115
 4961SOL    HW215783   4.538   0.722   6.105
 4962SOL     OW15784   6.538   2.510   2.169
 4962SOL    HW115785   6.537   2.606   2.140
 4962SOL    HW215786   6.469   2.459   2.118
 4963SOL     OW15787   6.890   4.421   0.899
 4963SOL    HW115788   6.859   4.381   0.985
 4963SOL    HW215789   6.859   4.516   0.894
 4964SOL     OW15790   3.828   6.556   2.909
 4964SOL    HW115791   3.828   6.493   2.986
 4964SOL    HW215792   3.767   6.633   2.929
 4965SOL     OW15793   0.005   6.317   4.530
 4965SOL    HW115794   6.942   6.361   4.543
 4965SOL    HW215795   0.072   6.358   4.592
 4966SOL     OW15796   4.019   5.559   5.182
 4966SOL    HW115797   4.071   5.594   5.104
 4966SOL    HW215798   4.058   5.596   5.267
 4967SOL     OW15799   5.224   2.004   6.440
 4967SOL    HW115800   5.170   2.051   6.511
 4967SOL    HW215801   5.268   1.923   6.480
 4968SOL     OW15802   5.582   3.962   6.535
 4968SOL    HW115803   5.621   3.885   6.586
 4968SOL    HW215804   5.641   4.042   6.544
 4969SOL     OW15805   0.124   1.855   1.093
 4969SOL    HW115806   0.205   1.797   1.098
 4969SOL    HW215807   0.135   1.922   1.020
 4970SOL     OW15808   1.268   2.877   6.018
 4970SOL    HW115809   1.285   2.815   6.095
 4970SOL    HW215810   1.354   2.920   5.991
 4971SOL     OW15811   0.338   5.480   3.736
 4971SOL    HW115812   0.371   5.464   3.829
 4971SOL    HW215813   0.238   5.477   3.735
 4972SOL     OW15814   1.643   2.096   5.331
 4972SOL    HW115815   1.658   2.184   5.377
 4972SOL    HW215816   1.574   2.107   5.260
 4973SOL     OW15817   5.805   5.756   2.996
 4973SOL    HW115818   5.858   5.771   2.913
 4973SOL    HW215819   5.809   5.838   3.054
 4974SOL     OW15820   4.480   6.597   0.746
 4974SOL    HW115821   4.405   6.532   0.738
 4974SOL    HW215822   4.464   6.674   0.684
 4975SOL     OW15823   4.661   5.943   0.095
 4975SOL    HW115824   4.710   5.872   0.044
 4975SOL    HW215825   4.634   5.906   0.184
 4976SOL     OW15826   3.053   1.103   4.237
 4976SOL    HW115827   3.022   1.020   4.283
 4976SOL    HW215828   3.107   1.159   4.300
 4977SOL     OW15829   3.292   3.034   0.030
 4977SOL    HW115830   3.379   2.998   7.022
 4977SOL    HW215831   3.224   2.961   0.033
 4978SOL     OW15832   5.936   3.937   6.551
 4978SOL    HW115833   5.988   4.020   6.570
 4978SOL    HW215834   5.868   3.924   6.623
 4979SOL     OW15835   1.375   3.146   3.922
 4979SOL    HW115836   1.421   3.065   3.886
 4979SOL    HW215837   1.378   3.219   3.853
 4980SOL     OW15838   3.135   5.275   3.359
 4980SOL    HW115839   3.132   5.292   3.260
 4980SOL    HW215840   3.203   5.335   3.401
 4981SOL     OW15841   4.850   6.743   5.577
 4981SOL    HW115842   4.943   6.778   5.584
 4981SOL    HW215843   4.824   6.700   5.663
 4982SOL     OW15844   2.546   2.500   0.167
 4982SOL    HW115845   2.520   2.460   0.255
 4982SOL    HW215846   2.532   2.599   0.170
 4983SOL     OW15847   6.402   3.008   4.748
 4983SOL    HW115848   6.314   2.985   4.706
 4983SOL    HW215849   6.406   2.969   4.840
 4984SOL     OW15850   4.666   4.250   2.889
 4984SOL    HW115851   4.672   4.323   2.957
 4984SOL    HW215852   4.698   4.164   2.930
 4985SOL     OW15853   5.303   4.409   2.116
 4985SOL    HW115854   5.350   4.437   2.032
 4985SOL    HW215855   5.336   4.463   2.193
 4986SOL     OW15856   4.542   4.621   3.258
 4986SOL    HW115857   4.526   4.720   3.264
 4986SOL    HW215858   4.581   4.589   3.345
 4987SOL     OW15859   0.472   4.010   1.307
 4987SOL    HW115860   0.373   4.007   1.324
 4987SOL    HW215861   0.492   4.075   1.234
 4988SOL     OW15862   1.455   2.163   4.811
 4988SOL    HW115863   1.371   2.217   4.806
 4988SOL    HW215864   1.534   2.225   4.814
 4989SOL     OW15865   6.777   1.080   0.539
 4989SOL    HW115866   6.691   1.056   0.585
 4989SOL    HW215867   6.757   1.112   0.447
 4990SOL     OW15868   0.958   2.084   6.329
 4990SOL    HW115869   0.961   2.038   6.240
 4990SOL    HW215870   1.003   2.173   6.322
 4991SOL     OW15871   2.410   2.263   4.721
 4991SOL    HW115872   2.336   2.277   4.655
 4991SOL    HW215873   2.413   2.167   4.749
 4992SOL     OW15874   4.377   0.672   4.203
 4992SOL    HW115875   4.393   0.574   4.199
 4992SOL    HW215876   4.404   0.707   4.293
 4993SOL     OW15877   1.978   6.231   4.063
 4993SOL    HW115878   1.880   6.230   4.082
 4993SOL    HW215879   2.020   6.308   4.111
 4994SOL     OW15880   0.823   0.059   2.625
 4994SOL    HW115881   0.810   0.130   2.555
 4994SOL    HW215882   0.847   0.103   2.712
 4995SOL     OW15883   6.257   2.919   5.677
 4995SOL    HW115884   6.229   3.015   5.673
 4995SOL    HW215885   6.322   2.900   5.603
 4996SOL     OW15886   0.612   1.524   3.918
 4996SOL    HW115887   0.545   1.509   3.990
 4996SOL    HW215888   0.583   1.601   3.860
 4997SOL     OW15889   0.262   2.148   4.162
 4997SOL    HW115890   0.182   2.129   4.105
 4997SOL    HW215891   0.233   2.162   4.256
 4998SOL     OW15892   0.990   5.572   5.363
 4998SOL    HW115893   1.011   5.663   5.400
 4998SOL    HW215894   1.040   5.503   5.414
 4999SOL     OW15895   6.177   5.147   1.061
 4999SOL    HW115896   6.199   5.056   1.097
 4999SOL    HW215897   6.226   5.162   0.975
 5000SOL     OW15898   6.891   5.694   3.880
 5000SOL    HW115899   6.853   5.752   3.951
 5000SOL    HW215900   6.821   5.673   3.812
 5001SOL     OW15901   4.589   4.530   5.260
 5001SOL    HW115902   4.618   4.439   5.230
 5001SOL    HW215903   4.598   4.538   5.359
 5002SOL     OW15904   2.009   2.269   1.749
 5002SOL    HW115905   2.000   2.170   1.751
 5002SOL    HW215906   1.954   2.309   1.822
 5003SOL     OW15907   6.987   5.222   4.014
 5003SOL    HW115908   6.985   5.125   3.988
 5003SOL    HW215909   6.894   5.259   4.009
 5004SOL     OW15910   3.127   4.415   6.217
 5004SOL    HW115911   3.178   4.483   6.269
 5004SOL    HW215912   3.141   4.431   6.119
 5005SOL     OW15913   4.479   1.959   6.952
 5005SOL    HW115914   4.543   2.033   6.968
 5005SOL    HW215915   4.485   1.893   0.002
 5006SOL     OW15916   5.665   4.587   2.589
 5006SOL    HW115917   5.618   4.581   2.678
 5006SOL    HW215918   5.745   4.647   2.598
 5007SOL     OW15919   3.847   1.845   5.086
 5007SOL    HW115920   3.816   1.940   5.083
 5007SOL    HW215921   3.945   1.842   5.064
 5008SOL     OW15922   6.370   0.646   3.901
 5008SOL    HW115923   6.295   0.603   3.950
 5008SOL    HW215924   6.339   0.673   3.810
 5009SOL     OW15925   1.923   5.763   2.318
 5009SOL    HW115926   1.949   5.838   2.257
 5009SOL    HW215927   1.826   5.770   2.339
 5010SOL     OW15928   3.240   3.096   4.970
 5010SOL    HW115929   3.272   3.115   5.062
 5010SOL    HW215930   3.312   3.117   4.904
 5011SOL     OW15931   1.129   2.573   3.317
 5011SOL    HW115932   1.142   2.485   3.272
 5011SOL    HW215933   1.179   2.574   3.404
 5012SOL     OW15934   6.184   3.017   6.918
 5012SOL    HW115935   6.210   2.923   6.897
 5012SOL    HW215936   6.150   3.022   7.012
 5013SOL     OW15937   4.943   2.304   5.426
 5013SOL    HW115938   4.944   2.256   5.338
 5013SOL    HW215939   5.012   2.264   5.486
 5014SOL     OW15940   6.281   6.220   6.144
 5014SOL    HW115941   6.372   6.229   6.104
 5014SOL    HW215942   6.262   6.124   6.163
 5015SOL     OW15943   5.349   1.995   3.655
 5015SOL    HW115944   5.407   2.068   3.618
 5015SOL    HW215945   5.404   1.912   3.669
 5016SOL     OW15946   2.231   6.663   2.356
 5016SOL    HW115947   2.246   6.627   2.264
 5016SOL    HW215948   2.315   6.656   2.409
 5017SOL     OW15949   2.090   2.006   1.929
 5017SOL    HW115950   1.998   2.007   1.891
 5017SOL    HW215951   2.089   1.964   2.020
 5018SOL     OW15952   0.101   5.087   3.670
 5018SOL    HW115953   0.042   5.105   3.592
 5018SOL    HW215954   0.045   5.066   3.750
 5019SOL     OW15955   2.873   5.335   5.767
 5019SOL    HW115956   2.928   5.280   5.829
 5019SOL    HW215957   2.780   5.343   5.803
 5020SOL     OW15958   4.315   5.455   6.651
 5020SOL    HW115959   4.381   5.526   6.627
 5020SOL    HW215960   4.360   5.384   6.705
 5021SOL     OW15961   2.493   4.369   5.667
 5021SOL    HW115962   2.511   4.365   5.569
 5021SOL    HW215963   2.485   4.464   5.696
 5022SOL     OW15964   2.107   4.121   1.209
 5022SOL    HW115965   2.016   4.156   1.187
 5022SOL    HW215966   2.113   4.026   1.180
 5023SOL     OW15967   6.418   2.930   3.895
 5023SOL    HW115968   6.438   2.868   3.970
 5023SOL    HW215969   6.412   2.878   3.810
 5024SOL     OW15970   5.481   3.569   5.591
 5024SOL    HW115971   5.529   3.483   5.574
 5024SOL    HW215972   5.382   3.553   5.590
 5025SOL     OW15973   6.773   1.405   3.250
 5025SOL    HW115974   6.731   1.365   3.331
 5025SOL    HW215975   6.872   1.404   3.260
 5026SOL     OW15976   1.074   6.033   2.846
 5026SOL    HW115977   1.060   6.132   2.848
 5026SOL    HW215978   1.044   5.994   2.933
 5027SOL     OW15979   0.431   6.071   3.792
 5027SOL    HW115980   0.372   6.132   3.845
 5027SOL    HW215981   0.469   6.120   3.714
 5028SOL     OW15982   0.677   0.262   3.029
 5028SOL    HW115983   0.590   0.309   3.045
 5028SOL    HW215984   0.745   0.296   3.094
 5029SOL     OW15985   0.092   1.292   3.090
 5029SOL    HW115986   0.079   1.373   3.148
 5029SOL    HW215987   0.011   1.278   3.033
 5030SOL     OW15988   2.457   5.569   7.015
 5030SOL    HW115989   2.496   5.643   0.044
 5030SOL    HW215990   2.399   5.511   0.047
 5031SOL     OW15991   5.546   1.023   6.120
 5031SOL    HW115992   5.630   1.036   6.067
 5031SOL    HW215993   5.563   1.046   6.216
 5032SOL     OW15994   1.489   6.060   1.981
 5032SOL    HW115995   1.412   6.013   1.939
 5032SOL    HW215996   1.485   6.049   2.081
 5033SOL     OW15997   0.049   4.017   5.330
 5033SOL    HW115998   0.041   3.999   5.232
 5033SOL    HW215999   7.004   3.967   5.380
 5034SOL     OW16000   0.101   3.838   6.137
 5034SOL    HW116001   0.037   3.910   6.164
 5034SOL    HW216002   0.071   3.797   6.051
 5035SOL     OW16003   5.900   4.353   1.526
 5035SOL    HW116004   5.903   4.257   1.496
 5035SOL    HW216005   5.827   4.364   1.594
 5036SOL     OW16006   1.762   0.094   2.065
 5036SOL    HW116007   1.734   0.010   2.018
 5036SOL    HW216008   1.845   0.077   2.117
 5037SOL     OW16009   4.737   2.739   2.839
 5037SOL    HW116010   4.776   2.783   2.920
 5037SOL    HW216011   4.734   2.805   2.764
 5038SOL     OW16012   3.123   5.640   5.057
 5038SOL    HW116013   3.051   5.654   5.125
 5038SOL    HW216014   3.133   5.723   5.002
 5039SOL     OW16015   1.567   2.567   3.046
 5039SOL    HW116016   1.507   2.612   2.980
 5039SOL    HW216017   1.591   2.476   3.012
 5040SOL     OW16018   3.033   3.786   5.831
 5040SOL    HW116019   3.095   3.800   5.908
 5040SOL    HW216020   2.946   3.831   5.851
 5041SOL     OW16021   0.560   5.368   0.737
 5041SOL    HW116022   0.522   5.318   0.660
 5041SOL    HW216023   0.502   5.354   0.818
 5042SOL     OW16024   6.199   1.710   5.834
 5042SOL    HW116025   6.254   1.704   5.917
 5042SOL    HW216026   6.140   1.629   5.827
 5043SOL     OW16027   4.963   0.107   3.586
 5043SOL    HW116028   4.920   0.139   3.502
 5043SOL    HW216029   5.034   0.172   3.614
 5044SOL     OW16030   5.400   4.591   2.278
 5044SOL    HW116031   5.324   4.627   2.331
 5044SOL    HW216032   5.481   4.648   2.292
 5045SOL     OW16033   5.627   3.484   5.175
 5045SOL    HW116034   5.709   3.515   5.126
 5045SOL    HW216035   5.563   3.444   5.110
 5046SOL     OW16036   3.818   3.309   5.598
 5046SOL    HW116037   3.841   3.262   5.684
 5046SOL    HW216038   3.894   3.302   5.535
 5047SOL     OW16039   0.797   1.548   2.259
 5047SOL    HW116040   0.742   1.532   2.342
 5047SOL    HW216041   0.737   1.583   2.187
 5048SOL     OW16042   6.134   3.486   1.232
 5048SOL    HW116043   6.054   3.434   1.202
 5048SOL    HW216044   6.177   3.440   1.310
 5049SOL     OW16045   0.769   2.367   1.526
 5049SOL    HW116046   0.814   2.373   1.615
 5049SOL    HW216047   0.733   2.456   1.500
 5050SOL     OW16048   1.169   3.507   0.673
 5050SOL    HW116049   1.172   3.550   0.764
 5050SOL    HW216050   1.081   3.460   0.662
 5051SOL     OW16051   1.851   3.316   6.891
 5051SOL    HW116052   1.821   3.369   6.971
 5051SOL    HW216053   1.950   3.304   6.895
 5052SOL     OW16054   5.479   3.352   0.593
 5052SOL    HW116055   5.506   3.440   0.633
 5052SOL    HW216056   5.537   3.280   0.631
 5053SOL     OW16057   2.253   4.340   1.205
 5053SOL    HW116058   2.299   4.364   1.291
 5053SOL    HW216059   2.194   4.261   1.219
 5054SOL     OW16060   3.992   6.332   5.326
 5054SOL    HW116061   3.964   6.386   5.405
 5054SOL    HW216062   3.953   6.240   5.334
 5055SOL     OW16063   1.544   1.684   3.748
 5055SOL    HW116064   1.608   1.700   3.823
 5055SOL    HW216065   1.595   1.665   3.664
 5056SOL     OW16066   2.925   2.343   5.228
 5056SOL    HW116067   2.876   2.256   5.239
 5056SOL    HW216068   3.022   2.325   5.212
 5057SOL     OW16069   0.497   3.959   2.806
 5057SOL    HW116070   0.575   4.016   2.780
 5057SOL    HW216071   0.415   4.016   2.815
 5058SOL     OW16072   3.599   2.647   0.446
 5058SOL    HW116073   3.590   2.704   0.528
 5058SOL    HW216074   3.511   2.642   0.399
 5059SOL     OW16075   4.458   1.906   3.148
 5059SOL    HW116076   4.512   1.978   3.192
 5059SOL    HW216077   4.361   1.922   3.167
 5060SOL     OW16078   0.259   3.114   5.619
 5060SOL    HW116079   0.254   3.211   5.597
 5060SOL    HW216080   0.248   3.101   5.718
 5061SOL     OW16081   4.351   2.330   5.718
 5061SOL    HW116082   4.389   2.412   5.760
 5061SOL    HW216083   4.294   2.281   5.784
 5062SOL     OW16084   5.349   1.000   3.352
 5062SOL    HW116085   5.305   0.934   3.414
 5062SOL    HW216086   5.281   1.034   3.287
 5063SOL     OW16087   1.175   0.995   1.549
 5063SOL    HW116088   1.155   1.087   1.517
 5063SOL    HW216089   1.094   0.955   1.591
 5064SOL     OW16090   5.500   4.852   0.920
 5064SOL    HW116091   5.450   4.939   0.919
 5064SOL    HW216092   5.562   4.849   0.841
 5065SOL     OW16093   2.361   1.322   2.174
 5065SOL    HW116094   2.442   1.281   2.216
 5065SOL    HW216095   2.279   1.281   2.214
 5066SOL     OW16096   2.034   5.151   2.869
 5066SOL    HW116097   1.961   5.134   2.936
 5066SOL    HW216098   2.028   5.083   2.796
 5067SOL     OW16099   5.879   2.803   1.542
 5067SOL    HW116100   5.907   2.879   1.485
 5067SOL    HW216101   5.779   2.802   1.551
 5068SOL     OW16102   2.075   5.711   0.617
 5068SOL    HW116103   2.156   5.768   0.622
 5068SOL    HW216104   2.007   5.754   0.557
 5069SOL     OW16105   4.102   5.348   5.553
 5069SOL    HW116106   4.038   5.306   5.618
 5069SOL    HW216107   4.190   5.300   5.556
 5070SOL     OW16108   6.132   3.687   5.157
 5070SOL    HW116109   6.204   3.618   5.149
 5070SOL    HW216110   6.154   3.749   5.232
 5071SOL     OW16111   2.671   6.709   3.688
 5071SOL    HW116112   2.615   6.651   3.630
 5071SOL    HW216113   2.731   6.652   3.744
 5072SOL     OW16114   0.751   1.558   1.722
 5072SOL    HW116115   0.665   1.539   1.768
 5072SOL    HW216116   0.804   1.474   1.713
 5073SOL     OW16117   2.364   0.965   3.286
 5073SOL    HW116118   2.267   0.986   3.299
 5073SOL    HW216119   2.374   0.877   3.241
 5074SOL     OW16120   3.351   2.208   1.628
 5074SOL    HW116121   3.448   2.186   1.619
 5074SOL    HW216122   3.338   2.307   1.626
 5075SOL     OW16123   6.719   3.183   0.882
 5075SOL    HW116124   6.627   3.170   0.921
 5075SOL    HW216125   6.720   3.265   0.826
 5076SOL     OW16126   7.023   0.558   6.055
 5076SOL    HW116127   0.094   0.543   6.078
 5076SOL    HW216128   7.015   0.637   5.994
 5077SOL     OW16129   0.673   4.574   3.871
 5077SOL    HW116130   0.586   4.558   3.824
 5077SOL    HW216131   0.655   4.591   3.968
 5078SOL     OW16132   6.563   2.107   3.784
 5078SOL    HW116133   6.570   2.075   3.879
 5078SOL    HW216134   6.496   2.051   3.735
 5079SOL     OW16135   1.678   3.440   5.565
 5079SOL    HW116136   1.707   3.493   5.645
 5079SOL    HW216137   1.645   3.350   5.595
 5080SOL     OW16138   6.171   5.377   6.827
 5080SOL    HW116139   6.133   5.367   6.919
 5080SOL    HW216140   6.108   5.430   6.771
 5081SOL     OW16141   2.502   4.394   5.391
 5081SOL    HW116142   2.483   4.297   5.376
 5081SOL    HW216143   2.595   4.416   5.360
 5082SOL     OW16144   6.095   5.844   1.127
 5082SOL    HW116145   6.173   5.792   1.162
 5082SOL    HW216146   6.054   5.897   1.201
 5083SOL     OW16147   2.675   0.024   3.908
 5083SOL    HW116148   2.624   0.009   3.823
 5083SOL    HW216149   2.617   0.001   3.986
 5084SOL     OW16150   3.185   3.944   5.626
 5084SOL    HW116151   3.136   3.912   5.707
 5084SOL    HW216152   3.147   4.032   5.596
 5085SOL     OW16153   0.392   4.593   5.355
 5085SOL    HW116154   0.297   4.574   5.382
 5085SOL    HW216155   0.454   4.537   5.409
 5086SOL     OW16156   1.275   5.225   2.119
 5086SOL    HW116157   1.268   5.131   2.084
 5086SOL    HW216158   1.217   5.235   2.199
 5087SOL     OW16159   6.855   4.773   2.376
 5087SOL    HW116160   6.836   4.870   2.360
 5087SOL    HW216161   6.781   4.733   2.430
 5088SOL     OW16162   4.591   5.433   2.160
 5088SOL    HW116163   4.600   5.392   2.069
 5088SOL    HW216164   4.514   5.390   2.208
 5089SOL     OW16165   4.750   5.827   6.148
 5089SOL    HW116166   4.693   5.876   6.082
 5089SOL    HW216167   4.771   5.735   6.113
 5090SOL     OW16168   2.340   6.604   5.233
 5090SOL    HW116169   2.321   6.529   5.296
 5090SOL    HW216170   2.430   6.592   5.192
 5091SOL     OW16171   6.844   6.844   6.119
 5091SOL    HW116172   6.875   6.938   6.108
 5091SOL    HW216173   6.866   6.812   6.212
 5092SOL     OW16174   4.031   3.724   4.218
 5092SOL    HW116175   4.038   3.648   4.282
 5092SOL    HW216176   3.934   3.743   4.200
 5093SOL     OW16177   2.638   2.333   2.895
 5093SOL    HW116178   2.707   2.324   2.823
 5093SOL    HW216179   2.648   2.257   2.959
 5094SOL     OW16180   1.820   5.911   4.807
 5094SOL    HW116181   1.807   5.965   4.724
 5094SOL    HW216182   1.881   5.959   4.869
 5095SOL     OW16183   0.073   1.084   2.692
 5095SOL    HW116184   0.156   1.030   2.680
 5095SOL    HW216185   0.066   1.152   2.619
 5096SOL     OW16186   6.635   3.020   5.340
 5096SOL    HW116187   6.589   3.106   5.318
 5096SOL    HW216188   6.683   3.029   5.427
 5097SOL     OW16189   0.955   0.546   5.772
 5097SOL    HW116190   0.927   0.451   5.790
 5097SOL    HW216191   1.045   0.546   5.730
 5098SOL     OW16192   3.623   2.522   6.805
 5098SOL    HW116193   3.593   2.610   6.770
 5098SOL    HW216194   3.674   2.536   6.891
 5099SOL     OW16195   1.537   6.464   1.918
 5099SOL    HW116196   1.497   6.425   2.000
 5099SOL    HW216197   1.634   6.483   1.933
 5100SOL     OW16198   5.137   3.158   1.732
 5100SOL    HW116199   5.063   3.225   1.729
 5100SOL    HW216200   5.152   3.128   1.826
 5101SOL     OW16201   3.351   0.155   5.455
 5101SOL    HW116202   3.288   0.233   5.465
 5101SOL    HW216203   3.365   0.137   5.358
 5102SOL     OW16204   5.134   5.246   4.386
 5102SOL    HW116205   5.110   5.154   4.415
 5102SOL    HW216206   5.166   5.244   4.291
 5103SOL     OW16207   0.938   0.599   6.194
 5103SOL    HW116208   1.008   0.631   6.130
 5103SOL    HW216209   0.907   0.676   6.251
 5104SOL     OW16210   3.867   3.285   2.831
 5104SOL    HW116211   3.954   3.308   2.875
 5104SOL    HW216212   3.876   3.295   2.732
 5105SOL     OW16213   3.866   2.796   6.869
 5105SOL    HW116214   3.894   2.702   6.852
 5105SOL    HW216215   3.811   2.829   6.792
 5106SOL     OW16216   3.709   1.787   1.276
 5106SOL    HW116217   3.702   1.704   1.332
 5106SOL    HW216218   3.798   1.830   1.291
 5107SOL     OW16219   5.654   4.837   0.701
 5107SOL    HW116220   5.576   4.879   0.655
 5107SOL    HW216221   5.736   4.847   0.645
 5108SOL     OW16222   3.546   4.997   1.369
 5108SOL    HW116223   3.467   4.972   1.312
 5108SOL    HW216224   3.604   4.917   1.382
 5109SOL     OW16225   1.308   3.008   2.196
 5109SOL    HW116226   1.228   2.992   2.253
 5109SOL    HW216227   1.295   2.964   2.107
 5110SOL     OW16228   4.920   0.170   5.585
 5110SOL    HW116229   4.874   0.120   5.511
 5110SOL    HW216230   4.859   0.242   5.620
 5111SOL     OW16231   1.267   5.358   5.331
 5111SOL    HW116232   1.294   5.263   5.346
 5111SOL    HW216233   1.219   5.366   5.244
 5112SOL     OW16234   1.072   6.137   3.333
 5112SOL    HW116235   1.148   6.153   3.397
 5112SOL    HW216236   1.104   6.080   3.258
 5113SOL     OW16237   2.105   4.478   6.986
 5113SOL    HW116238   2.157   4.453   0.042
 5113SOL    HW216239   2.090   4.577   6.985
 5114SOL     OW16240   4.425   4.652   1.580
 5114SOL    HW116241   4.333   4.642   1.541
 5114SOL    HW216242   4.471   4.729   1.537
 5115SOL     OW16243   1.796   3.597   0.719
 5115SOL    HW116244   1.887   3.637   0.717
 5115SOL    HW216245   1.752   3.617   0.807
 5116SOL     OW16246   0.714   0.061   5.471
 5116SOL    HW116247   0.765   0.134   5.425
 5116SOL    HW216248   0.750   0.047   5.563
 5117SOL     OW16249   0.217   2.101   3.673
 5117SOL    HW116250   0.244   2.035   3.743
 5117SOL    HW216251   0.239   2.065   3.582
 5118SOL     OW16252   4.274   5.393   0.247
 5118SOL    HW116253   4.324   5.429   0.169
 5118SOL    HW216254   4.336   5.342   0.307
 5119SOL     OW16255   5.763   1.385   0.695
 5119SOL    HW116256   5.741   1.429   0.782
 5119SOL    HW216257   5.846   1.330   0.705
 5120SOL     OW16258   5.202   6.793   0.019
 5120SOL    HW116259   5.188   6.713   6.985
 5120SOL    HW216260   5.113   6.831   0.044
 5121SOL     OW16261   1.054   3.393   6.061
 5121SOL    HW116262   1.075   3.382   6.158
 5121SOL    HW216263   1.074   3.308   6.012
 5122SOL     OW16264   4.636   4.726   3.622
 5122SOL    HW116265   4.590   4.646   3.659
 5122SOL    HW216266   4.569   4.797   3.602
 5123SOL     OW16267   4.711   2.724   2.363
 5123SOL    HW116268   4.626   2.747   2.315
 5123SOL    HW216269   4.787   2.721   2.298
 5124SOL     OW16270   1.459   6.177   5.523
 5124SOL    HW116271   1.516   6.108   5.568
 5124SOL    HW216272   1.487   6.268   5.552
 5125SOL     OW16273   6.376   1.729   3.825
 5125SOL    HW116274   6.364   1.807   3.763
 5125SOL    HW216275   6.468   1.732   3.863
 5126SOL     OW16276   1.788   0.808   1.940
 5126SOL    HW116277   1.721   0.773   1.874
 5126SOL    HW216278   1.813   0.902   1.916
 5127SOL     OW16279   2.274   6.240   0.327
 5127SOL    HW116280   2.340   6.174   0.290
 5127SOL    HW216281   2.267   6.317   0.264
 5128SOL     OW16282   5.927   6.925   1.733
 5128SOL    HW116283   5.919   6.980   1.650
 5128SOL    HW216284   5.899   6.980   1.812
 5129SOL     OW16285   6.609   6.646   0.153
 5129SOL    HW116286   6.639   6.673   0.245
 5129SOL    HW216287   6.513   6.669   0.140
 5130SOL     OW16288   6.335   4.725   2.842
 5130SOL    HW116289   6.308   4.687   2.931
 5130SOL    HW216290   6.316   4.658   2.770
 5131SOL     OW16291   1.879   2.715   2.812
 5131SOL    HW116292   1.814   2.777   2.768
 5131SOL    HW216293   1.847   2.694   2.904
 5132SOL     OW16294   2.775   5.904   4.833
 5132SOL    HW116295   2.854   5.863   4.787
 5132SOL    HW216296   2.691   5.874   4.786
 5133SOL     OW16297   3.734   6.406   5.431
 5133SOL    HW116298   3.657   6.347   5.407
 5133SOL    HW216299   3.732   6.426   5.529
 5134SOL     OW16300   5.723   4.073   5.943
 5134SOL    HW116301   5.650   4.010   5.916
 5134SOL    HW216302   5.700   4.166   5.912
 5135SOL     OW16303   5.738   1.122   4.265
 5135SOL    HW116304   5.764   1.218   4.255
 5135SOL    HW216305   5.640   1.112   4.245
 5136SOL     OW16306   3.882   1.509   5.356
 5136SOL    HW116307   3.848   1.497   5.450
 5136SOL    HW216308   3.978   1.483   5.353
 5137SOL     OW16309   3.661   4.029   6.878
 5137SOL    HW116310   3.587   4.080   6.835
 5137SOL    HW216311   3.749   4.062   6.842
 5138SOL     OW16312   2.614   2.998   6.030
 5138SOL    HW116313   2.614   2.917   6.089
 5138SOL    HW216314   2.562   3.071   6.074
 5139SOL     OW16315   0.428   0.229   3.936
 5139SOL    HW116316   0.466   0.156   3.879
 5139SOL    HW216317   0.347   0.195   3.984
 5140SOL     OW16318   3.492   2.810   1.929
 5140SOL    HW116319   3.529   2.717   1.930
 5140SOL    HW216320   3.442   2.824   1.843
 5141SOL     OW16321   0.425   3.703   5.629
 5141SOL    HW116322   0.480   3.668   5.705
 5141SOL    HW216323   0.336   3.735   5.664
 5142SOL     OW16324   5.708   2.971   3.079
 5142SOL    HW116325   5.793   2.978   3.026
 5142SOL    HW216326   5.676   3.063   3.102
 5143SOL     OW16327   6.823   5.357   5.138
 5143SOL    HW116328   6.830   5.446   5.183
 5143SOL    HW216329   6.911   5.335   5.096
 5144SOL     OW16330   2.034   1.618   4.644
 5144SOL    HW116331   2.087   1.638   4.562
 5144SOL    HW216332   2.054   1.686   4.714
 5145SOL     OW16333   3.645   5.698   5.641
 5145SOL    HW116334   3.716   5.736   5.582
 5145SOL    HW216335   3.673   5.608   5.673
 5146SOL     OW16336   3.034   4.987   0.092
 5146SOL    HW116337   3.107   5.053   0.076
 5146SOL    HW216338   2.947   5.025   0.061
 5147SOL     OW16339   6.733   5.287   6.310
 5147SOL    HW116340   6.778   5.202   6.335
 5147SOL    HW216341   6.657   5.305   6.372
 5148SOL     OW16342   1.136   0.183   1.562
 5148SOL    HW116343   1.126   0.118   1.487
 5148SOL    HW216344   1.198   0.256   1.533
 5149SOL     OW16345   6.919   0.419   5.556
 5149SOL    HW116346   6.905   0.461   5.466
 5149SOL    HW216347   7.005   0.368   5.556
 5150SOL     OW16348   2.061   5.219   4.176
 5150SOL    HW116349   2.118   5.139   4.193
 5150SOL    HW216350   2.004   5.237   4.256
 5151SOL     OW16351   4.625   0.847   6.191
 5151SOL    HW116352   4.654   0.926   6.245
 5151SOL    HW216353   4.574   0.784   6.249
 5152SOL     OW16354   0.645   4.981   0.422
 5152SOL    HW116355   0.607   4.947   0.336
 5152SOL    HW216356   0.720   5.044   0.403
 5153SOL     OW16357   1.901   1.989   0.964
 5153SOL    HW116358   1.960   2.002   1.044
 5153SOL    HW216359   1.805   1.999   0.992
 5154SOL     OW16360   1.535   3.871   5.479
 5154SOL    HW116361   1.564   3.780   5.448
 5154SOL    HW216362   1.598   3.904   5.548
 5155SOL     OW16363   3.380   1.038   2.353
 5155SOL    HW116364   3.361   0.981   2.273
 5155SOL    HW216365   3.434   1.117   2.325
 5156SOL     OW16366   5.934   2.527   6.129
 5156SOL    HW116367   5.972   2.512   6.037
 5156SOL    HW216368   5.845   2.482   6.135
 5157SOL     OW16369   5.826   2.634   4.107
 5157SOL    HW116370   5.905   2.572   4.103
 5157SOL    HW216371   5.743   2.582   4.127
 5158SOL     OW16372   3.874   0.682   0.812
 5158SOL    HW116373   3.873   0.730   0.724
 5158SOL    HW216374   3.818   0.600   0.805
 5159SOL     OW16375   2.042   3.419   4.967
 5159SOL    HW116376   2.069   3.352   5.036
 5159SOL    HW216377   2.035   3.510   5.009
 5160SOL     OW16378   1.553   3.269   4.419
 5160SOL    HW116379   1.605   3.347   4.385
 5160SOL    HW216380   1.499   3.230   4.344
 5161SOL     OW16381   1.463   3.625   6.655
 5161SOL    HW116382   1.507   3.709   6.688
 5161SOL    HW216383   1.512   3.546   6.691
 5162SOL     OW16384   6.623   5.561   4.456
 5162SOL    HW116385   6.705   5.559   4.514
 5162SOL    HW216386   6.569   5.641   4.478
 5163SOL     OW16387   5.338   3.957   0.902
 5163SOL    HW116388   5.342   3.861   0.931
 5163SOL    HW216389   5.314   3.962   0.806
 5164SOL     OW16390   5.537   5.298   5.742
 5164SOL    HW116391   5.623   5.327   5.785
 5164SOL    HW216392   5.556   5.265   5.650
 5165SOL     OW16393   6.208   3.424   4.271
 5165SOL    HW116394   6.171   3.333   4.248
 5165SOL    HW216395   6.242   3.422   4.365
 5166SOL     OW16396   1.606   0.018   1.686
 5166SOL    HW116397   1.616   6.988   1.768
 5166SOL    HW216398   1.570   0.108   1.712
 5167SOL     OW16399   1.466   0.194   5.401
 5167SOL    HW116400   1.446   0.292   5.394
 5167SOL    HW216401   1.381   0.142   5.393
 5168SOL     OW16402   4.139   1.669   3.098
 5168SOL    HW116403   4.150   1.742   3.165
 5168SOL    HW216404   4.089   1.705   3.018
 5169SOL     OW16405   3.970   4.307   6.469
 5169SOL    HW116406   4.012   4.285   6.556
 5169SOL    HW216407   3.871   4.317   6.481
 5170SOL     OW16408   4.168   4.818   4.491
 5170SOL    HW116409   4.143   4.879   4.416
 5170SOL    HW216410   4.089   4.762   4.516
 5171SOL     OW16411   2.612   4.680   4.996
 5171SOL    HW116412   2.634   4.778   4.998
 5171SOL    HW216413   2.687   4.629   5.038
 5172SOL     OW16414   2.274   4.766   6.837
 5172SOL    HW116415   2.198   4.721   6.885
 5172SOL    HW216416   2.339   4.697   6.805
 5173SOL     OW16417   6.485   3.260   6.233
 5173SOL    HW116418   6.571   3.260   6.284
 5173SOL    HW216419   6.463   3.166   6.206
 5174SOL     OW16420   1.627   4.667   6.081
 5174SOL    HW116421   1.648   4.751   6.030
 5174SOL    HW216422   1.529   4.660   6.094
 5175SOL     OW16423   0.599   5.252   5.861
 5175SOL    HW116424   0.667   5.180   5.866
 5175SOL    HW216425   0.601   5.293   5.769
 5176SOL     OW16426   5.562   4.172   6.221
 5176SOL    HW116427   5.468   4.189   6.252
 5176SOL    HW216428   5.605   4.259   6.197
 5177SOL     OW16429   5.284   5.904   6.287
 5177SOL    HW116430   5.272   5.952   6.373
 5177SOL    HW216431   5.228   5.821   6.287
 5178SOL     OW16432   2.790   2.213   1.754
 5178SOL    HW116433   2.862   2.268   1.796
 5178SOL    HW216434   2.756   2.147   1.821
 5179SOL     OW16435   3.670   6.025   5.146
 5179SOL    HW116436   3.652   5.938   5.192
 5179SOL    HW216437   3.685   6.009   5.049
 5180SOL     OW16438   2.874   2.047   0.122
 5180SOL    HW116439   2.888   2.086   0.031
 5180SOL    HW216440   2.877   2.120   0.191
 5181SOL     OW16441   2.645   5.528   2.699
 5181SOL    HW116442   2.656   5.536   2.798
 5181SOL    HW216443   2.581   5.599   2.667
 5182SOL     OW16444   4.840   4.393   1.560
 5182SOL    HW116445   4.781   4.462   1.601
 5182SOL    HW216446   4.841   4.311   1.617
 5183SOL     OW16447   3.637   0.787   3.312
 5183SOL    HW116448   3.672   0.738   3.233
 5183SOL    HW216449   3.576   0.727   3.364
 5184SOL     OW16450   1.039   2.102   3.053
 5184SOL    HW116451   1.135   2.080   3.042
 5184SOL    HW216452   1.027   2.160   3.133
 5185SOL     OW16453   3.865   0.470   1.800
 5185SOL    HW116454   3.963   0.453   1.803
 5185SOL    HW216455   3.816   0.383   1.798
 5186SOL     OW16456   5.446   4.747   0.048
 5186SOL    HW116457   5.433   4.834   0.097
 5186SOL    HW216458   5.508   4.689   0.101
 5187SOL     OW16459   5.201   1.712   4.483
 5187SOL    HW116460   5.125   1.652   4.510
 5187SOL    HW216461   5.256   1.734   4.563
 5188SOL     OW16462   1.201   3.223   4.295
 5188SOL    HW116463   1.260   3.190   4.221
 5188SOL    HW216464   1.238   3.191   4.383
 5189SOL     OW16465   4.367   5.238   6.883
 5189SOL    HW116466   4.280   5.199   6.852
 5189SOL    HW216467   4.350   5.327   6.925
 5190SOL     OW16468   2.123   3.243   3.016
 5190SOL    HW116469   2.050   3.178   2.995
 5190SOL    HW216470   2.199   3.228   2.954
 5191SOL     OW16471   4.646   0.811   2.174
 5191SOL    HW116472   4.555   0.829   2.210
 5191SOL    HW216473   4.641   0.744   2.100
 5192SOL     OW16474   6.314   4.691   2.125
 5192SOL    HW116475   6.308   4.607   2.179
 5192SOL    HW216476   6.284   4.672   2.031
 5193SOL     OW16477   4.937   3.800   2.228
 5193SOL    HW116478   4.937   3.733   2.154
 5193SOL    HW216479   4.876   3.876   2.204
 5194SOL     OW16480   5.106   1.536   0.087
 5194SOL    HW116481   5.163   1.617   0.097
 5194SOL    HW216482   5.027   1.558   0.030
 5195SOL     OW16483   6.069   6.366   5.157
 5195SOL    HW116484   6.058   6.310   5.239
 5195SOL    HW216485   5.980   6.392   5.122
 5196SOL     OW16486   0.747   3.365   2.144
 5196SOL    HW116487   0.743   3.421   2.226
 5196SOL    HW216488   0.689   3.406   2.073
 5197SOL     OW16489   3.555   6.114   5.593
 5197SOL    HW116490   3.502   6.032   5.617
 5197SOL    HW216491   3.616   6.138   5.668
 5198SOL     OW16492   4.189   0.827   5.457
 5198SOL    HW116493   4.195   0.764   5.535
 5198SOL    HW216494   4.198   0.775   5.372
 5199SOL     OW16495   0.226   5.443   1.826
 5199SOL    HW116496   0.261   5.411   1.914
 5199SOL    HW216497   0.281   5.520   1.794
 5200SOL     OW16498   0.079   6.864   5.019
 5200SOL    HW116499   0.169   6.891   4.986
 5200SOL    HW216500   0.019   6.845   4.941
 5201SOL     OW16501   6.051   5.033   5.041
 5201SOL    HW116502   6.088   5.111   4.991
 5201SOL    HW216503   5.956   5.018   5.013
 5202SOL     OW16504   3.565   3.068   5.809
 5202SOL    HW116505   3.557   3.028   5.900
 5202SOL    HW216506   3.474   3.089   5.774
 5203SOL     OW16507   1.208   0.375   6.519
 5203SOL    HW116508   1.308   0.382   6.527
 5203SOL    HW216509   1.182   0.279   6.505
 5204SOL     OW16510   2.499   0.607   0.664
 5204SOL    HW116511   2.505   0.517   0.620
 5204SOL    HW216512   2.589   0.649   0.668
 5205SOL     OW16513   6.873   7.003   1.347
 5205SOL    HW116514   6.888   6.965   1.256
 5205SOL    HW216515   6.805   6.948   1.396
 5206SOL     OW16516   1.216   4.134   3.716
 5206SOL    HW116517   1.215   4.142   3.816
 5206SOL    HW216518   1.226   4.225   3.676
 5207SOL     OW16519   5.782   6.871   5.095
 5207SOL    HW116520   5.767   6.813   5.174
 5207SOL    HW216521   5.694   6.898   5.056
 5208SOL     OW16522   6.514   1.609   0.355
 5208SOL    HW116523   6.563   1.592   0.440
 5208SOL    HW216524   6.416   1.616   0.373
 5209SOL     OW16525   5.465   6.678   3.440
 5209SOL    HW116526   5.517   6.763   3.438
 5209SOL    HW216527   5.529   6.600   3.444
 5210SOL     OW16528   5.484   4.355   1.060
 5210SOL    HW116529   5.562   4.377   1.001
 5210SOL    HW216530   5.499   4.394   1.151
 5211SOL     OW16531   5.687   2.810   4.926
 5211SOL    HW116532   5.640   2.841   5.008
 5211SOL    HW216533   5.658   2.717   4.904
 5212SOL     OW16534   6.976   3.782   0.700
 5212SOL    HW116535   0.007   3.752   0.624
 5212SOL    HW216536   6.902   3.840   0.666
 5213SOL     OW16537   4.130   3.587   2.767
 5213SOL    HW116538   4.220   3.629   2.752
 5213SOL    HW216539   4.058   3.650   2.737
 5214SOL     OW16540   5.946   3.066   5.544
 5214SOL    HW116541   6.001   3.145   5.517
 5214SOL    HW216542   5.939   3.003   5.467
 5215SOL     OW16543   0.333   5.073   4.962
 5215SOL    HW116544   0.398   5.015   4.913
 5215SOL    HW216545   0.271   5.117   4.896
 5216SOL     OW16546   5.518   4.554   1.246
 5216SOL    HW116547   5.428   4.594   1.261
 5216SOL    HW216548   5.535   4.482   1.313
 5217SOL     OW16549   4.714   6.549   2.801
 5217SOL    HW116550   4.629   6.600   2.788
 5217SOL    HW216551   4.709   6.462   2.752
 5218SOL     OW16552   6.159   6.965   0.215
 5218SOL    HW116553   6.124   0.017   0.268
 5218SOL    HW216554   6.082   6.910   0.181
 5219SOL     OW16555   3.464   1.061   5.334
 5219SOL    HW116556   3.439   1.084   5.240
 5219SOL    HW216557   3.535   1.124   5.366
 5220SOL     OW16558   1.842   5.002   4.825
 5220SOL    HW116559   1.883   5.022   4.914
 5220SOL    HW216560   1.914   4.976   4.761
 5221SOL     OW16561   5.518   6.179   1.350
 5221SOL    HW116562   5.498   6.167   1.252
 5221SOL    HW216563   5.445   6.138   1.404
 5222SOL     OW16564   6.872   3.432   1.910
 5222SOL    HW116565   6.926   3.514   1.890
 5222SOL    HW216566   6.903   3.356   1.853
 5223SOL     OW16567   6.391   3.214   0.749
 5223SOL    HW116568   6.389   3.218   0.849
 5223SOL    HW216569   6.298   3.228   0.714
 5224SOL     OW16570   1.066   1.377   5.177
 5224SOL    HW116571   1.145   1.439   5.176
 5224SOL    HW216572   0.997   1.410   5.111
 5225SOL     OW16573   6.706   1.557   4.630
 5225SOL    HW116574   6.759   1.523   4.708
 5225SOL    HW216575   6.696   1.656   4.636
 5226SOL     OW16576   0.422   6.027   4.320
 5226SOL    HW116577   0.482   5.964   4.271
 5226SOL    HW216578   0.471   6.112   4.339
 5227SOL     OW16579   0.760   3.677   5.955
 5227SOL    HW116580   0.838   3.629   5.915
 5227SOL    HW216581   0.757   3.770   5.920
 5228SOL     OW16582   0.801   1.806   5.590
 5228SOL    HW116583   0.736   1.772   5.659
 5228SOL    HW216584   0.757   1.877   5.536
 5229SOL     OW16585   3.515   1.810   5.825
 5229SOL    HW116586   3.563   1.836   5.908
 5229SOL    HW216587   3.581   1.770   5.760
 5230SOL     OW16588   6.594   0.183   2.833
 5230SOL    HW116589   6.645   0.217   2.912
 5230SOL    HW216590   6.597   0.083   2.832
 5231SOL     OW16591   6.083   3.438   2.501
 5231SOL    HW116592   6.134   3.506   2.448
 5231SOL    HW216593   6.027   3.484   2.570
 5232SOL     OW16594   1.531   2.614   5.724
 5232SOL    HW116595   1.492   2.570   5.644
 5232SOL    HW216596   1.568   2.544   5.785
 5233SOL     OW16597   3.701   6.811   2.876
 5233SOL    HW116598   3.632   6.839   2.809
 5233SOL    HW216599   3.791   6.809   2.832
 5234SOL     OW16600   2.971   2.492   5.982
 5234SOL    HW116601   3.014   2.453   6.064
 5234SOL    HW216602   3.014   2.453   5.900
 5235SOL     OW16603   2.643   1.854   1.664
 5235SOL    HW116604   2.597   1.933   1.624
 5235SOL    HW216605   2.644   1.863   1.764
 5236SOL     OW16606   2.949   5.082   1.694
 5236SOL    HW116607   3.040   5.097   1.734
 5236SOL    HW216608   2.892   5.032   1.759
 5237SOL     OW16609   1.738   1.591   1.876
 5237SOL    HW116610   1.697   1.677   1.905
 5237SOL    HW216611   1.665   1.525   1.855
 5238SOL     OW16612   0.064   0.449   3.191
 5238SOL    HW116613   0.079   0.531   3.246
 5238SOL    HW216614   0.090   0.467   3.096
 5239SOL     OW16615   2.711   4.512   0.939
 5239SOL    HW116616   2.648   4.586   0.917
 5239SOL    HW216617   2.662   4.424   0.936
 5240SOL     OW16618   2.128   4.081   5.936
 5240SOL    HW116619   2.089   4.171   5.920
 5240SOL    HW216620   2.122   4.058   6.033
 5241SOL     OW16621   1.937   5.903   2.715
 5241SOL    HW116622   1.942   5.806   2.691
 5241SOL    HW216623   2.026   5.933   2.749
 5242SOL     OW16624   3.781   6.634   6.219
 5242SOL    HW116625   3.697   6.665   6.174
 5242SOL    HW216626   3.818   6.708   6.276
 5243SOL     OW16627   2.335   6.398   2.679
 5243SOL    HW116628   2.353   6.319   2.620
 5243SOL    HW216629   2.258   6.377   2.739
 5244SOL     OW16630   4.362   1.167   0.438
 5244SOL    HW116631   4.434   1.203   0.497
 5244SOL    HW216632   4.297   1.240   0.415
 5245SOL     OW16633   3.224   4.414   1.590
 5245SOL    HW116634   3.178   4.349   1.529
 5245SOL    HW216635   3.174   4.420   1.676
 5246SOL     OW16636   5.790   4.198   6.549
 5246SOL    HW116637   5.856   4.247   6.605
 5246SOL    HW216638   5.835   4.163   6.467
 5247SOL     OW16639   4.909   1.854   6.666
 5247SOL    HW116640   4.981   1.922   6.652
 5247SOL    HW216641   4.837   1.866   6.598
 5248SOL     OW16642   5.230   1.275   4.261
 5248SOL    HW116643   5.283   1.318   4.334
 5248SOL    HW216644   5.153   1.226   4.300
 5249SOL     OW16645   6.972   4.972   0.892
 5249SOL    HW116646   6.943   5.067   0.902
 5249SOL    HW216647   6.974   4.928   0.982
 5250SOL     OW16648   2.687   5.679   1.248
 5250SOL    HW116649   2.635   5.680   1.163
 5250SOL    HW216650   2.652   5.749   1.310
 5251SOL     OW16651   0.557   4.920   0.180
 5251SOL    HW116652   0.623   4.881   0.116
 5251SOL    HW216653   0.465   4.914   0.140
 5252SOL     OW16654   3.836   5.742   2.535
 5252SOL    HW116655   3.793   5.653   2.548
 5252SOL    HW216656   3.861   5.753   2.439
 5253SOL     OW16657   0.119   5.736   4.777
 5253SOL    HW116658   0.171   5.706   4.857
 5253SOL    HW216659   0.049   5.802   4.806
 5254SOL     OW16660   4.853   5.692   2.607
 5254SOL    HW116661   4.870   5.742   2.692
 5254SOL    HW216662   4.888   5.745   2.530
 5255SOL     OW16663   6.957   1.293   5.644
 5255SOL    HW116664   0.015   1.338   5.674
 5255SOL    HW216665   6.971   1.194   5.642
 5256SOL     OW16666   6.366   2.087   2.499
 5256SOL    HW116667   6.318   2.105   2.584
 5256SOL    HW216668   6.410   1.997   2.503
 5257SOL     OW16669   4.271   1.971   6.155
 5257SOL    HW116670   4.203   1.936   6.092
 5257SOL    HW216671   4.226   2.017   6.231
 5258SOL     OW16672   4.665   1.343   5.049
 5258SOL    HW116673   4.637   1.410   4.980
 5258SOL    HW216674   4.749   1.375   5.094
 5259SOL     OW16675   5.754   4.935   3.871
 5259SOL    HW116676   5.747   4.896   3.963
 5259SOL    HW216677   5.663   4.955   3.835
 5260SOL     OW16678   2.189   6.281   1.538
 5260SOL    HW116679   2.208   6.217   1.464
 5260SOL    HW216680   2.275   6.306   1.584
 5261SOL     OW16681   5.616   4.363   6.702
 5261SOL    HW116682   5.665   4.293   6.650
 5261SOL    HW216683   5.659   4.452   6.687
 5262SOL     OW16684   1.602   1.000   1.580
 5262SOL    HW116685   1.670   1.028   1.513
 5262SOL    HW216686   1.623   0.909   1.614
 5263SOL     OW16687   1.534   6.439   3.017
 5263SOL    HW116688   1.579   6.524   2.990
 5263SOL    HW216689   1.437   6.444   2.994
 5264SOL     OW16690   6.892   2.292   1.820
 5264SOL    HW116691   6.796   2.280   1.847
 5264SOL    HW216692   6.912   2.234   1.741
 5265SOL     OW16693   6.859   5.686   5.644
 5265SOL    HW116694   6.807   5.676   5.728
 5265SOL    HW216695   6.952   5.717   5.665
 5266SOL     OW16696   1.554   6.886   6.539
 5266SOL    HW116697   1.464   6.922   6.563
 5266SOL    HW216698   1.544   6.808   6.477
 5267SOL     OW16699   5.288   1.755   4.041
 5267SOL    HW116700   5.241   1.787   3.958
 5267SOL    HW216701   5.224   1.758   4.118
 5268SOL     OW16702   5.687   0.329   6.736
 5268SOL    HW116703   5.681   0.304   6.639
 5268SOL    HW216704   5.745   0.410   6.745
 5269SOL     OW16705   1.338   0.372   3.635
 5269SOL    HW116706   1.374   0.360   3.727
 5269SOL    HW216707   1.400   0.429   3.582
 5270SOL     OW16708   0.356   1.964   6.273
 5270SOL    HW116709   0.364   1.995   6.178
 5270SOL    HW216710   0.313   1.874   6.275
 5271SOL     OW16711   1.521   4.683   3.541
 5271SOL    HW116712   1.505   4.603   3.599
 5271SOL    HW216713   1.532   4.653   3.446
 5272SOL     OW16714   3.977   1.032   6.722
 5272SOL    HW116715   4.016   1.007   6.633
 5272SOL    HW216716   3.951   0.948   6.771
 5273SOL     OW16717   3.117   1.712   2.821
 5273SOL    HW116718   3.017   1.713   2.815
 5273SOL    HW216719   3.155   1.758   2.742
 5274SOL     OW16720   5.339   5.057   1.356
 5274SOL    HW116721   5.388   5.005   1.426
 5274SOL    HW216722   5.241   5.051   1.373
 5275SOL     OW16723   4.858   2.240   6.727
 5275SOL    HW116724   4.890   2.326   6.688
 5275SOL    HW216725   4.800   2.193   6.660
 5276SOL     OW16726   4.189   6.376   1.767
 5276SOL    HW116727   4.142   6.298   1.726
 5276SOL    HW216728   4.124   6.431   1.819
 5277SOL     OW16729   2.010   2.482   2.169
 5277SOL    HW116730   1.981   2.498   2.074
 5277SOL    HW216731   1.937   2.434   2.218
 5278SOL     OW16732   4.122   3.481   2.456
 5278SOL    HW116733   4.171   3.427   2.524
 5278SOL    HW216734   4.074   3.420   2.393
 5279SOL     OW16735   1.562   6.022   2.253
 5279SOL    HW116736   1.519   6.016   2.343
 5279SOL    HW216737   1.651   6.067   2.262
 5280SOL     OW16738   3.818   0.954   4.615
 5280SOL    HW116739   3.872   0.879   4.654
 5280SOL    HW216740   3.726   0.922   4.594
 5281SOL     OW16741   0.138   2.452   3.447
 5281SOL    HW116742   0.167   2.387   3.377
 5281SOL    HW216743   0.210   2.460   3.516
 5282SOL     OW16744   4.701   1.337   1.323
 5282SOL    HW116745   4.742   1.249   1.347
 5282SOL    HW216746   4.732   1.407   1.387
 5283SOL     OW16747   4.775   4.961   6.018
 5283SOL    HW116748   4.774   5.013   5.933
 5283SOL    HW216749   4.740   5.018   6.092
 5284SOL     OW16750   4.834   2.971   3.581
 5284SOL    HW116751   4.863   3.038   3.512
 5284SOL    HW216752   4.859   3.004   3.672
 5285SOL     OW16753   4.370   6.324   2.756
 5285SOL    HW116754   4.373   6.352   2.660
 5285SOL    HW216755   4.318   6.239   2.764
 5286SOL     OW16756   2.400   5.137   2.143
 5286SOL    HW116757   2.391   5.131   2.044
 5286SOL    HW216758   2.442   5.224   2.168
 5287SOL     OW16759   0.376   1.588   2.170
 5287SOL    HW116760   0.287   1.581   2.125
 5287SOL    HW216761   0.372   1.542   2.259
 5288SOL     OW16762   4.341   0.312   0.966
 5288SOL    HW116763   4.259   0.370   0.957
 5288SOL    HW216764   4.417   0.355   0.918
 5289SOL     OW16765   1.434   5.892   1.129
 5289SOL    HW116766   1.471   5.944   1.205
 5289SOL    HW216767   1.393   5.955   1.063
 5290SOL     OW16768   5.853   5.972   0.314
 5290SOL    HW116769   5.771   6.017   0.349
 5290SOL    HW216770   5.833   5.932   0.224
 5291SOL     OW16771   1.181   5.593   6.610
 5291SOL    HW116772   1.226   5.620   6.695
 5291SOL    HW216773   1.246   5.604   6.534
 5292SOL     OW16774   5.467   1.599   0.882
 5292SOL    HW116775   5.540   1.545   0.924
 5292SOL    HW216776   5.427   1.659   0.950
 5293SOL     OW16777   1.303   1.568   3.737
 5293SOL    HW116778   1.265   1.592   3.826
 5293SOL    HW216779   1.399   1.597   3.732
 5294SOL     OW16780   4.525   2.687   5.652
 5294SOL    HW116781   4.584   2.765   5.671
 5294SOL    HW216782   4.561   2.636   5.574
 5295SOL     OW16783   6.226   1.403   2.430
 5295SOL    HW116784   6.231   1.350   2.346
 5295SOL    HW216785   6.297   1.474   2.429
 5296SOL     OW16786   0.510   3.238   0.014
 5296SOL    HW116787   0.537   3.299   0.089
 5296SOL    HW216788   0.496   3.292   6.957
 5297SOL     OW16789   1.685   3.110   1.908
 5297SOL    HW116790   1.783   3.118   1.925
 5297SOL    HW216791   1.657   3.015   1.919
 5298SOL     OW16792   1.043   4.672   1.917
 5298SOL    HW116793   1.011   4.645   2.008
 5298SOL    HW216794   1.143   4.667   1.915
 5299SOL     OW16795   3.010   0.496   1.232
 5299SOL    HW116796   3.089   0.552   1.209
 5299SOL    HW216797   3.035   0.430   1.303
 5300SOL     OW16798   0.434   4.749   3.700
 5300SOL    HW116799   0.417   4.844   3.676
 5300SOL    HW216800   0.523   4.721   3.666
 5301SOL     OW16801   4.425   0.562   0.533
 5301SOL    HW116802   4.388   0.640   0.583
 5301SOL    HW216803   4.425   0.582   0.435
 5302SOL     OW16804   6.182   4.246   3.458
 5302SOL    HW116805   6.149   4.247   3.553
 5302SOL    HW216806   6.118   4.196   3.401
 5303SOL     OW16807   1.744   5.076   3.032
 5303SOL    HW116808   1.666   5.062   2.971
 5303SOL    HW216809   1.711   5.107   3.122
 5304SOL     OW16810   5.014   2.761   5.330
 5304SOL    HW116811   4.962   2.838   5.368
 5304SOL    HW216812   4.950   2.690   5.300
 5305SOL     OW16813   2.868   1.455   4.148
 5305SOL    HW116814   2.951   1.419   4.105
 5305SOL    HW216815   2.867   1.428   4.245
 5306SOL     OW16816   2.697   6.485   4.739
 5306SOL    HW116817   2.710   6.451   4.646
 5306SOL    HW216818   2.719   6.412   4.804
 5307SOL     OW16819   4.042   0.077   0.327
 5307SOL    HW116820   4.098   0.159   0.322
 5307SOL    HW216821   4.099   7.026   0.357
 5308SOL     OW16822   0.489   1.225   1.823
 5308SOL    HW116823   0.498   1.316   1.783
 5308SOL    HW216824   0.400   1.187   1.799
 5309SOL     OW16825   3.447   3.839   4.642
 5309SOL    HW116826   3.521   3.789   4.685
 5309SOL    HW216827   3.364   3.831   4.697
 5310SOL     OW16828   5.637   3.139   0.642
 5310SOL    HW116829   5.660   3.074   0.714
 5310SOL    HW216830   5.630   3.091   0.555
 5311SOL     OW16831   0.671   6.200   6.403
 5311SOL    HW116832   0.741   6.250   6.454
 5311SOL    HW216833   0.675   6.103   6.426
 5312SOL     OW16834   0.784   2.860   1.963
 5312SOL    HW116835   0.717   2.933   1.977
 5312SOL    HW216836   0.833   2.842   2.049
 5313SOL     OW16837   1.001   6.441   0.880
 5313SOL    HW116838   0.978   6.537   0.861
 5313SOL    HW216839   1.025   6.395   0.794
 5314SOL     OW16840   3.764   5.613   1.434
 5314SOL    HW116841   3.734   5.537   1.491
 5314SOL    HW216842   3.859   5.600   1.408
 5315SOL     OW16843   5.754   2.406   2.215
 5315SOL    HW116844   5.707   2.494   2.200
 5315SOL    HW216845   5.783   2.369   2.127
 5316SOL     OW16846   5.459   5.237   4.412
 5316SOL    HW116847   5.359   5.239   4.424
 5316SOL    HW216848   5.481   5.186   4.328
 5317SOL     OW16849   6.628   5.403   2.741
 5317SOL    HW116850   6.616   5.456   2.825
 5317SOL    HW216851   6.594   5.455   2.663
 5318SOL     OW16852   0.157   2.414   4.208
 5318SOL    HW116853   0.208   2.350   4.151
 5318SOL    HW216854   0.071   2.373   4.236
 5319SOL     OW16855   3.685   6.720   2.157
 5319SOL    HW116856   3.615   6.770   2.105
 5319SOL    HW216857   3.640   6.662   2.225
 5320SOL     OW16858   6.367   3.403   5.808
 5320SOL    HW116859   6.459   3.375   5.778
 5320SOL    HW216860   6.373   3.493   5.851
 5321SOL     OW16861   2.139   4.578   5.848
 5321SOL    HW116862   2.235   4.603   5.854
 5321SOL    HW216863   2.119   4.545   5.755
 5322SOL     OW16864   2.759   6.248   0.844
 5322SOL    HW116865   2.834   6.313   0.833
 5322SOL    HW216866   2.781   6.183   0.917
 5323SOL     OW16867   5.235   3.149   0.273
 5323SOL    HW116868   5.186   3.226   0.315
 5323SOL    HW216869   5.200   3.063   0.310
 5324SOL     OW16870   3.836   3.387   1.529
 5324SOL    HW116871   3.736   3.385   1.531
 5324SOL    HW216872   3.871   3.373   1.622
 5325SOL     OW16873   4.298   6.307   4.590
 5325SOL    HW116874   4.388   6.313   4.633
 5325SOL    HW216875   4.306   6.258   4.503
 5326SOL     OW16876   0.125   0.369   2.718
 5326SOL    HW116877   0.160   0.277   2.699
 5326SOL    HW216878   0.026   0.369   2.709
 5327SOL     OW16879   0.268   0.406   3.772
 5327SOL    HW116880   0.317   0.365   3.849
 5327SOL    HW216881   0.319   0.485   3.739
 5328SOL     OW16882   3.820   5.066   0.174
 5328SOL    HW116883   3.731   5.089   0.134
 5328SOL    HW216884   3.840   4.970   0.158
 5329SOL     OW16885   0.567   5.443   6.520
 5329SOL    HW116886   0.608   5.431   6.430
 5329SOL    HW216887   0.592   5.366   6.579
 5330SOL     OW16888   3.574   4.013   0.473
 5330SOL    HW116889   3.613   4.077   0.539
 5330SOL    HW216890   3.551   4.062   0.389
 5331SOL     OW16891   5.182   1.347   6.916
 5331SOL    HW116892   5.243   1.276   6.953
 5331SOL    HW216893   5.210   1.436   6.950
 5332SOL     OW16894   5.897   3.043   6.634
 5332SOL    HW116895   5.919   3.029   6.731
 5332SOL    HW216896   5.953   2.983   6.578
 5333SOL     OW16897   1.609   0.728   4.206
 5333SOL    HW116898   1.665   0.696   4.283
 5333SOL    HW216899   1.653   0.807   4.164
 5334SOL     OW16900   3.182   6.079   2.188
 5334SOL    HW116901   3.155   6.059   2.283
 5334SOL    HW216902   3.281   6.069   2.179
 5335SOL     OW16903   0.261   4.485   2.062
 5335SOL    HW116904   0.321   4.500   1.983
 5335SOL    HW216905   0.194   4.559   2.067
 5336SOL     OW16906   2.150   3.371   5.521
 5336SOL    HW116907   2.105   3.457   5.545
 5336SOL    HW216908   2.194   3.380   5.431
 5337SOL     OW16909   6.600   3.667   1.615
 5337SOL    HW116910   6.582   3.620   1.702
 5337SOL    HW216911   6.517   3.713   1.584
 5338SOL     OW16912   6.742   3.518   1.001
 5338SOL    HW116913   6.758   3.489   0.907
 5338SOL    HW216914   6.644   3.515   1.021
 5339SOL     OW16915   5.317   2.771   3.066
 5339SOL    HW116916   5.266   2.685   3.057
 5339SOL    HW216917   5.292   2.832   2.990
 5340SOL     OW16918   4.680   3.293   1.697
 5340SOL    HW116919   4.615   3.366   1.719
 5340SOL    HW216920   4.667   3.217   1.760
 5341SOL     OW16921   4.924   4.996   3.359
 5341SOL    HW116922   4.914   4.913   3.304
 5341SOL    HW216923   4.875   5.071   3.315
 5342SOL     OW16924   6.210   5.591   4.629
 5342SOL    HW116925   6.298   5.574   4.672
 5342SOL    HW216926   6.169   5.504   4.601
 5343SOL     OW16927   3.801   3.334   6.560
 5343SOL    HW116928   3.807   3.422   6.513
 5343SOL    HW216929   3.705   3.305   6.562
 5344SOL     OW16930   0.015   1.570   6.638
 5344SOL    HW116931   6.981   1.650   6.646
 5344SOL    HW216932   0.043   1.540   6.729
 5345SOL     OW16933   4.077   1.414   6.958
 5345SOL    HW116934   4.140   1.442   6.885
 5345SOL    HW216935   3.987   1.396   6.919
 5346SOL     OW16936   3.215   6.351   3.201
 5346SOL    HW116937   3.250   6.314   3.116
 5346SOL    HW216938   3.278   6.329   3.276
 5347SOL     OW16939   5.297   1.305   4.977
 5347SOL    HW116940   5.375   1.300   4.915
 5347SOL    HW216941   5.218   1.260   4.935
 5348SOL     OW16942   5.058   3.019   4.834
 5348SOL    HW116943   5.097   2.927   4.845
 5348SOL    HW216944   5.014   3.047   4.920
 5349SOL     OW16945   0.836   4.305   1.108
 5349SOL    HW116946   0.760   4.366   1.129
 5349SOL    HW216947   0.849   4.241   1.184
 5350SOL     OW16948   0.716   6.943   6.010
 5350SOL    HW116949   0.777   6.869   5.981
 5350SOL    HW216950   0.741   6.972   6.103
 5351SOL     OW16951   0.510   6.198   3.575
 5351SOL    HW116952   0.486   6.129   3.507
 5351SOL    HW216953   0.578   6.260   3.536
 5352SOL     OW16954   1.414   2.699   6.182
 5352SOL    HW116955   1.432   2.618   6.126
 5352SOL    HW216956   1.499   2.730   6.224
 5353SOL     OW16957   3.664   5.541   3.500
 5353SOL    HW116958   3.669   5.585   3.410
 5353SOL    HW216959   3.749   5.558   3.550
 5354SOL     OW16960   4.198   6.500   1.252
 5354SOL    HW116961   4.116   6.448   1.230
 5354SOL    HW216962   4.214   6.568   1.180
 5355SOL     OW16963   4.976   5.726   5.457
 5355SOL    HW116964   4.919   5.648   5.482
 5355SOL    HW216965   4.924   5.811   5.469
 5356SOL     OW16966   1.597   6.338   1.401
 5356SOL    HW116967   1.620   6.349   1.498
 5356SOL    HW216968   1.546   6.418   1.370
 5357SOL     OW16969   6.297   3.146   2.941
 5357SOL    HW116970   6.308   3.170   3.037
 5357SOL    HW216971   6.266   3.051   2.933
 5358SOL     OW16972   6.024   0.593   6.282
 5358SOL    HW116973   6.002   0.495   6.289
 5358SOL    HW216974   6.037   0.617   6.186
 5359SOL     OW16975   3.091   2.416   0.040
 5359SOL    HW116976   3.019   2.425   0.108
 5359SOL    HW216977   3.105   2.320   0.019
 5360SOL     OW16978   5.227   5.698   3.906
 5360SOL    HW116979   5.234   5.625   3.974
 5360SOL    HW216980   5.303   5.761   3.917
 5361SOL     OW16981   1.406   4.048   3.099
 5361SOL    HW116982   1.453   4.032   3.012
 5361SOL    HW216983   1.451   3.996   3.171
 5362SOL     OW16984   6.727   1.355   2.626
 5362SOL    HW116985   6.642   1.317   2.589
 5362SOL    HW216986   6.784   1.280   2.661
 5363SOL     OW16987   5.578   5.593   4.066
 5363SOL    HW116988   5.495   5.607   4.120
 5363SOL    HW216989   5.649   5.654   4.099
 5364SOL     OW16990   4.703   2.475   2.517
 5364SOL    HW116991   4.760   2.412   2.465
 5364SOL    HW216992   4.709   2.566   2.477
 5365SOL     OW16993   3.268   3.888   5.137
 5365SOL    HW116994   3.245   3.977   5.177
 5365SOL    HW216995   3.212   3.817   5.180
 5366SOL     OW16996   0.083   5.105   3.361
 5366SOL    HW116997   0.032   5.187   3.388
 5366SOL    HW216998   0.179   5.116   3.386
 5367SOL     OW16999   6.365   6.244   1.336
 5367SOL    HW117000   6.271   6.210   1.326
 5367SOL    HW217001   6.367   6.317   1.403
 5368SOL     OW17002   0.596   5.628   4.690
 5368SOL    HW117003   0.613   5.725   4.671
 5368SOL    HW217004   0.670   5.573   4.650
 5369SOL     OW17005   4.225   7.002   2.723
 5369SOL    HW117006   4.215   6.903   2.710
 5369SOL    HW217007   4.190   0.024   2.643
 5370SOL     OW17008   1.930   2.677   0.397
 5370SOL    HW117009   1.912   2.760   0.450
 5370SOL    HW217010   1.845   2.645   0.355
 5371SOL     OW17011   6.270   5.413   3.880
 5371SOL    HW117012   6.286   5.420   3.978
 5371SOL    HW217013   6.263   5.316   3.854
 5372SOL     OW17014   2.096   6.647   3.793
 5372SOL    HW117015   2.076   6.649   3.891
 5372SOL    HW217016   2.135   6.735   3.765
 5373SOL     OW17017   3.020   0.851   6.458
 5373SOL    HW117018   2.995   0.946   6.476
 5373SOL    HW217019   3.118   0.845   6.440
 5374SOL     OW17020   1.139   3.774   1.314
 5374SOL    HW117021   1.238   3.778   1.321
 5374SOL    HW217022   1.111   3.788   1.219
 5375SOL     OW17023   2.501   4.507   4.697
 5375SOL    HW117024   2.451   4.436   4.648
 5375SOL    HW217025   2.573   4.465   4.752
 5376SOL     OW17026   0.640   0.386   0.785
 5376SOL    HW117027   0.625   0.411   0.689
 5376SOL    HW217028   0.649   0.469   0.840
 5377SOL     OW17029   1.193   1.954   2.477
 5377SOL    HW117030   1.096   1.967   2.499
 5377SOL    HW217031   1.245   1.941   2.561
 5378SOL     OW17032   4.833   6.840   2.147
 5378SOL    HW117033   4.907   6.794   2.197
 5378SOL    HW217034   4.872   6.899   2.076
 5379SOL     OW17035   2.361   1.828   3.191
 5379SOL    HW117036   2.377   1.915   3.146
 5379SOL    HW217037   2.326   1.761   3.125
 5380SOL     OW17038   5.011   6.272   1.024
 5380SOL    HW117039   4.988   6.360   1.065
 5380SOL    HW217040   5.054   6.213   1.093
 5381SOL     OW17041   3.845   1.843   3.285
 5381SOL    HW117042   3.869   1.827   3.189
 5381SOL    HW217043   3.923   1.823   3.344
 5382SOL     OW17044   3.702   1.061   2.573
 5382SOL    HW117045   3.654   0.983   2.613
 5382SOL    HW217046   3.660   1.146   2.604
 5383SOL     OW17047   2.265   3.466   5.239
 5383SOL    HW117048   2.254   3.551   5.187
 5383SOL    HW217049   2.203   3.396   5.202
 5384SOL     OW17050   5.381   6.316   6.379
 5384SOL    HW117051   5.464   6.284   6.426
 5384SOL    HW217052   5.382   6.416   6.374
 5385SOL     OW17053   3.842   3.461   0.058
 5385SOL    HW117054   3.798   3.514   7.012
 5385SOL    HW217055   3.818   3.364   0.048
 5386SOL     OW17056   4.426   4.931   3.591
 5386SOL    HW117057   4.349   4.879   3.627
 5386SOL    HW217058   4.424   4.929   3.491
 5387SOL     OW17059   0.978   2.549   4.422
 5387SOL    HW117060   0.958   2.645   4.400
 5387SOL    HW217061   0.896   2.494   4.409
 5388SOL     OW17062   6.701   6.315   3.888
 5388SOL    HW117063   6.620   6.313   3.830
 5388SOL    HW217064   6.730   6.221   3.908
 5389SOL     OW17065   4.980   1.329   4.929
 5389SOL    HW117066   4.970   1.263   4.855
 5389SOL    HW217067   4.953   1.420   4.896
 5390SOL     OW17068   5.299   3.635   3.033
 5390SOL    HW117069   5.211   3.647   2.988
 5390SOL    HW217070   5.285   3.622   3.131
 5391SOL     OW17071   4.215   2.297   1.414
 5391SOL    HW117072   4.253   2.387   1.393
 5391SOL    HW217073   4.288   2.237   1.446
 5392SOL     OW17074   4.876   0.374   4.330
 5392SOL    HW117075   4.956   0.409   4.379
 5392SOL    HW217076   4.813   0.449   4.311
 5393SOL     OW17077   4.079   1.257   3.806
 5393SOL    HW117078   4.174   1.269   3.834
 5393SOL    HW217079   4.058   1.317   3.729
 5394SOL     OW17080   0.258   3.269   2.526
 5394SOL    HW117081   0.214   3.187   2.489
 5394SOL    HW217082   0.200   3.307   2.597
 5395SOL     OW17083   0.306   1.306   0.943
 5395SOL    HW117084   0.221   1.359   0.945
 5395SOL    HW217085   0.356   1.322   1.028
 5396SOL     OW17086   3.775   2.675   1.019
 5396SOL    HW117087   3.715   2.626   0.956
 5396SOL    HW217088   3.735   2.674   1.111
 5397SOL     OW17089   0.092   0.470   1.961
 5397SOL    HW117090   0.045   0.431   1.882
 5397SOL    HW217091   0.053   0.560   1.981
 5398SOL     OW17092   6.419   2.218   3.516
 5398SOL    HW117093   6.343   2.155   3.504
 5398SOL    HW217094   6.393   2.291   3.579
 5399SOL     OW17095   2.285   2.797   1.005
 5399SOL    HW117096   2.199   2.831   0.967
 5399SOL    HW217097   2.353   2.789   0.931
 5400SOL     OW17098   4.800   3.095   1.054
 5400SOL    HW117099   4.883   3.053   1.090
 5400SOL    HW217100   4.757   3.034   0.988
 5401SOL     OW17101   5.429   3.062   1.284
 5401SOL    HW117102   5.521   3.084   1.317
 5401SOL    HW217103   5.365   3.133   1.313
 5402SOL     OW17104   1.259   6.745   1.708
 5402SOL    HW117105   1.273   6.651   1.676
 5402SOL    HW217106   1.346   6.792   1.714
 5403SOL     OW17107   5.682   2.273   5.791
 5403SOL    HW117108   5.781   2.280   5.803
 5403SOL    HW217109   5.642   2.364   5.794
 5404SOL     OW17110   4.883   6.439   0.629
 5404SOL    HW117111   4.949   6.374   0.668
 5404SOL    HW217112   4.799   6.390   0.605
 5405SOL     OW17113   0.264   5.042   6.789
 5405SOL    HW117114   0.220   5.082   6.869
 5405SOL    HW217115   0.352   5.003   6.815
 5406SOL     OW17116   2.594   1.215   5.688
 5406SOL    HW117117   2.535   1.134   5.692
 5406SOL    HW217118   2.557   1.280   5.621
 5407SOL     OW17119   1.406   6.556   3.632
 5407SOL    HW117120   1.309   6.576   3.619
 5407SOL    HW217121   1.415   6.465   3.673
 5408SOL     OW17122   2.224   2.172   4.134
 5408SOL    HW117123   2.135   2.137   4.106
 5408SOL    HW217124   2.289   2.163   4.058
 5409SOL     OW17125   0.565   2.745   2.983
 5409SOL    HW117126   0.600   2.821   3.038
 5409SOL    HW217127   0.471   2.725   3.009
 5410SOL     OW17128   6.106   2.777   0.746
 5410SOL    HW117129   6.200   2.765   0.713
 5410SOL    HW217130   6.067   2.859   0.706
 5411SOL     OW17131   3.756   5.595   1.111
 5411SOL    HW117132   3.781   5.691   1.115
 5411SOL    HW217133   3.660   5.586   1.085
 5412SOL     OW17134   1.398   2.454   5.471
 5412SOL    HW117135   1.320   2.474   5.532
 5412SOL    HW217136   1.365   2.411   5.387
 5413SOL     OW17137   6.938   5.212   5.831
 5413SOL    HW117138   6.977   5.289   5.881
 5413SOL    HW217139   7.012   5.157   5.792
 5414SOL     OW17140   5.560   5.011   5.806
 5414SOL    HW117141   5.563   5.110   5.821
 5414SOL    HW217142   5.577   4.992   5.709
 5415SOL     OW17143   1.383   1.671   6.250
 5415SOL    HW117144   1.369   1.724   6.166
 5415SOL    HW217145   1.319   1.594   6.251
 5416SOL     OW17146   2.927   6.168   6.584
 5416SOL    HW117147   2.913   6.157   6.486
 5416SOL    HW217148   2.859   6.115   6.634
 5417SOL     OW17149   5.920   0.535   2.748
 5417SOL    HW117150   5.926   0.436   2.737
 5417SOL    HW217151   5.866   0.573   2.674
 5418SOL     OW17152   0.191   3.796   5.760
 5418SOL    HW117153   0.157   3.879   5.716
 5418SOL    HW217154   0.252   3.821   5.836
 5419SOL     OW17155   3.343   2.219   6.379
 5419SOL    HW117156   3.365   2.164   6.459
 5419SOL    HW217157   3.427   2.236   6.326
 5420SOL     OW17158   1.345   2.288   1.168
 5420SOL    HW117159   1.270   2.257   1.226
 5420SOL    HW217160   1.371   2.215   1.105
 5421SOL     OW17161   4.317   5.311   1.989
 5421SOL    HW117162   4.303   5.324   2.087
 5421SOL    HW217163   4.414   5.292   1.972
 5422SOL     OW17164   2.169   6.031   3.683
 5422SOL    HW117165   2.176   5.946   3.631
 5422SOL    HW217166   2.157   6.107   3.620
 5423SOL     OW17167   4.562   6.624   1.460
 5423SOL    HW117168   4.470   6.600   1.492
 5423SOL    HW217169   4.594   6.706   1.508
 5424SOL     OW17170   4.082   3.378   5.373
 5424SOL    HW117171   4.091   3.293   5.425
 5424SOL    HW217172   4.097   3.456   5.434
 5425SOL     OW17173   1.560   5.566   5.950
 5425SOL    HW117174   1.488   5.621   5.909
 5425SOL    HW217175   1.530   5.531   6.039
 5426SOL     OW17176   6.983   4.148   0.741
 5426SOL    HW117177   6.966   4.077   0.673
 5426SOL    HW217178   0.011   4.222   0.701
 5427SOL     OW17179   5.459   2.540   0.669
 5427SOL    HW117180   5.386   2.498   0.614
 5427SOL    HW217181   5.424   2.561   0.760
 5428SOL     OW17182   4.614   5.573   2.500
 5428SOL    HW117183   4.675   5.645   2.533
 5428SOL    HW217184   4.668   5.496   2.467
 5429SOL     OW17185   2.907   6.890   4.031
 5429SOL    HW117186   2.867   6.955   3.966
 5429SOL    HW217187   2.946   6.940   4.109
 5430SOL     OW17188   1.630   4.094   5.635
 5430SOL    HW117189   1.563   4.065   5.703
 5430SOL    HW217190   1.584   4.148   5.564
 5431SOL     OW17191   5.096   4.841   0.662
 5431SOL    HW117192   5.031   4.906   0.702
 5431SOL    HW217193   5.151   4.799   0.734
 5432SOL     OW17194   0.386   5.197   6.313
 5432SOL    HW117195   0.454   5.262   6.280
 5432SOL    HW217196   0.432   5.123   6.362
 5433SOL     OW17197   3.483   6.920   1.271
 5433SOL    HW117198   3.393   6.893   1.303
 5433SOL    HW217199   3.516   6.998   1.325
 5434SOL     OW17200   5.139   6.095   4.200
 5434SOL    HW117201   5.187   6.011   4.225
 5434SOL    HW217202   5.073   6.076   4.127
 5435SOL     OW17203   0.110   4.041   6.782
 5435SOL    HW117204   0.129   3.990   6.698
 5435SOL    HW217205   0.055   4.122   6.760
 5436SOL     OW17206   1.970   4.340   2.361
 5436SOL    HW117207   1.958   4.394   2.444
 5436SOL    HW217208   1.880   4.313   2.325
 5437SOL     OW17209   3.386   6.280   0.475
 5437SOL    HW117210   3.451   6.350   0.506
 5437SOL    HW217211   3.295   6.321   0.469
 5438SOL     OW17212   4.610   6.576   2.391
 5438SOL    HW117213   4.630   6.648   2.458
 5438SOL    HW217214   4.589   6.619   2.303
 5439SOL     OW17215   1.706   3.771   1.501
 5439SOL    HW117216   1.631   3.738   1.558
 5439SOL    HW217217   1.752   3.848   1.547
 5440SOL     OW17218   5.831   6.651   4.064
 5440SOL    HW117219   5.919   6.657   4.017
 5440SOL    HW217220   5.826   6.563   4.112
 5441SOL     OW17221   5.960   2.429   4.715
 5441SOL    HW117222   6.024   2.407   4.789
 5441SOL    HW217223   5.867   2.403   4.743
 5442SOL     OW17224   2.388   0.331   6.840
 5442SOL    HW117225   2.483   0.307   6.821
 5442SOL    HW217226   2.366   0.308   6.935
 5443SOL     OW17227   5.679   0.534   2.895
 5443SOL    HW117228   5.637   0.463   2.838
 5443SOL    HW217229   5.775   0.545   2.869
 5444SOL     OW17230   0.673   1.454   6.163
 5444SOL    HW117231   0.767   1.467   6.134
 5444SOL    HW217232   0.619   1.418   6.088
 5445SOL     OW17233   6.008   6.713   5.385
 5445SOL    HW117234   6.086   6.774   5.370
 5445SOL    HW217235   6.021   6.663   5.470
 5446SOL     OW17236   1.094   4.511   6.077
 5446SOL    HW117237   1.076   4.415   6.055
 5446SOL    HW217238   1.182   4.539   6.039
 5447SOL     OW17239   6.616   2.065   1.538
 5447SOL    HW117240   6.601   2.115   1.623
 5447SOL    HW217241   6.648   1.973   1.558
 5448SOL     OW17242   6.101   5.091   1.971
 5448SOL    HW117243   6.027   5.074   1.907
 5448SOL    HW217244   6.082   5.175   2.022
 5449SOL     OW17245   2.196   0.132   1.829
 5449SOL    HW117246   2.169   0.084   1.745
 5449SOL    HW217247   2.127   0.200   1.852
 5450SOL     OW17248   4.198   5.877   1.292
 5450SOL    HW117249   4.289   5.848   1.264
 5450SOL    HW217250   4.166   5.951   1.232
 5451SOL     OW17251   0.217   6.226   3.883
 5451SOL    HW117252   0.148   6.208   3.953
 5451SOL    HW217253   0.176   6.210   3.793
 5452SOL     OW17254   2.227   4.541   2.466
 5452SOL    HW117255   2.279   4.456   2.454
 5452SOL    HW217256   2.290   4.619   2.460
 5453SOL     OW17257   6.074   4.715   4.219
 5453SOL    HW117258   6.153   4.705   4.159
 5453SOL    HW217259   6.042   4.810   4.216
 5454SOL     OW17260   5.451   3.885   2.755
 5454SOL    HW117261   5.481   3.793   2.729
 5454SOL    HW217262   5.515   3.923   2.822
 5455SOL     OW17263   2.821   2.100   3.308
 5455SOL    HW117264   2.918   2.126   3.303
 5455SOL    HW217265   2.769   2.174   3.350
 5456SOL     OW17266   5.826   2.279   0.542
 5456SOL    HW117267   5.879   2.265   0.625
 5456SOL    HW217268   5.729   2.290   0.565
 5457SOL     OW17269   6.319   1.293   0.105
 5457SOL    HW117270   6.263   1.350   0.165
 5457SOL    HW217271   6.414   1.323   0.108
 5458SOL     OW17272   5.449   4.821   6.343
 5458SOL    HW117273   5.376   4.874   6.301
 5458SOL    HW217274   5.536   4.845   6.300
 5459SOL     OW17275   2.167   2.849   5.147
 5459SOL    HW117276   2.251   2.904   5.143
 5459SOL    HW217277   2.098   2.889   5.087
 5460SOL     OW17278   0.348   0.339   1.104
 5460SOL    HW117279   0.397   0.294   1.029
 5460SOL    HW217280   0.352   0.283   1.186
 5461SOL     OW17281   5.601   1.812   6.681
 5461SOL    HW117282   5.566   1.727   6.721
 5461SOL    HW217283   5.665   1.790   6.608
 5462SOL     OW17284   5.191   5.383   6.343
 5462SOL    HW117285   5.212   5.371   6.440
 5462SOL    HW217286   5.102   5.342   6.323
 5463SOL     OW17287   1.283   4.851   5.930
 5463SOL    HW117288   1.368   4.891   5.966
 5463SOL    HW217289   1.295   4.753   5.917
 5464SOL     OW17290   1.994   5.127   5.080
 5464SOL    HW117291   1.912   5.093   5.125
 5464SOL    HW217292   2.047   5.184   5.144
 5465SOL     OW17293   0.456   0.068   5.337
 5465SOL    HW117294   0.397   7.021   5.302
 5465SOL    HW217295   0.523   0.030   5.400
 5466SOL     OW17296   5.275   1.925   5.093
 5466SOL    HW117297   5.312   2.016   5.075
 5466SOL    HW217298   5.350   1.859   5.097
 5467SOL     OW17299   5.446   2.958   4.362
 5467SOL    HW117300   5.463   3.007   4.448
 5467SOL    HW217301   5.356   2.914   4.366
 5468SOL     OW17302   6.869   2.592   1.575
 5468SOL    HW117303   6.909   2.523   1.514
 5468SOL    HW217304   6.890   2.568   1.670
 5469SOL     OW17305   3.787   1.802   4.183
 5469SOL    HW117306   3.783   1.779   4.085
 5469SOL    HW217307   3.880   1.784   4.217
 5470SOL     OW17308   3.877   4.973   3.772
 5470SOL    HW117309   3.886   5.061   3.819
 5470SOL    HW217310   3.940   4.907   3.813
 5471SOL     OW17311   5.009   0.620   2.856
 5471SOL    HW117312   5.061   0.706   2.859
 5471SOL    HW217313   5.024   0.575   2.768
 5472SOL     OW17314   2.005   3.595   0.036
 5472SOL    HW117315   2.038   3.502   0.050
 5472SOL    HW217316   1.907   3.593   0.013
 5473SOL     OW17317   2.925   4.860   2.099
 5473SOL    HW117318   2.965   4.893   2.184
 5473SOL    HW217319   2.875   4.775   2.117
 5474SOL     OW17320   1.507   4.900   2.122
 5474SOL    HW117321   1.455   4.973   2.077
 5474SOL    HW217322   1.604   4.923   2.121
 5475SOL     OW17323   1.289   1.555   5.188
 5475SOL    HW117324   1.292   1.654   5.192
 5475SOL    HW217325   1.378   1.518   5.214
 5476SOL     OW17326   2.013   0.495   4.777
 5476SOL    HW117327   1.997   0.593   4.769
 5476SOL    HW217328   2.040   0.473   4.871
 5477SOL     OW17329   2.142   3.152   3.273
 5477SOL    HW117330   2.131   3.202   3.187
 5477SOL    HW217331   2.158   3.216   3.348
 5478SOL     OW17332   5.629   4.239   4.997
 5478SOL    HW117333   5.708   4.293   5.026
 5478SOL    HW217334   5.647   4.202   4.906
 5479SOL     OW17335   5.508   3.296   4.537
 5479SOL    HW117336   5.418   3.253   4.548
 5479SOL    HW217337   5.545   3.273   4.447
 5480SOL     OW17338   1.246   3.878   4.854
 5480SOL    HW117339   1.156   3.907   4.886
 5480SOL    HW217340   1.291   3.822   4.924
 5481SOL     OW17341   3.185   1.465   6.342
 5481SOL    HW117342   3.179   1.560   6.372
 5481SOL    HW217343   3.214   1.463   6.246
 5482SOL     OW17344   5.412   3.208   2.150
 5482SOL    HW117345   5.344   3.159   2.095
 5482SOL    HW217346   5.470   3.263   2.090
 5483SOL     OW17347   6.781   3.093   7.018
 5483SOL    HW117348   6.847   3.142   6.960
 5483SOL    HW217349   6.798   3.115   0.088
 5484SOL     OW17350   6.577   0.550   5.158
 5484SOL    HW117351   6.611   0.583   5.070
 5484SOL    HW217352   6.562   0.628   5.219
 5485SOL     OW17353   3.247   0.790   5.060
 5485SOL    HW117354   3.273   0.730   4.984
 5485SOL    HW217355   3.222   0.880   5.023
 5486SOL     OW17356   1.194   0.743   3.958
 5486SOL    HW117357   1.163   0.837   3.944
 5486SOL    HW217358   1.290   0.743   3.986
 5487SOL     OW17359   4.242   5.314   1.149
 5487SOL    HW117360   4.258   5.394   1.092
 5487SOL    HW217361   4.166   5.331   1.211
 5488SOL     OW17362   5.088   1.414   5.866
 5488SOL    HW117363   5.112   1.318   5.884
 5488SOL    HW217364   4.996   1.418   5.826
 5489SOL     OW17365   6.470   4.115   2.835
 5489SOL    HW117366   6.488   4.106   2.933
 5489SOL    HW217367   6.477   4.025   2.791
 5490SOL     OW17368   2.199   2.024   6.298
 5490SOL    HW117369   2.166   2.117   6.286
 5490SOL    HW217370   2.217   2.007   6.395
 5491SOL     OW17371   0.107   6.018   2.369
 5491SOL    HW117372   0.100   6.088   2.298
 5491SOL    HW217373   0.049   5.940   2.345
 5492SOL     OW17374   1.381   1.325   4.526
 5492SOL    HW117375   1.402   1.337   4.623
 5492SOL    HW217376   1.353   1.231   4.509
 5493SOL     OW17377   3.047   2.086   0.393
 5493SOL    HW117378   3.039   2.174   0.347
 5493SOL    HW217379   3.087   2.019   0.330
 5494SOL     OW17380   5.818   3.238   2.295
 5494SOL    HW117381   5.916   3.250   2.305
 5494SOL    HW217382   5.784   3.180   2.370
 5495SOL     OW17383   3.731   2.912   3.552
 5495SOL    HW117384   3.824   2.936   3.523
 5495SOL    HW217385   3.686   2.862   3.479
 5496SOL     OW17386   4.442   4.990   1.989
 5496SOL    HW117387   4.482   5.042   1.913
 5496SOL    HW217388   4.343   4.986   1.977
 5497SOL     OW17389   5.929   0.167   1.267
 5497SOL    HW117390   5.843   0.145   1.221
 5497SOL    HW217391   5.986   0.222   1.207
 5498SOL     OW17392   4.168   0.518   4.654
 5498SOL    HW117393   4.220   0.435   4.673
 5498SOL    HW217394   4.156   0.571   4.738
 5499SOL     OW17395   0.769   1.216   5.583
 5499SOL    HW117396   0.717   1.296   5.612
 5499SOL    HW217397   0.830   1.241   5.508
 5500SOL     OW17398   2.044   6.105   0.927
 5500SOL    HW117399   2.071   6.011   0.908
 5500SOL    HW217400   1.946   6.108   0.948
 5501SOL     OW17401   3.028   0.483   2.519
 5501SOL    HW117402   3.125   0.466   2.538
 5501SOL    HW217403   3.018   0.540   2.438
 5502SOL     OW17404   4.593   3.041   0.552
 5502SOL    HW117405   4.639   3.066   0.467
 5502SOL    HW217406   4.529   3.114   0.578
 5503SOL     OW17407   0.459   6.424   4.590
 5503SOL    HW117408   0.500   6.415   4.499
 5503SOL    HW217409   0.431   6.519   4.604
 5504SOL     OW17410   3.391   2.118   4.613
 5504SOL    HW117411   3.352   2.034   4.650
 5504SOL    HW217412   3.328   2.157   4.545
 5505SOL     OW17413   3.652   4.621   6.992
 5505SOL    HW117414   3.700   4.540   6.959
 5505SOL    HW217415   3.577   4.593   0.026
 5506SOL     OW17416   7.014   6.697   5.619
 5506SOL    HW117417   0.054   6.704   5.544
 5506SOL    HW217418   7.021   6.606   5.661
 5507SOL     OW17419   3.871   5.927   4.561
 5507SOL    HW117420   3.881   5.860   4.634
 5507SOL    HW217421   3.922   6.010   4.584
 5508SOL     OW17422   1.771   0.595   6.184
 5508SOL    HW117423   1.732   0.559   6.098
 5508SOL    HW217424   1.712   0.569   6.260
 5509SOL     OW17425   6.013   6.730   6.822
 5509SOL    HW117426   6.031   6.636   6.794
 5509SOL    HW217427   5.998   6.787   6.741
 5510SOL     OW17428   6.068   0.762   6.525
 5510SOL    HW117429   6.060   0.714   6.437
 5510SOL    HW217430   6.131   0.839   6.514
 5511SOL     OW17431   6.954   2.394   1.358
 5511SOL    HW117432   6.866   2.353   1.333
 5511SOL    HW217433   6.980   2.461   1.288
 5512SOL     OW17434   0.319   0.208   0.316
 5512SOL    HW117435   0.417   0.207   0.337
 5512SOL    HW217436   0.300   0.143   0.243
 5513SOL     OW17437   3.505   5.818   4.963
 5513SOL    HW117438   3.602   5.818   4.989
 5513SOL    HW217439   3.497   5.847   4.867
 5514SOL     OW17440   5.838   5.443   3.826
 5514SOL    HW117441   5.875   5.492   3.905
 5514SOL    HW217442   5.748   5.480   3.804
 5515SOL     OW17443   6.485   3.420   3.094
 5515SOL    HW117444   6.452   3.341   3.146
 5515SOL    HW217445   6.526   3.388   3.008
 5516SOL     OW17446   1.163   2.970   6.872
 5516SOL    HW117447   1.156   2.870   6.871
 5516SOL    HW217448   1.086   3.008   6.923
 5517SOL     OW17449   2.294   0.814   1.547
 5517SOL    HW117450   2.302   0.853   1.456
 5517SOL    HW217451   2.338   0.874   1.614
 5518SOL     OW17452   5.651   4.746   5.189
 5518SOL    HW117453   5.689   4.790   5.108
 5518SOL    HW217454   5.659   4.807   5.268
 5519SOL     OW17455   5.087   4.039   3.442
 5519SOL    HW117456   5.007   4.006   3.494
 5519SOL    HW217457   5.169   3.994   3.476
 5520SOL     OW17458   2.057   2.903   0.895
 5520SOL    HW117459   2.031   2.944   0.808
 5520SOL    HW217460   1.983   2.843   0.927
 5521SOL     OW17461   5.022   5.838   0.941
 5521SOL    HW117462   5.096   5.775   0.965
 5521SOL    HW217463   4.996   5.823   0.845
 5522SOL     OW17464   2.109   3.073   2.330
 5522SOL    HW117465   2.168   3.022   2.268
 5522SOL    HW217466   2.076   3.155   2.285
 5523SOL     OW17467   2.946   0.611   1.921
 5523SOL    HW117468   2.991   0.523   1.905
 5523SOL    HW217469   2.976   0.647   2.010
 5524SOL     OW17470   5.572   5.831   5.688
 5524SOL    HW117471   5.640   5.890   5.643
 5524SOL    HW217472   5.481   5.867   5.670
 5525SOL     OW17473   6.601   5.932   4.255
 5525SOL    HW117474   6.618   5.995   4.330
 5525SOL    HW217475   6.567   5.983   4.175
 5526SOL     OW17476   5.407   3.036   4.639
 5526SOL    HW117477   5.503   3.020   4.659
 5526SOL    HW217478   5.364   2.951   4.608
 5527SOL     OW17479   2.194   3.040   0.568
 5527SOL    HW117480   2.129   3.106   0.605
 5527SOL    HW217481   2.159   3.005   0.480
 5528SOL     OW17482   6.962   3.440   2.614
 5528SOL    HW117483   0.027   3.435   2.656
 5528SOL    HW217484   6.897   3.388   2.668
 5529SOL     OW17485   1.357   1.598   4.482
 5529SOL    HW117486   1.414   1.665   4.529
 5529SOL    HW217487   1.389   1.506   4.503
 5530SOL     OW17488   0.030   3.227   0.134
 5530SOL    HW117489   6.981   3.202   0.196
 5530SOL    HW217490   0.116   3.193   0.171
 5531SOL     OW17491   1.181   2.508   6.818
 5531SOL    HW117492   1.192   2.437   6.749
 5531SOL    HW217493   1.094   2.556   6.803
 5532SOL     OW17494   2.356   2.211   1.026
 5532SOL    HW117495   2.292   2.156   0.972
 5532SOL    HW217496   2.316   2.231   1.115
 5533SOL     OW17497   4.042   0.115   0.702
 5533SOL    HW117498   3.991   0.062   0.634
 5533SOL    HW217499   3.987   0.124   0.785
 5534SOL     OW17500   6.961   4.818   4.859
 5534SOL    HW117501   6.980   4.813   4.957
 5534SOL    HW217502   6.863   4.803   4.843
 5535SOL     OW17503   5.744   3.258   3.904
 5535SOL    HW117504   5.821   3.285   3.846
 5535SOL    HW217505   5.762   3.286   3.998
 5536SOL     OW17506   2.701   0.490   4.197
 5536SOL    HW117507   2.750   0.523   4.277
 5536SOL    HW217508   2.739   0.402   4.167
 5537SOL     OW17509   4.275   1.631   4.829
 5537SOL    HW117510   4.202   1.566   4.848
 5537SOL    HW217511   4.253   1.682   4.746
 5538SOL     OW17512   5.061   2.630   1.526
 5538SOL    HW117513   5.130   2.561   1.547
 5538SOL    HW217514   4.999   2.640   1.603
 5539SOL     OW17515   2.564   0.005   0.749
 5539SOL    HW117516   2.482   0.008   0.807
 5539SOL    HW217517   2.623   0.082   0.772
 5540SOL     OW17518   4.995   0.612   6.421
 5540SOL    HW117519   4.986   0.562   6.507
 5540SOL    HW217520   5.000   0.547   6.345
 5541SOL     OW17521   4.616   3.210   0.069
 5541SOL    HW117522   4.544   3.176   0.009
 5541SOL    HW217523   4.583   3.292   0.117
 5542SOL     OW17524   4.416   4.116   7.005
 5542SOL    HW117525   4.331   4.124   6.954
 5542SOL    HW217526   4.473   4.196   6.987
 5543SOL     OW17527   1.852   0.650   0.095
 5543SOL    HW117528   1.924   0.613   0.037
 5543SOL    HW217529   1.893   0.712   0.163
 5544SOL     OW17530   3.892   5.309   6.600
 5544SOL    HW117531   3.879   5.266   6.690
 5544SOL    HW217532   3.860   5.403   6.604
 5545SOL     OW17533   4.785   1.008   3.716
 5545SOL    HW117534   4.863   0.998   3.777
 5545SOL    HW217535   4.817   1.025   3.623
 5546SOL     OW17536   0.623   4.923   4.330
 5546SOL    HW117537   0.655   4.952   4.420
 5546SOL    HW217538   0.539   4.870   4.341
 5547SOL     OW17539   5.044   1.596   5.157
 5547SOL    HW117540   5.041   1.592   5.057
 5547SOL    HW217541   5.136   1.621   5.187
 5548SOL     OW17542   0.499   4.298   4.440
 5548SOL    HW117543   0.576   4.360   4.454
 5548SOL    HW217544   0.429   4.345   4.385
 5549SOL     OW17545   4.518   2.991   0.239
 5549SOL    HW117546   4.545   3.063   0.175
 5549SOL    HW217547   4.418   2.983   0.240
 5550SOL     OW17548   2.087   4.373   1.708
 5550SOL    HW117549   2.089   4.311   1.787
 5550SOL    HW217550   2.114   4.323   1.626
 5551SOL     OW17551   1.764   5.479   3.397
 5551SOL    HW117552   1.860   5.454   3.390
 5551SOL    HW217553   1.749   5.530   3.481
 5552SOL     OW17554   0.753   6.497   6.990
 5552SOL    HW117555   0.677   6.549   0.003
 5552SOL    HW217556   0.729   6.400   6.987
 5553SOL     OW17557   5.137   0.414   0.161
 5553SOL    HW117558   5.139   0.315   0.178
 5553SOL    HW217559   5.116   0.431   0.065
 5554SOL     OW17560   6.377   1.745   1.356
 5554SOL    HW117561   6.410   1.672   1.296
 5554SOL    HW217562   6.315   1.805   1.306
 5555SOL     OW17563   1.832   4.842   2.923
 5555SOL    HW117564   1.743   4.806   2.895
 5555SOL    HW217565   1.819   4.930   2.970
 5556SOL     OW17566   0.635   0.782   4.527
 5556SOL    HW117567   0.595   0.694   4.550
 5556SOL    HW217568   0.603   0.812   4.437
 5557SOL     OW17569   3.562   5.691   3.293
 5557SOL    HW117570   3.488   5.686   3.360
 5557SOL    HW217571   3.528   5.730   3.208
 5558SOL     OW17572   4.816   4.076   6.806
 5558SOL    HW117573   4.828   3.981   6.836
 5558SOL    HW217574   4.767   4.077   6.719
 5559SOL     OW17575   3.072   1.097   2.872
 5559SOL    HW117576   3.125   1.154   2.810
 5559SOL    HW217577   2.987   1.143   2.896
 5560SOL     OW17578   0.571   5.358   3.470
 5560SOL    HW117579   0.612   5.448   3.488
 5560SOL    HW217580   0.634   5.286   3.499
 5561SOL     OW17581   3.819   6.752   3.282
 5561SOL    HW117582   3.870   6.818   3.226
 5561SOL    HW217583   3.862   6.663   3.276
 5562SOL     OW17584   3.508   3.894   0.955
 5562SOL    HW117585   3.472   3.801   0.949
 5562SOL    HW217586   3.457   3.954   0.894
 5563SOL     OW17587   1.980   4.529   2.593
 5563SOL    HW117588   2.066   4.541   2.543
 5563SOL    HW217589   1.994   4.466   2.670
 5564SOL     OW17590   5.285   1.029   6.018
 5564SOL    HW117591   5.377   1.046   6.053
 5564SOL    HW217592   5.290   0.971   5.937
 5565SOL     OW17593   3.214   1.925   6.175
 5565SOL    HW117594   3.119   1.914   6.206
 5565SOL    HW217595   3.220   2.007   6.119
 5566SOL     OW17596   1.446   4.006   0.306
 5566SOL    HW117597   1.364   4.014   0.250
 5566SOL    HW217598   1.475   4.098   0.335
 5567SOL     OW17599   0.184   3.913   0.814
 5567SOL    HW117600   0.160   3.956   0.901
 5567SOL    HW217601   0.101   3.881   0.768
 5568SOL     OW17602   4.646   5.022   1.766
 5568SOL    HW117603   4.717   4.954   1.784
 5568SOL    HW217604   4.684   5.097   1.712
 5569SOL     OW17605   2.211   3.082   2.813
 5569SOL    HW117606   2.193   3.003   2.871
 5569SOL    HW217607   2.236   3.052   2.721
 5570SOL     OW17608   6.847   3.595   2.429
 5570SOL    HW117609   6.905   3.534   2.483
 5570SOL    HW217610   6.810   3.545   2.350
 5571SOL     OW17611   6.120   4.622   1.518
 5571SOL    HW117612   6.043   4.615   1.454
 5571SOL    HW217613   6.178   4.699   1.491
 5572SOL     OW17614   1.752   4.222   4.749
 5572SOL    HW117615   1.672   4.281   4.761
 5572SOL    HW217616   1.725   4.127   4.767
 5573SOL     OW17617   3.429   5.336   4.009
 5573SOL    HW117618   3.509   5.363   4.063
 5573SOL    HW217619   3.459   5.292   3.925
 5574SOL     OW17620   0.605   2.880   6.016
 5574SOL    HW117621   0.603   2.781   6.032
 5574SOL    HW217622   0.690   2.918   6.054
 5575SOL     OW17623   0.214   6.855   1.959
 5575SOL    HW117624   0.232   6.757   1.965
 5575SOL    HW217625   0.271   6.895   1.888
 5576SOL     OW17626   1.119   5.126   3.279
 5576SOL    HW117627   1.165   5.203   3.323
 5576SOL    HW217628   1.121   5.138   3.179
 5577SOL     OW17629   1.879   2.946   5.847
 5577SOL    HW117630   1.975   2.928   5.826
 5577SOL    HW217631   1.870   2.968   5.944
 5578SOL     OW17632   3.757   4.061   3.933
 5578SOL    HW117633   3.741   4.090   4.028
 5578SOL    HW217634   3.687   4.101   3.874
 5579SOL     OW17635   0.432   3.083   1.873
 5579SOL    HW117636   0.443   3.109   1.777
 5579SOL    HW217637   0.395   3.161   1.924
 5580SOL     OW17638   5.426   1.979   5.401
 5580SOL    HW117639   5.430   2.058   5.462
 5580SOL    HW217640   5.333   1.944   5.398
 5581SOL     OW17641   1.074   2.319   0.278
 5581SOL    HW117642   1.102   2.298   0.185
 5581SOL    HW217643   0.980   2.354   0.278
 5582SOL     OW17644   2.425   2.873   6.596
 5582SOL    HW117645   2.343   2.819   6.578
 5582SOL    HW217646   2.474   2.834   6.674
 5583SOL     OW17647   5.273   0.509   2.297
 5583SOL    HW117648   5.254   0.416   2.265
 5583SOL    HW217649   5.348   0.548   2.243
 5584SOL     OW17650   1.511   3.605   4.821
 5584SOL    HW117651   1.569   3.526   4.801
 5584SOL    HW217652   1.537   3.645   4.909
 5585SOL     OW17653   5.159   4.868   2.148
 5585SOL    HW117654   5.212   4.823   2.076
 5585SOL    HW217655   5.169   4.817   2.233
 5586SOL     OW17656   6.310   3.765   0.180
 5586SOL    HW117657   6.306   3.759   0.080
 5586SOL    HW217658   6.291   3.676   0.220
 5587SOL     OW17659   5.984   1.183   6.294
 5587SOL    HW117660   6.081   1.196   6.274
 5587SOL    HW217661   5.963   1.085   6.292
 5588SOL     OW17662   3.689   6.439   0.899
 5588SOL    HW117663   3.649   6.434   0.990
 5588SOL    HW217664   3.642   6.510   0.846
 5589SOL     OW17665   5.713   4.812   5.958
 5589SOL    HW117666   5.634   4.860   5.920
 5589SOL    HW217667   5.796   4.866   5.939
 5590SOL     OW17668   6.161   5.808   3.850
 5590SOL    HW117669   6.168   5.876   3.923
 5590SOL    HW217670   6.182   5.850   3.762
 5591SOL     OW17671   5.339   0.782   1.737
 5591SOL    HW117672   5.405   0.849   1.769
 5591SOL    HW217673   5.377   0.731   1.660
 5592SOL     OW17674   0.734   3.571   3.364
 5592SOL    HW117675   0.667   3.603   3.297
 5592SOL    HW217676   0.739   3.472   3.361
 5593SOL     OW17677   0.025   3.523   0.378
 5593SOL    HW117678   0.016   3.618   0.410
 5593SOL    HW217679   0.067   3.522   0.288
 5594SOL     OW17680   5.709   2.383   6.186
 5594SOL    HW117681   5.649   2.306   6.164
 5594SOL    HW217682   5.769   2.358   6.263
 5595SOL     OW17683   0.553   2.955   5.631
 5595SOL    HW117684   0.547   3.053   5.649
 5595SOL    HW217685   0.520   2.936   5.538
 5596SOL     OW17686   3.499   6.472   3.165
 5596SOL    HW117687   3.511   6.398   3.098
 5596SOL    HW217688   3.460   6.435   3.249
 5597SOL     OW17689   5.350   2.856   2.632
 5597SOL    HW117690   5.336   2.910   2.549
 5597SOL    HW217691   5.443   2.869   2.665
 5598SOL     OW17692   5.454   2.045   4.628
 5598SOL    HW117693   5.449   2.086   4.537
 5598SOL    HW217694   5.429   2.114   4.697
 5599SOL     OW17695   0.951   0.854   3.801
 5599SOL    HW117696   0.965   0.759   3.829
 5599SOL    HW217697   0.976   0.915   3.876
 5600SOL     OW17698   1.491   2.003   3.943
 5600SOL    HW117699   1.492   2.060   4.025
 5600SOL    HW217700   1.451   1.914   3.965
 5601SOL     OW17701   2.379   0.595   5.826
 5601SOL    HW117702   2.382   0.496   5.816
 5601SOL    HW217703   2.290   0.622   5.862
 5602SOL     OW17704   1.716   1.362   6.977
 5602SOL    HW117705   1.686   1.442   6.924
 5602SOL    HW217706   1.654   1.346   0.027
 5603SOL     OW17707   5.509   3.618   6.409
 5603SOL    HW117708   5.494   3.709   6.370
 5603SOL    HW217709   5.586   3.574   6.363
 5604SOL     OW17710   6.440   1.689   6.031
 5604SOL    HW117711   6.428   1.654   6.124
 5604SOL    HW217712   6.506   1.632   5.983
 5605SOL     OW17713   0.967   2.267   5.395
 5605SOL    HW117714   0.880   2.300   5.359
 5605SOL    HW217715   0.975   2.169   5.378
 5606SOL     OW17716   5.181   0.076   2.526
 5606SOL    HW117717   5.169   0.148   2.458
 5606SOL    HW217718   5.278   0.054   2.536
 5607SOL     OW17719   6.099   1.031   1.920
 5607SOL    HW117720   6.063   1.122   1.897
 5607SOL    HW217721   6.194   1.025   1.888
 5608SOL     OW17722   4.586   6.846   4.594
 5608SOL    HW117723   4.509   6.791   4.625
 5608SOL    HW217724   4.600   6.831   4.496
 5609SOL     OW17725   2.308   5.654   5.826
 5609SOL    HW117726   2.298   5.732   5.764
 5609SOL    HW217727   2.237   5.586   5.806
 5610SOL     OW17728   4.452   0.287   6.531
 5610SOL    HW117729   4.539   0.335   6.519
 5610SOL    HW217730   4.435   0.272   6.629
 5611SOL     OW17731   1.704   4.583   3.345
 5611SOL    HW117732   1.733   4.658   3.285
 5611SOL    HW217733   1.607   4.566   3.333
 5612SOL     OW17734   2.069   0.547   5.601
 5612SOL    HW117735   2.079   0.472   5.535
 5612SOL    HW217736   1.978   0.543   5.642
 5613SOL     OW17737   3.727   5.072   1.654
 5613SOL    HW117738   3.758   5.058   1.749
 5613SOL    HW217739   3.635   5.111   1.655
 5614SOL     OW17740   4.412   2.055   3.615
 5614SOL    HW117741   4.425   2.105   3.529
 5614SOL    HW217742   4.467   2.098   3.687
 5615SOL     OW17743   1.236   1.610   1.375
 5615SOL    HW117744   1.277   1.598   1.466
 5615SOL    HW217745   1.255   1.530   1.319
 5616SOL     OW17746   2.979   0.379   4.876
 5616SOL    HW117747   3.062   0.361   4.929
 5616SOL    HW217748   2.990   0.341   4.784
 5617SOL     OW17749   1.297   1.149   5.154
 5617SOL    HW117750   1.336   1.083   5.090
 5617SOL    HW217751   1.215   1.189   5.115
 5618SOL     OW17752   6.567   4.437   2.595
 5618SOL    HW117753   6.507   4.407   2.669
 5618SOL    HW217754   6.519   4.507   2.540
 5619SOL     OW17755   2.125   3.571   4.755
 5619SOL    HW117756   2.131   3.499   4.824
 5619SOL    HW217757   2.162   3.656   4.794
 5620SOL     OW17758   3.665   2.363   5.925
 5620SOL    HW117759   3.711   2.381   6.012
 5620SOL    HW217760   3.628   2.270   5.925
 5621SOL     OW17761   1.746   2.325   6.344
 5621SOL    HW117762   1.720   2.407   6.293
 5621SOL    HW217763   1.845   2.314   6.341
 5622SOL     OW17764   5.846   0.659   6.044
 5622SOL    HW117765   5.942   0.633   6.052
 5622SOL    HW217766   5.798   0.636   6.129
 5623SOL     OW17767   0.552   5.642   6.707
 5623SOL    HW117768   0.628   5.621   6.768
 5623SOL    HW217769   0.549   5.576   6.632
 5624SOL     OW17770   1.191   4.087   3.302
 5624SOL    HW117771   1.265   4.077   3.236
 5624SOL    HW217772   1.178   4.000   3.350
 5625SOL     OW17773   6.859   2.248   5.590
 5625SOL    HW117774   6.841   2.329   5.646
 5625SOL    HW217775   6.869   2.275   5.494
 5626SOL     OW17776   4.302   6.985   4.288
 5626SOL    HW117777   4.379   0.009   4.327
 5626SOL    HW217778   4.230   0.023   4.263
 5627SOL     OW17779   1.081   5.902   0.443
 5627SOL    HW117780   1.042   5.812   0.424
 5627SOL    HW217781   1.164   5.892   0.498
 5628SOL     OW17782   1.221   1.097   4.230
 5628SOL    HW117783   1.210   1.195   4.214
 5628SOL    HW217784   1.318   1.074   4.234
 5629SOL     OW17785   3.603   3.590   2.977
 5629SOL    HW117786   3.670   3.570   2.906
 5629SOL    HW217787   3.649   3.626   3.058
 5630SOL     OW17788   6.963   4.485   1.943
 5630SOL    HW117789   6.965   4.391   1.907
 5630SOL    HW217790   6.931   4.483   2.038
 5631SOL     OW17791   4.728   0.505   6.766
 5631SOL    HW117792   4.727   0.500   6.666
 5631SOL    HW217793   4.705   0.416   6.804
 5632SOL     OW17794   3.194   3.499   0.273
 5632SOL    HW117795   3.180   3.507   0.174
 5632SOL    HW217796   3.212   3.404   0.296
 5633SOL     OW17797   6.220   2.723   4.863
 5633SOL    HW117798   6.258   2.647   4.811
 5633SOL    HW217799   6.124   2.737   4.836
 5634SOL     OW17800   4.557   5.526   4.453
 5634SOL    HW117801   4.474   5.581   4.464
 5634SOL    HW217802   4.562   5.491   4.360
 5635SOL     OW17803   3.154   2.159   5.355
 5635SOL    HW117804   3.172   2.220   5.277
 5635SOL    HW217805   3.232   2.162   5.417
 5636SOL     OW17806   3.515   6.178   4.132
 5636SOL    HW117807   3.566   6.103   4.089
 5636SOL    HW217808   3.577   6.233   4.188
 5637SOL     OW17809   5.752   0.490   3.450
 5637SOL    HW117810   5.665   0.509   3.405
 5637SOL    HW217811   5.749   0.398   3.491
 5638SOL     OW17812   5.013   3.557   6.287
 5638SOL    HW117813   4.944   3.525   6.352
 5638SOL    HW217814   5.100   3.512   6.306
 5639SOL     OW17815   2.702   0.600   6.208
 5639SOL    HW117816   2.689   0.686   6.159
 5639SOL    HW217817   2.716   0.526   6.142
 5640SOL     OW17818   2.577   6.986   3.661
 5640SOL    HW117819   2.582   6.886   3.666
 5640SOL    HW217820   2.490   7.013   3.619
 5641SOL     OW17821   5.763   5.891   4.833
 5641SOL    HW117822   5.710   5.829   4.892
 5641SOL    HW217823   5.701   5.943   4.775
 5642SOL     OW17824   1.571   2.169   6.502
 5642SOL    HW117825   1.533   2.097   6.443
 5642SOL    HW217826   1.614   2.239   6.445
 5643SOL     OW17827   5.783   2.330   4.941
 5643SOL    HW117828   5.878   2.330   4.974
 5643SOL    HW217829   5.722   2.304   5.016
 5644SOL     OW17830   2.947   0.197   6.024
 5644SOL    HW117831   3.031   0.237   6.061
 5644SOL    HW217832   2.935   0.105   6.062
 5645SOL     OW17833   4.918   3.367   4.648
 5645SOL    HW117834   5.006   3.336   4.684
 5645SOL    HW217835   4.850   3.296   4.663
 5646SOL     OW17836   1.430   4.285   2.827
 5646SOL    HW117837   1.377   4.209   2.791
 5646SOL    HW217838   1.526   4.276   2.797
 5647SOL     OW17839   6.669   6.475   2.548
 5647SOL    HW117840   6.603   6.532   2.595
 5647SOL    HW217841   6.758   6.522   2.545
 5648SOL     OW17842   4.705   6.286   3.523
 5648SOL    HW117843   4.768   6.351   3.480
 5648SOL    HW217844   4.703   6.201   3.470
 5649SOL     OW17845   1.089   6.262   4.509
 5649SOL    HW117846   1.137   6.322   4.444
 5649SOL    HW217847   1.155   6.220   4.571
 5650SOL     OW17848   6.765   4.289   6.872
 5650SOL    HW117849   6.731   4.359   6.935
 5650SOL    HW217850   6.687   4.239   6.833
 5651SOL     OW17851   2.464   1.143   1.161
 5651SOL    HW117852   2.523   1.223   1.164
 5651SOL    HW217853   2.370   1.171   1.144
 5652SOL     OW17854   0.754   5.785   1.617
 5652SOL    HW117855   0.852   5.802   1.621
 5652SOL    HW217856   0.717   5.779   1.709
 5653SOL     OW17857   0.180   0.165   1.809
 5653SOL    HW117858   0.152   0.210   1.894
 5653SOL    HW217859   0.265   0.115   1.825
 5654SOL     OW17860   3.076   5.380   4.341
 5654SOL    HW117861   2.991   5.365   4.392
 5654SOL    HW217862   3.129   5.451   4.388
 5655SOL     OW17863   6.366   2.505   5.194
 5655SOL    HW117864   6.454   2.499   5.147
 5655SOL    HW217865   6.338   2.413   5.224
 5656SOL     OW17866   6.481   3.511   0.405
 5656SOL    HW117867   6.481   3.531   0.503
 5656SOL    HW217868   6.407   3.561   0.361
 5657SOL     OW17869   5.204   5.471   5.078
 5657SOL    HW117870   5.196   5.400   5.148
 5657SOL    HW217871   5.233   5.429   4.992
 5658SOL     OW17872   2.105   3.093   6.222
 5658SOL    HW117873   2.113   3.162   6.150
 5658SOL    HW217874   2.126   3.135   6.310
 5659SOL     OW17875   2.826   3.823   6.935
 5659SOL    HW117876   2.884   3.891   6.981
 5659SOL    HW217877   2.876   3.782   6.859
 5660SOL     OW17878   4.245   0.634   6.040
 5660SOL    HW117879   4.343   0.615   6.043
 5660SOL    HW217880   4.198   0.558   5.995
 5661SOL     OW17881   1.571   5.256   6.113
 5661SOL    HW117882   1.660   5.290   6.081
 5661SOL    HW217883   1.551   5.295   6.203
 5662SOL     OW17884   3.160   6.964   0.928
 5662SOL    HW117885   3.116   0.028   0.942
 5662SOL    HW217886   3.259   6.976   0.926
 5663SOL     OW17887   1.330   3.197   6.510
 5663SOL    HW117888   1.419   3.176   6.550
 5663SOL    HW217889   1.264   3.216   6.582
 5664SOL     OW17890   4.469   4.828   4.379
 5664SOL    HW117891   4.403   4.833   4.453
 5664SOL    HW217892   4.455   4.745   4.326
 5665SOL     OW17893   1.743   1.673   1.172
 5665SOL    HW117894   1.700   1.763   1.176
 5665SOL    HW217895   1.685   1.611   1.120
 5666SOL     OW17896   5.873   1.734   4.943
 5666SOL    HW117897   5.801   1.803   4.935
 5666SOL    HW217898   5.940   1.763   5.010
 5667SOL     OW17899   2.686   5.024   4.569
 5667SOL    HW117900   2.627   4.943   4.560
 5667SOL    HW217901   2.778   5.002   4.536
 5668SOL     OW17902   4.766   4.168   3.672
 5668SOL    HW117903   4.747   4.180   3.769
 5668SOL    HW217904   4.761   4.257   3.626
 5669SOL     OW17905   5.946   4.235   5.777
 5669SOL    HW117906   5.937   4.162   5.844
 5669SOL    HW217907   5.868   4.233   5.714
 5670SOL     OW17908   1.475   2.340   3.328
 5670SOL    HW117909   1.549   2.396   3.290
 5670SOL    HW217910   1.491   2.323   3.425
 5671SOL     OW17911   0.043   6.202   3.655
 5671SOL    HW117912   6.972   6.199   3.681
 5671SOL    HW217913   0.071   6.113   3.619
 5672SOL     OW17914   5.231   2.836   4.515
 5672SOL    HW117915   5.220   2.802   4.609
 5672SOL    HW217916   5.142   2.867   4.481
 5673SOL     OW17917   0.909   1.329   0.727
 5673SOL    HW117918   0.894   1.293   0.635
 5673SOL    HW217919   1.005   1.319   0.752
 5674SOL     OW17920   2.368   4.567   5.038
 5674SOL    HW117921   2.333   4.623   5.113
 5674SOL    HW217922   2.459   4.600   5.012
 5675SOL     OW17923   2.880   1.891   0.796
 5675SOL    HW117924   2.810   1.838   0.747
 5675SOL    HW217925   2.953   1.916   0.733
 5676SOL     OW17926   2.419   1.628   2.210
 5676SOL    HW117927   2.415   1.542   2.159
 5676SOL    HW217928   2.336   1.639   2.264
 5677SOL     OW17929   6.551   1.436   0.125
 5677SOL    HW117930   6.634   1.423   0.071
 5677SOL    HW217931   6.574   1.471   0.215
 5678SOL     OW17932   3.390   2.129   1.963
 5678SOL    HW117933   3.346   2.117   1.874
 5678SOL    HW217934   3.476   2.177   1.952
 5679SOL     OW17935   6.846   3.132   4.883
 5679SOL    HW117936   6.818   3.137   4.979
 5679SOL    HW217937   6.791   3.196   4.830
 5680SOL     OW17938   0.818   5.455   4.645
 5680SOL    HW117939   0.801   5.428   4.740
 5680SOL    HW217940   0.911   5.490   4.636
 5681SOL     OW17941   1.059   3.699   4.407
 5681SOL    HW117942   0.979   3.743   4.365
 5681SOL    HW217943   1.030   3.613   4.450
 5682SOL     OW17944   2.241   4.726   1.489
 5682SOL    HW117945   2.339   4.709   1.481
 5682SOL    HW217946   2.208   4.688   1.576
 5683SOL     OW17947   6.122   0.606   5.987
 5683SOL    HW117948   6.104   0.652   5.900
 5683SOL    HW217949   6.196   0.540   5.976
 5684SOL     OW17950   2.349   2.764   4.925
 5684SOL    HW117951   2.326   2.727   5.014
 5684SOL    HW217952   2.366   2.862   4.933
 5685SOL     OW17953   2.374   1.911   2.355
 5685SOL    HW117954   2.370   2.011   2.365
 5685SOL    HW217955   2.464   1.885   2.320
 5686SOL     OW17956   4.214   5.613   6.223
 5686SOL    HW117957   4.214   5.706   6.261
 5686SOL    HW217958   4.198   5.548   6.297
 5687SOL     OW17959   1.844   6.502   6.241
 5687SOL    HW117960   1.816   6.469   6.331
 5687SOL    HW217961   1.940   6.529   6.244
 5688SOL     OW17962   2.006   2.042   2.826
 5688SOL    HW117963   2.080   2.038   2.893
 5688SOL    HW217964   2.007   2.131   2.780
 5689SOL     OW17965   0.154   2.528   1.649
 5689SOL    HW117966   0.213   2.507   1.571
 5689SOL    HW217967   0.109   2.616   1.634
 5690SOL     OW17968   2.191   5.391   6.973
 5690SOL    HW117969   2.241   5.337   6.905
 5690SOL    HW217970   2.095   5.363   6.973
 5691SOL     OW17971   3.803   1.435   3.231
 5691SOL    HW117972   3.745   1.513   3.254
 5691SOL    HW217973   3.828   1.438   3.134
 5692SOL     OW17974   5.415   4.998   2.192
 5692SOL    HW117975   5.404   5.091   2.157
 5692SOL    HW217976   5.327   4.951   2.191
 5693SOL     OW17977   3.918   0.825   1.451
 5693SOL    HW117978   3.842   0.869   1.402
 5693SOL    HW217979   3.995   0.889   1.457
 5694SOL     OW17980   1.187   0.058   1.334
 5694SOL    HW117981   1.121   0.083   1.264
 5694SOL    HW217982   1.185   6.985   1.348
 5695SOL     OW17983   2.392   0.561   1.729
 5695SOL    HW117984   2.322   0.630   1.711
 5695SOL    HW217985   2.444   0.586   1.810
 5696SOL     OW17986   1.528   0.270   4.363
 5696SOL    HW117987   1.627   0.259   4.360
 5696SOL    HW217988   1.485   0.180   4.363
 5697SOL     OW17989   6.498   3.136   1.048
 5697SOL    HW117990   6.403   3.168   1.044
 5697SOL    HW217991   6.546   3.184   1.122
 5698SOL     OW17992   3.180   2.019   4.375
 5698SOL    HW117993   3.231   1.934   4.384
 5698SOL    HW217994   3.120   2.031   4.454
 5699SOL     OW17995   1.945   2.904   2.473
 5699SOL    HW117996   1.994   2.962   2.407
 5699SOL    HW217997   2.002   2.824   2.495
 5700SOL     OW17998   6.391   0.230   3.118
 5700SOL    HW117999   6.339   0.207   3.035
 5700SOL    HW218000   6.473   0.281   3.092
 5701SOL     OW18001   0.500   7.024   0.712
 5701SOL    HW118002   0.548   6.941   0.684
 5701SOL    HW218003   0.567   0.069   0.737
 5702SOL     OW18004   2.521   6.991   4.977
 5702SOL    HW118005   2.532   7.006   4.879
 5702SOL    HW218006   2.424   6.993   5.001
 5703SOL     OW18007   0.499   3.227   6.155
 5703SOL    HW118008   0.512   3.208   6.058
 5703SOL    HW218009   0.491   3.325   6.169
 5704SOL     OW18010   4.039   5.798   4.280
 5704SOL    HW118011   3.997   5.711   4.306
 5704SOL    HW218012   3.968   5.859   4.245
 5705SOL     OW18013   6.232   0.468   5.555
 5705SOL    HW118014   6.148   0.432   5.514
 5705SOL    HW218015   6.209   0.545   5.614
 5706SOL     OW18016   4.853   1.864   0.249
 5706SOL    HW118017   4.818   1.956   0.228
 5706SOL    HW218018   4.823   1.800   0.179
 5707SOL     OW18019   5.432   5.687   1.760
 5707SOL    HW118020   5.354   5.745   1.734
 5707SOL    HW218021   5.399   5.608   1.812
 5708SOL     OW18022   5.222   6.404   2.308
 5708SOL    HW118023   5.184   6.317   2.277
 5708SOL    HW218024   5.157   6.449   2.370
 5709SOL     OW18025   0.443   2.233   2.380
 5709SOL    HW118026   0.430   2.265   2.286
 5709SOL    HW218027   0.354   2.220   2.424
 5710SOL     OW18028   3.368   2.381   0.517
 5710SOL    HW118029   3.366   2.351   0.421
 5710SOL    HW218030   3.432   2.324   0.568
 5711SOL     OW18031   5.566   1.949   2.869
 5711SOL    HW118032   5.472   1.915   2.870
 5711SOL    HW218033   5.597   1.959   2.775
 5712SOL     OW18034   6.686   0.219   0.509
 5712SOL    HW118035   6.590   0.193   0.520
 5712SOL    HW218036   6.720   0.258   0.595
 5713SOL     OW18037   2.486   1.019   0.472
 5713SOL    HW118038   2.425   1.083   0.520
 5713SOL    HW218039   2.457   0.925   0.491
 5714SOL     OW18040   6.324   0.380   0.807
 5714SOL    HW118041   6.343   0.441   0.883
 5714SOL    HW218042   6.229   0.391   0.778
 5715SOL     OW18043   0.347   0.170   2.035
 5715SOL    HW118044   0.326   0.135   2.127
 5715SOL    HW218045   0.441   0.147   2.011
 5716SOL     OW18046   6.113   4.642   4.917
 5716SOL    HW118047   6.149   4.645   4.824
 5716SOL    HW218048   6.181   4.679   4.981
 5717SOL     OW18049   1.417   5.269   3.181
 5717SOL    HW118050   1.497   5.239   3.233
 5717SOL    HW218051   1.404   5.367   3.195
 5718SOL     OW18052   0.984   3.126   7.013
 5718SOL    HW118053   0.998   3.223   0.004
 5718SOL    HW218054   0.974   3.077   0.074
 5719SOL     OW18055   2.448   3.051   0.720
 5719SOL    HW118056   2.368   3.045   0.660
 5719SOL    HW218057   2.508   3.124   0.687
 5720SOL     OW18058   3.122   4.940   5.723
 5720SOL    HW118059   3.123   4.849   5.762
 5720SOL    HW218060   3.082   4.937   5.631
 5721SOL     OW18061   1.709   3.067   6.931
 5721SOL    HW118062   1.637   3.110   6.987
 5721SOL    HW218063   1.785   3.131   6.921
 5722SOL     OW18064   1.146   0.354   6.827
 5722SOL    HW118065   1.171   0.402   6.743
 5722SOL    HW218066   1.224   0.353   6.890
 5723SOL     OW18067   4.007   3.137   0.835
 5723SOL    HW118068   3.998   3.041   0.863
 5723SOL    HW218069   4.096   3.151   0.792
 5724SOL     OW18070   5.359   2.344   5.464
 5724SOL    HW118071   5.430   2.288   5.507
 5724SOL    HW218072   5.269   2.307   5.485
 5725SOL     OW18073   0.349   4.226   4.927
 5725SOL    HW118074   0.264   4.275   4.908
 5725SOL    HW218075   0.369   4.162   4.852
 5726SOL     OW18076   5.555   4.196   2.672
 5726SOL    HW118077   5.570   4.190   2.574
 5726SOL    HW218078   5.463   4.231   2.691
 5727SOL     OW18079   0.505   2.097   5.221
 5727SOL    HW118080   0.509   2.002   5.251
 5727SOL    HW218081   0.475   2.100   5.126
 5728SOL     OW18082   4.707   6.944   5.077
 5728SOL    HW118083   4.692   6.850   5.047
 5728SOL    HW218084   4.726   6.945   5.175
 5729SOL     OW18085   2.819   2.200   4.499
 5729SOL    HW118086   2.912   2.163   4.506
 5729SOL    HW218087   2.782   2.214   4.591
 5730SOL     OW18088   6.974   4.321   4.775
 5730SOL    HW118089   7.022   4.407   4.760
 5730SOL    HW218090   0.015   4.247   4.784
 5731SOL     OW18091   1.029   6.983   2.892
 5731SOL    HW118092   1.023   6.977   2.992
 5731SOL    HW218093   1.060   6.895   2.855
 5732SOL     OW18094   0.129   0.167   3.170
 5732SOL    HW118095   0.227   0.186   3.171
 5732SOL    HW218096   0.078   0.253   3.167
 5733SOL     OW18097   3.312   6.941   5.578
 5733SOL    HW118098   3.340   0.006   5.546
 5733SOL    HW218099   3.367   6.871   5.531
 5734SOL     OW18100   1.850   6.870   3.564
 5734SOL    HW118101   1.938   6.899   3.600
 5734SOL    HW218102   1.785   6.947   3.570
 5735SOL     OW18103   2.952   0.961   2.055
 5735SOL    HW118104   2.999   1.040   2.095
 5735SOL    HW218105   2.876   0.992   1.999
 5736SOL     OW18106   1.510   5.572   6.753
 5736SOL    HW118107   1.590   5.589   6.696
 5736SOL    HW218108   1.496   5.473   6.762
 5737SOL     OW18109   5.355   4.280   0.663
 5737SOL    HW118110   5.305   4.336   0.728
 5737SOL    HW218111   5.321   4.186   0.665
 5738SOL     OW18112   1.412   4.107   5.804
 5738SOL    HW118113   1.322   4.087   5.843
 5738SOL    HW218114   1.423   4.206   5.794
 5739SOL     OW18115   1.167   2.126   1.605
 5739SOL    HW118116   1.225   2.046   1.590
 5739SOL    HW218117   1.182   2.162   1.696
 5740SOL     OW18118   3.927   6.082   6.479
 5740SOL    HW118119   3.891   6.086   6.573
 5740SOL    HW218120   3.894   5.998   6.435
 5741SOL     OW18121   0.017   4.584   2.188
 5741SOL    HW118122   0.031   4.513   2.257
 5741SOL    HW218123   0.004   4.672   2.234
 5742SOL     OW18124   6.629   6.094   4.466
 5742SOL    HW118125   6.637   6.097   4.566
 5742SOL    HW218126   6.569   6.167   4.434
 5743SOL     OW18127   1.683   6.614   4.080
 5743SOL    HW118128   1.687   6.669   3.997
 5743SOL    HW218129   1.729   6.662   4.154
 5744SOL     OW18130   5.792   7.016   2.047
 5744SOL    HW118131   5.715   6.990   2.104
 5744SOL    HW218132   5.876   7.013   2.102
 5745SOL     OW18133   1.383   2.448   3.702
 5745SOL    HW118134   1.458   2.513   3.711
 5745SOL    HW218135   1.419   2.358   3.678
 5746SOL     OW18136   6.369   4.799   6.868
 5746SOL    HW118137   6.418   4.751   6.941
 5746SOL    HW218138   6.274   4.811   6.895
 5747SOL     OW18139   0.772   6.353   2.818
 5747SOL    HW118140   0.840   6.425   2.832
 5747SOL    HW218141   0.726   6.366   2.730
 5748SOL     OW18142   2.191   6.389   3.685
 5748SOL    HW118143   2.167   6.483   3.707
 5748SOL    HW218144   2.228   6.385   3.592
 5749SOL     OW18145   2.357   1.209   2.883
 5749SOL    HW118146   2.399   1.123   2.855
 5749SOL    HW218147   2.333   1.205   2.979
 5750SOL     OW18148   6.212   5.764   2.414
 5750SOL    HW118149   6.171   5.710   2.489
 5750SOL    HW218150   6.141   5.787   2.348
 5751SOL     OW18151   1.356   2.940   6.349
 5751SOL    HW118152   1.425   2.940   6.276
 5751SOL    HW218153   1.363   3.025   6.401
 5752SOL     OW18154   0.174   1.052   6.846
 5752SOL    HW118155   0.234   1.084   6.919
 5752SOL    HW218156   0.177   1.117   6.770
 5753SOL     OW18157   4.619   1.794   0.970
 5753SOL    HW118158   4.579   1.760   0.885
 5753SOL    HW218159   4.546   1.828   1.029
 5754SOL     OW18160   6.153   4.998   0.466
 5754SOL    HW118161   6.087   5.055   0.417
 5754SOL    HW218162   6.117   4.973   0.555
 5755SOL     OW18163   3.179   3.459   1.499
 5755SOL    HW118164   3.150   3.527   1.431
 5755SOL    HW218165   3.101   3.435   1.557
 5756SOL     OW18166   6.789   6.715   4.455
 5756SOL    HW118167   6.800   6.683   4.361
 5756SOL    HW218168   6.807   6.813   4.459
 5757SOL     OW18169   0.239   6.572   2.177
 5757SOL    HW118170   0.208   6.574   2.082
 5757SOL    HW218171   0.317   6.635   2.187
 5758SOL     OW18172   1.981   1.156   5.570
 5758SOL    HW118173   1.930   1.171   5.655
 5758SOL    HW218174   2.078   1.144   5.592
 5759SOL     OW18175   0.291   1.595   5.371
 5759SOL    HW118176   0.238   1.512   5.385
 5759SOL    HW218177   0.248   1.652   5.301
 5760SOL     OW18178   1.216   5.028   1.932
 5760SOL    HW118179   1.220   4.979   1.845
 5760SOL    HW218180   1.121   5.047   1.955
 5761SOL     OW18181   5.552   0.653   4.127
 5761SOL    HW118182   5.585   0.648   4.221
 5761SOL    HW218183   5.477   0.720   4.122
 5762SOL     OW18184   5.805   6.541   1.418
 5762SOL    HW118185   5.712   6.512   1.399
 5762SOL    HW218186   5.847   6.478   1.483
 5763SOL     OW18187   0.927   1.272   1.205
 5763SOL    HW118188   0.913   1.343   1.136
 5763SOL    HW218189   0.998   1.209   1.174
 5764SOL     OW18190   4.188   2.626   6.001
 5764SOL    HW118191   4.279   2.617   5.961
 5764SOL    HW218192   4.190   2.595   6.096
 5765SOL     OW18193   6.483   5.530   0.352
 5765SOL    HW118194   6.570   5.481   0.358
 5765SOL    HW218195   6.475   5.574   0.263
 5766SOL     OW18196   3.154   0.944   3.110
 5766SOL    HW118197   3.114   1.016   3.053
 5766SOL    HW218198   3.241   0.976   3.147
 5767SOL     OW18199   6.153   0.738   0.988
 5767SOL    HW118200   6.186   0.803   0.921
 5767SOL    HW218201   6.216   0.660   0.993
 5768SOL     OW18202   6.085   1.028   2.263
 5768SOL    HW118203   6.005   1.021   2.203
 5768SOL    HW218204   6.059   1.003   2.356
 5769SOL     OW18205   1.991   5.372   3.675
 5769SOL    HW118206   1.893   5.390   3.684
 5769SOL    HW218207   2.043   5.448   3.715
 5770SOL     OW18208   5.761   1.834   1.730
 5770SOL    HW118209   5.813   1.819   1.814
 5770SOL    HW218210   5.781   1.762   1.664
 5771SOL     OW18211   0.312   1.027   0.904
 5771SOL    HW118212   0.340   1.010   0.809
 5771SOL    HW218213   0.299   1.125   0.917
 5772SOL     OW18214   6.934   4.375   6.394
 5772SOL    HW118215   6.867   4.325   6.448
 5772SOL    HW218216   6.955   4.462   6.438
 5773SOL     OW18217   4.982   5.757   5.072
 5773SOL    HW118218   5.073   5.790   5.098
 5773SOL    HW218219   4.985   5.723   4.978
 5774SOL     OW18220   2.801   4.791   2.863
 5774SOL    HW118221   2.754   4.739   2.792
 5774SOL    HW218222   2.783   4.888   2.851
 5775SOL     OW18223   0.599   0.538   0.310
 5775SOL    HW118224   0.695   0.568   0.302
 5775SOL    HW218225   0.539   0.611   0.278
 5776SOL     OW18226   4.692   1.154   5.916
 5776SOL    HW118227   4.783   1.116   5.932
 5776SOL    HW218228   4.657   1.119   5.829
 5777SOL     OW18229   5.564   0.624   5.607
 5777SOL    HW118230   5.623   0.650   5.683
 5777SOL    HW218231   5.486   0.572   5.641
 5778SOL     OW18232   2.824   6.478   4.048
 5778SOL    HW118233   2.792   6.551   4.107
 5778SOL    HW218234   2.920   6.493   4.025
 5779SOL     OW18235   4.678   0.126   0.996
 5779SOL    HW118236   4.635   0.036   0.982
 5779SOL    HW218237   4.652   0.187   0.921
 5780SOL     OW18238   5.867   3.901   0.550
 5780SOL    HW118239   5.807   3.938   0.480
 5780SOL    HW218240   5.890   3.806   0.528
 5781SOL     OW18241   3.149   4.499   5.390
 5781SOL    HW118242   3.089   4.486   5.311
 5781SOL    HW218243   3.094   4.496   5.474
 5782SOL     OW18244   4.173   1.916   3.262
 5782SOL    HW118245   4.128   2.005   3.265
 5782SOL    HW218246   4.171   1.874   3.353
 5783SOL     OW18247   2.572   6.894   1.977
 5783SOL    HW118248   2.548   6.797   1.978
 5783SOL    HW218249   2.495   6.948   2.009
 5784SOL     OW18250   1.210   5.703   6.868
 5784SOL    HW118251   1.192   5.787   6.817
 5784SOL    HW218252   1.272   5.722   6.943
 5785SOL     OW18253   1.841   1.788   6.563
 5785SOL    HW118254   1.783   1.795   6.644
 5785SOL    HW218255   1.785   1.784   6.481
 5786SOL     OW18256   0.688   2.597   6.102
 5786SOL    HW118257   0.762   2.663   6.115
 5786SOL    HW218258   0.708   2.515   6.154
 5787SOL     OW18259   0.201   2.860   5.601
 5787SOL    HW118260   0.267   2.788   5.621
 5787SOL    HW218261   0.247   2.948   5.596
 5788SOL     OW18262   0.910   2.406   1.787
 5788SOL    HW118263   0.962   2.489   1.765
 5788SOL    HW218264   0.877   2.411   1.881
 5789SOL     OW18265   2.938   5.107   6.741
 5789SOL    HW118266   2.917   5.203   6.721
 5789SOL    HW218267   2.896   5.082   6.828
 5790SOL     OW18268   6.467   6.164   2.742
 5790SOL    HW118269   6.393   6.177   2.676
 5790SOL    HW218270   6.521   6.248   2.750
 5791SOL     OW18271   3.842   1.017   1.080
 5791SOL    HW118272   3.821   0.919   1.084
 5791SOL    HW218273   3.775   1.068   1.134
 5792SOL     OW18274   4.455   2.335   2.584
 5792SOL    HW118275   4.519   2.410   2.571
 5792SOL    HW218276   4.485   2.256   2.531
 5793SOL     OW18277   3.568   1.818   0.323
 5793SOL    HW118278   3.660   1.837   0.357
 5793SOL    HW218279   3.574   1.765   0.238
 5794SOL     OW18280   3.533   6.016   6.602
 5794SOL    HW118281   3.627   6.044   6.619
 5794SOL    HW218282   3.502   5.956   6.676
 5795SOL     OW18283   1.043   0.080   1.092
 5795SOL    HW118284   1.060   0.012   1.021
 5795SOL    HW218285   0.970   0.142   1.061
 5796SOL     OW18286   4.747   1.061   6.337
 5796SOL    HW118287   4.729   1.132   6.405
 5796SOL    HW218288   4.838   1.022   6.353
 5797SOL     OW18289   0.124   2.618   6.986
 5797SOL    HW118290   0.130   2.576   0.051
 5797SOL    HW218291   0.048   2.683   6.984
 5798SOL     OW18292   1.857   2.648   4.347
 5798SOL    HW118293   1.917   2.728   4.346
 5798SOL    HW218294   1.770   2.672   4.390
 5799SOL     OW18295   2.750   0.178   3.500
 5799SOL    HW118296   2.775   0.251   3.436
 5799SOL    HW218297   2.824   0.167   3.567
 5800SOL     OW18298   1.051   6.651   2.408
 5800SOL    HW118299   1.046   6.572   2.348
 5800SOL    HW218300   1.140   6.694   2.400
 5801SOL     OW18301   1.718   1.523   2.778
 5801SOL    HW118302   1.630   1.528   2.825
 5801SOL    HW218303   1.728   1.603   2.718
 5802SOL     OW18304   0.888   6.848   3.210
 5802SOL    HW118305   0.904   6.750   3.197
 5802SOL    HW218306   0.973   6.893   3.237
 5803SOL     OW18307   0.186   6.406   4.710
 5803SOL    HW118308   0.257   6.470   4.683
 5803SOL    HW218309   0.227   6.316   4.727
 5804SOL     OW18310   6.950   2.215   3.358
 5804SOL    HW118311   6.939   2.233   3.456
 5804SOL    HW218312   6.965   2.117   3.344
 5805SOL     OW18313   1.174   2.564   1.674
 5805SOL    HW118314   1.130   2.495   1.617
 5805SOL    HW218315   1.104   2.624   1.713
 5806SOL     OW18316   6.657   4.046   2.140
 5806SOL    HW118317   6.716   3.979   2.094
 5806SOL    HW218318   6.697   4.072   2.227
 5807SOL     OW18319   1.063   1.455   2.160
 5807SOL    HW118320   0.975   1.468   2.205
 5807SOL    HW218321   1.109   1.375   2.198
 5808SOL     OW18322   0.256   0.616   5.257
 5808SOL    HW118323   0.287   0.611   5.162
 5808SOL    HW218324   0.222   0.526   5.285
 5809SOL     OW18325   0.111   4.092   4.472
 5809SOL    HW118326   0.206   4.075   4.500
 5809SOL    HW218327   0.107   4.179   4.422
 5810SOL     OW18328   1.789   6.281   5.561
 5810SOL    HW118329   1.869   6.341   5.562
 5810SOL    HW218330   1.712   6.328   5.518
 5811SOL     OW18331   4.145   4.769   6.826
 5811SOL    HW118332   4.132   4.804   6.919
 5811SOL    HW218333   4.214   4.697   6.827
 5812SOL     OW18334   6.313   3.356   6.503
 5812SOL    HW118335   6.360   3.268   6.500
 5812SOL    HW218336   6.218   3.342   6.529
 5813SOL     OW18337   5.251   4.423   0.923
 5813SOL    HW118338   5.340   4.412   0.966
 5813SOL    HW218339   5.226   4.520   0.923
 5814SOL     OW18340   6.037   1.037   2.551
 5814SOL    HW118341   6.126   1.042   2.595
 5814SOL    HW218342   6.007   1.130   2.527
 5815SOL     OW18343   6.745   3.351   4.751
 5815SOL    HW118344   6.686   3.356   4.670
 5815SOL    HW218345   6.747   3.440   4.796
 5816SOL     OW18346   6.831   4.063   1.597
 5816SOL    HW118347   6.911   4.124   1.599
 5816SOL    HW218348   6.748   4.117   1.612
 5817SOL     OW18349   6.886   2.645   3.839
 5817SOL    HW118350   6.894   2.735   3.796
 5817SOL    HW218351   6.972   2.624   3.888
 5818SOL     OW18352   2.983   0.681   4.852
 5818SOL    HW118353   2.968   0.582   4.858
 5818SOL    HW218354   3.073   0.704   4.889
 5819SOL     OW18355   4.496   4.007   1.182
 5819SOL    HW118356   4.559   3.962   1.119
 5819SOL    HW218357   4.404   3.970   1.168
 5820SOL     OW18358   0.006   6.953   3.067
 5820SOL    HW118359   0.061   6.870   3.065
 5820SOL    HW218360   0.053   7.024   3.120
 5821SOL     OW18361   6.639   6.833   1.878
 5821SOL    HW118362   6.579   6.797   1.806
 5821SOL    HW218363   6.730   6.793   1.869
 5822SOL     OW18364   0.464   3.881   2.316
 5822SOL    HW118365   0.496   3.974   2.336
 5822SOL    HW218366   0.542   3.824   2.291
 5823SOL     OW18367   2.247   6.988   5.052
 5823SOL    HW118368   2.201   0.047   5.025
 5823SOL    HW218369   2.192   6.910   5.023
 5824SOL     OW18370   2.002   6.563   2.417
 5824SOL    HW118371   2.003   6.502   2.497
 5824SOL    HW218372   2.095   6.591   2.396
 5825SOL     OW18373   4.498   1.975   4.913
 5825SOL    HW118374   4.421   1.951   4.972
 5825SOL    HW218375   4.465   1.989   4.820
 5826SOL     OW18376   1.482   6.227   4.820
 5826SOL    HW118377   1.436   6.170   4.752
 5826SOL    HW218378   1.543   6.171   4.876
 5827SOL     OW18379   2.085   3.752   3.152
 5827SOL    HW118380   2.078   3.655   3.174
 5827SOL    HW218381   2.089   3.806   3.236
 5828SOL     OW18382   4.767   0.318   5.758
 5828SOL    HW118383   4.671   0.295   5.744
 5828SOL    HW218384   4.789   0.310   5.855
 5829SOL     OW18385   2.313   0.120   3.218
 5829SOL    HW118386   2.353   0.035   3.184
 5829SOL    HW218387   2.377   0.164   3.281
 5830SOL     OW18388   4.026   5.266   4.471
 5830SOL    HW118389   4.117   5.304   4.485
 5830SOL    HW218390   3.967   5.290   4.548
 5831SOL     OW18391   2.518   2.572   4.639
 5831SOL    HW118392   2.520   2.576   4.739
 5831SOL    HW218393   2.555   2.484   4.608
 5832SOL     OW18394   2.919   5.535   3.772
 5832SOL    HW118395   3.012   5.535   3.809
 5832SOL    HW218396   2.860   5.590   3.830
 5833SOL     OW18397   3.428   5.106   0.691
 5833SOL    HW118398   3.452   5.141   0.782
 5833SOL    HW218399   3.378   5.175   0.640
 5834SOL     OW18400   6.681   2.903   6.275
 5834SOL    HW118401   6.591   2.927   6.241
 5834SOL    HW218402   6.744   2.979   6.260
 5835SOL     OW18403   4.474   1.649   3.410
 5835SOL    HW118404   4.499   1.635   3.314
 5835SOL    HW218405   4.401   1.585   3.434
 5836SOL     OW18406   4.957   6.003   1.346
 5836SOL    HW118407   4.984   5.907   1.337
 5836SOL    HW218408   4.860   6.012   1.326
 5837SOL     OW18409   3.009   4.292   0.183
 5837SOL    HW118410   3.002   4.303   0.084
 5837SOL    HW218411   3.093   4.334   0.216
 5838SOL     OW18412   3.400   3.451   6.822
 5838SOL    HW118413   3.404   3.494   6.912
 5838SOL    HW218414   3.363   3.359   6.831
 5839SOL     OW18415   1.918   1.589   0.397
 5839SOL    HW118416   1.821   1.565   0.394
 5839SOL    HW218417   1.972   1.512   0.362
 5840SOL     OW18418   1.070   3.744   3.096
 5840SOL    HW118419   1.071   3.843   3.105
 5840SOL    HW218420   1.132   3.716   3.022
 5841SOL     OW18421   5.121   1.559   0.817
 5841SOL    HW118422   5.187   1.589   0.748
 5841SOL    HW218423   5.035   1.609   0.806
 5842SOL     OW18424   3.140   2.101   2.095
 5842SOL    HW118425   3.218   2.138   2.045
 5842SOL    HW218426   3.065   2.167   2.092
 5843SOL     OW18427   3.451   3.407   0.503
 5843SOL    HW118428   3.371   3.393   0.444
 5843SOL    HW218429   3.534   3.408   0.448
 5844SOL     OW18430   0.681   5.624   5.218
 5844SOL    HW118431   0.733   5.704   5.188
 5844SOL    HW218432   0.744   5.550   5.242
 5845SOL     OW18433   1.913   6.849   2.717
 5845SOL    HW118434   1.931   6.886   2.808
 5845SOL    HW218435   1.998   6.849   2.664
 5846SOL     OW18436   0.819   4.808   5.501
 5846SOL    HW118437   0.795   4.905   5.503
 5846SOL    HW218438   0.758   4.760   5.438
 5847SOL     OW18439   1.745   4.445   6.509
 5847SOL    HW118440   1.683   4.522   6.520
 5847SOL    HW218441   1.838   4.478   6.492
 5848SOL     OW18442   2.322   7.018   2.034
 5848SOL    HW118443   2.298   0.033   1.946
 5848SOL    HW218444   2.239   7.006   2.089
 5849SOL     OW18445   2.908   5.641   6.583
 5849SOL    HW118446   2.824   5.601   6.618
 5849SOL    HW218447   2.887   5.724   6.532
 5850SOL     OW18448   6.782   1.263   1.751
 5850SOL    HW118449   6.725   1.305   1.680
 5850SOL    HW218450   6.868   1.231   1.710
 5851SOL     OW18451   6.864   3.818   4.776
 5851SOL    HW118452   6.864   3.917   4.763
 5851SOL    HW218453   6.957   3.786   4.789
 5852SOL     OW18454   4.798   4.122   2.524
 5852SOL    HW118455   4.822   4.174   2.606
 5852SOL    HW218456   4.749   4.181   2.461
 5853SOL     OW18457   4.797   4.932   0.247
 5853SOL    HW118458   4.853   4.857   0.281
 5853SOL    HW218459   4.830   4.962   0.158
 5854SOL     OW18460   3.023   4.604   5.625
 5854SOL    HW118461   3.042   4.675   5.556
 5854SOL    HW218462   3.049   4.638   5.715
 5855SOL     OW18463   2.263   2.481   3.969
 5855SOL    HW118464   2.320   2.558   3.997
 5855SOL    HW218465   2.318   2.398   3.965
 5856SOL     OW18466   0.871   0.403   3.187
 5856SOL    HW118467   0.828   0.432   3.272
 5856SOL    HW218468   0.951   0.460   3.169
 5857SOL     OW18469   5.623   5.015   6.972
 5857SOL    HW118470   5.576   4.949   6.913
 5857SOL    HW218471   5.721   5.011   6.956
 5858SOL     OW18472   2.124   1.318   2.457
 5858SOL    HW118473   2.092   1.405   2.419
 5858SOL    HW218474   2.130   1.250   2.384
 5859SOL     OW18475   5.161   5.059   1.719
 5859SOL    HW118476   5.237   4.995   1.713
 5859SOL    HW218477   5.105   5.038   1.799
 5860SOL     OW18478   1.083   3.442   2.782
 5860SOL    HW118479   1.143   3.479   2.853
 5860SOL    HW218480   1.117   3.472   2.692
 5861SOL     OW18481   5.748   0.542   5.392
 5861SOL    HW118482   5.687   0.565   5.468
 5861SOL    HW218483   5.791   0.626   5.358
 5862SOL     OW18484   6.824   4.567   3.000
 5862SOL    HW118485   6.777   4.640   3.048
 5862SOL    HW218486   6.870   4.605   2.919
 5863SOL     OW18487   4.322   0.027   5.871
 5863SOL    HW118488   4.341   0.115   5.913
 5863SOL    HW218489   4.307   0.040   5.773
 5864SOL     OW18490   4.093   3.239   2.635
 5864SOL    HW118491   4.153   3.226   2.714
 5864SOL    HW218492   4.062   3.151   2.601
 5865SOL     OW18493   6.613   0.110   1.185
 5865SOL    HW118494   6.530   0.102   1.130
 5865SOL    HW218495   6.654   0.020   1.198
 5866SOL     OW18496   3.704   3.310   3.052
 5866SOL    HW118497   3.750   3.391   3.088
 5866SOL    HW218498   3.737   3.292   2.959
 5867SOL     OW18499   3.326   1.688   1.436
 5867SOL    HW118500   3.230   1.691   1.408
 5867SOL    HW218501   3.368   1.604   1.400
 5868SOL     OW18502   1.617   0.632   0.754
 5868SOL    HW118503   1.583   0.726   0.742
 5868SOL    HW218504   1.716   0.634   0.766
 5869SOL     OW18505   1.545   5.704   2.833
 5869SOL    HW118506   1.505   5.795   2.830
 5869SOL    HW218507   1.605   5.691   2.754
 5870SOL     OW18508   4.415   0.429   3.642
 5870SOL    HW118509   4.501   0.391   3.675
 5870SOL    HW218510   4.408   0.412   3.543
 5871SOL     OW18511   4.086   3.389   3.994
 5871SOL    HW118512   3.998   3.386   4.041
 5871SOL    HW218513   4.095   3.310   3.934
 5872SOL     OW18514   4.457   5.852   1.220
 5872SOL    HW118515   4.513   5.930   1.247
 5872SOL    HW218516   4.457   5.843   1.121
 5873SOL     OW18517   3.815   6.064   2.219
 5873SOL    HW118518   3.890   6.093   2.159
 5873SOL    HW218519   3.821   5.965   2.234
 5874SOL     OW18520   0.748   4.841   5.134
 5874SOL    HW118521   0.840   4.860   5.100
 5874SOL    HW218522   0.707   4.925   5.169
 5875SOL     OW18523   3.715   1.906   0.780
 5875SOL    HW118524   3.793   1.863   0.735
 5875SOL    HW218525   3.641   1.839   0.789
 5876SOL     OW18526   3.155   3.585   2.120
 5876SOL    HW118527   3.215   3.509   2.146
 5876SOL    HW218528   3.209   3.669   2.112
 5877SOL     OW18529   5.252   4.364   1.612
 5877SOL    HW118530   5.186   4.388   1.682
 5877SOL    HW218531   5.208   4.365   1.522
 5878SOL     OW18532   1.840   3.701   2.676
 5878SOL    HW118533   1.831   3.791   2.719
 5878SOL    HW218534   1.932   3.665   2.694
 5879SOL     OW18535   1.647   3.654   3.895
 5879SOL    HW118536   1.605   3.625   3.981
 5879SOL    HW218537   1.745   3.635   3.898
 5880SOL     OW18538   3.719   5.773   0.167
 5880SOL    HW118539   3.676   5.756   0.256
 5880SOL    HW218540   3.650   5.764   0.095
 5881SOL     OW18541   1.456   6.348   4.382
 5881SOL    HW118542   1.450   6.254   4.348
 5881SOL    HW218543   1.458   6.348   4.482
 5882SOL     OW18544   5.382   0.606   2.824
 5882SOL    HW118545   5.366   0.577   2.729
 5882SOL    HW218546   5.375   0.527   2.884
 5883SOL     OW18547   0.873   3.503   5.486
 5883SOL    HW118548   0.910   3.596   5.479
 5883SOL    HW218549   0.773   3.508   5.492
 5884SOL     OW18550   0.665   0.506   3.366
 5884SOL    HW118551   0.575   0.465   3.353
 5884SOL    HW218552   0.671   0.591   3.312
 5885SOL     OW18553   5.657   6.408   1.016
 5885SOL    HW118554   5.654   6.453   0.927
 5885SOL    HW218555   5.737   6.442   1.067
 5886SOL     OW18556   6.438   1.642   6.317
 5886SOL    HW118557   6.440   1.586   6.400
 5886SOL    HW218558   6.409   1.735   6.340
 5887SOL     OW18559   4.100   5.744   2.603
 5887SOL    HW118560   4.127   5.752   2.699
 5887SOL    HW218561   4.001   5.725   2.598
 5888SOL     OW18562   6.886   0.338   2.708
 5888SOL    HW118563   6.868   0.262   2.771
 5888SOL    HW218564   6.902   0.302   2.616
 5889SOL     OW18565   2.237   0.096   6.470
 5889SOL    HW118566   2.320   0.124   6.518
 5889SOL    HW218567   2.247   0.115   6.372
 5890SOL     OW18568   3.759   4.772   6.056
 5890SOL    HW118569   3.844   4.797   6.012
 5890SOL    HW218570   3.689   4.755   5.987
 5891SOL     OW18571   2.321   3.719   6.431
 5891SOL    HW118572   2.393   3.709   6.363
 5891SOL    HW218573   2.362   3.728   6.522
 5892SOL     OW18574   1.938   6.248   2.658
 5892SOL    HW118575   1.839   6.229   2.658
 5892SOL    HW218576   1.967   6.272   2.751
 5893SOL     OW18577   2.063   1.764   3.212
 5893SOL    HW118578   1.986   1.756   3.148
 5893SOL    HW218579   2.051   1.698   3.286
 5894SOL     OW18580   1.068   3.029   3.599
 5894SOL    HW118581   1.155   3.078   3.603
 5894SOL    HW218582   1.002   3.075   3.659
 5895SOL     OW18583   5.792   3.998   3.300
 5895SOL    HW118584   5.856   4.075   3.301
 5895SOL    HW218585   5.841   3.913   3.322
 5896SOL     OW18586   5.530   2.753   5.883
 5896SOL    HW118587   5.504   2.823   5.949
 5896SOL    HW218588   5.586   2.794   5.811
 5897SOL     OW18589   4.687   5.386   0.769
 5897SOL    HW118590   4.732   5.324   0.833
 5897SOL    HW218591   4.713   5.480   0.790
 5898SOL     OW18592   2.786   6.427   3.143
 5898SOL    HW118593   2.842   6.405   3.063
 5898SOL    HW218594   2.728   6.505   3.123
 5899SOL     OW18595   5.490   0.674   3.555
 5899SOL    HW118596   5.470   0.637   3.464
 5899SOL    HW218597   5.582   0.714   3.555
 5900SOL     OW18598   3.518   5.265   2.077
 5900SOL    HW118599   3.498   5.171   2.048
 5900SOL    HW218600   3.567   5.263   2.164
 5901SOL     OW18601   2.836   6.142   4.920
 5901SOL    HW118602   2.797   6.064   4.872
 5901SOL    HW218603   2.929   6.158   4.886
 5902SOL     OW18604   5.968   2.359   0.095
 5902SOL    HW118605   5.926   2.368   0.004
 5902SOL    HW218606   5.976   2.262   0.118
 5903SOL     OW18607   0.181   3.095   6.461
 5903SOL    HW118608   0.105   3.150   6.427
 5903SOL    HW218609   0.257   3.099   6.395
 5904SOL     OW18610   1.073   3.481   2.495
 5904SOL    HW118611   1.125   3.492   2.410
 5904SOL    HW218612   0.990   3.429   2.476
 5905SOL     OW18613   0.083   4.694   2.506
 5905SOL    HW118614   0.111   4.609   2.461
 5905SOL    HW218615   7.015   4.716   2.480
 5906SOL     OW18616   1.166   1.176   2.720
 5906SOL    HW118617   1.227   1.219   2.654
 5906SOL    HW218618   1.104   1.114   2.672
 5907SOL     OW18619   2.151   0.647   2.353
 5907SOL    HW118620   2.053   0.648   2.336
 5907SOL    HW218621   2.198   0.605   2.275
 5908SOL     OW18622   0.516   3.122   5.910
 5908SOL    HW118623   0.601   3.168   5.882
 5908SOL    HW218624   0.536   3.029   5.939
 5909SOL     OW18625   5.896   4.774   0.571
 5909SOL    HW118626   5.917   4.806   0.479
 5909SOL    HW218627   5.959   4.818   0.636
 5910SOL     OW18628   1.563   1.450   3.313
 5910SOL    HW118629   1.602   1.449   3.221
 5910SOL    HW218630   1.464   1.448   3.307
 5911SOL     OW18631   6.474   5.745   6.668
 5911SOL    HW118632   6.549   5.808   6.688
 5911SOL    HW218633   6.479   5.717   6.573
 5912SOL     OW18634   0.165   0.018   3.791
 5912SOL    HW118635   0.240   6.978   3.795
 5912SOL    HW218636   0.100   7.016   3.721
 5913SOL     OW18637   5.829   1.832   1.039
 5913SOL    HW118638   5.837   1.886   0.955
 5913SOL    HW218639   5.804   1.892   1.115
 5914SOL     OW18640   0.875   6.291   0.205
 5914SOL    HW118641   0.927   6.374   0.184
 5914SOL    HW218642   0.937   6.212   0.207
 5915SOL     OW18643   3.667   1.210   6.085
 5915SOL    HW118644   3.567   1.214   6.084
 5915SOL    HW218645   3.704   1.260   6.006
 5916SOL     OW18646   0.823   6.901   1.825
 5916SOL    HW118647   0.851   6.997   1.829
 5916SOL    HW218648   0.885   6.851   1.765
 5917SOL     OW18649   3.221   3.258   0.376
 5917SOL    HW118650   3.149   3.208   0.425
 5917SOL    HW218651   3.296   3.196   0.354
 5918SOL     OW18652   3.177   0.071   4.785
 5918SOL    HW118653   3.118   7.019   4.806
 5918SOL    HW218654   3.270   0.053   4.817
 5919SOL     OW18655   3.241   3.364   4.444
 5919SOL    HW118656   3.169   3.324   4.387
 5919SOL    HW218657   3.316   3.394   4.385
 5920SOL     OW18658   0.075   0.134   5.414
 5920SOL    HW118659   0.069   0.115   5.316
 5920SOL    HW218660   0.124   0.061   5.460
 5921SOL     OW18661   3.020   4.418   6.942
 5921SOL    HW118662   3.034   4.384   6.849
 5921SOL    HW218663   3.051   4.513   6.948
 5922SOL     OW18664   5.559   2.868   2.347
 5922SOL    HW118665   5.481   2.836   2.292
 5922SOL    HW218666   5.530   2.946   2.402
 5923SOL     OW18667   6.288   0.941   3.337
 5923SOL    HW118668   6.295   0.959   3.239
 5923SOL    HW218669   6.192   0.945   3.365
 5924SOL     OW18670   5.315   6.259   3.963
 5924SOL    HW118671   5.228   6.221   3.933
 5924SOL    HW218672   5.377   6.267   3.885
 5925SOL     OW18673   4.266   1.569   0.957
 5925SOL    HW118674   4.313   1.625   1.026
 5925SOL    HW218675   4.168   1.590   0.959
 5926SOL     OW18676   5.345   3.904   3.470
 5926SOL    HW118677   5.439   3.876   3.449
 5926SOL    HW218678   5.314   3.857   3.552
 5927SOL     OW18679   0.778   5.280   1.912
 5927SOL    HW118680   0.797   5.370   1.951
 5927SOL    HW218681   0.816   5.275   1.820
 5928SOL     OW18682   2.356   6.729   6.825
 5928SOL    HW118683   2.366   6.817   6.780
 5928SOL    HW218684   2.318   6.743   6.917
 5929SOL     OW18685   0.870   0.647   0.387
 5929SOL    HW118686   0.960   0.635   0.344
 5929SOL    HW218687   0.882   0.657   0.486
 5930SOL     OW18688   1.891   3.714   2.102
 5930SOL    HW118689   1.881   3.644   2.173
 5930SOL    HW218690   1.869   3.675   2.013
 5931SOL     OW18691   5.270   6.517   3.124
 5931SOL    HW118692   5.201   6.448   3.144
 5931SOL    HW218693   5.294   6.514   3.027
 5932SOL     OW18694   2.999   6.817   0.174
 5932SOL    HW118695   2.900   6.806   0.161
 5932SOL    HW218696   3.047   6.743   0.127
 5933SOL     OW18697   6.077   6.434   4.578
 5933SOL    HW118698   6.102   6.340   4.555
 5933SOL    HW218699   6.151   6.477   4.629
 5934SOL     OW18700   2.553   3.188   0.332
 5934SOL    HW118701   2.619   3.245   0.284
 5934SOL    HW218702   2.591   3.161   0.421
 5935SOL     OW18703   1.162   0.378   5.362
 5935SOL    HW118704   1.080   0.321   5.358
 5935SOL    HW218705   1.194   0.397   5.269
 5936SOL     OW18706   3.326   3.059   1.991
 5936SOL    HW118707   3.368   2.969   1.999
 5936SOL    HW218708   3.265   3.061   1.912
 5937SOL     OW18709   0.209   2.773   1.287
 5937SOL    HW118710   0.232   2.812   1.198
 5937SOL    HW218711   0.187   2.676   1.276
 5938SOL     OW18712   0.121   4.357   3.944
 5938SOL    HW118713   0.082   4.431   3.890
 5938SOL    HW218714   0.049   4.312   3.997
 5939SOL     OW18715   4.149   1.801   5.611
 5939SOL    HW118716   4.177   1.709   5.636
 5939SOL    HW218717   4.064   1.825   5.659
 5940SOL     OW18718   5.060   5.771   1.276
 5940SOL    HW118719   4.987   5.706   1.254
 5940SOL    HW218720   5.094   5.753   1.368
 5941SOL     OW18721   0.208   2.404   3.057
 5941SOL    HW118722   0.226   2.345   3.136
 5941SOL    HW218723   0.149   2.355   2.992
 5942SOL     OW18724   4.865   2.562   6.407
 5942SOL    HW118725   4.914   2.645   6.434
 5942SOL    HW218726   4.913   2.519   6.330
 5943SOL     OW18727   2.198   4.725   1.220
 5943SOL    HW118728   2.205   4.739   1.318
 5943SOL    HW218729   2.155   4.636   1.202
 5944SOL     OW18730   6.608   3.375   5.482
 5944SOL    HW118731   6.568   3.466   5.473
 5944SOL    HW218732   6.561   3.312   5.420
 5945SOL     OW18733   6.613   6.360   4.644
 5945SOL    HW118734   6.536   6.374   4.705
 5945SOL    HW218735   6.583   6.371   4.549
 5946SOL     OW18736   1.845   3.577   6.622
 5946SOL    HW118737   1.765   3.520   6.601
 5946SOL    HW218738   1.886   3.547   6.708
 5947SOL     OW18739   3.583   3.575   4.686
 5947SOL    HW118740   3.607   3.549   4.780
 5947SOL    HW218741   3.484   3.573   4.675
 5948SOL     OW18742   4.753   3.498   1.303
 5948SOL    HW118743   4.690   3.567   1.268
 5948SOL    HW218744   4.830   3.543   1.348
 5949SOL     OW18745   0.480   4.112   3.290
 5949SOL    HW118746   0.428   4.052   3.229
 5949SOL    HW218747   0.419   4.147   3.362
 5950SOL     OW18748   3.574   0.505   4.757
 5950SOL    HW118749   3.530   0.548   4.678
 5950SOL    HW218750   3.517   0.431   4.790
 5951SOL     OW18751   6.974   4.246   6.711
 5951SOL    HW118752   6.910   4.256   6.787
 5951SOL    HW218753   6.925   4.212   6.630
 5952SOL     OW18754   4.050   4.487   1.689
 5952SOL    HW118755   4.008   4.401   1.659
 5952SOL    HW218756   4.129   4.467   1.747
 5953SOL     OW18757   0.048   3.644   5.320
 5953SOL    HW118758   0.112   3.712   5.284
 5953SOL    HW218759   0.060   3.636   5.419
 5954SOL     OW18760   2.044   5.624   4.052
 5954SOL    HW118761   2.112   5.603   4.121
 5954SOL    HW218762   1.964   5.666   4.095
 5955SOL     OW18763   4.880   3.265   0.621
 5955SOL    HW118764   4.821   3.256   0.701
 5955SOL    HW218765   4.825   3.260   0.538
 5956SOL     OW18766   5.115   3.135   5.323
 5956SOL    HW118767   5.061   3.169   5.246
 5956SOL    HW218768   5.054   3.098   5.393
 5957SOL     OW18769   6.586   1.369   3.458
 5957SOL    HW118770   6.627   1.392   3.546
 5957SOL    HW218771   6.496   1.327   3.473
 5958SOL     OW18772   2.967   6.324   3.325
 5958SOL    HW118773   3.048   6.336   3.268
 5958SOL    HW218774   2.885   6.348   3.272
 5959SOL     OW18775   5.503   2.420   2.748
 5959SOL    HW118776   5.495   2.354   2.822
 5959SOL    HW218777   5.513   2.512   2.786
 5960SOL     OW18778   4.119   1.171   6.272
 5960SOL    HW118779   4.062   1.239   6.317
 5960SOL    HW218780   4.209   1.169   6.315
 5961SOL     OW18781   2.957   2.266   3.525
 5961SOL    HW118782   2.896   2.331   3.480
 5961SOL    HW218783   3.036   2.249   3.466
 5962SOL     OW18784   4.870   5.162   0.430
 5962SOL    HW118785   4.803   5.113   0.486
 5962SOL    HW218786   4.905   5.101   0.359
 5963SOL     OW18787   2.250   3.858   0.655
 5963SOL    HW118788   2.187   3.870   0.732
 5963SOL    HW218789   2.236   3.932   0.590
 5964SOL     OW18790   2.309   7.008   3.516
 5964SOL    HW118791   2.230   6.967   3.471
 5964SOL    HW218792   2.367   0.028   3.448
 5965SOL     OW18793   2.911   0.469   0.698
 5965SOL    HW118794   2.892   0.379   0.737
 5965SOL    HW218795   2.858   0.538   0.747
 5966SOL     OW18796   2.769   1.703   5.101
 5966SOL    HW118797   2.745   1.689   5.197
 5966SOL    HW218798   2.745   1.796   5.073
 5967SOL     OW18799   4.571   2.388   5.148
 5967SOL    HW118800   4.666   2.406   5.121
 5967SOL    HW218801   4.559   2.289   5.161
 5968SOL     OW18802   6.079   2.264   2.285
 5968SOL    HW118803   6.071   2.299   2.192
 5968SOL    HW218804   5.997   2.212   2.308
 5969SOL     OW18805   4.985   0.321   0.481
 5969SOL    HW118806   4.984   0.404   0.536
 5969SOL    HW218807   5.034   0.338   0.395
 5970SOL     OW18808   6.941   3.181   1.030
 5970SOL    HW118809   6.861   3.213   0.979
 5970SOL    HW218810   6.963   3.088   1.003
 5971SOL     OW18811   0.002   6.105   4.048
 5971SOL    HW118812   6.942   6.076   4.004
 5971SOL    HW218813   7.017   6.101   4.147
 5972SOL     OW18814   5.785   5.315   0.239
 5972SOL    HW118815   5.717   5.288   0.171
 5972SOL    HW218816   5.859   5.365   0.194
 5973SOL     OW18817   2.707   1.218   2.314
 5973SOL    HW118818   2.756   1.257   2.237
 5973SOL    HW218819   2.643   1.285   2.351
 5974SOL     OW18820   5.599   1.377   4.532
 5974SOL    HW118821   5.577   1.424   4.446
 5974SOL    HW218822   5.696   1.390   4.554
 5975SOL     OW18823   4.250   5.033   1.316
 5975SOL    HW118824   4.333   5.034   1.260
 5975SOL    HW218825   4.213   5.126   1.322
 5976SOL     OW18826   1.951   3.868   5.539
 5976SOL    HW118827   2.037   3.902   5.499
 5976SOL    HW218828   1.930   3.921   5.621
 5977SOL     OW18829   6.788   4.729   0.455
 5977SOL    HW118830   6.740   4.774   0.379
 5977SOL    HW218831   6.832   4.799   0.512
 5978SOL     OW18832   2.930   3.731   6.712
 5978SOL    HW118833   3.023   3.739   6.677
 5978SOL    HW218834   2.866   3.772   6.647
 5979SOL     OW18835   6.306   0.284   1.125
 5979SOL    HW118836   6.311   0.247   1.218
 5979SOL    HW218837   6.214   0.319   1.109
 5980SOL     OW18838   2.877   2.448   0.893
 5980SOL    HW118839   2.902   2.400   0.809
 5980SOL    HW218840   2.959   2.490   0.933
 5981SOL     OW18841   2.866   1.621   1.139
 5981SOL    HW118842   2.950   1.575   1.109
 5981SOL    HW218843   2.849   1.601   1.235
 5982SOL     OW18844   5.312   2.835   1.211
 5982SOL    HW118845   5.358   2.920   1.236
 5982SOL    HW218846   5.379   2.773   1.168
 5983SOL     OW18847   0.140   0.976   3.522
 5983SOL    HW118848   0.196   1.045   3.568
 5983SOL    HW218849   0.099   1.015   3.440
 5984SOL     OW18850   6.159   6.026   4.041
 5984SOL    HW118851   6.067   5.994   4.064
 5984SOL    HW218852   6.155   6.082   3.958
 5985SOL     OW18853   6.485   3.187   2.347
 5985SOL    HW118854   6.495   3.263   2.410
 5985SOL    HW218855   6.467   3.221   2.255
 5986SOL     OW18856   4.089   3.650   3.931
 5986SOL    HW118857   4.092   3.552   3.954
 5986SOL    HW218858   4.085   3.703   4.016
 5987SOL     OW18859   0.503   5.846   5.409
 5987SOL    HW118860   0.511   5.778   5.481
 5987SOL    HW218861   0.544   5.811   5.325
 5988SOL     OW18862   0.726   2.982   0.088
 5988SOL    HW118863   0.635   3.022   0.098
 5988SOL    HW218864   0.733   2.935   0.000
 5989SOL     OW18865   0.738   6.558   5.685
 5989SOL    HW118866   0.672   6.540   5.612
 5989SOL    HW218867   0.822   6.506   5.668
 5990SOL     OW18868   2.639   4.777   1.936
 5990SOL    HW118869   2.697   4.717   1.992
 5990SOL    HW218870   2.574   4.721   1.885
 5991SOL     OW18871   5.433   0.239   0.519
 5991SOL    HW118872   5.420   0.147   0.555
 5991SOL    HW218873   5.454   0.302   0.594
 5992SOL     OW18874   3.817   5.875   2.762
 5992SOL    HW118875   3.837   5.813   2.686
 5992SOL    HW218876   3.736   5.929   2.740
 5993SOL     OW18877   5.812   1.943   0.734
 5993SOL    HW118878   5.890   1.989   0.692
 5993SOL    HW218879   5.796   1.856   0.689
 5994SOL     OW18880   6.603   3.381   0.201
 5994SOL    HW118881   6.566   3.450   0.264
 5994SOL    HW218882   6.537   3.307   0.191
 5995SOL     OW18883   5.068   3.444   1.266
 5995SOL    HW118884   5.061   3.497   1.350
 5995SOL    HW218885   5.040   3.350   1.283
 5996SOL     OW18886   2.949   6.530   1.499
 5996SOL    HW118887   2.997   6.454   1.543
 5996SOL    HW218888   2.979   6.616   1.539
 5997SOL     OW18889   6.511   0.561   4.188
 5997SOL    HW118890   6.438   0.609   4.237
 5997SOL    HW218891   6.486   0.551   4.092
 5998SOL     OW18892   6.830   6.078   6.937
 5998SOL    HW118893   6.835   6.178   6.948
 5998SOL    HW218894   6.791   6.038   7.020
 5999SOL     OW18895   5.352   3.301   1.398
 5999SOL    HW118896   5.374   3.328   1.492
 5999SOL    HW218897   5.410   3.351   1.334
 6000SOL     OW18898   0.830   4.146   1.326
 6000SOL    HW118899   0.831   4.047   1.335
 6000SOL    HW218900   0.804   4.188   1.413
 6001SOL     OW18901   5.804   5.373   5.851
 6001SOL    HW118902   5.749   5.399   5.931
 6001SOL    HW218903   5.865   5.298   5.877
 6002SOL     OW18904   5.834   4.775   5.530
 6002SOL    HW118905   5.798   4.739   5.616
 6002SOL    HW218906   5.870   4.699   5.474
 6003SOL     OW18907   2.694   2.277   4.740
 6003SOL    HW118908   2.722   2.333   4.818
 6003SOL    HW218909   2.595   2.263   4.742
 6004SOL     OW18910   5.338   3.016   5.179
 6004SOL    HW118911   5.329   3.040   5.083
 6004SOL    HW218912   5.264   3.057   5.231
 6005SOL     OW18913   4.169   4.018   6.590
 6005SOL    HW118914   4.206   4.051   6.503
 6005SOL    HW218915   4.244   3.998   6.653
 6006SOL     OW18916   3.388   5.906   6.849
 6006SOL    HW118917   3.414   5.951   6.934
 6006SOL    HW218918   3.306   5.951   6.812
 6007SOL     OW18919   2.072   5.903   4.601
 6007SOL    HW118920   1.975   5.904   4.575
 6007SOL    HW218921   2.112   5.815   4.575
 6008SOL     OW18922   2.548   3.896   6.670
 6008SOL    HW118923   2.510   3.807   6.698
 6008SOL    HW218924   2.568   3.950   6.751
 6009SOL     OW18925   4.228   5.104   2.727
 6009SOL    HW118926   4.189   5.088   2.818
 6009SOL    HW218927   4.257   5.199   2.719
 6010SOL     OW18928   0.215   4.608   4.493
 6010SOL    HW118929   0.140   4.655   4.448
 6010SOL    HW218930   0.299   4.621   4.440
 6011SOL     OW18931   5.987   1.459   3.060
 6011SOL    HW118932   6.078   1.460   3.100
 6011SOL    HW218933   5.950   1.366   3.062
 6012SOL     OW18934   6.444   0.375   5.700
 6012SOL    HW118935   6.355   0.395   5.660
 6012SOL    HW218936   6.458   0.276   5.704
 6013SOL     OW18937   6.001   1.525   2.108
 6013SOL    HW118938   5.937   1.565   2.042
 6013SOL    HW218939   5.966   1.541   2.201
 6014SOL     OW18940   2.982   3.198   3.809
 6014SOL    HW118941   2.989   3.137   3.888
 6014SOL    HW218942   2.968   3.292   3.841
 6015SOL     OW18943   5.968   0.607   3.608
 6015SOL    HW118944   6.054   0.618   3.558
 6015SOL    HW218945   5.907   0.549   3.556
 6016SOL     OW18946   4.165   2.054   4.375
 6016SOL    HW118947   4.088   2.045   4.438
 6016SOL    HW218948   4.180   1.967   4.328
 6017SOL     OW18949   1.179   1.404   5.584
 6017SOL    HW118950   1.267   1.358   5.596
 6017SOL    HW218951   1.195   1.498   5.552
 6018SOL     OW18952   2.780   0.957   3.929
 6018SOL    HW118953   2.721   0.964   3.849
 6018SOL    HW218954   2.776   1.043   3.980
 6019SOL     OW18955   6.323   4.286   6.181
 6019SOL    HW118956   6.348   4.357   6.114
 6019SOL    HW218957   6.258   4.223   6.139
 6020SOL     OW18958   0.829   5.092   6.208
 6020SOL    HW118959   0.866   5.030   6.138
 6020SOL    HW218960   0.764   5.042   6.265
 6021SOL     OW18961   5.683   6.868   3.415
 6021SOL    HW118962   5.732   6.902   3.495
 6021SOL    HW218963   5.745   6.868   3.336
 6022SOL     OW18964   6.536   2.855   1.948
 6022SOL    HW118965   6.569   2.779   1.892
 6022SOL    HW218966   6.501   2.821   2.035
 6023SOL     OW18967   4.130   6.889   2.070
 6023SOL    HW118968   4.082   6.942   2.139
 6023SOL    HW218969   4.072   6.812   2.041
 6024SOL     OW18970   1.261   6.193   6.966
 6024SOL    HW118971   1.293   6.288   6.968
 6024SOL    HW218972   1.292   6.146   0.023
 6025SOL     OW18973   2.746   0.777   5.080
 6025SOL    HW118974   2.649   0.771   5.057
 6025SOL    HW218975   2.792   0.839   5.016
 6026SOL     OW18976   5.735   6.376   4.515
 6026SOL    HW118977   5.663   6.317   4.477
 6026SOL    HW218978   5.791   6.322   4.578
 6027SOL     OW18979   5.386   5.121   6.039
 6027SOL    HW118980   5.354   5.037   6.083
 6027SOL    HW218981   5.436   5.177   6.105
 6028SOL     OW18982   5.785   5.441   6.244
 6028SOL    HW118983   5.723   5.432   6.166
 6028SOL    HW218984   5.841   5.522   6.232
 6029SOL     OW18985   2.998   1.497   2.949
 6029SOL    HW118986   2.951   1.439   2.883
 6029SOL    HW218987   3.077   1.541   2.906
 6030SOL     OW18988   5.845   3.343   4.159
 6030SOL    HW118989   5.817   3.399   4.236
 6030SOL    HW218990   5.938   3.310   4.172
 6031SOL     OW18991   7.020   6.041   4.935
 6031SOL    HW118992   6.986   6.129   4.968
 6031SOL    HW218993   0.005   6.045   4.835
 6032SOL     OW18994   3.685   6.649   3.513
 6032SOL    HW118995   3.590   6.664   3.484
 6032SOL    HW218996   3.747   6.691   3.447
 6033SOL     OW18997   1.322   1.326   2.553
 6033SOL    HW118998   1.274   1.322   2.465
 6033SOL    HW218999   1.377   1.410   2.556
 6034SOL     OW19000   0.398   7.022   1.325
 6034SOL    HW119001   0.485   0.045   1.329
 6034SOL    HW219002   0.324   0.062   1.312
 6035SOL     OW19003   2.755   0.420   2.454
 6035SOL    HW119004   2.846   0.443   2.488
 6035SOL    HW219005   2.758   0.330   2.410
 6036SOL     OW19006   6.461   3.561   1.179
 6036SOL    HW119007   6.430   3.537   1.272
 6036SOL    HW219008   6.486   3.657   1.177
 6037SOL     OW19009   4.641   1.666   6.150
 6037SOL    HW119010   4.649   1.625   6.241
 6037SOL    HW219011   4.544   1.668   6.123
 6038SOL     OW19012   1.517   1.125   6.483
 6038SOL    HW119013   1.571   1.201   6.519
 6038SOL    HW219014   1.467   1.156   6.402
 6039SOL     OW19015   3.778   3.788   4.042
 6039SOL    HW119016   3.758   3.719   3.972
 6039SOL    HW219017   3.764   3.879   4.004
 6040SOL     OW19018   0.024   1.981   0.530
 6040SOL    HW119019   6.991   2.052   0.492
 6040SOL    HW219020   7.001   1.934   0.604
 6041SOL     OW19021   2.092   3.785   6.291
 6041SOL    HW119022   2.178   3.773   6.341
 6041SOL    HW219023   2.083   3.713   6.222
 6042SOL     OW19024   3.246   5.905   3.730
 6042SOL    HW119025   3.206   5.927   3.819
 6042SOL    HW219026   3.215   5.815   3.701
 6043SOL     OW19027   2.381   6.980   2.797
 6043SOL    HW119028   2.388   0.016   2.719
 6043SOL    HW219029   2.434   6.897   2.780
 6044SOL     OW19030   0.390   3.405   1.108
 6044SOL    HW119031   0.398   3.316   1.152
 6044SOL    HW219032   0.302   3.446   1.133
 6045SOL     OW19033   5.838   1.586   3.532
 6045SOL    HW119034   5.854   1.523   3.456
 6045SOL    HW219035   5.808   1.675   3.495
 6046SOL     OW19036   3.277   3.257   2.759
 6046SOL    HW119037   3.359   3.294   2.803
 6046SOL    HW219038   3.261   3.305   2.673
 6047SOL     OW19039   6.932   1.705   0.346
 6047SOL    HW119040   6.869   1.783   0.356
 6047SOL    HW219041   6.975   1.687   0.434
 6048SOL     OW19042   5.582   5.904   3.225
 6048SOL    HW119043   5.596   5.822   3.169
 6048SOL    HW219044   5.552   5.980   3.167
 6049SOL     OW19045   4.673   4.824   6.303
 6049SOL    HW119046   4.768   4.854   6.307
 6049SOL    HW219047   4.616   4.896   6.263
 6050SOL     OW19048   2.852   5.882   2.373
 6050SOL    HW119049   2.835   5.796   2.422
 6050SOL    HW219050   2.907   5.864   2.292
 6051SOL     OW19051   0.385   1.423   3.119
 6051SOL    HW119052   0.343   1.365   3.049
 6051SOL    HW219053   0.389   1.517   3.087
 6052SOL     OW19054   5.288   5.486   0.674
 6052SOL    HW119055   5.315   5.545   0.598
 6052SOL    HW219056   5.199   5.517   0.710
 6053SOL     OW19057   4.202   2.568   6.311
 6053SOL    HW119058   4.257   2.490   6.343
 6053SOL    HW219059   4.209   2.642   6.378
 6054SOL     OW19060   4.099   4.259   0.833
 6054SOL    HW119061   4.143   4.195   0.896
 6054SOL    HW219062   4.039   4.320   0.885
 6055SOL     OW19063   2.893   4.197   0.950
 6055SOL    HW119064   2.806   4.236   0.922
 6055SOL    HW219065   2.881   4.146   1.036
 6056SOL     OW19066   5.006   6.191   3.501
 6056SOL    HW119067   5.104   6.196   3.483
 6056SOL    HW219068   4.982   6.100   3.534
 6057SOL     OW19069   5.221   0.603   4.271
 6057SOL    HW119070   5.255   0.584   4.179
 6057SOL    HW219071   5.157   0.680   4.268
 6058SOL     OW19072   6.825   2.576   5.966
 6058SOL    HW119073   6.749   2.557   6.029
 6058SOL    HW219074   6.833   2.675   5.952
 6059SOL     OW19075   4.234   2.671   6.766
 6059SOL    HW119076   4.317   2.718   6.796
 6059SOL    HW219077   4.180   2.645   6.845
 6060SOL     OW19078   2.076   3.022   0.046
 6060SOL    HW119079   1.977   3.012   0.042
 6060SOL    HW219080   2.111   2.974   0.126
 6061SOL     OW19081   3.681   4.383   6.869
 6061SOL    HW119082   3.606   4.359   6.931
 6061SOL    HW219083   3.674   4.329   6.786
 6062SOL     OW19084   2.005   2.255   6.433
 6062SOL    HW119085   2.095   2.288   6.463
 6062SOL    HW219086   1.994   2.159   6.459
 6063SOL     OW19087   4.418   3.743   6.532
 6063SOL    HW119088   4.369   3.660   6.557
 6063SOL    HW219089   4.468   3.778   6.611
 6064SOL     OW19090   6.422   5.458   0.971
 6064SOL    HW119091   6.441   5.556   0.961
 6064SOL    HW219092   6.400   5.438   1.067
 6065SOL     OW19093   2.238   6.752   1.666
 6065SOL    HW119094   2.303   6.682   1.637
 6065SOL    HW219095   2.146   6.728   1.632
 6066SOL     OW19096   5.480   6.127   3.049
 6066SOL    HW119097   5.509   6.223   3.052
 6066SOL    HW219098   5.393   6.117   3.096
 6067SOL     OW19099   6.895   6.031   5.774
 6067SOL    HW119100   6.925   6.046   5.680
 6067SOL    HW219101   6.834   6.105   5.802
 6068SOL     OW19102   5.034   2.535   4.237
 6068SOL    HW119103   4.999   2.549   4.329
 6068SOL    HW219104   4.987   2.598   4.174
 6069SOL     OW19105   6.807   4.250   6.183
 6069SOL    HW119106   6.848   4.159   6.187
 6069SOL    HW219107   6.856   4.311   6.244
 6070SOL     OW19108   2.237   1.657   1.125
 6070SOL    HW119109   2.319   1.714   1.129
 6070SOL    HW219110   2.176   1.692   1.053
 6071SOL     OW19111   6.348   1.249   5.636
 6071SOL    HW119112   6.339   1.149   5.630
 6071SOL    HW219113   6.320   1.279   5.727
 6072SOL     OW19114   0.217   3.615   6.722
 6072SOL    HW119115   0.266   3.687   6.770
 6072SOL    HW219116   0.194   3.542   6.786
 6073SOL     OW19117   5.032   3.798   0.222
 6073SOL    HW119118   5.027   3.701   0.199
 6073SOL    HW219119   5.127   3.821   0.245
 6074SOL     OW19120   1.327   6.760   2.458
 6074SOL    HW119121   1.331   6.727   2.364
 6074SOL    HW219122   1.272   6.844   2.461
 6075SOL     OW19123   5.765   0.805   6.525
 6075SOL    HW119124   5.856   0.768   6.508
 6075SOL    HW219125   5.760   0.839   6.620
 6076SOL     OW19126   0.870   6.068   2.650
 6076SOL    HW119127   0.941   6.032   2.710
 6076SOL    HW219128   0.787   6.087   2.703
 6077SOL     OW19129   5.507   6.368   2.682
 6077SOL    HW119130   5.498   6.467   2.682
 6077SOL    HW219131   5.500   6.334   2.588
 6078SOL     OW19132   4.604   3.856   0.045
 6078SOL    HW119133   4.517   3.808   0.037
 6078SOL    HW219134   4.600   3.940   7.016
 6079SOL     OW19135   2.917   2.593   0.493
 6079SOL    HW119136   3.006   2.631   0.517
 6079SOL    HW219137   2.863   2.662   0.445
 6080SOL     OW19138   6.574   3.921   6.266
 6080SOL    HW119139   6.544   3.860   6.339
 6080SOL    HW219140   6.559   4.016   6.293
 6081SOL     OW19141   1.695   3.303   3.655
 6081SOL    HW119142   1.739   3.215   3.668
 6081SOL    HW219143   1.750   3.375   3.699
 6082SOL     OW19144   4.822   1.525   1.487
 6082SOL    HW119145   4.745   1.528   1.550
 6082SOL    HW219146   4.887   1.598   1.508
 6083SOL     OW19147   4.710   0.382   6.511
 6083SOL    HW119148   4.757   0.371   6.424
 6083SOL    HW219149   4.757   0.327   6.581
 6084SOL     OW19150   6.907   5.738   2.716
 6084SOL    HW119151   6.882   5.766   2.808
 6084SOL    HW219152   6.850   5.785   2.649
 6085SOL     OW19153   0.667   6.749   0.254
 6085SOL    HW119154   0.599   6.726   0.324
 6085SOL    HW219155   0.712   6.835   0.278
 6086SOL     OW19156   3.559   3.907   0.091
 6086SOL    HW119157   3.604   3.953   0.015
 6086SOL    HW219158   3.609   3.823   0.113
 6087SOL     OW19159   4.698   0.220   0.699
 6087SOL    HW119160   4.782   0.192   0.652
 6087SOL    HW219161   4.695   0.320   0.704
 6088SOL     OW19162   4.998   5.457   2.527
 6088SOL    HW119163   4.922   5.522   2.530
 6088SOL    HW219164   5.078   5.497   2.571
 6089SOL     OW19165   5.878   3.779   3.710
 6089SOL    HW119166   5.805   3.710   3.712
 6089SOL    HW219167   5.900   3.802   3.615
 6090SOL     OW19168   3.920   5.554   4.286
 6090SOL    HW119169   3.994   5.486   4.296
 6090SOL    HW219170   3.851   5.538   4.356
 6091SOL     OW19171   1.128   1.248   1.454
 6091SOL    HW119172   1.169   1.308   1.386
 6091SOL    HW219173   1.069   1.182   1.409
 6092SOL     OW19174   2.871   6.675   1.287
 6092SOL    HW119175   2.919   6.606   1.342
 6092SOL    HW219176   2.899   6.766   1.316
 6093SOL     OW19177   2.530   2.430   2.513
 6093SOL    HW119178   2.538   2.490   2.433
 6093SOL    HW219179   2.621   2.406   2.545
 6094SOL     OW19180   0.562   6.310   4.849
 6094SOL    HW119181   0.511   6.327   4.765
 6094SOL    HW219182   0.539   6.219   4.884
 6095SOL     OW19183   4.633   4.553   1.720
 6095SOL    HW119184   4.640   4.599   1.808
 6095SOL    HW219185   4.562   4.596   1.664
 6096SOL     OW19186   5.301   5.828   2.979
 6096SOL    HW119187   5.374   5.764   3.004
 6096SOL    HW219188   5.324   5.872   2.892
 6097SOL     OW19189   1.896   4.784   2.648
 6097SOL    HW119190   1.954   4.703   2.643
 6097SOL    HW219191   1.872   4.803   2.743
 6098SOL     OW19192   6.532   0.729   4.712
 6098SOL    HW119193   6.442   0.717   4.752
 6098SOL    HW219194   6.551   0.654   4.649
 6099SOL     OW19195   3.288   0.526   5.693
 6099SOL    HW119196   3.264   0.575   5.609
 6099SOL    HW219197   3.353   0.454   5.671
 6100SOL     OW19198   0.550   5.788   4.938
 6100SOL    HW119199   0.580   5.793   5.034
 6100SOL    HW219200   0.627   5.763   4.880
 6101SOL     OW19201   0.046   3.614   1.795
 6101SOL    HW119202   7.004   3.672   1.749
 6101SOL    HW219203   0.103   3.569   1.726
 6102SOL     OW19204   3.772   0.047   2.471
 6102SOL    HW119205   3.786   0.062   2.569
 6102SOL    HW219206   3.697   7.007   2.457
 6103SOL     OW19207   6.653   1.757   1.869
 6103SOL    HW119208   6.692   1.849   1.855
 6103SOL    HW219209   6.586   1.760   1.943
 6104SOL     OW19210   6.830   0.735   4.426
 6104SOL    HW119211   6.909   0.676   4.442
 6104SOL    HW219212   6.801   0.727   4.330
 6105SOL     OW19213   3.176   4.375   5.812
 6105SOL    HW119214   3.077   4.362   5.822
 6105SOL    HW219215   3.208   4.329   5.729
 6106SOL     OW19216   6.270   4.813   5.535
 6106SOL    HW119217   6.327   4.891   5.510
 6106SOL    HW219218   6.257   4.754   5.456
 6107SOL     OW19219   5.924   5.071   5.276
 6107SOL    HW119220   5.982   5.065   5.195
 6107SOL    HW219221   5.947   4.996   5.338
 6108SOL     OW19222   1.945   1.202   6.960
 6108SOL    HW119223   2.002   1.246   6.890
 6108SOL    HW219224   1.863   1.257   6.976
 6109SOL     OW19225   6.726   6.610   3.626
 6109SOL    HW119226   6.817   6.650   3.622
 6109SOL    HW219227   6.729   6.516   3.592
 6110SOL     OW19228   1.900   1.421   4.167
 6110SOL    HW119229   1.973   1.453   4.106
 6110SOL    HW219230   1.941   1.385   4.251
 6111SOL     OW19231   2.158   3.842   1.172
 6111SOL    HW119232   2.168   3.811   1.267
 6111SOL    HW219233   2.141   3.762   1.114
 6112SOL     OW19234   5.126   6.670   3.763
 6112SOL    HW119235   5.073   6.732   3.704
 6112SOL    HW219236   5.128   6.707   3.856
 6113SOL     OW19237   2.235   5.691   1.273
 6113SOL    HW119238   2.163   5.632   1.237
 6113SOL    HW219239   2.322   5.666   1.231
 6114SOL     OW19240   5.312   1.694   0.677
 6114SOL    HW119241   5.357   1.783   0.676
 6114SOL    HW219242   5.358   1.635   0.743
 6115SOL     OW19243   0.734   0.495   6.470
 6115SOL    HW119244   0.764   0.586   6.439
 6115SOL    HW219245   0.646   0.473   6.428
 6116SOL     OW19246   5.491   3.124   6.468
 6116SOL    HW119247   5.515   3.030   6.491
 6116SOL    HW219248   5.554   3.187   6.514
 6117SOL     OW19249   1.993   2.078   1.193
 6117SOL    HW119250   2.062   2.111   1.258
 6117SOL    HW219251   1.941   2.156   1.158
 6118SOL     OW19252   5.804   0.957   1.637
 6118SOL    HW119253   5.821   1.054   1.619
 6118SOL    HW219254   5.796   0.942   1.736
 6119SOL     OW19255   6.793   1.805   6.724
 6119SOL    HW119256   6.885   1.844   6.734
 6119SOL    HW219257   6.782   1.770   6.631
 6120SOL     OW19258   3.134   0.555   4.290
 6120SOL    HW119259   3.196   0.626   4.321
 6120SOL    HW219260   3.175   0.504   4.215
 6121SOL     OW19261   1.672   2.324   4.867
 6121SOL    HW119262   1.659   2.419   4.893
 6121SOL    HW219263   1.751   2.287   4.916
 6122SOL     OW19264   5.212   4.448   5.129
 6122SOL    HW119265   5.301   4.493   5.121
 6122SOL    HW219266   5.140   4.510   5.096
 6123SOL     OW19267   5.760   1.699   5.322
 6123SOL    HW119268   5.750   1.685   5.421
 6123SOL    HW219269   5.681   1.749   5.287
 6124SOL     OW19270   2.587   6.048   4.287
 6124SOL    HW119271   2.494   6.072   4.261
 6124SOL    HW219272   2.601   5.950   4.278
 6125SOL     OW19273   2.957   1.876   6.302
 6125SOL    HW119274   2.915   1.786   6.312
 6125SOL    HW219275   2.890   1.940   6.264
 6126SOL     OW19276   6.160   2.871   6.015
 6126SOL    HW119277   6.118   2.832   5.933
 6126SOL    HW219278   6.184   2.967   5.998
 6127SOL     OW19279   4.850   2.281   2.360
 6127SOL    HW119280   4.809   2.297   2.270
 6127SOL    HW219281   4.947   2.261   2.349
 6128SOL     OW19282   5.761   5.897   0.080
 6128SOL    HW119283   5.676   5.940   0.051
 6128SOL    HW219284   5.745   5.800   0.101
 6129SOL     OW19285   2.224   5.722   2.263
 6129SOL    HW119286   2.292   5.652   2.284
 6129SOL    HW219287   2.166   5.736   2.344
 6130SOL     OW19288   5.923   2.729   0.408
 6130SOL    HW119289   5.835   2.683   0.406
 6130SOL    HW219290   5.977   2.701   0.329
 6131SOL     OW19291   6.586   2.044   2.736
 6131SOL    HW119292   6.619   2.107   2.806
 6131SOL    HW219293   6.558   1.958   2.778
 6132SOL     OW19294   3.890   1.509   6.201
 6132SOL    HW119295   3.841   1.490   6.115
 6132SOL    HW219296   3.823   1.521   6.275
 6133SOL     OW19297   0.855   2.230   2.892
 6133SOL    HW119298   0.836   2.313   2.944
 6133SOL    HW219299   0.928   2.179   2.936
 6134SOL     OW19300   0.416   6.948   5.660
 6134SOL    HW119301   0.386   6.937   5.755
 6134SOL    HW219302   0.512   6.920   5.652
 6135SOL     OW19303   0.461   6.700   0.423
 6135SOL    HW119304   0.427   6.614   0.384
 6135SOL    HW219305   0.384   6.761   0.439
 6136SOL     OW19306   0.880   3.187   2.595
 6136SOL    HW119307   0.921   3.187   2.687
 6136SOL    HW219308   0.880   3.093   2.559
 6137SOL     OW19309   0.020   4.272   1.751
 6137SOL    HW119310   0.050   4.361   1.717
 6137SOL    HW219311   0.089   4.235   1.813
 6138SOL     OW19312   4.600   0.393   2.086
 6138SOL    HW119313   4.615   0.327   2.160
 6138SOL    HW219314   4.678   0.390   2.023
 6139SOL     OW19315   1.409   0.966   4.986
 6139SOL    HW119316   1.332   0.903   4.976
 6139SOL    HW219317   1.470   0.956   4.908
 6140SOL     OW19318   1.669   0.334   2.938
 6140SOL    HW119319   1.733   0.340   2.861
 6140SOL    HW219320   1.688   0.409   3.001
 6141SOL     OW19321   0.528   0.817   6.144
 6141SOL    HW119322   0.530   0.909   6.183
 6141SOL    HW219323   0.482   0.755   6.208
 6142SOL     OW19324   6.619   0.094   1.771
 6142SOL    HW119325   6.648   0.070   1.678
 6142SOL    HW219326   6.632   0.015   1.831
 6143SOL     OW19327   6.852   3.466   5.333
 6143SOL    HW119328   6.823   3.418   5.416
 6143SOL    HW219329   6.927   3.528   5.355
 6144SOL     OW19330   4.825   5.236   2.427
 6144SOL    HW119331   4.872   5.246   2.515
 6144SOL    HW219332   4.780   5.146   2.424
 6145SOL     OW19333   4.888   3.541   4.109
 6145SOL    HW119334   4.852   3.576   4.195
 6145SOL    HW219335   4.856   3.597   4.033
 6146SOL     OW19336   5.568   0.373   5.270
 6146SOL    HW119337   5.637   0.441   5.296
 6146SOL    HW219338   5.480   0.419   5.253
 6147SOL     OW19339   1.362   2.572   4.938
 6147SOL    HW119340   1.432   2.641   4.956
 6147SOL    HW219341   1.298   2.607   4.869
 6148SOL     OW19342   3.619   5.204   7.024
 6148SOL    HW119343   3.525   5.171   0.000
 6148SOL    HW219344   3.620   5.299   6.994
 6149SOL     OW19345   3.191   1.146   1.427
 6149SOL    HW119346   3.179   1.234   1.475
 6149SOL    HW219347   3.114   1.131   1.366
 6150SOL     OW19348   1.100   4.247   5.618
 6150SOL    HW119349   1.016   4.259   5.671
 6150SOL    HW219350   1.103   4.154   5.581
 6151SOL     OW19351   4.473   5.278   3.392
 6151SOL    HW119352   4.559   5.243   3.430
 6151SOL    HW219353   4.475   5.270   3.292
 6152SOL     OW19354   1.650   4.215   4.243
 6152SOL    HW119355   1.619   4.244   4.153
 6152SOL    HW219356   1.746   4.241   4.256
 6153SOL     OW19357   5.234   5.702   0.990
 6153SOL    HW119358   5.266   5.610   0.967
 6153SOL    HW219359   5.239   5.715   1.089
 6154SOL     OW19360   4.900   3.418   2.250
 6154SOL    HW119361   4.862   3.352   2.315
 6154SOL    HW219362   4.971   3.374   2.196
 6155SOL     OW19363   1.669   1.372   3.068
 6155SOL    HW119364   1.616   1.438   3.015
 6155SOL    HW219365   1.691   1.293   3.012
 6156SOL     OW19366   5.071   4.722   1.607
 6156SOL    HW119367   5.155   4.767   1.576
 6156SOL    HW219368   5.019   4.785   1.664
 6157SOL     OW19369   0.965   2.684   1.792
 6157SOL    HW119370   1.027   2.690   1.870
 6157SOL    HW219371   0.891   2.750   1.804
 6158SOL     OW19372   2.984   2.273   4.739
 6158SOL    HW119373   2.926   2.354   4.734
 6158SOL    HW219374   3.014   2.259   4.834
 6159SOL     OW19375   6.600   2.744   0.692
 6159SOL    HW119376   6.636   2.798   0.768
 6159SOL    HW219377   6.514   2.784   0.660
 6160SOL     OW19378   1.509   0.760   1.060
 6160SOL    HW119379   1.440   0.793   0.996
 6160SOL    HW219380   1.583   0.717   1.010
 6161SOL     OW19381   4.277   3.515   6.539
 6161SOL    HW119382   4.198   3.473   6.582
 6161SOL    HW219383   4.335   3.444   6.497
 6162SOL     OW19384   6.013   5.178   2.477
 6162SOL    HW119385   6.092   5.233   2.449
 6162SOL    HW219386   6.039   5.121   2.555
 6163SOL     OW19387   5.947   6.072   3.614
 6163SOL    HW119388   5.870   6.076   3.550
 6163SOL    HW219389   5.933   6.139   3.687
 6164SOL     OW19390   3.070   3.624   4.281
 6164SOL    HW119391   3.160   3.600   4.246
 6164SOL    HW219392   3.057   3.585   4.372
 6165SOL     OW19393   3.836   1.715   6.863
 6165SOL    HW119394   3.762   1.755   6.809
 6165SOL    HW219395   3.818   1.617   6.875
 6166SOL     OW19396   2.220   2.756   6.457
 6166SOL    HW119397   2.265   2.773   6.370
 6166SOL    HW219398   2.131   2.713   6.441
 6167SOL     OW19399   1.655   3.301   3.125
 6167SOL    HW119400   1.607   3.214   3.131
 6167SOL    HW219401   1.673   3.336   3.217
 6168SOL     OW19402   0.308   4.131   3.790
 6168SOL    HW119403   0.322   4.056   3.854
 6168SOL    HW219404   0.222   4.178   3.811
 6169SOL     OW19405   2.147   0.804   6.951
 6169SOL    HW119406   2.106   0.713   6.948
 6169SOL    HW219407   2.130   0.851   6.864
 6170SOL     OW19408   2.988   4.025   0.585
 6170SOL    HW119409   2.945   4.049   0.497
 6170SOL    HW219410   3.087   4.019   0.573
 6171SOL     OW19411   2.179   3.749   1.970
 6171SOL    HW119412   2.085   3.781   1.982
 6171SOL    HW219413   2.186   3.654   2.000
 6172SOL     OW19414   2.251   5.554   2.616
 6172SOL    HW119415   2.264   5.506   2.530
 6172SOL    HW219416   2.251   5.488   2.692
 6173SOL     OW19417   1.254   5.905   1.899
 6173SOL    HW119418   1.285   5.823   1.851
 6173SOL    HW219419   1.182   5.950   1.846
 6174SOL     OW19420   5.494   4.893   2.499
 6174SOL    HW119421   5.456   4.985   2.491
 6174SOL    HW219422   5.433   4.836   2.553
 6175SOL     OW19423   4.846   0.224   2.823
 6175SOL    HW119424   4.792   0.307   2.833
 6175SOL    HW219425   4.918   0.239   2.755
 6176SOL     OW19426   6.419   3.036   5.879
 6176SOL    HW119427   6.350   3.108   5.872
 6176SOL    HW219428   6.396   2.960   5.818
 6177SOL     OW19429   6.744   2.810   1.178
 6177SOL    HW119430   6.798   2.729   1.157
 6177SOL    HW219431   6.804   2.882   1.212
 6178SOL     OW19432   6.188   3.212   1.403
 6178SOL    HW119433   6.235   3.139   1.453
 6178SOL    HW219434   6.120   3.255   1.463
 6179SOL     OW19435   0.666   2.104   5.767
 6179SOL    HW119436   0.754   2.060   5.748
 6179SOL    HW219437   0.657   2.121   5.865
 6180SOL     OW19438   3.744   6.782   6.807
 6180SOL    HW119439   3.721   6.762   6.902
 6180SOL    HW219440   3.690   6.724   6.746
 6181SOL     OW19441   5.264   5.751   6.697
 6181SOL    HW119442   5.254   5.751   6.797
 6181SOL    HW219443   5.330   5.681   6.670
 6182SOL     OW19444   4.258   6.450   6.584
 6182SOL    HW119445   4.168   6.416   6.556
 6182SOL    HW219446   4.314   6.374   6.618
 6183SOL     OW19447   3.079   0.274   3.149
 6183SOL    HW119448   3.115   0.279   3.243
 6183SOL    HW219449   2.996   0.218   3.149
 6184SOL     OW19450   6.963   0.412   6.733
 6184SOL    HW119451   0.025   0.446   6.765
 6184SOL    HW219452   6.958   0.313   6.745
 6185SOL     OW19453   0.907   3.808   6.285
 6185SOL    HW119454   0.955   3.746   6.223
 6185SOL    HW219455   0.817   3.830   6.247
 6186SOL     OW19456   6.016   6.954   4.961
 6186SOL    HW119457   5.988   7.018   4.889
 6186SOL    HW219458   5.940   6.937   5.023
 6187SOL     OW19459   4.087   5.026   4.335
 6187SOL    HW119460   4.149   5.045   4.259
 6187SOL    HW219461   4.074   5.109   4.389
 6188SOL     OW19462   2.882   0.082   1.612
 6188SOL    HW119463   2.816   0.101   1.685
 6188SOL    HW219464   2.851   0.123   1.527
 6189SOL     OW19465   5.969   5.111   3.402
 6189SOL    HW119466   5.900   5.087   3.333
 6189SOL    HW219467   6.059   5.116   3.358
 6190SOL     OW19468   5.057   2.703   6.751
 6190SOL    HW119469   5.154   2.722   6.768
 6190SOL    HW219470   5.007   2.789   6.742
 6191SOL     OW19471   6.489   2.150   6.495
 6191SOL    HW119472   6.581   2.189   6.493
 6191SOL    HW219473   6.472   2.110   6.584
 6192SOL     OW19474   3.207   2.891   0.351
 6192SOL    HW119475   3.156   2.852   0.274
 6192SOL    HW219476   3.276   2.955   0.317
 6193SOL     OW19477   6.160   6.939   1.442
 6193SOL    HW119478   6.104   6.992   1.379
 6193SOL    HW219479   6.114   6.852   1.462
 6194SOL     OW19480   2.178   0.430   0.165
 6194SOL    HW119481   2.186   0.330   0.171
 6194SOL    HW219482   2.104   0.461   0.224
 6195SOL     OW19483   3.088   6.818   6.358
 6195SOL    HW119484   3.147   6.768   6.421
 6195SOL    HW219485   3.031   6.882   6.409
 6196SOL     OW19486   6.868   1.134   6.738
 6196SOL    HW119487   6.889   1.187   6.821
 6196SOL    HW219488   6.893   1.038   6.753
 6197SOL     OW19489   2.053   3.251   0.362
 6197SOL    HW119490   1.996   3.173   0.339
 6197SOL    HW219491   1.998   3.335   0.360
 6198SOL     OW19492   4.281   4.841   2.510
 6198SOL    HW119493   4.196   4.863   2.559
 6198SOL    HW219494   4.260   4.787   2.429
 6199SOL     OW19495   1.492   0.360   6.510
 6199SOL    HW119496   1.543   0.376   6.594
 6199SOL    HW219497   1.540   0.294   6.453
 6200SOL     OW19498   3.656   6.921   5.932
 6200SOL    HW119499   3.607   6.851   5.984
 6200SOL    HW219500   3.648   7.009   5.979
 6201SOL     OW19501   2.323   4.238   4.328
 6201SOL    HW119502   2.407   4.214   4.281
 6201SOL    HW219503   2.244   4.209   4.272
 6202SOL     OW19504   3.202   2.317   1.068
 6202SOL    HW119505   3.262   2.267   1.131
 6202SOL    HW219506   3.115   2.270   1.061
 6203SOL     OW19507   4.801   1.773   5.362
 6203SOL    HW119508   4.741   1.785   5.442
 6203SOL    HW219509   4.895   1.762   5.393
 6204SOL     OW19510   1.128   6.628   5.772
 6204SOL    HW119511   1.219   6.607   5.809
 6204SOL    HW219512   1.138   6.662   5.678
 6205SOL     OW19513   5.565   5.719   6.946
 6205SOL    HW119514   5.620   5.696   0.001
 6205SOL    HW219515   5.624   5.761   6.876
 6206SOL     OW19516   5.036   0.095   2.994
 6206SOL    HW119517   4.980   0.176   2.974
 6206SOL    HW219518   5.126   0.124   3.027
 6207SOL     OW19519   1.720   3.898   4.882
 6207SOL    HW119520   1.767   3.852   4.806
 6207SOL    HW219521   1.719   3.837   4.961
 6208SOL     OW19522   5.694   6.544   6.042
 6208SOL    HW119523   5.717   6.462   6.094
 6208SOL    HW219524   5.655   6.517   5.954
 6209SOL     OW19525   3.477   5.487   1.076
 6209SOL    HW119526   3.506   5.432   0.998
 6209SOL    HW219527   3.428   5.430   1.142
 6210SOL     OW19528   5.702   4.501   3.815
 6210SOL    HW119529   5.628   4.555   3.856
 6210SOL    HW219530   5.670   4.408   3.799
 6211SOL     OW19531   2.567   0.372   4.983
 6211SOL    HW119532   2.602   0.358   4.890
 6211SOL    HW219533   2.642   0.404   5.041
 6212SOL     OW19534   7.002   6.659   3.593
 6212SOL    HW119535   0.023   6.609   3.666
 6212SOL    HW219536   7.019   6.757   3.604
 6213SOL     OW19537   0.441   6.192   6.023
 6213SOL    HW119538   0.442   6.192   6.123
 6213SOL    HW219539   0.347   6.205   5.991
 6214SOL     OW19540   6.419   5.012   2.853
 6214SOL    HW119541   6.469   5.045   2.772
 6214SOL    HW219542   6.410   4.913   2.848
 6215SOL     OW19543   2.836   4.646   0.693
 6215SOL    HW119544   2.896   4.589   0.637
 6215SOL    HW219545   2.798   4.591   0.768
 6216SOL     OW19546   6.507   1.772   2.825
 6216SOL    HW119547   6.414   1.739   2.808
 6216SOL    HW219548   6.573   1.699   2.810
 6217SOL     OW19549   5.377   3.375   1.670
 6217SOL    HW119550   5.299   3.314   1.686
 6217SOL    HW219551   5.344   3.469   1.658
 6218SOL     OW19552   3.530   4.959   4.990
 6218SOL    HW119553   3.431   4.972   4.983
 6218SOL    HW219554   3.552   4.926   5.082
 6219SOL     OW19555   1.012   1.900   4.307
 6219SOL    HW119556   1.052   1.944   4.388
 6219SOL    HW219557   0.918   1.933   4.295
 6220SOL     OW19558   1.399   4.089   5.384
 6220SOL    HW119559   1.315   4.065   5.335
 6220SOL    HW219560   1.432   4.010   5.435
 6221SOL     OW19561   3.808   4.906   4.651
 6221SOL    HW119562   3.749   4.841   4.700
 6221SOL    HW219563   3.904   4.882   4.667
 6222SOL     OW19564   0.047   1.377   0.940
 6222SOL    HW119565   7.012   1.331   1.005
 6222SOL    HW219566   0.011   1.366   0.847
 6223SOL     OW19567   5.194   3.548   4.761
 6223SOL    HW119568   5.202   3.450   4.779
 6223SOL    HW219569   5.098   3.571   4.745
 6224SOL     OW19570   2.539   1.261   5.005
 6224SOL    HW119571   2.586   1.243   4.918
 6224SOL    HW219572   2.566   1.192   5.072
 6225SOL     OW19573   4.496   2.236   0.103
 6225SOL    HW119574   4.536   2.327   0.110
 6225SOL    HW219575   4.422   2.227   0.170
 6226SOL     OW19576   6.101   6.981   4.606
 6226SOL    HW119577   6.041   0.012   4.662
 6226SOL    HW219578   6.181   0.008   4.579
 6227SOL     OW19579   3.308   4.580   6.327
 6227SOL    HW119580   3.322   4.516   6.403
 6227SOL    HW219581   3.392   4.632   6.311
 6228SOL     OW19582   6.949   0.525   3.674
 6228SOL    HW119583   6.892   0.573   3.607
 6228SOL    HW219584   6.965   0.431   3.642
 6229SOL     OW19585   2.215   2.897   2.136
 6229SOL    HW119586   2.131   2.844   2.124
 6229SOL    HW219587   2.285   2.864   2.073
 6230SOL     OW19588   2.399   2.167   3.352
 6230SOL    HW119589   2.415   2.261   3.322
 6230SOL    HW219590   2.390   2.108   3.272
 6231SOL     OW19591   0.052   4.904   1.503
 6231SOL    HW119592   0.058   4.965   1.581
 6231SOL    HW219593   0.108   4.823   1.519
 6232SOL     OW19594   0.983   1.114   6.686
 6232SOL    HW119595   0.898   1.160   6.712
 6232SOL    HW219596   1.052   1.182   6.661
 6233SOL     OW19597   4.937   2.163   6.973
 6233SOL    HW119598   4.892   2.178   6.885
 6233SOL    HW219599   4.869   2.165   0.020
 6234SOL     OW19600   2.529   2.151   3.591
 6234SOL    HW119601   2.479   2.161   3.505
 6234SOL    HW219602   2.493   2.073   3.642
 6235SOL     OW19603   2.780   6.465   3.785
 6235SOL    HW119604   2.738   6.381   3.752
 6235SOL    HW219605   2.797   6.458   3.883
 6236SOL     OW19606   6.911   4.052   0.497
 6236SOL    HW119607   6.840   4.114   0.467
 6236SOL    HW219608   6.900   3.963   0.451
 6237SOL     OW19609   4.566   6.784   0.551
 6237SOL    HW119610   4.661   6.755   0.541
 6237SOL    HW219611   4.561   6.861   0.615
 6238SOL     OW19612   4.646   4.236   1.099
 6238SOL    HW119613   4.722   4.248   1.162
 6238SOL    HW219614   4.603   4.147   1.115
 6239SOL     OW19615   2.373   0.713   3.633
 6239SOL    HW119616   2.371   0.684   3.729
 6239SOL    HW219617   2.438   0.656   3.582
 6240SOL     OW19618   2.563   3.759   0.911
 6240SOL    HW119619   2.545   3.825   0.838
 6240SOL    HW219620   2.532   3.669   0.882
 6241SOL     OW19621   4.857   0.169   1.743
 6241SOL    HW119622   4.892   0.244   1.688
 6241SOL    HW219623   4.769   0.139   1.705
 6242SOL     OW19624   4.223   2.083   3.885
 6242SOL    HW119625   4.285   2.126   3.819
 6242SOL    HW219626   4.152   2.032   3.837
 6243SOL     OW19627   6.004   5.549   3.372
 6243SOL    HW119628   6.007   5.507   3.463
 6243SOL    HW219629   6.097   5.563   3.339
 6244SOL     OW19630   2.047   1.894   2.184
 6244SOL    HW119631   2.085   1.942   2.263
 6244SOL    HW219632   1.947   1.901   2.186
 6245SOL     OW19633   1.997   4.408   0.397
 6245SOL    HW119634   1.928   4.430   0.466
 6245SOL    HW219635   2.007   4.308   0.390
 6246SOL     OW19636   2.795   1.035   5.947
 6246SOL    HW119637   2.841   0.987   5.872
 6246SOL    HW219638   2.754   1.119   5.912
 6247SOL     OW19639   6.833   6.350   2.841
 6247SOL    HW119640   6.888   6.363   2.759
 6247SOL    HW219641   6.754   6.412   2.838
 6248SOL     OW19642   0.674   4.904   1.217
 6248SOL    HW119643   0.696   4.907   1.314
 6248SOL    HW219644   0.747   4.858   1.167
 6249SOL     OW19645   5.236   3.762   6.355
 6249SOL    HW119646   5.217   3.747   6.258
 6249SOL    HW219647   5.275   3.678   6.394
 6250SOL     OW19648   5.435   5.330   6.247
 6250SOL    HW119649   5.485   5.290   6.324
 6250SOL    HW219650   5.342   5.353   6.276
 6251SOL     OW19651   4.406   2.008   1.062
 6251SOL    HW119652   4.367   2.000   1.154
 6251SOL    HW219653   4.334   1.999   0.994
 6252SOL     OW19654   2.392   6.368   5.374
 6252SOL    HW119655   2.372   6.400   5.467
 6252SOL    HW219656   2.491   6.361   5.362
 6253SOL     OW19657   1.734   3.741   1.234
 6253SOL    HW119658   1.726   3.744   1.333
 6253SOL    HW219659   1.650   3.705   1.194
 6254SOL     OW19660   5.223   0.558   0.398
 6254SOL    HW119661   5.181   0.645   0.421
 6254SOL    HW219662   5.181   0.521   0.315
 6255SOL     OW19663   0.322   1.446   2.388
 6255SOL    HW119664   0.230   1.465   2.422
 6255SOL    HW219665   0.372   1.391   2.455
 6256SOL     OW19666   3.085   4.990   3.180
 6256SOL    HW119667   3.051   4.964   3.271
 6256SOL    HW219668   3.018   5.050   3.136
 6257SOL     OW19669   4.638   2.831   6.531
 6257SOL    HW119670   4.590   2.757   6.577
 6257SOL    HW219671   4.586   2.861   6.451
 6258SOL     OW19672   5.194   1.800   2.680
 6258SOL    HW119673   5.181   1.870   2.610
 6258SOL    HW219674   5.219   1.844   2.767
 6259SOL     OW19675   3.078   2.426   1.698
 6259SOL    HW119676   3.023   2.423   1.782
 6259SOL    HW219677   3.024   2.390   1.622
 6260SOL     OW19678   3.555   3.440   0.203
 6260SOL    HW119679   3.546   3.349   0.163
 6260SOL    HW219680   3.615   3.436   0.283
 6261SOL     OW19681   4.116   0.807   0.179
 6261SOL    HW119682   4.026   0.769   0.203
 6261SOL    HW219683   4.174   0.734   0.143
 6262SOL     OW19684   0.191   5.334   5.666
 6262SOL    HW119685   0.099   5.355   5.699
 6262SOL    HW219686   0.220   5.245   5.701
 6263SOL     OW19687   5.955   0.573   1.017
 6263SOL    HW119688   5.869   0.595   0.972
 6263SOL    HW219689   6.023   0.643   0.995
 6264SOL     OW19690   2.258   1.474   6.976
 6264SOL    HW119691   2.272   1.439   0.044
 6264SOL    HW219692   2.180   1.427   6.935
 6265SOL     OW19693   3.963   2.888   0.967
 6265SOL    HW119694   3.892   2.820   0.949
 6265SOL    HW219695   3.969   2.904   1.066
 6266SOL     OW19696   2.217   0.084   2.479
 6266SOL    HW119697   2.191   0.096   2.575
 6266SOL    HW219698   2.255   0.170   2.444
 6267SOL     OW19699   2.584   6.806   6.450
 6267SOL    HW119700   2.590   6.850   6.360
 6267SOL    HW219701   2.548   6.713   6.439
 6268SOL     OW19702   3.074   4.860   2.932
 6268SOL    HW119703   3.005   4.788   2.926
 6268SOL    HW219704   3.073   4.899   3.023
 6269SOL     OW19705   6.065   4.921   0.717
 6269SOL    HW119706   6.006   4.978   0.773
 6269SOL    HW219707   6.145   4.892   0.771
 6270SOL     OW19708   0.611   1.232   4.497
 6270SOL    HW119709   0.639   1.238   4.401
 6270SOL    HW219710   0.668   1.165   4.545
 6271SOL     OW19711   5.829   1.173   1.358
 6271SOL    HW119712   5.874   1.180   1.448
 6271SOL    HW219713   5.832   1.078   1.327
 6272SOL     OW19714   1.661   1.611   3.518
 6272SOL    HW119715   1.608   1.546   3.464
 6272SOL    HW219716   1.741   1.640   3.465
 6273SOL     OW19717   3.467   0.804   1.490
 6273SOL    HW119718   3.519   0.768   1.413
 6273SOL    HW219719   3.530   0.847   1.555
 6274SOL     OW19720   3.504   6.391   6.173
 6274SOL    HW119721   3.577   6.401   6.241
 6274SOL    HW219722   3.509   6.299   6.132
 6275SOL     OW19723   2.750   0.799   4.519
 6275SOL    HW119724   2.678   0.834   4.459
 6275SOL    HW219725   2.709   0.764   4.603
 6276SOL     OW19726   1.431   5.106   4.222
 6276SOL    HW119727   1.381   5.043   4.163
 6276SOL    HW219728   1.528   5.105   4.198
 6277SOL     OW19729   5.299   3.220   3.081
 6277SOL    HW119730   5.344   3.280   3.147
 6277SOL    HW219731   5.331   3.242   2.989
 6278SOL     OW19732   5.459   0.583   3.804
 6278SOL    HW119733   5.454   0.599   3.705
 6278SOL    HW219734   5.546   0.541   3.826
 6279SOL     OW19735   4.768   1.693   0.064
 6279SOL    HW119736   4.715   1.618   0.026
 6279SOL    HW219737   4.793   1.757   7.017
 6280SOL     OW19738   0.553   4.893   5.818
 6280SOL    HW119739   0.648   4.925   5.818
 6280SOL    HW219740   0.501   4.945   5.886
 6281SOL     OW19741   2.781   6.906   5.324
 6281SOL    HW119742   2.838   6.934   5.401
 6281SOL    HW219743   2.740   6.987   5.282
 6282SOL     OW19744   1.847   0.116   3.487
 6282SOL    HW119745   1.779   0.169   3.436
 6282SOL    HW219746   1.824   0.116   3.584
 6283SOL     OW19747   6.984   2.407   5.355
 6283SOL    HW119748   7.017   2.496   5.322
 6283SOL    HW219749   0.022   2.372   5.423
 6284SOL     OW19750   2.496   4.862   6.084
 6284SOL    HW119751   2.572   4.846   6.147
 6284SOL    HW219752   2.528   4.854   5.989
 6285SOL     OW19753   1.628   4.203   2.529
 6285SOL    HW119754   1.579   4.288   2.547
 6285SOL    HW219755   1.677   4.210   2.442
 6286SOL     OW19756   5.618   0.378   4.158
 6286SOL    HW119757   5.606   0.476   4.146
 6286SOL    HW219758   5.595   0.353   4.252
 6287SOL     OW19759   4.736   4.321   1.932
 6287SOL    HW119760   4.636   4.327   1.930
 6287SOL    HW219761   4.769   4.286   1.845
 6288SOL     OW19762   5.219   3.648   1.130
 6288SOL    HW119763   5.174   3.562   1.153
 6288SOL    HW219764   5.212   3.664   1.031
 6289SOL     OW19765   1.507   0.886   2.952
 6289SOL    HW119766   1.488   0.922   3.043
 6289SOL    HW219767   1.531   0.962   2.891
 6290SOL     OW19768   5.602   3.706   2.983
 6290SOL    HW119769   5.618   3.623   2.930
 6290SOL    HW219770   5.508   3.707   3.017
 6291SOL     OW19771   3.771   4.075   2.866
 6291SOL    HW119772   3.821   4.023   2.934
 6291SOL    HW219773   3.679   4.094   2.899
 6292SOL     OW19774   0.660   2.170   1.654
 6292SOL    HW119775   0.693   2.227   1.579
 6292SOL    HW219776   0.616   2.227   1.723
 6293SOL     OW19777   4.932   6.030   0.569
 6293SOL    HW119778   4.836   6.053   0.560
 6293SOL    HW219779   4.979   6.100   0.622
 6294SOL     OW19780   4.066   5.179   2.474
 6294SOL    HW119781   4.109   5.270   2.469
 6294SOL    HW219782   4.087   5.137   2.562
 6295SOL     OW19783   5.933   6.661   6.022
 6295SOL    HW119784   5.988   6.611   5.955
 6295SOL    HW219785   5.848   6.611   6.038
 6296SOL     OW19786   6.380   1.618   2.399
 6296SOL    HW119787   6.444   1.695   2.407
 6296SOL    HW219788   6.376   1.587   2.305
 6297SOL     OW19789   5.039   0.294   5.983
 6297SOL    HW119790   4.990   0.380   5.972
 6297SOL    HW219791   5.111   0.305   6.053
 6298SOL     OW19792   1.261   1.780   4.318
 6298SOL    HW119793   1.265   1.702   4.380
 6298SOL    HW219794   1.166   1.800   4.295
 6299SOL     OW19795   6.535   2.971   6.980
 6299SOL    HW119796   6.520   2.960   6.882
 6299SOL    HW219797   6.629   2.999   6.997
 6300SOL     OW19798   5.002   1.015   4.088
 6300SOL    HW119799   4.928   0.952   4.064
 6300SOL    HW219800   4.987   1.050   4.181
 6301SOL     OW19801   2.876   0.236   1.045
 6301SOL    HW119802   2.876   0.256   0.947
 6301SOL    HW219803   2.927   0.306   1.093
 6302SOL     OW19804   0.465   1.061   3.255
 6302SOL    HW119805   0.522   1.142   3.265
 6302SOL    HW219806   0.487   0.995   3.326
 6303SOL     OW19807   2.493   6.147   5.629
 6303SOL    HW119808   2.587   6.129   5.600
 6303SOL    HW219809   2.432   6.077   5.590
 6304SOL     OW19810   3.315   0.995   6.264
 6304SOL    HW119811   3.357   0.991   6.355
 6304SOL    HW219812   3.235   1.055   6.267
 6305SOL     OW19813   5.529   1.173   1.646
 6305SOL    HW119814   5.520   1.108   1.721
 6305SOL    HW219815   5.549   1.264   1.683
 6306SOL     OW19816   5.897   3.049   4.114
 6306SOL    HW119817   5.808   3.008   4.131
 6306SOL    HW219818   5.899   3.087   4.021
 6307SOL     OW19819   2.603   4.959   0.681
 6307SOL    HW119820   2.684   4.930   0.631
 6307SOL    HW219821   2.628   4.988   0.773
 6308SOL     OW19822   2.930   2.248   5.525
 6308SOL    HW119823   2.887   2.310   5.460
 6308SOL    HW219824   2.994   2.188   5.477
 6309SOL     OW19825   6.085   2.153   4.924
 6309SOL    HW119826   6.060   2.250   4.930
 6309SOL    HW219827   6.022   2.106   4.863
 6310SOL     OW19828   1.356   4.564   4.921
 6310SOL    HW119829   1.279   4.520   4.968
 6310SOL    HW219830   1.352   4.663   4.938
 6311SOL     OW19831   6.436   6.702   4.859
 6311SOL    HW119832   6.385   6.756   4.793
 6311SOL    HW219833   6.480   6.763   4.925
 6312SOL     OW19834   4.878   4.701   5.987
 6312SOL    HW119835   4.959   4.716   5.929
 6312SOL    HW219836   4.832   4.789   6.003
 6313SOL     OW19837   2.856   5.239   3.436
 6313SOL    HW119838   2.814   5.158   3.395
 6313SOL    HW219839   2.955   5.226   3.442
 6314SOL     OW19840   3.274   6.431   3.632
 6314SOL    HW119841   3.305   6.380   3.712
 6314SOL    HW219842   3.180   6.462   3.646
 6315SOL     OW19843   2.517   3.894   0.679
 6315SOL    HW119844   2.417   3.890   0.678
 6315SOL    HW219845   2.553   3.850   0.598
 6316SOL     OW19846   5.332   1.486   6.207
 6316SOL    HW119847   5.251   1.472   6.150
 6316SOL    HW219848   5.304   1.516   6.298
 6317SOL     OW19849   6.394   5.779   3.992
 6317SOL    HW119850   6.370   5.746   4.083
 6317SOL    HW219851   6.326   5.749   3.926
 6318SOL     OW19852   2.688   1.953   4.435
 6318SOL    HW119853   2.719   2.042   4.467
 6318SOL    HW219854   2.648   1.962   4.344
 6319SOL     OW19855   0.688   1.551   2.872
 6319SOL    HW119856   0.680   1.619   2.799
 6319SOL    HW219857   0.700   1.460   2.832
 6320SOL     OW19858   6.912   2.582   3.349
 6320SOL    HW119859   6.863   2.529   3.418
 6320SOL    HW219860   7.008   2.551   3.344
 6321SOL     OW19861   1.741   3.615   6.928
 6321SOL    HW119862   1.693   3.561   6.858
 6321SOL    HW219863   1.678   3.637   7.002
 6322SOL     OW19864   0.926   1.083   7.008
 6322SOL    HW119865   0.942   0.985   6.991
 6322SOL    HW219866   0.836   1.109   6.973
 6323SOL     OW19867   3.680   1.563   1.446
 6323SOL    HW119868   3.677   1.629   1.521
 6323SOL    HW219869   3.608   1.495   1.457
 6324SOL     OW19870   4.201   1.725   6.518
 6324SOL    HW119871   4.173   1.671   6.438
 6324SOL    HW219872   4.122   1.775   6.553
 6325SOL     OW19873   1.728   2.826   2.006
 6325SOL    HW119874   1.739   2.845   1.908
 6325SOL    HW219875   1.651   2.763   2.018
 6326SOL     OW19876   5.234   5.980   1.217
 6326SOL    HW119877   5.156   5.918   1.211
 6326SOL    HW219878   5.257   5.998   1.313
 6327SOL     OW19879   4.989   5.362   5.978
 6327SOL    HW119880   5.039   5.443   6.009
 6327SOL    HW219881   5.013   5.342   5.883
 6328SOL     OW19882   3.089   4.267   6.439
 6328SOL    HW119883   3.091   4.323   6.356
 6328SOL    HW219884   3.077   4.171   6.415
 6329SOL     OW19885   1.148   1.734   3.103
 6329SOL    HW119886   1.048   1.732   3.099
 6329SOL    HW219887   1.178   1.729   3.198
 6330SOL     OW19888   3.261   1.342   0.340
 6330SOL    HW119889   3.264   1.333   0.440
 6330SOL    HW219890   3.301   1.430   0.313
 6331SOL     OW19891   5.862   3.231   1.977
 6331SOL    HW119892   5.799   3.184   1.915
 6331SOL    HW219893   5.846   3.330   1.970
 6332SOL     OW19894   5.660   5.950   2.185
 6332SOL    HW119895   5.567   5.930   2.155
 6332SOL    HW219896   5.688   5.884   2.255
 6333SOL     OW19897   2.054   5.261   3.147
 6333SOL    HW119898   1.988   5.305   3.086
 6333SOL    HW219899   2.051   5.306   3.237
 6334SOL     OW19900   2.508   1.388   2.415
 6334SOL    HW119901   2.485   1.365   2.510
 6334SOL    HW219902   2.454   1.467   2.386
 6335SOL     OW19903   6.857   1.435   0.147
 6335SOL    HW119904   6.860   1.509   0.213
 6335SOL    HW219905   6.946   1.389   0.144
 6336SOL     OW19906   0.460   2.954   5.373
 6336SOL    HW119907   0.546   2.963   5.322
 6336SOL    HW219908   0.383   2.960   5.309
 6337SOL     OW19909   6.585   4.711   5.254
 6337SOL    HW119910   6.561   4.639   5.319
 6337SOL    HW219911   6.664   4.683   5.200
 6338SOL     OW19912   3.795   1.211   4.160
 6338SOL    HW119913   3.847   1.178   4.239
 6338SOL    HW219914   3.825   1.162   4.078
 6339SOL     OW19915   6.734   2.155   4.819
 6339SOL    HW119916   6.728   2.255   4.812
 6339SOL    HW219917   6.668   2.122   4.886
 6340SOL     OW19918   1.879   5.306   4.354
 6340SOL    HW119919   1.792   5.348   4.329
 6340SOL    HW219920   1.918   5.353   4.434
 6341SOL     OW19921   6.727   4.146   2.668
 6341SOL    HW119922   6.652   4.208   2.643
 6341SOL    HW219923   6.810   4.174   2.620
 6342SOL     OW19924   1.834   2.794   1.075
 6342SOL    HW119925   1.832   2.844   1.162
 6342SOL    HW219926   1.744   2.802   1.031
 6343SOL     OW19927   3.675   1.004   0.455
 6343SOL    HW119928   3.712   1.018   0.363
 6343SOL    HW219929   3.584   1.045   0.461
 6344SOL     OW19930   0.260   4.378   4.170
 6344SOL    HW119931   0.196   4.356   4.244
 6344SOL    HW219932   0.218   4.355   4.082
 6345SOL     OW19933   2.922   2.248   2.348
 6345SOL    HW119934   2.935   2.288   2.257
 6345SOL    HW219935   2.831   2.205   2.353
 6346SOL     OW19936   1.371   4.881   4.066
 6346SOL    HW119937   1.293   4.841   4.017
 6346SOL    HW219938   1.406   4.814   4.132
 6347SOL     OW19939   3.359   0.353   1.677
 6347SOL    HW119940   3.273   0.304   1.688
 6347SOL    HW219941   3.418   0.335   1.756
 6348SOL     OW19942   1.311   2.259   4.492
 6348SOL    HW119943   1.406   2.278   4.469
 6348SOL    HW219944   1.290   2.164   4.470
 6349SOL     OW19945   2.124   0.265   0.426
 6349SOL    HW119946   2.132   0.202   0.349
 6349SOL    HW219947   2.032   0.258   0.465
 6350SOL     OW19948   1.014   6.356   2.328
 6350SOL    HW119949   1.021   6.323   2.422
 6350SOL    HW219950   1.092   6.322   2.275
 6351SOL     OW19951   0.289   1.254   2.917
 6351SOL    HW119952   0.217   1.259   2.986
 6351SOL    HW219953   0.265   1.312   2.839
 6352SOL     OW19954   6.569   6.351   2.335
 6352SOL    HW119955   6.557   6.427   2.271
 6352SOL    HW219956   6.592   6.386   2.425
 6353SOL     OW19957   0.145   6.720   2.395
 6353SOL    HW119958   0.128   6.647   2.329
 6353SOL    HW219959   0.241   6.719   2.422
 6354SOL     OW19960   0.280   6.475   3.934
 6354SOL    HW119961   0.376   6.502   3.927
 6354SOL    HW219962   0.273   6.375   3.928
 6355SOL     OW19963   1.835   2.065   2.545
 6355SOL    HW119964   1.838   2.026   2.637
 6355SOL    HW219965   1.805   2.160   2.550
 6356SOL     OW19966   3.214   3.163   1.178
 6356SOL    HW119967   3.171   3.171   1.088
 6356SOL    HW219968   3.281   3.089   1.176
 6357SOL     OW19969   4.820   1.874   0.519
 6357SOL    HW119970   4.836   1.885   0.421
 6357SOL    HW219971   4.879   1.937   0.569
 6358SOL     OW19972   0.616   2.367   4.120
 6358SOL    HW119973   0.589   2.457   4.088
 6358SOL    HW219974   0.710   2.347   4.091
 6359SOL     OW19975   6.902   0.840   6.783
 6359SOL    HW119976   6.820   0.787   6.762
 6359SOL    HW219977   6.937   0.813   6.873
 6360SOL     OW19978   3.263   6.101   4.209
 6360SOL    HW119979   3.233   6.110   4.114
 6360SOL    HW219980   3.356   6.138   4.219
 6361SOL     OW19981   4.040   6.327   5.821
 6361SOL    HW119982   4.107   6.390   5.860
 6361SOL    HW219983   3.953   6.375   5.810
 6362SOL     OW19984   6.202   5.274   6.386
 6362SOL    HW119985   6.211   5.177   6.405
 6362SOL    HW219986   6.229   5.292   6.291
 6363SOL     OW19987   0.677   6.062   4.025
 6363SOL    HW119988   0.706   6.072   3.930
 6363SOL    HW219989   0.663   5.965   4.046
 6364SOL     OW19990   1.705   2.935   6.367
 6364SOL    HW119991   1.715   2.836   6.371
 6364SOL    HW219992   1.711   2.973   6.459
 6365SOL     OW19993   5.224   5.881   2.421
 6365SOL    HW119994   5.236   5.935   2.504
 6365SOL    HW219995   5.285   5.916   2.350
 6366SOL     OW19996   0.149   4.723   6.098
 6366SOL    HW119997   0.193   4.773   6.023
 6366SOL    HW219998   0.189   4.632   6.106
 6367SOL     OW19999   6.073   5.893   2.834
 6367SOL    HW120000   6.048   5.965   2.899
 6367SOL    HW220001   6.055   5.923   2.741
 6368SOL     OW20002   2.776   0.239   4.077
 6368SOL    HW120003   2.745   0.161   4.021
 6368SOL    HW220004   2.868   0.220   4.111
 6369SOL     OW20005   2.157   5.283   4.900
 6369SOL    HW120006   2.085   5.223   4.936
 6369SOL    HW220007   2.165   5.363   4.959
 6370SOL     OW20008   6.370   2.775   2.180
 6370SOL    HW120009   6.293   2.716   2.156
 6370SOL    HW220010   6.397   2.760   2.275
 6371SOL     OW20011   5.174   2.022   3.304
 6371SOL    HW120012   5.222   2.105   3.278
 6371SOL    HW220013   5.083   2.021   3.263
 6372SOL     OW20014   2.560   5.906   2.387
 6372SOL    HW120015   2.516   5.896   2.297
 6372SOL    HW220016   2.654   5.873   2.381
 6373SOL     OW20017   3.765   4.275   0.258
 6373SOL    HW120018   3.820   4.304   0.336
 6373SOL    HW220019   3.819   4.213   0.200
 6374SOL     OW20020   3.015   3.404   2.674
 6374SOL    HW120021   3.030   3.373   2.580
 6374SOL    HW220022   3.016   3.504   2.677
 6375SOL     OW20023   1.660   6.204   2.707
 6375SOL    HW120024   1.562   6.220   2.698
 6375SOL    HW220025   1.675   6.113   2.746
 6376SOL     OW20026   0.489   2.533   5.895
 6376SOL    HW120027   0.543   2.493   5.820
 6376SOL    HW220028   0.547   2.540   5.976
 6377SOL     OW20029   0.466   0.868   4.280
 6377SOL    HW120030   0.421   0.940   4.332
 6377SOL    HW220031   0.518   0.908   4.204
 6378SOL     OW20032   4.493   4.462   3.622
 6378SOL    HW120033   4.415   4.509   3.580
 6378SOL    HW220034   4.558   4.434   3.551
 6379SOL     OW20035   2.633   4.579   3.074
 6379SOL    HW120036   2.604   4.581   3.170
 6379SOL    HW220037   2.733   4.585   3.070
 6380SOL     OW20038   0.681   0.721   5.938
 6380SOL    HW120039   0.613   0.737   6.010
 6380SOL    HW220040   0.771   0.711   5.979
 6381SOL     OW20041   3.395   3.478   1.850
 6381SOL    HW120042   3.480   3.526   1.871
 6381SOL    HW220043   3.319   3.525   1.897
 6382SOL     OW20044   1.286   4.180   5.051
 6382SOL    HW120045   1.378   4.211   5.073
 6382SOL    HW220046   1.274   4.176   4.952
 6383SOL     OW20047   3.957   1.455   4.050
 6383SOL    HW120048   3.974   1.358   4.031
 6383SOL    HW220049   3.979   1.475   4.145
 6384SOL     OW20050   6.144   4.435   2.915
 6384SOL    HW120051   6.230   4.385   2.927
 6384SOL    HW220052   6.068   4.371   2.907
 6385SOL     OW20053   0.639   5.895   4.570
 6385SOL    HW120054   0.645   5.896   4.471
 6385SOL    HW220055   0.687   5.975   4.607
 6386SOL     OW20056   2.784   5.626   1.717
 6386SOL    HW120057   2.694   5.633   1.672
 6386SOL    HW220058   2.802   5.531   1.741
 6387SOL     OW20059   6.449   1.754   4.937
 6387SOL    HW120060   6.443   1.847   4.972
 6387SOL    HW220061   6.544   1.723   4.940
 6388SOL     OW20062   2.260   4.513   2.853
 6388SOL    HW120063   2.346   4.562   2.868
 6388SOL    HW220064   2.185   4.567   2.891
 6389SOL     OW20065   0.876   4.854   2.187
 6389SOL    HW120066   0.794   4.902   2.219
 6389SOL    HW220067   0.943   4.849   2.261
 6390SOL     OW20068   0.452   3.909   3.942
 6390SOL    HW120069   0.521   3.892   3.871
 6390SOL    HW220070   0.376   3.846   3.930
 6391SOL     OW20071   3.356   1.258   6.914
 6391SOL    HW120072   3.379   1.284   6.820
 6391SOL    HW220073   3.263   1.220   6.916
 6392SOL     OW20074   1.467   6.469   4.000
 6392SOL    HW120075   1.465   6.371   4.019
 6392SOL    HW220076   1.532   6.513   4.062
 6393SOL     OW20077   5.380   0.820   0.465
 6393SOL    HW120078   5.349   0.847   0.556
 6393SOL    HW220079   5.325   0.743   0.432
 6394SOL     OW20080   3.195   4.842   1.484
 6394SOL    HW120081   3.171   4.796   1.570
 6394SOL    HW220082   3.226   4.773   1.418
 6395SOL     OW20083   5.574   0.789   1.130
 6395SOL    HW120084   5.536   0.705   1.169
 6395SOL    HW220085   5.559   0.864   1.194
 6396SOL     OW20086   5.614   3.723   5.331
 6396SOL    HW120087   5.606   3.723   5.430
 6396SOL    HW220088   5.626   3.629   5.298
 6397SOL     OW20089   7.014   0.941   0.392
 6397SOL    HW120090   6.954   0.984   0.460
 6397SOL    HW220091   6.978   0.850   0.369
 6398SOL     OW20092   3.728   1.078   1.381
 6398SOL    HW120093   3.628   1.084   1.371
 6398SOL    HW220094   3.751   1.076   1.478
 6399SOL     OW20095   2.712   5.950   0.124
 6399SOL    HW120096   2.773   5.905   0.059
 6399SOL    HW220097   2.617   5.938   0.095
 6400SOL     OW20098   2.826   5.507   4.133
 6400SOL    HW120099   2.764   5.532   4.208
 6400SOL    HW220100   2.819   5.575   4.060
 6401SOL     OW20101   1.045   4.537   4.372
 6401SOL    HW120102   1.111   4.479   4.419
 6401SOL    HW220103   0.981   4.479   4.321
 6402SOL     OW20104   1.805   2.164   3.129
 6402SOL    HW120105   1.738   2.130   3.195
 6402SOL    HW220106   1.870   2.225   3.175
 6403SOL     OW20107   0.443   5.801   1.486
 6403SOL    HW120108   0.537   5.828   1.464
 6403SOL    HW220109   0.419   5.719   1.435
 6404SOL     OW20110   4.931   1.204   3.047
 6404SOL    HW120111   4.942   1.106   3.030
 6404SOL    HW220112   4.949   1.254   2.962
 6405SOL     OW20113   2.872   1.385   2.150
 6405SOL    HW120114   2.882   1.475   2.194
 6405SOL    HW220115   2.800   1.390   2.081
 6406SOL     OW20116   2.780   1.901   3.548
 6406SOL    HW120117   2.747   1.995   3.543
 6406SOL    HW220118   2.725   1.842   3.489
 6407SOL     OW20119   4.414   5.173   6.393
 6407SOL    HW120120   4.332   5.223   6.419
 6407SOL    HW220121   4.427   5.096   6.456
 6408SOL     OW20122   6.253   1.618   0.465
 6408SOL    HW120123   6.258   1.690   0.535
 6408SOL    HW220124   6.212   1.536   0.505
 6409SOL     OW20125   0.784   4.591   2.323
 6409SOL    HW120126   0.820   4.675   2.283
 6409SOL    HW220127   0.847   4.515   2.304
 6410SOL     OW20128   1.154   1.400   1.681
 6410SOL    HW120129   1.152   1.339   1.601
 6410SOL    HW220130   1.233   1.461   1.674
 6411SOL     OW20131   2.045   0.528   3.143
 6411SOL    HW120132   2.102   0.502   3.065
 6411SOL    HW220133   2.037   0.627   3.147
 6412SOL     OW20134   0.017   2.042   4.947
 6412SOL    HW120135   0.005   2.107   4.872
 6412SOL    HW220136   6.987   1.961   4.929
 6413SOL     OW20137   0.374   4.310   0.512
 6413SOL    HW120138   0.375   4.407   0.533
 6413SOL    HW220139   0.392   4.257   0.595
 6414SOL     OW20140   6.435   6.652   2.571
 6414SOL    HW120141   6.366   6.680   2.505
 6414SOL    HW220142   6.463   6.731   2.625
 6415SOL     OW20143   1.377   1.698   1.863
 6415SOL    HW120144   1.333   1.701   1.953
 6415SOL    HW220145   1.407   1.604   1.844
 6416SOL     OW20146   1.987   6.800   6.367
 6416SOL    HW120147   2.021   6.760   6.282
 6416SOL    HW220148   1.997   6.735   6.442
 6417SOL     OW20149   0.749   6.606   3.073
 6417SOL    HW120150   0.687   6.530   3.090
 6417SOL    HW220151   0.826   6.574   3.018
 6418SOL     OW20152   6.683   6.028   2.687
 6418SOL    HW120153   6.600   6.078   2.711
 6418SOL    HW220154   6.729   6.074   2.612
 6419SOL     OW20155   2.845   4.596   1.450
 6419SOL    HW120156   2.834   4.628   1.356
 6419SOL    HW220157   2.817   4.501   1.457
 6420SOL     OW20158   0.706   3.585   0.049
 6420SOL    HW120159   0.697   3.674   0.004
 6420SOL    HW220160   0.737   3.517   7.009
 6421SOL     OW20161   5.848   1.990   1.266
 6421SOL    HW120162   5.823   2.016   1.359
 6421SOL    HW220163   5.925   1.927   1.268
 6422SOL     OW20164   6.133   1.712   3.940
 6422SOL    HW120165   6.209   1.707   3.876
 6422SOL    HW220166   6.083   1.798   3.926
 6423SOL     OW20167   4.922   4.459   0.880
 6423SOL    HW120168   5.008   4.418   0.849
 6423SOL    HW220169   4.846   4.397   0.861
 6424SOL     OW20170   6.600   5.187   5.128
 6424SOL    HW120171   6.672   5.256   5.114
 6424SOL    HW220172   6.608   5.117   5.058
 6425SOL     OW20173   0.427   4.771   1.265
 6425SOL    HW120174   0.421   4.720   1.179
 6425SOL    HW220175   0.505   4.833   1.262
 6426SOL     OW20176   6.711   3.016   3.605
 6426SOL    HW120177   6.793   2.972   3.643
 6426SOL    HW220178   6.735   3.107   3.571
 6427SOL     OW20179   1.036   3.108   5.901
 6427SOL    HW120180   1.082   3.101   5.990
 6427SOL    HW220181   0.953   3.164   5.911
 6428SOL     OW20182   6.415   2.790   2.758
 6428SOL    HW120183   6.472   2.860   2.714
 6428SOL    HW220184   6.473   2.726   2.808
 6429SOL     OW20185   1.029   0.681   4.367
 6429SOL    HW120186   1.126   0.693   4.391
 6429SOL    HW220187   0.998   0.591   4.399
 6430SOL     OW20188   5.962   3.642   0.432
 6430SOL    HW120189   6.052   3.607   0.456
 6430SOL    HW220190   5.897   3.566   0.423
 6431SOL     OW20191   5.289   0.728   3.196
 6431SOL    HW120192   5.375   0.740   3.246
 6431SOL    HW220193   5.212   0.747   3.257
 6432SOL     OW20194   5.999   3.527   0.125
 6432SOL    HW120195   5.949   3.462   0.180
 6432SOL    HW220196   5.936   3.579   0.068
 6433SOL     OW20197   2.586   3.817   1.681
 6433SOL    HW120198   2.646   3.890   1.648
 6433SOL    HW220199   2.513   3.857   1.738
 6434SOL     OW20200   2.105   5.624   0.223
 6434SOL    HW120201   2.184   5.575   0.188
 6434SOL    HW220202   2.135   5.700   0.280
 6435SOL     OW20203   4.787   3.855   0.345
 6435SOL    HW120204   4.882   3.857   0.314
 6435SOL    HW220205   4.785   3.835   0.443
 6436SOL     OW20206   1.667   3.076   2.577
 6436SOL    HW120207   1.747   3.065   2.636
 6436SOL    HW220208   1.697   3.091   2.483
 6437SOL     OW20209   0.415   0.555   6.769
 6437SOL    HW120210   0.335   0.518   6.816
 6437SOL    HW220211   0.387   0.600   6.685
 6438SOL     OW20212   0.976   3.424   3.634
 6438SOL    HW120213   1.026   3.410   3.548
 6438SOL    HW220214   0.917   3.345   3.651
 6439SOL     OW20215   6.972   6.765   2.161
 6439SOL    HW120216   6.891   6.709   2.145
 6439SOL    HW220217   0.026   6.720   2.121
 6440SOL     OW20218   0.514   0.984   2.276
 6440SOL    HW120219   0.454   1.050   2.230
 6440SOL    HW220220   0.550   1.025   2.360
 6441SOL     OW20221   3.658   1.275   3.446
 6441SOL    HW120222   3.732   1.304   3.506
 6441SOL    HW220223   3.642   1.345   3.376
 6442SOL     OW20224   3.350   0.550   3.724
 6442SOL    HW120225   3.419   0.608   3.681
 6442SOL    HW220226   3.388   0.459   3.740
 6443SOL     OW20227   2.301   1.295   0.404
 6443SOL    HW120228   2.288   1.223   0.473
 6443SOL    HW220229   2.377   1.354   0.430
 6444SOL     OW20230   0.718   0.883   3.662
 6444SOL    HW120231   0.795   0.846   3.714
 6444SOL    HW220232   0.741   0.973   3.626
 6445SOL     OW20233   3.645   3.525   5.581
 6445SOL    HW120234   3.702   3.444   5.595
 6445SOL    HW220235   3.571   3.525   5.647
 6446SOL     OW20236   6.322   1.589   0.749
 6446SOL    HW120237   6.373   1.508   0.723
 6446SOL    HW220238   6.384   1.668   0.751
 6447SOL     OW20239   1.843   0.298   2.711
 6447SOL    HW120240   1.802   0.225   2.657
 6447SOL    HW220241   1.818   0.387   2.671
 6448SOL     OW20242   6.283   2.364   2.543
 6448SOL    HW120243   6.200   2.411   2.512
 6448SOL    HW220244   6.301   2.286   2.483
 6449SOL     OW20245   3.536   3.131   1.386
 6449SOL    HW120246   3.556   3.121   1.288
 6449SOL    HW220247   3.472   3.059   1.413
 6450SOL     OW20248   6.756   3.443   7.002
 6450SOL    HW120249   6.742   3.406   6.910
 6450SOL    HW220250   6.702   3.391   0.042
 6451SOL     OW20251   1.817   6.709   4.326
 6451SOL    HW120252   1.900   6.759   4.301
 6451SOL    HW220253   1.811   6.704   4.426
 6452SOL     OW20254   4.308   6.363   3.346
 6452SOL    HW120255   4.330   6.368   3.444
 6452SOL    HW220256   4.328   6.452   3.303
 6453SOL     OW20257   2.259   4.195   6.384
 6453SOL    HW120258   2.316   4.265   6.341
 6453SOL    HW220259   2.210   4.143   6.314
 6454SOL     OW20260   2.857   1.414   4.417
 6454SOL    HW120261   2.821   1.507   4.428
 6454SOL    HW220262   2.941   1.405   4.470
 6455SOL     OW20263   6.689   2.798   5.194
 6455SOL    HW120264   6.654   2.884   5.231
 6455SOL    HW220265   6.668   2.724   5.259
 6456SOL     OW20266   6.758   0.990   4.414
 6456SOL    HW120267   6.800   0.903   4.441
 6456SOL    HW220268   6.669   0.974   4.372
 6457SOL     OW20269   6.334   3.062   1.996
 6457SOL    HW120270   6.347   3.146   2.047
 6457SOL    HW220271   6.419   3.010   1.993
 6458SOL     OW20272   1.482   5.953   2.521
 6458SOL    HW120273   1.515   5.977   2.613
 6458SOL    HW220274   1.384   5.971   2.515
 6459SOL     OW20275   5.402   4.549   0.504
 6459SOL    HW120276   5.345   4.468   0.521
 6459SOL    HW220277   5.497   4.526   0.522
 6460SOL     OW20278   3.323   4.833   0.014
 6460SOL    HW120279   3.397   4.854   0.077
 6460SOL    HW220280   3.341   4.875   6.951
 6461SOL     OW20281   3.939   5.392   4.719
 6461SOL    HW120282   4.002   5.336   4.773
 6461SOL    HW220283   3.895   5.459   4.778
 6462SOL     OW20284   1.949   2.848   3.648
 6462SOL    HW120285   2.027   2.907   3.628
 6462SOL    HW220286   1.949   2.769   3.587
 6463SOL     OW20287   1.173   4.622   5.276
 6463SOL    HW120288   1.139   4.541   5.229
 6463SOL    HW220289   1.257   4.599   5.326
 6464SOL     OW20290   0.737   5.650   2.565
 6464SOL    HW120291   0.656   5.691   2.523
 6464SOL    HW220292   0.796   5.614   2.493
 6465SOL     OW20293   6.441   0.849   2.692
 6465SOL    HW120294   6.519   0.866   2.753
 6465SOL    HW220295   6.467   0.783   2.622
 6466SOL     OW20296   0.273   2.387   5.507
 6466SOL    HW120297   0.362   2.408   5.466
 6466SOL    HW220298   0.247   2.461   5.569
 6467SOL     OW20299   2.794   1.007   6.436
 6467SOL    HW120300   2.727   0.940   6.466
 6467SOL    HW220301   2.837   1.049   6.517
 6468SOL     OW20302   4.571   4.485   1.199
 6468SOL    HW120303   4.628   4.412   1.161
 6468SOL    HW220304   4.619   4.572   1.193
 6469SOL     OW20305   6.734   1.105   5.931
 6469SOL    HW120306   6.701   1.148   5.847
 6469SOL    HW220307   6.833   1.119   5.939
 6470SOL     OW20308   6.527   6.247   5.394
 6470SOL    HW120309   6.476   6.331   5.413
 6470SOL    HW220310   6.625   6.267   5.394
 6471SOL     OW20311   5.589   5.463   6.055
 6471SOL    HW120312   5.526   5.436   6.128
 6471SOL    HW220313   5.544   5.528   5.994
 6472SOL     OW20314   1.192   5.604   1.031
 6472SOL    HW120315   1.230   5.649   1.111
 6472SOL    HW220316   1.236   5.639   0.948
 6473SOL     OW20317   2.254   1.363   5.396
 6473SOL    HW120318   2.346   1.400   5.386
 6473SOL    HW220319   2.243   1.326   5.488
 6474SOL     OW20320   2.482   3.376   5.435
 6474SOL    HW120321   2.501   3.437   5.511
 6474SOL    HW220322   2.434   3.426   5.363
 6475SOL     OW20323   4.470   6.387   3.857
 6475SOL    HW120324   4.530   6.462   3.883
 6475SOL    HW220325   4.412   6.362   3.935
 6476SOL     OW20326   5.000   4.861   2.615
 6476SOL    HW120327   5.017   4.837   2.710
 6476SOL    HW220328   5.073   4.921   2.582
 6477SOL     OW20329   0.158   6.332   6.307
 6477SOL    HW120330   0.228   6.363   6.372
 6477SOL    HW220331   0.145   6.401   6.237
 6478SOL     OW20332   5.072   6.257   0.735
 6478SOL    HW120333   5.171   6.244   0.722
 6478SOL    HW220334   5.052   6.259   0.833
 6479SOL     OW20335   4.264   5.961   2.585
 6479SOL    HW120336   4.205   5.880   2.578
 6479SOL    HW220337   4.291   5.974   2.680
 6480SOL     OW20338   2.698   1.759   0.433
 6480SOL    HW120339   2.635   1.829   0.399
 6480SOL    HW220340   2.792   1.787   0.415
 6481SOL     OW20341   4.511   1.017   1.351
 6481SOL    HW120342   4.430   1.022   1.409
 6481SOL    HW220343   4.583   1.076   1.388
 6482SOL     OW20344   0.257   0.733   6.984
 6482SOL    HW120345   0.184   0.794   6.952
 6482SOL    HW220346   0.300   0.689   6.905
 6483SOL     OW20347   2.038   6.208   2.380
 6483SOL    HW120348   2.125   6.160   2.376
 6483SOL    HW220349   2.008   6.216   2.475
 6484SOL     OW20350   5.371   5.920   3.409
 6484SOL    HW120351   5.387   5.914   3.507
 6484SOL    HW220352   5.456   5.899   3.360
 6485SOL     OW20353   0.956   2.551   3.645
 6485SOL    HW120354   0.920   2.601   3.566
 6485SOL    HW220355   0.967   2.455   3.621
 6486SOL     OW20356   1.842   2.915   3.247
 6486SOL    HW120357   1.852   2.978   3.170
 6486SOL    HW220358   1.780   2.954   3.314
 6487SOL     OW20359   5.878   5.782   3.450
 6487SOL    HW120360   5.850   5.800   3.544
 6487SOL    HW220361   5.894   5.685   3.438
 6488SOL     OW20362   3.441   4.986   6.309
 6488SOL    HW120363   3.508   5.027   6.246
 6488SOL    HW220364   3.453   4.887   6.310
 6489SOL     OW20365   1.863   2.430   5.639
 6489SOL    HW120366   1.861   2.522   5.600
 6489SOL    HW220367   1.957   2.398   5.646
 6490SOL     OW20368   3.679   1.464   0.491
 6490SOL    HW120369   3.684   1.447   0.392
 6490SOL    HW220370   3.719   1.387   0.540
 6491SOL     OW20371   3.685   1.557   6.372
 6491SOL    HW120372   3.700   1.458   6.370
 6491SOL    HW220373   3.623   1.583   6.298
 6492SOL     OW20374   6.031   5.522   6.646
 6492SOL    HW120375   5.984   5.609   6.659
 6492SOL    HW220376   6.115   5.537   6.593
 6493SOL     OW20377   0.975   6.409   5.710
 6493SOL    HW120378   1.043   6.478   5.734
 6493SOL    HW220379   0.946   6.361   5.793
 6494SOL     OW20380   1.504   0.174   3.377
 6494SOL    HW120381   1.566   0.251   3.397
 6494SOL    HW220382   1.554   0.088   3.388
 6495SOL     OW20383   5.320   5.290   2.118
 6495SOL    HW120384   5.414   5.316   2.140
 6495SOL    HW220385   5.264   5.295   2.201
 6496SOL     OW20386   1.989   6.787   3.203
 6496SOL    HW120387   1.926   6.813   3.129
 6496SOL    HW220388   2.012   6.868   3.257
 6497SOL     OW20389   0.307   5.331   0.128
 6497SOL    HW120390   0.276   5.425   0.115
 6497SOL    HW220391   0.267   5.272   0.058
 6498SOL     OW20392   1.599   4.255   3.641
 6498SOL    HW120393   1.675   4.233   3.581
 6498SOL    HW220394   1.605   4.200   3.724
 6499SOL     OW20395   5.979   1.095   3.792
 6499SOL    HW120396   5.979   1.086   3.891
 6499SOL    HW220397   5.886   1.085   3.757
 6500SOL     OW20398   5.300   4.664   3.572
 6500SOL    HW120399   5.215   4.644   3.523
 6500SOL    HW220400   5.356   4.726   3.517
 6501SOL     OW20401   6.793   3.748   1.106
 6501SOL    HW120402   6.785   3.655   1.069
 6501SOL    HW220403   6.837   3.745   1.195
 6502SOL     OW20404   1.282   5.014   2.344
 6502SOL    HW120405   1.347   4.960   2.291
 6502SOL    HW220406   1.307   5.012   2.441
 6503SOL     OW20407   4.136   0.393   4.349
 6503SOL    HW120408   4.099   0.421   4.437
 6503SOL    HW220409   4.079   0.321   4.309
 6504SOL     OW20410   2.308   1.146   0.631
 6504SOL    HW120411   2.320   1.209   0.708
 6504SOL    HW220412   2.248   1.071   0.658
 6505SOL     OW20413   5.715   5.258   1.070
 6505SOL    HW120414   5.703   5.280   0.973
 6505SOL    HW220415   5.630   5.279   1.119
 6506SOL     OW20416   1.819   2.266   0.764
 6506SOL    HW120417   1.895   2.203   0.753
 6506SOL    HW220418   1.823   2.308   0.855
 6507SOL     OW20419   2.647   0.711   2.204
 6507SOL    HW120420   2.683   0.804   2.210
 6507SOL    HW220421   2.626   0.677   2.296
 6508SOL     OW20422   2.275   1.675   2.436
 6508SOL    HW120423   2.238   1.697   2.526
 6508SOL    HW220424   2.298   1.759   2.388
 6509SOL     OW20425   0.700   2.717   4.746
 6509SOL    HW120426   0.601   2.726   4.756
 6509SOL    HW220427   0.735   2.796   4.696
 6510SOL     OW20428   5.536   5.156   6.444
 6510SOL    HW120429   5.579   5.072   6.410
 6510SOL    HW220430   5.511   5.144   6.540
 6511SOL     OW20431   6.033   6.253   5.412
 6511SOL    HW120432   5.936   6.234   5.403
 6511SOL    HW220433   6.054   6.280   5.506
 6512SOL     OW20434   5.409   6.569   3.950
 6512SOL    HW120435   5.425   6.583   4.048
 6512SOL    HW220436   5.378   6.475   3.934
 6513SOL     OW20437   2.981   6.818   2.834
 6513SOL    HW120438   3.048   6.889   2.851
 6513SOL    HW220439   2.935   6.836   2.747
 6514SOL     OW20440   3.630   6.961   3.304
 6514SOL    HW120441   3.669   6.878   3.265
 6514SOL    HW220442   3.675   6.983   3.390
 6515SOL     OW20443   0.963   1.156   4.315
 6515SOL    HW120444   1.048   1.115   4.281
 6515SOL    HW220445   0.972   1.174   4.413
 6516SOL     OW20446   1.601   1.344   5.420
 6516SOL    HW120447   1.545   1.286   5.480
 6516SOL    HW220448   1.563   1.343   5.328
 6517SOL     OW20449   1.457   2.033   7.019
 6517SOL    HW120450   1.372   2.048   6.968
 6517SOL    HW220451   1.534   2.073   6.969
 6518SOL     OW20452   5.951   6.637   0.395
 6518SOL    HW120453   5.967   6.715   0.334
 6518SOL    HW220454   6.038   6.594   0.417
 6519SOL     OW20455   2.284   1.876   3.470
 6519SOL    HW120456   2.345   1.807   3.509
 6519SOL    HW220457   2.292   1.875   3.370
 6520SOL     OW20458   5.396   4.923   1.736
 6520SOL    HW120459   5.381   4.884   1.645
 6520SOL    HW220460   5.488   4.962   1.741
 6521SOL     OW20461   1.223   1.697   5.517
 6521SOL    HW120462   1.319   1.690   5.490
 6521SOL    HW220463   1.165   1.687   5.436
 6522SOL     OW20464   2.445   5.208   5.195
 6522SOL    HW120465   2.459   5.272   5.270
 6522SOL    HW220466   2.477   5.117   5.222
 6523SOL     OW20467   1.596   2.388   6.817
 6523SOL    HW120468   1.667   2.318   6.823
 6523SOL    HW220469   1.506   2.344   6.817
 6524SOL     OW20470   3.491   4.160   4.310
 6524SOL    HW120471   3.397   4.193   4.299
 6524SOL    HW220472   3.489   4.065   4.341
 6525SOL     OW20473   0.544   2.743   4.387
 6525SOL    HW120474   0.509   2.828   4.425
 6525SOL    HW220475   0.565   2.755   4.290
 6526SOL     OW20476   1.814   5.937   4.519
 6526SOL    HW120477   1.775   5.870   4.457
 6526SOL    HW220478   1.826   6.024   4.472
 6527SOL     OW20479   2.523   0.877   4.403
 6527SOL    HW120480   2.427   0.855   4.391
 6527SOL    HW220481   2.544   0.964   4.359
 6528SOL     OW20482   6.438   6.760   3.260
 6528SOL    HW120483   6.395   6.802   3.340
 6528SOL    HW220484   6.462   6.831   3.195
 6529SOL     OW20485   6.623   2.627   1.832
 6529SOL    HW120486   6.715   2.588   1.839
 6529SOL    HW220487   6.567   2.570   1.772
 6530SOL     OW20488   6.681   2.223   0.853
 6530SOL    HW120489   6.661   2.321   0.843
 6530SOL    HW220490   6.775   2.211   0.884
 6531SOL     OW20491   5.437   2.690   4.097
 6531SOL    HW120492   5.454   2.594   4.076
 6531SOL    HW220493   5.452   2.706   4.195
 6532SOL     OW20494   0.690   2.120   6.355
 6532SOL    HW120495   0.786   2.097   6.373
 6532SOL    HW220496   0.632   2.044   6.383
 6533SOL     OW20497   4.839   1.448   0.815
 6533SOL    HW120498   4.828   1.370   0.753
 6533SOL    HW220499   4.803   1.424   0.905
 6534SOL     OW20500   1.819   3.405   0.473
 6534SOL    HW120501   1.780   3.459   0.398
 6534SOL    HW220502   1.834   3.464   0.552
 6535SOL     OW20503   2.059   3.678   5.826
 6535SOL    HW120504   2.118   3.757   5.814
 6535SOL    HW220505   2.036   3.639   5.737
 6536SOL     OW20506   6.857   2.434   0.059
 6536SOL    HW120507   6.765   2.430   0.098
 6536SOL    HW220508   6.924   2.410   0.129
 6537SOL     OW20509   0.358   6.718   6.971
 6537SOL    HW120510   0.451   6.747   6.949
 6537SOL    HW220511   0.296   6.749   6.900
 6538SOL     OW20512   1.836   3.441   6.173
 6538SOL    HW120513   1.769   3.418   6.102
 6538SOL    HW220514   1.810   3.397   6.259
 6539SOL     OW20515   2.332   1.577   6.319
 6539SOL    HW120516   2.385   1.500   6.355
 6539SOL    HW220517   2.395   1.647   6.284
 6540SOL     OW20518   3.471   1.471   3.956
 6540SOL    HW120519   3.439   1.554   3.910
 6540SOL    HW220520   3.522   1.415   3.892
 6541SOL     OW20521   2.571   2.556   5.421
 6541SOL    HW120522   2.668   2.567   5.442
 6541SOL    HW220523   2.546   2.619   5.347
 6542SOL     OW20524   5.568   4.344   3.492
 6542SOL    HW120525   5.631   4.358   3.415
 6542SOL    HW220526   5.490   4.290   3.461
 6543SOL     OW20527   0.119   5.628   6.722
 6543SOL    HW120528   0.033   5.676   6.705
 6543SOL    HW220529   0.195   5.687   6.696
 6544SOL     OW20530   6.274   6.168   3.820
 6544SOL    HW120531   6.240   6.104   3.751
 6544SOL    HW220532   6.310   6.250   3.775
 6545SOL     OW20533   5.226   2.679   5.807
 6545SOL    HW120534   5.175   2.750   5.858
 6545SOL    HW220535   5.319   2.673   5.844
 6546SOL     OW20536   3.385   4.505   5.923
 6546SOL    HW120537   3.312   4.458   5.874
 6546SOL    HW220538   3.346   4.577   5.980
 6547SOL     OW20539   5.027   1.668   6.807
 6547SOL    HW120540   4.999   1.582   6.763
 6547SOL    HW220541   4.994   1.745   6.753
 6548SOL     OW20542   6.277   4.865   5.029
 6548SOL    HW120543   6.196   4.924   5.026
 6548SOL    HW220544   6.359   4.921   5.041
 6549SOL     OW20545   3.118   1.420   1.590
 6549SOL    HW120546   3.132   1.506   1.540
 6549SOL    HW220547   3.045   1.432   1.657
 6550SOL     OW20548   0.956   5.554   3.166
 6550SOL    HW120549   0.905   5.470   3.182
 6550SOL    HW220550   0.920   5.599   3.084
 6551SOL     OW20551   2.544   4.862   2.221
 6551SOL    HW120552   2.507   4.943   2.176
 6551SOL    HW220553   2.565   4.792   2.153
 6552SOL     OW20554   4.310   4.848   6.498
 6552SOL    HW120555   4.323   4.935   6.547
 6552SOL    HW220556   4.339   4.772   6.555
 6553SOL     OW20557   0.129   2.923   2.844
 6553SOL    HW120558   0.220   2.884   2.855
 6553SOL    HW220559   0.093   2.950   2.934
 6554SOL     OW20560   0.322   3.269   4.957
 6554SOL    HW120561   0.319   3.327   5.039
 6554SOL    HW220562   0.305   3.325   4.876
 6555SOL     OW20563   0.624   1.589   2.058
 6555SOL    HW120564   0.528   1.600   2.082
 6555SOL    HW220565   0.640   1.496   2.025
 6556SOL     OW20566   3.405   0.361   4.377
 6556SOL    HW120567   3.448   0.299   4.442
 6556SOL    HW220568   3.394   0.314   4.289
 6557SOL     OW20569   6.101   6.216   1.352
 6557SOL    HW120570   6.036   6.257   1.417
 6557SOL    HW220571   6.085   6.118   1.346
 6558SOL     OW20572   6.810   5.686   6.387
 6558SOL    HW120573   6.892   5.630   6.376
 6558SOL    HW220574   6.767   5.666   6.475
 6559SOL     OW20575   3.601   3.136   1.119
 6559SOL    HW120576   3.563   3.079   1.046
 6559SOL    HW220577   3.634   3.222   1.080
 6560SOL     OW20578   3.581   2.137   0.298
 6560SOL    HW120579   3.607   2.042   0.277
 6560SOL    HW220580   3.542   2.141   0.389
 6561SOL     OW20581   3.762   4.079   4.189
 6561SOL    HW120582   3.821   4.057   4.267
 6561SOL    HW220583   3.671   4.105   4.223
 6562SOL     OW20584   6.002   3.464   5.402
 6562SOL    HW120585   5.924   3.408   5.374
 6562SOL    HW220586   6.081   3.405   5.420
 6563SOL     OW20587   1.385   5.122   2.585
 6563SOL    HW120588   1.485   5.132   2.583
 6563SOL    HW220589   1.342   5.206   2.552
 6564SOL     OW20590   1.219   5.933   2.488
 6564SOL    HW120591   1.202   5.900   2.580
 6564SOL    HW220592   1.132   5.939   2.438
 6565SOL     OW20593   6.261   3.316   5.199
 6565SOL    HW120594   6.305   3.405   5.206
 6565SOL    HW220595   6.196   3.305   5.274
 6566SOL     OW20596   3.753   6.932   0.861
 6566SOL    HW120597   3.710   6.863   0.920
 6566SOL    HW220598   3.805   6.996   0.918
 6567SOL     OW20599   6.346   3.016   1.548
 6567SOL    HW120600   6.309   2.965   1.625
 6567SOL    HW220601   6.428   2.970   1.514
 6568SOL     OW20602   3.999   4.232   1.588
 6568SOL    HW120603   4.032   4.277   1.505
 6568SOL    HW220604   4.067   4.166   1.620
 6569SOL     OW20605   0.845   4.826   6.546
 6569SOL    HW120606   0.809   4.735   6.524
 6569SOL    HW220607   0.907   4.819   6.624
 6570SOL     OW20608   5.942   2.987   1.358
 6570SOL    HW120609   5.971   3.079   1.383
 6570SOL    HW220610   5.920   2.984   1.260
 6571SOL     OW20611   2.949   6.240   3.865
 6571SOL    HW120612   2.998   6.214   3.782
 6571SOL    HW220613   2.991   6.321   3.904
 6572SOL     OW20614   1.160   3.748   6.734
 6572SOL    HW120615   1.164   3.650   6.752
 6572SOL    HW220616   1.135   3.764   6.639
 6573SOL     OW20617   1.862   2.191   2.140
 6573SOL    HW120618   1.793   2.255   2.107
 6573SOL    HW220619   1.952   2.233   2.134
 6574SOL     OW20620   2.079   4.653   3.235
 6574SOL    HW120621   2.148   4.639   3.306
 6574SOL    HW220622   2.113   4.721   3.169
 6575SOL     OW20623   1.482   1.109   2.609
 6575SOL    HW120624   1.406   1.168   2.582
 6575SOL    HW220625   1.568   1.150   2.579
 6576SOL     OW20626   1.170   6.148   4.944
 6576SOL    HW120627   1.250   6.139   5.003
 6576SOL    HW220628   1.167   6.240   4.906
 6577SOL     OW20629   6.573   2.417   4.517
 6577SOL    HW120630   6.578   2.375   4.607
 6577SOL    HW220631   6.482   2.402   4.478
 6578SOL     OW20632   6.439   5.273   3.196
 6578SOL    HW120633   6.371   5.324   3.143
 6578SOL    HW220634   6.494   5.337   3.249
 6579SOL     OW20635   0.735   3.824   2.580
 6579SOL    HW120636   0.638   3.817   2.554
 6579SOL    HW220637   0.765   3.737   2.619
 6580SOL     OW20638   6.170   2.453   1.660
 6580SOL    HW120639   6.172   2.552   1.647
 6580SOL    HW220640   6.129   2.410   1.579
 6581SOL     OW20641   2.348   2.129   5.418
 6581SOL    HW120642   2.369   2.032   5.407
 6581SOL    HW220643   2.352   2.154   5.515
 6582SOL     OW20644   0.026   0.050   2.678
 6582SOL    HW120645   7.000   0.079   2.758
 6582SOL    HW220646   0.123   0.071   2.691
 6583SOL     OW20647   5.118   1.944   5.300
 6583SOL    HW120648   5.179   1.915   5.227
 6583SOL    HW220649   5.079   1.863   5.345
 6584SOL     OW20650   5.276   2.122   6.882
 6584SOL    HW120651   5.294   2.219   6.862
 6584SOL    HW220652   5.358   2.068   6.864
 6585SOL     OW20653   2.117   0.929   0.628
 6585SOL    HW120654   2.053   0.887   0.564
 6585SOL    HW220655   2.102   0.892   0.720
 6586SOL     OW20656   0.066   2.153   0.021
 6586SOL    HW120657   0.090   2.150   0.118
 6586SOL    HW220658   7.009   2.100   0.006
 6587SOL     OW20659   2.159   6.825   2.561
 6587SOL    HW120660   2.181   6.910   2.513
 6587SOL    HW220661   2.160   6.749   2.497
 6588SOL     OW20662   2.236   2.820   6.901
 6588SOL    HW120663   2.225   2.893   6.969
 6588SOL    HW220664   2.147   2.791   6.868
 6589SOL     OW20665   5.476   1.503   5.546
 6589SOL    HW120666   5.439   1.424   5.497
 6589SOL    HW220667   5.416   1.526   5.622
 6590SOL     OW20668   6.781   1.356   5.402
 6590SOL    HW120669   6.841   1.357   5.482
 6590SOL    HW220670   6.696   1.309   5.425
 6591SOL     OW20671   5.703   1.127   2.494
 6591SOL    HW120672   5.758   1.050   2.526
 6591SOL    HW220673   5.659   1.172   2.572
 6592SOL     OW20674   5.186   5.548   4.759
 6592SOL    HW120675   5.213   5.603   4.680
 6592SOL    HW220676   5.132   5.469   4.728
 6593SOL     OW20677   4.170   0.753   2.830
 6593SOL    HW120678   4.196   0.663   2.867
 6593SOL    HW220679   4.134   0.810   2.904
 6594SOL     OW20680   5.558   1.143   6.353
 6594SOL    HW120681   5.595   1.217   6.409
 6594SOL    HW220682   5.577   1.056   6.397
 6595SOL     OW20683   1.457   3.426   0.636
 6595SOL    HW120684   1.513   3.491   0.584
 6595SOL    HW220685   1.365   3.464   0.648
 6596SOL     OW20686   3.699   6.684   4.945
 6596SOL    HW120687   3.737   6.638   5.025
 6596SOL    HW220688   3.600   6.689   4.954
 6597SOL     OW20689   6.925   4.613   6.023
 6597SOL    HW120690   6.909   4.639   5.928
 6597SOL    HW220691   6.998   4.669   6.061
 6598SOL     OW20692   2.071   5.641   5.428
 6598SOL    HW120693   2.164   5.639   5.392
 6598SOL    HW220694   2.006   5.654   5.353
 6599SOL     OW20695   4.669   3.840   6.107
 6599SOL    HW120696   4.612   3.797   6.177
 6599SOL    HW220697   4.748   3.781   6.089
 6600SOL     OW20698   4.293   5.894   4.324
 6600SOL    HW120699   4.335   5.881   4.234
 6600SOL    HW220700   4.207   5.844   4.329
 6601SOL     OW20701   0.908   0.501   1.122
 6601SOL    HW120702   0.888   0.435   1.194
 6601SOL    HW220703   0.982   0.562   1.151
 6602SOL     OW20704   6.424   1.518   1.550
 6602SOL    HW120705   6.331   1.489   1.529
 6602SOL    HW220706   6.439   1.610   1.513
 6603SOL     OW20707   2.154   2.573   2.753
 6603SOL    HW120708   2.064   2.601   2.786
 6603SOL    HW220709   2.217   2.650   2.757
 6604SOL     OW20710   3.775   5.855   3.196
 6604SOL    HW120711   3.736   5.947   3.189
 6604SOL    HW220712   3.747   5.813   3.283
 6605SOL     OW20713   5.786   6.643   6.992
 6605SOL    HW120714   5.717   6.577   7.022
 6605SOL    HW220715   5.876   6.598   6.993
 6606SOL     OW20716   6.010   1.312   2.581
 6606SOL    HW120717   5.995   1.376   2.657
 6606SOL    HW220718   6.084   1.346   2.523
 6607SOL     OW20719   1.532   2.256   3.576
 6607SOL    HW120720   1.625   2.221   3.565
 6607SOL    HW220721   1.467   2.181   3.561
 6608SOL     OW20722   5.578   3.723   4.833
 6608SOL    HW120723   5.562   3.655   4.903
 6608SOL    HW220724   5.515   3.708   4.757
 6609SOL     OW20725   5.467   1.606   6.820
 6609SOL    HW120726   5.523   1.588   6.901
 6609SOL    HW220727   5.392   1.667   6.844
 6610SOL     OW20728   2.915   1.218   0.478
 6610SOL    HW120729   2.971   1.218   0.396
 6610SOL    HW220730   2.974   1.223   0.559
 6611SOL     OW20731   5.432   3.235   2.839
 6611SOL    HW120732   5.479   3.150   2.815
 6611SOL    HW220733   5.369   3.261   2.766
 6612SOL     OW20734   1.248   5.905   6.161
 6612SOL    HW120735   1.226   5.863   6.249
 6612SOL    HW220736   1.309   5.983   6.176
 6613SOL     OW20737   5.030   5.036   1.257
 6613SOL    HW120738   5.035   5.122   1.308
 6613SOL    HW220739   4.955   4.980   1.292
 6614SOL     OW20740   5.297   5.886   5.955
 6614SOL    HW120741   5.197   5.882   5.957
 6614SOL    HW220742   5.329   5.952   6.022
 6615SOL     OW20743   1.170   4.528   5.667
 6615SOL    HW120744   1.214   4.569   5.587
 6615SOL    HW220745   1.140   4.435   5.644
 6616SOL     OW20746   4.835   0.313   4.625
 6616SOL    HW120747   4.839   0.249   4.549
 6616SOL    HW220748   4.900   0.285   4.696
 6617SOL     OW20749   4.866   6.836   5.282
 6617SOL    HW120750   4.827   6.912   5.334
 6617SOL    HW220751   4.958   6.817   5.315
 6618SOL     OW20752   1.071   4.828   1.401
 6618SOL    HW120753   1.026   4.917   1.407
 6618SOL    HW220754   1.048   4.774   1.482
 6619SOL     OW20755   6.278   6.437   2.076
 6619SOL    HW120756   6.344   6.389   2.018
 6619SOL    HW220757   6.248   6.520   2.031
 6620SOL     OW20758   3.844   3.116   5.805
 6620SOL    HW120759   3.892   3.085   5.888
 6620SOL    HW220760   3.745   3.106   5.819
 6621SOL     OW20761   2.847   3.739   0.238
 6621SOL    HW120762   2.772   3.724   0.174
 6621SOL    HW220763   2.915   3.799   0.196
 6622SOL     OW20764   5.935   6.928   0.477
 6622SOL    HW120765   5.858   6.880   0.519
 6622SOL    HW220766   5.904   7.018   0.445
 6623SOL     OW20767   3.460   3.773   2.301
 6623SOL    HW120768   3.410   3.847   2.344
 6623SOL    HW220769   3.558   3.791   2.308
 6624SOL     OW20770   4.321   5.032   4.160
 6624SOL    HW120771   4.306   5.081   4.073
 6624SOL    HW220772   4.414   5.048   4.192
 6625SOL     OW20773   5.481   0.357   7.005
 6625SOL    HW120774   5.567   0.305   7.005
 6625SOL    HW220775   5.444   0.362   0.072
 6626SOL     OW20776   3.449   5.267   3.337
 6626SOL    HW120777   3.466   5.293   3.432
 6626SOL    HW220778   3.425   5.170   3.332
 6627SOL     OW20779   2.047   6.446   1.815
 6627SOL    HW120780   2.005   6.364   1.854
 6627SOL    HW220781   2.139   6.457   1.852
 6628SOL     OW20782   4.329   6.070   3.405
 6628SOL    HW120783   4.390   6.125   3.348
 6628SOL    HW220784   4.325   6.108   3.497
 6629SOL     OW20785   3.310   3.955   0.540
 6629SOL    HW120786   3.405   3.948   0.507
 6629SOL    HW220787   3.256   3.880   0.503
 6630SOL     OW20788   2.725   2.207   5.799
 6630SOL    HW120789   2.692   2.116   5.775
 6630SOL    HW220790   2.784   2.242   5.725
 6631SOL     OW20791   3.527   0.492   2.124
 6631SOL    HW120792   3.546   0.439   2.206
 6631SOL    HW220793   3.576   0.579   2.128
 6632SOL     OW20794   0.071   2.464   2.562
 6632SOL    HW120795   0.146   2.527   2.540
 6632SOL    HW220796   0.018   2.500   2.639
 6633SOL     OW20797   0.320   6.927   0.938
 6633SOL    HW120798   0.398   6.990   0.930
 6633SOL    HW220799   0.342   6.855   1.003
 6634SOL     OW20800   0.131   2.961   6.116
 6634SOL    HW120801   0.138   2.875   6.065
 6634SOL    HW220802   0.212   2.972   6.174
 6635SOL     OW20803   4.262   4.676   3.215
 6635SOL    HW120804   4.264   4.704   3.119
 6635SOL    HW220805   4.339   4.615   3.233
 6636SOL     OW20806   1.551   2.901   4.161
 6636SOL    HW120807   1.598   2.889   4.249
 6636SOL    HW220808   1.520   2.811   4.129
 6637SOL     OW20809   6.570   1.286   1.573
 6637SOL    HW120810   6.602   1.269   1.480
 6637SOL    HW220811   6.499   1.356   1.572
 6638SOL     OW20812   2.117   6.484   6.310
 6638SOL    HW120813   2.109   6.393   6.352
 6638SOL    HW220814   2.191   6.484   6.243
 6639SOL     OW20815   5.463   5.575   6.613
 6639SOL    HW120816   5.526   5.653   6.612
 6639SOL    HW220817   5.493   5.508   6.545
 6640SOL     OW20818   5.843   2.961   3.765
 6640SOL    HW120819   5.894   2.875   3.756
 6640SOL    HW220820   5.894   3.035   3.721
 6641SOL     OW20821   2.120   4.437   6.703
 6641SOL    HW120822   2.098   4.460   6.798
 6641SOL    HW220823   2.193   4.369   6.701
 6642SOL     OW20824   0.194   6.841   0.492
 6642SOL    HW120825   0.203   6.909   0.564
 6642SOL    HW220826   0.139   6.764   0.525
 6643SOL     OW20827   4.356   5.582   0.056
 6643SOL    HW120828   4.284   5.646   0.031
 6643SOL    HW220829   4.423   5.576   7.008
 6644SOL     OW20830   2.577   4.555   2.243
 6644SOL    HW120831   2.600   4.582   2.337
 6644SOL    HW220832   2.654   4.577   2.183
 6645SOL     OW20833   6.673   4.743   4.956
 6645SOL    HW120834   6.673   4.650   4.920
 6645SOL    HW220835   6.618   4.746   5.040
 6646SOL     OW20836   1.883   6.192   3.560
 6646SOL    HW120837   1.841   6.103   3.542
 6646SOL    HW220838   1.902   6.201   3.658
 6647SOL     OW20839   3.688   1.917   2.377
 6647SOL    HW120840   3.676   1.990   2.310
 6647SOL    HW220841   3.785   1.908   2.400
 6648SOL     OW20842   4.798   5.938   2.171
 6648SOL    HW120843   4.705   5.916   2.144
 6648SOL    HW220844   4.827   6.022   2.125
 6649SOL     OW20845   3.647   2.329   6.298
 6649SOL    HW120846   3.704   2.249   6.281
 6649SOL    HW220847   3.667   2.400   6.230
 6650SOL     OW20848   3.100   2.212   3.267
 6650SOL    HW120849   3.127   2.307   3.251
 6650SOL    HW220850   3.179   2.159   3.297
 6651SOL     OW20851   1.300   2.691   0.004
 6651SOL    HW120852   1.305   2.666   6.933
 6651SOL    HW220853   1.309   2.609   0.061
 6652SOL     OW20854   0.282   5.433   3.329
 6652SOL    HW120855   0.229   5.401   3.251
 6652SOL    HW220856   0.343   5.361   3.360
 6653SOL     OW20857   3.272   3.246   3.246
 6653SOL    HW120858   3.173   3.253   3.247
 6653SOL    HW220859   3.300   3.161   3.290
 6654SOL     OW20860   2.264   3.270   1.690
 6654SOL    HW120861   2.176   3.304   1.658
 6654SOL    HW220862   2.297   3.328   1.765
 6655SOL     OW20863   2.360   0.370   1.075
 6655SOL    HW120864   2.361   0.283   1.124
 6655SOL    HW220865   2.453   0.393   1.047
 6656SOL     OW20866   6.566   2.404   1.237
 6656SOL    HW120867   6.613   2.329   1.284
 6656SOL    HW220868   6.482   2.371   1.195
 6657SOL     OW20869   2.827   5.472   6.103
 6657SOL    HW120870   2.923   5.497   6.113
 6657SOL    HW220871   2.796   5.424   6.185
 6658SOL     OW20872   5.268   0.489   6.157
 6658SOL    HW120873   5.228   0.418   6.214
 6658SOL    HW220874   5.215   0.573   6.165
 6659SOL     OW20875   1.147   3.482   6.783
 6659SOL    HW120876   1.225   3.490   6.845
 6659SOL    HW220877   1.116   3.387   6.781
 6660SOL     OW20878   0.317   6.888   3.147
 6660SOL    HW120879   0.413   6.860   3.144
 6660SOL    HW220880   0.284   6.886   3.241
 6661SOL     OW20881   7.008   5.755   3.625
 6661SOL    HW120882   0.016   5.718   3.712
 6661SOL    HW220883   0.050   5.818   3.587
 6662SOL     OW20884   1.096   3.661   6.145
 6662SOL    HW120885   1.092   3.569   6.105
 6662SOL    HW220886   1.191   3.691   6.151
 6663SOL     OW20887   0.303   5.693   2.193
 6663SOL    HW120888   0.346   5.609   2.224
 6663SOL    HW220889   0.365   5.770   2.207
 6664SOL     OW20890   0.826   1.878   3.185
 6664SOL    HW120891   0.763   1.945   3.145
 6664SOL    HW220892   0.835   1.799   3.124
 6665SOL     OW20893   2.682   6.463   2.426
 6665SOL    HW120894   2.781   6.446   2.432
 6665SOL    HW220895   2.637   6.380   2.392
 6666SOL     OW20896   5.949   0.115   0.654
 6666SOL    HW120897   5.968   0.020   0.632
 6666SOL    HW220898   5.858   0.140   0.621
 6667SOL     OW20899   6.958   5.208   4.273
 6667SOL    HW120900   6.861   5.222   4.295
 6667SOL    HW220901   6.981   5.258   4.189
 6668SOL     OW20902   0.464   6.439   1.826
 6668SOL    HW120903   0.477   6.346   1.791
 6668SOL    HW220904   0.523   6.455   1.905
 6669SOL     OW20905   1.601   5.554   3.043
 6669SOL    HW120906   1.596   5.617   2.966
 6669SOL    HW220907   1.509   5.524   3.068
 6670SOL     OW20908   3.508   4.662   0.498
 6670SOL    HW120909   3.434   4.597   0.517
 6670SOL    HW220910   3.594   4.627   0.534
 6671SOL     OW20911   0.241   2.164   5.340
 6671SOL    HW120912   0.238   2.241   5.403
 6671SOL    HW220913   0.336   2.138   5.323
 6672SOL     OW20914   1.501   0.733   5.259
 6672SOL    HW120915   1.405   0.728   5.231
 6672SOL    HW220916   1.545   0.810   5.213
 6673SOL     OW20917   4.875   4.851   1.772
 6673SOL    HW120918   4.942   4.912   1.815
 6673SOL    HW220919   4.880   4.761   1.815
 6674SOL     OW20920   0.718   6.868   4.243
 6674SOL    HW120921   0.748   6.945   4.300
 6674SOL    HW220922   0.733   6.892   4.146
 6675SOL     OW20923   6.763   6.249   0.484
 6675SOL    HW120924   6.841   6.252   0.422
 6675SOL    HW220925   6.714   6.162   0.471
 6676SOL     OW20926   1.292   2.288   6.650
 6676SOL    HW120927   1.213   2.263   6.594
 6676SOL    HW220928   1.369   2.309   6.590
 6677SOL     OW20929   6.534   3.891   0.246
 6677SOL    HW120930   6.524   3.956   0.321
 6677SOL    HW220931   6.461   3.823   0.251
 6678SOL     OW20932   1.159   2.924   4.854
 6678SOL    HW120933   1.163   2.825   4.845
 6678SOL    HW220934   1.251   2.962   4.847
 6679SOL     OW20935   1.837   2.059   4.639
 6679SOL    HW120936   1.874   2.136   4.588
 6679SOL    HW220937   1.831   2.083   4.736
 6680SOL     OW20938   2.112   6.751   6.081
 6680SOL    HW120939   2.190   6.800   6.120
 6680SOL    HW220940   2.143   6.663   6.044
 6681SOL     OW20941   5.969   5.607   0.111
 6681SOL    HW120942   6.019   5.521   0.115
 6681SOL    HW220943   6.026   5.677   0.068
 6682SOL     OW20944   0.039   6.018   2.878
 6682SOL    HW120945   0.026   6.041   2.782
 6682SOL    HW220946   0.075   5.925   2.886
 6683SOL     OW20947   5.131   1.649   4.229
 6683SOL    HW120948   5.053   1.698   4.190
 6683SOL    HW220949   5.144   1.678   4.324
 6684SOL     OW20950   2.067   0.292   2.124
 6684SOL    HW120951   2.151   0.334   2.160
 6684SOL    HW220952   2.031   0.227   2.191
 6685SOL     OW20953   5.317   3.591   6.100
 6685SOL    HW120954   5.381   3.520   6.129
 6685SOL    HW220955   5.261   3.556   6.025
 6686SOL     OW20956   5.607   4.330   4.088
 6686SOL    HW120957   5.604   4.233   4.063
 6686SOL    HW220958   5.530   4.378   4.044
 6687SOL     OW20959   1.132   1.418   0.242
 6687SOL    HW120960   1.149   1.456   0.151
 6687SOL    HW220961   1.090   1.328   0.233
 6688SOL     OW20962   0.670   4.806   3.305
 6688SOL    HW120963   0.578   4.769   3.289
 6688SOL    HW220964   0.691   4.802   3.402
 6689SOL     OW20965   4.618   5.132   0.170
 6689SOL    HW120966   4.652   5.058   0.229
 6689SOL    HW220967   4.556   5.190   0.222
 6690SOL     OW20968   1.571   2.158   0.707
 6690SOL    HW120969   1.494   2.200   0.754
 6690SOL    HW220970   1.656   2.205   0.732
 6691SOL     OW20971   2.001   5.617   1.126
 6691SOL    HW120972   1.954   5.702   1.147
 6691SOL    HW220973   2.006   5.605   1.027
 6692SOL     OW20974   3.477   4.324   6.128
 6692SOL    HW120975   3.577   4.322   6.125
 6692SOL    HW220976   3.442   4.386   6.057
 6693SOL     OW20977   3.545   4.089   4.896
 6693SOL    HW120978   3.574   3.994   4.906
 6693SOL    HW220979   3.492   4.100   4.811
 6694SOL     OW20980   3.082   6.167   0.629
 6694SOL    HW120981   3.173   6.134   0.604
 6694SOL    HW220982   3.048   6.115   0.708
 6695SOL     OW20983   1.711   1.867   6.804
 6695SOL    HW120984   1.741   1.959   6.828
 6695SOL    HW220985   1.614   1.867   6.781
 6696SOL     OW20986   2.131   3.248   2.076
 6696SOL    HW120987   2.139   3.345   2.054
 6696SOL    HW220988   2.217   3.202   2.055
 6697SOL     OW20989   5.406   1.926   3.245
 6697SOL    HW120990   5.458   2.011   3.235
 6697SOL    HW220991   5.310   1.947   3.264
 6698SOL     OW20992   3.779   3.903   0.646
 6698SOL    HW120993   3.818   3.945   0.564
 6698SOL    HW220994   3.695   3.855   0.623
 6699SOL     OW20995   1.429   3.664   0.070
 6699SOL    HW120996   1.417   3.573   0.031
 6699SOL    HW220997   1.423   3.732   7.023
 6700SOL     OW20998   6.270   6.384   6.471
 6700SOL    HW120999   6.349   6.447   6.472
 6700SOL    HW221000   6.226   6.388   6.382
 6701SOL     OW21001   0.984   2.629   0.810
 6701SOL    HW121002   1.004   2.586   0.898
 6701SOL    HW221003   0.936   2.716   0.825
 6702SOL     OW21004   1.885   2.922   1.314
 6702SOL    HW121005   1.887   3.019   1.339
 6702SOL    HW221006   1.978   2.885   1.318
 6703SOL     OW21007   0.306   2.332   6.966
 6703SOL    HW121008   0.237   2.271   7.004
 6703SOL    HW221009   0.308   2.417   7.019
 6704SOL     OW21010   5.277   2.255   3.217
 6704SOL    HW121011   5.263   2.347   3.253
 6704SOL    HW221012   5.373   2.230   3.225
 6705SOL     OW21013   6.190   1.376   0.547
 6705SOL    HW121014   6.135   1.309   0.496
 6705SOL    HW221015   6.190   1.352   0.644
 6706SOL     OW21016   0.506   4.965   6.901
 6706SOL    HW121017   0.566   5.042   6.922
 6706SOL    HW221018   0.558   4.880   6.905
 6707SOL     OW21019   1.216   5.924   2.181
 6707SOL    HW121020   1.207   5.870   2.097
 6707SOL    HW221021   1.251   5.866   2.255
 6708SOL     OW21022   2.823   6.047   1.516
 6708SOL    HW121023   2.867   6.079   1.600
 6708SOL    HW221024   2.847   5.951   1.501
 6709SOL     OW21025   5.848   1.200   2.772
 6709SOL    HW121026   5.902   1.237   2.696
 6709SOL    HW221027   5.760   1.247   2.776
 6710SOL     OW21028   2.357   2.464   1.551
 6710SOL    HW121029   2.431   2.527   1.574
 6710SOL    HW221030   2.327   2.415   1.632
 6711SOL     OW21031   3.955   3.809   0.342
 6711SOL    HW121032   3.989   3.730   0.291
 6711SOL    HW221033   3.907   3.779   0.423
 6712SOL     OW21034   3.738   6.170   1.161
 6712SOL    HW121035   3.649   6.143   1.199
 6712SOL    HW221036   3.737   6.155   1.062
 6713SOL     OW21037   1.933   1.406   1.933
 6713SOL    HW121038   1.851   1.463   1.930
 6713SOL    HW221039   1.915   1.325   1.989
 6714SOL     OW21040   6.657   0.307   3.550
 6714SOL    HW121041   6.595   0.244   3.502
 6714SOL    HW221042   6.738   0.321   3.494
 6715SOL     OW21043   0.415   2.207   0.511
 6715SOL    HW121044   0.371   2.260   0.583
 6715SOL    HW221045   0.360   2.126   0.491
 6716SOL     OW21046   2.648   5.575   0.622
 6716SOL    HW121047   2.685   5.492   0.664
 6716SOL    HW221048   2.551   5.563   0.604
 6717SOL     OW21049   3.577   1.866   6.440
 6717SOL    HW121050   3.529   1.923   6.507
 6717SOL    HW221051   3.623   1.791   6.487
 6718SOL     OW21052   3.652   7.019   0.076
 6718SOL    HW121053   3.625   0.075   0.024
 6718SOL    HW221054   3.571   6.973   0.111
 6719SOL     OW21055   0.152   0.385   5.309
 6719SOL    HW121056   0.090   0.331   5.252
 6719SOL    HW221057   0.189   0.327   5.382
 6720SOL     OW21058   1.847   4.747   1.971
 6720SOL    HW121059   1.851   4.783   2.065
 6720SOL    HW221060   1.905   4.802   1.912
 6721SOL     OW21061   6.400   6.200   3.488
 6721SOL    HW121062   6.398   6.105   3.519
 6721SOL    HW221063   6.467   6.209   3.415
 6722SOL     OW21064   4.962   4.483   6.689
 6722SOL    HW121065   4.968   4.401   6.632
 6722SOL    HW221066   4.968   4.456   6.785
 6723SOL     OW21067   4.250   6.821   2.366
 6723SOL    HW121068   4.173   6.848   2.425
 6723SOL    HW221069   4.335   6.833   2.416
 6724SOL     OW21070   3.332   4.779   5.462
 6724SOL    HW121071   3.238   4.781   5.427
 6724SOL    HW221072   3.365   4.684   5.464
 6725SOL     OW21073   0.343   5.121   2.397
 6725SOL    HW121074   0.325   5.026   2.373
 6725SOL    HW221075   0.341   5.132   2.497
 6726SOL     OW21076   2.477   2.582   2.243
 6726SOL    HW121077   2.545   2.527   2.196
 6726SOL    HW221078   2.398   2.596   2.183
 6727SOL     OW21079   3.968   3.862   6.972
 6727SOL    HW121080   4.063   3.845   6.999
 6727SOL    HW221081   3.916   3.777   6.977
 6728SOL     OW21082   4.467   1.522   4.152
 6728SOL    HW121083   4.499   1.508   4.246
 6728SOL    HW221084   4.515   1.599   4.111
 6729SOL     OW21085   5.826   6.287   2.900
 6729SOL    HW121086   5.881   6.366   2.928
 6729SOL    HW221087   5.814   6.288   2.801
 6730SOL     OW21088   1.437   6.842   1.197
 6730SOL    HW121089   1.442   6.939   1.172
 6730SOL    HW221090   1.477   6.829   1.288
 6731SOL     OW21091   2.209   4.679   2.019
 6731SOL    HW121092   2.149   4.614   2.067
 6731SOL    HW221093   2.294   4.633   1.994
 6732SOL     OW21094   1.747   4.649   0.984
 6732SOL    HW121095   1.758   4.618   1.079
 6732SOL    HW221096   1.715   4.744   0.983
 6733SOL     OW21097   5.479   5.652   5.294
 6733SOL    HW121098   5.385   5.654   5.326
 6733SOL    HW221099   5.536   5.602   5.359
 6734SOL     OW21100   2.659   3.797   5.624
 6734SOL    HW121101   2.624   3.752   5.706
 6734SOL    HW221102   2.582   3.822   5.565
 6735SOL     OW21103   6.895   5.060   6.589
 6735SOL    HW121104   6.868   5.156   6.599
 6735SOL    HW221105   6.858   5.024   6.503
 6736SOL     OW21106   2.108   3.619   2.720
 6736SOL    HW121107   2.132   3.686   2.791
 6736SOL    HW221108   2.157   3.534   2.736
 6737SOL     OW21109   1.949   0.475   1.185
 6737SOL    HW121110   1.990   0.398   1.233
 6737SOL    HW221111   1.960   0.558   1.239
 6738SOL     OW21112   3.777   1.472   2.080
 6738SOL    HW121113   3.866   1.436   2.109
 6738SOL    HW221114   3.783   1.571   2.070
 6739SOL     OW21115   4.692   0.142   4.923
 6739SOL    HW121116   4.779   0.191   4.925
 6739SOL    HW221117   4.703   0.051   4.965
 6740SOL     OW21118   5.903   3.127   4.730
 6740SOL    HW121119   5.832   3.056   4.720
 6740SOL    HW221120   5.881   3.205   4.673
 6741SOL     OW21121   6.703   0.024   5.290
 6741SOL    HW121122   6.748   6.969   5.329
 6741SOL    HW221123   6.695   0.094   5.361
 6742SOL     OW21124   6.221   6.060   5.491
 6742SOL    HW121125   6.270   5.976   5.469
 6742SOL    HW221126   6.130   6.057   5.450
 6743SOL     OW21127   5.004   3.025   0.674
 6743SOL    HW121128   5.059   3.053   0.752
 6743SOL    HW221129   4.948   3.101   0.643
 6744SOL     OW21130   5.345   5.392   5.536
 6744SOL    HW121131   5.288   5.416   5.458
 6744SOL    HW221132   5.392   5.305   5.517
 6745SOL     OW21133   0.592   3.827   3.732
 6745SOL    HW121134   0.634   3.892   3.670
 6745SOL    HW221135   0.654   3.750   3.747
 6746SOL     OW21136   6.915   1.301   1.180
 6746SOL    HW121137   6.958   1.218   1.214
 6746SOL    HW221138   6.817   1.298   1.201
 6747SOL     OW21139   5.406   6.606   6.421
 6747SOL    HW121140   5.418   6.602   6.521
 6747SOL    HW221141   5.443   6.692   6.387
 6748SOL     OW21142   0.203   6.557   1.903
 6748SOL    HW121143   0.159   6.602   1.825
 6748SOL    HW221144   0.285   6.509   1.872
 6749SOL     OW21145   3.659   5.870   1.082
 6749SOL    HW121146   3.566   5.904   1.097
 6749SOL    HW221147   3.674   5.861   0.983
 6750SOL     OW21148   2.359   3.101   5.413
 6750SOL    HW121149   2.381   3.198   5.407
 6750SOL    HW221150   2.411   3.050   5.344
 6751SOL     OW21151   3.005   2.037   5.675
 6751SOL    HW121152   2.994   2.134   5.651
 6751SOL    HW221153   2.989   1.981   5.593
 6752SOL     OW21154   6.108   1.864   0.604
 6752SOL    HW121155   6.183   1.921   0.640
 6752SOL    HW221156   6.070   1.907   0.522
 6753SOL     OW21157   5.562   1.334   6.146
 6753SOL    HW121158   5.575   1.258   6.210
 6753SOL    HW221159   5.488   1.392   6.178
 6754SOL     OW21160   4.786   1.341   0.401
 6754SOL    HW121161   4.778   1.441   0.400
 6754SOL    HW221162   4.753   1.304   0.314
 6755SOL     OW21163   5.132   1.238   3.438
 6755SOL    HW121164   5.229   1.251   3.458
 6755SOL    HW221165   5.103   1.305   3.370
 6756SOL     OW21166   4.863   4.626   3.503
 6756SOL    HW121167   4.779   4.654   3.548
 6756SOL    HW221168   4.868   4.668   3.412
 6757SOL     OW21169   5.578   4.859   1.986
 6757SOL    HW121170   5.619   4.939   1.941
 6757SOL    HW221171   5.504   4.890   2.046
 6758SOL     OW21172   6.223   2.013   3.053
 6758SOL    HW121173   6.132   1.973   3.061
 6758SOL    HW221174   6.287   1.963   3.111
 6759SOL     OW21175   1.217   4.458   3.385
 6759SOL    HW121176   1.268   4.372   3.393
 6759SOL    HW221177   1.163   4.456   3.300
 6760SOL     OW21178   0.392   4.296   5.267
 6760SOL    HW121179   0.355   4.269   5.178
 6760SOL    HW221180   0.476   4.349   5.254
 6761SOL     OW21181   6.021   3.377   6.561
 6761SOL    HW121182   5.946   3.359   6.625
 6761SOL    HW221183   5.993   3.446   6.495
 6762SOL     OW21184   5.781   4.690   3.223
 6762SOL    HW121185   5.840   4.738   3.288
 6762SOL    HW221186   5.778   4.741   3.137
 6763SOL     OW21187   6.255   6.556   5.113
 6763SOL    HW121188   6.207   6.630   5.065
 6763SOL    HW221189   6.189   6.485   5.138
 6764SOL     OW21190   2.102   3.352   0.055
 6764SOL    HW121191   2.201   3.364   0.045
 6764SOL    HW221192   2.083   3.264   0.097
 6765SOL     OW21193   5.175   5.052   2.518
 6765SOL    HW121194   5.181   5.114   2.440
 6765SOL    HW221195   5.261   5.057   2.570
 6766SOL     OW21196   1.493   1.753   5.410
 6766SOL    HW121197   1.509   1.830   5.472
 6766SOL    HW221198   1.513   1.782   5.316
 6767SOL     OW21199   0.843   2.759   5.417
 6767SOL    HW121200   0.799   2.748   5.506
 6767SOL    HW221201   0.923   2.818   5.426
 6768SOL     OW21202   0.164   0.347   5.695
 6768SOL    HW121203   0.233   0.339   5.623
 6768SOL    HW221204   0.150   0.258   5.738
 6769SOL     OW21205   0.828   2.317   6.681
 6769SOL    HW121206   0.866   2.387   6.741
 6769SOL    HW221207   0.900   2.252   6.657
 6770SOL     OW21208   6.926   1.177   4.512
 6770SOL    HW121209   6.848   1.239   4.506
 6770SOL    HW221210   6.910   1.097   4.455
 6771SOL     OW21211   4.593   1.906   2.034
 6771SOL    HW121212   4.605   1.812   2.067
 6771SOL    HW221213   4.680   1.955   2.043
 6772SOL     OW21214   1.378   0.827   1.504
 6772SOL    HW121215   1.288   0.869   1.517
 6772SOL    HW221216   1.449   0.892   1.532
 6773SOL     OW21217   1.325   0.378   2.056
 6773SOL    HW121218   1.384   0.298   2.039
 6773SOL    HW221219   1.229   0.351   2.046
 6774SOL     OW21220   3.060   1.219   5.859
 6774SOL    HW121221   3.056   1.151   5.786
 6774SOL    HW221222   2.975   1.272   5.859
 6775SOL     OW21223   1.675   3.470   5.035
 6775SOL    HW121224   1.749   3.408   5.059
 6775SOL    HW221225   1.613   3.480   5.113
 6776SOL     OW21226   3.045   3.941   3.211
 6776SOL    HW121227   2.963   3.982   3.172
 6776SOL    HW221228   3.038   3.841   3.206
 6777SOL     OW21229   0.676   6.920   6.292
 6777SOL    HW121230   0.661   6.827   6.326
 6777SOL    HW221231   0.590   6.971   6.293
 6778SOL     OW21232   6.249   6.169   2.523
 6778SOL    HW121233   6.256   6.219   2.436
 6778SOL    HW221234   6.313   6.092   2.522
 6779SOL     OW21235   4.483   4.700   6.699
 6779SOL    HW121236   4.487   4.603   6.723
 6779SOL    HW221237   4.492   4.755   6.782
 6780SOL     OW21238   3.953   0.567   2.796
 6780SOL    HW121239   4.036   0.525   2.758
 6780SOL    HW221240   3.979   0.633   2.866
 6781SOL     OW21241   6.293   2.927   3.226
 6781SOL    HW121242   6.208   2.908   3.275
 6781SOL    HW221243   6.360   2.856   3.248
 6782SOL     OW21244   0.308   1.403   3.378
 6782SOL    HW121245   0.208   1.408   3.386
 6782SOL    HW221246   0.334   1.418   3.282
 6783SOL     OW21247   0.659   6.213   5.874
 6783SOL    HW121248   0.583   6.183   5.932
 6783SOL    HW221249   0.726   6.263   5.929
 6784SOL     OW21250   1.819   4.400   0.903
 6784SOL    HW121251   1.900   4.431   0.854
 6784SOL    HW221252   1.769   4.479   0.939
 6785SOL     OW21253   5.547   4.568   2.817
 6785SOL    HW121254   5.509   4.488   2.865
 6785SOL    HW221255   5.578   4.635   2.884
 6786SOL     OW21256   6.431   1.973   5.657
 6786SOL    HW121257   6.528   1.976   5.632
 6786SOL    HW221258   6.388   1.895   5.612
 6787SOL     OW21259   3.069   1.201   0.693
 6787SOL    HW121260   3.006   1.236   0.764
 6787SOL    HW221261   3.107   1.114   0.723
 6788SOL     OW21262   0.768   4.571   1.440
 6788SOL    HW121263   0.750   4.475   1.462
 6788SOL    HW221264   0.866   4.588   1.448
 6789SOL     OW21265   5.974   4.455   2.573
 6789SOL    HW121266   5.893   4.505   2.605
 6789SOL    HW221267   5.959   4.423   2.480
 6790SOL     OW21268   0.917   5.875   0.758
 6790SOL    HW121269   1.016   5.865   0.768
 6790SOL    HW221270   0.898   5.938   0.683
 6791SOL     OW21271   2.764   6.058   3.988
 6791SOL    HW121272   2.813   6.013   4.063
 6791SOL    HW221273   2.826   6.120   3.940
 6792SOL     OW21274   3.133   6.303   6.696
 6792SOL    HW121275   3.037   6.292   6.669
 6792SOL    HW221276   3.192   6.257   6.629
 6793SOL     OW21277   2.769   3.842   6.239
 6793SOL    HW121278   2.861   3.819   6.209
 6793SOL    HW221279   2.731   3.914   6.181
 6794SOL     OW21280   5.111   2.223   4.621
 6794SOL    HW121281   5.166   2.177   4.552
 6794SOL    HW221282   5.060   2.154   4.674
 6795SOL     OW21283   0.564   0.163   1.671
 6795SOL    HW121284   0.645   0.148   1.615
 6795SOL    HW221285   0.586   0.227   1.745
 6796SOL     OW21286   0.195   2.227   2.499
 6796SOL    HW121287   0.231   2.170   2.573
 6796SOL    HW221288   0.144   2.304   2.537
 6797SOL     OW21289   1.671   3.181   1.125
 6797SOL    HW121290   1.682   3.174   1.025
 6797SOL    HW221291   1.745   3.236   1.163
 6798SOL     OW21292   5.050   1.246   1.784
 6798SOL    HW121293   4.979   1.310   1.815
 6798SOL    HW221294   5.140   1.289   1.795
 6799SOL     OW21295   6.405   0.305   2.675
 6799SOL    HW121296   6.321   0.317   2.727
 6799SOL    HW221297   6.476   0.268   2.734
 6800SOL     OW21298   6.999   3.120   2.178
 6800SOL    HW121299   7.023   3.062   2.101
 6800SOL    HW221300   6.899   3.121   2.189
 6801SOL     OW21301   1.710   5.361   5.845
 6801SOL    HW121302   1.642   5.432   5.862
 6801SOL    HW221303   1.770   5.353   5.925
 6802SOL     OW21304   3.017   4.842   1.848
 6802SOL    HW121305   2.986   4.835   1.943
 6802SOL    HW221306   2.942   4.819   1.786
 6803SOL     OW21307   5.579   5.271   0.046
 6803SOL    HW121308   5.506   5.256   0.113
 6803SOL    HW221309   5.597   5.186   7.022
 6804SOL     OW21310   3.059   5.467   1.915
 6804SOL    HW121311   3.149   5.467   1.959
 6804SOL    HW221312   2.988   5.468   1.985
 6805SOL     OW21313   0.782   4.341   3.986
 6805SOL    HW121314   0.813   4.268   3.925
 6805SOL    HW221315   0.732   4.410   3.934
 6806SOL     OW21316   5.721   3.426   2.599
 6806SOL    HW121317   5.796   3.485   2.627
 6806SOL    HW221318   5.706   3.435   2.500
 6807SOL     OW21319   3.038   3.828   2.413
 6807SOL    HW121320   2.995   3.914   2.388
 6807SOL    HW221321   2.984   3.752   2.377
 6808SOL     OW21322   3.467   0.157   3.522
 6808SOL    HW121323   3.534   0.083   3.520
 6808SOL    HW221324   3.395   0.138   3.455
 6809SOL     OW21325   5.765   2.446   1.022
 6809SOL    HW121326   5.779   2.362   0.970
 6809SOL    HW221327   5.851   2.473   1.066
 6810SOL     OW21328   2.883   0.943   4.869
 6810SOL    HW121329   2.858   1.004   4.793
 6810SOL    HW221330   2.923   0.859   4.832
 6811SOL     OW21331   6.757   1.570   1.195
 6811SOL    HW121332   6.736   1.659   1.234
 6811SOL    HW221333   6.829   1.526   1.249
 6812SOL     OW21334   3.422   4.547   5.441
 6812SOL    HW121335   3.469   4.493   5.511
 6812SOL    HW221336   3.358   4.489   5.391
 6813SOL     OW21337   0.242   4.205   1.896
 6813SOL    HW121338   0.311   4.196   1.825
 6813SOL    HW221339   0.278   4.260   1.971
 6814SOL     OW21340   5.169   1.528   1.583
 6814SOL    HW121341   5.111   1.605   1.557
 6814SOL    HW221342   5.187   1.532   1.681
 6815SOL     OW21343   0.741   6.168   6.724
 6815SOL    HW121344   0.724   6.070   6.736
 6815SOL    HW221345   0.839   6.185   6.733
 6816SOL     OW21346   6.482   0.068   3.824
 6816SOL    HW121347   6.533   0.042   3.742
 6816SOL    HW221348   6.518   0.154   3.859
 6817SOL     OW21349   5.124   1.675   1.927
 6817SOL    HW121350   5.096   1.668   2.022
 6817SOL    HW221351   5.153   1.585   1.894
 6818SOL     OW21352   1.206   0.422   5.069
 6818SOL    HW121353   1.127   0.477   5.041
 6818SOL    HW221354   1.290   0.471   5.046
 6819SOL     OW21355   4.822   4.280   1.293
 6819SOL    HW121356   4.822   4.326   1.382
 6819SOL    HW221357   4.909   4.232   1.281
 6820SOL     OW21358   2.492   4.620   1.513
 6820SOL    HW121359   2.560   4.559   1.471
 6820SOL    HW221360   2.494   4.608   1.612
 6821SOL     OW21361   2.961   2.986   5.947
 6821SOL    HW121362   2.982   3.067   6.002
 6821SOL    HW221363   2.916   3.014   5.862
 6822SOL     OW21364   6.343   3.553   5.284
 6822SOL    HW121365   6.310   3.587   5.372
 6822SOL    HW221366   6.424   3.605   5.256
 6823SOL     OW21367   0.362   3.031   6.244
 6823SOL    HW121368   0.418   3.106   6.208
 6823SOL    HW221369   0.421   2.967   6.293
 6824SOL     OW21370   1.369   0.428   4.745
 6824SOL    HW121371   1.276   0.452   4.718
 6824SOL    HW221372   1.387   0.464   4.837
 6825SOL     OW21373   4.450   4.100   1.424
 6825SOL    HW121374   4.494   4.163   1.487
 6825SOL    HW221375   4.499   4.100   1.337
 6826SOL     OW21376   5.524   0.684   3.068
 6826SOL    HW121377   5.575   0.639   2.995
 6826SOL    HW221378   5.427   0.668   3.055
 6827SOL     OW21379   4.637   5.550   5.727
 6827SOL    HW121380   4.555   5.496   5.708
 6827SOL    HW221381   4.614   5.647   5.723
 6828SOL     OW21382   3.182   2.106   2.382
 6828SOL    HW121383   3.097   2.156   2.370
 6828SOL    HW221384   3.220   2.082   2.292
 6829SOL     OW21385   5.081   6.306   4.341
 6829SOL    HW121386   5.099   6.231   4.278
 6829SOL    HW221387   5.004   6.361   4.307
 6830SOL     OW21388   3.591   5.664   2.199
 6830SOL    HW121389   3.657   5.608   2.148
 6830SOL    HW221390   3.636   5.745   2.235
 6831SOL     OW21391   1.106   0.939   6.840
 6831SOL    HW121392   1.185   0.951   6.900
 6831SOL    HW221393   1.062   1.028   6.825
 6832SOL     OW21394   2.677   3.110   0.033
 6832SOL    HW121395   2.732   3.087   6.978
 6832SOL    HW221396   2.737   3.128   0.111
 6833SOL     OW21397   4.435   4.513   0.030
 6833SOL    HW121398   4.436   4.602   7.009
 6833SOL    HW221399   4.376   4.449   7.006
 6834SOL     OW21400   5.930   5.975   5.536
 6834SOL    HW121401   5.995   5.905   5.566
 6834SOL    HW221402   5.867   5.934   5.470
 6835SOL     OW21403   3.448   0.678   3.490
 6835SOL    HW121404   3.367   0.663   3.433
 6835SOL    HW221405   3.496   0.591   3.503
 6836SOL     OW21406   0.529   4.552   6.557
 6836SOL    HW121407   0.620   4.540   6.518
 6836SOL    HW221408   0.536   4.565   6.656
 6837SOL     OW21409   6.591   1.001   2.163
 6837SOL    HW121410   6.543   1.065   2.103
 6837SOL    HW221411   6.525   0.937   2.202
 6838SOL     OW21412   3.248   3.886   5.949
 6838SOL    HW121413   3.273   3.962   6.010
 6838SOL    HW221414   3.331   3.850   5.906
 6839SOL     OW21415   6.268   3.010   5.339
 6839SOL    HW121416   6.210   2.947   5.391
 6839SOL    HW221417   6.359   2.970   5.329
 6840SOL     OW21418   3.083   6.190   4.758
 6840SOL    HW121419   3.024   6.166   4.681
 6840SOL    HW221420   3.175   6.153   4.741
 6841SOL     OW21421   4.937   6.913   0.434
 6841SOL    HW121422   4.950   6.980   0.506
 6841SOL    HW221423   4.884   6.836   0.469
 6842SOL     OW21424   0.218   3.736   3.901
 6842SOL    HW121425   0.237   3.725   3.803
 6842SOL    HW221426   0.137   3.794   3.913
 6843SOL     OW21427   4.575   2.884   1.681
 6843SOL    HW121428   4.592   2.959   1.745
 6843SOL    HW221429   4.642   2.887   1.607
 6844SOL     OW21430   3.378   6.802   4.743
 6844SOL    HW121431   3.345   6.714   4.774
 6844SOL    HW221432   3.396   6.861   4.822
 6845SOL     OW21433   4.679   4.121   0.472
 6845SOL    HW121434   4.596   4.119   0.527
 6845SOL    HW221435   4.686   4.037   0.418
 6846SOL     OW21436   4.119   3.351   2.925
 6846SOL    HW121437   4.213   3.336   2.955
 6846SOL    HW221438   4.118   3.410   2.845
 6847SOL     OW21439   6.440   3.314   2.060
 6847SOL    HW121440   6.479   3.401   2.091
 6847SOL    HW221441   6.466   3.298   1.965
 6848SOL     OW21442   0.161   5.952   4.500
 6848SOL    HW121443   0.194   5.999   4.418
 6848SOL    HW221444   0.236   5.943   4.566
 6849SOL     OW21445   3.024   6.672   4.606
 6849SOL    HW121446   2.962   6.686   4.683
 6849SOL    HW221447   3.069   6.583   4.615
 6850SOL     OW21448   5.499   3.671   1.862
 6850SOL    HW121449   5.495   3.754   1.918
 6850SOL    HW221450   5.520   3.695   1.767
 6851SOL     OW21451   1.387   5.588   5.441
 6851SOL    HW121452   1.311   5.606   5.504
 6851SOL    HW221453   1.368   5.504   5.390
 6852SOL     OW21454   6.410   5.139   2.324
 6852SOL    HW121455   6.500   5.101   2.302
 6852SOL    HW221456   6.339   5.079   2.290
 6853SOL     OW21457   6.499   4.261   4.916
 6853SOL    HW121458   6.543   4.175   4.943
 6853SOL    HW221459   6.435   4.290   4.987
 6854SOL     OW21460   6.814   1.717   6.102
 6854SOL    HW121461   6.849   1.784   6.168
 6854SOL    HW221462   6.767   1.765   6.028
 6855SOL     OW21463   3.111   6.520   2.103
 6855SOL    HW121464   3.064   6.432   2.109
 6855SOL    HW221465   3.043   6.593   2.090
 6856SOL     OW21466   0.076   4.450   5.788
 6856SOL    HW121467   0.056   4.546   5.767
 6856SOL    HW221468   0.022   4.391   5.729
 6857SOL     OW21469   3.977   1.352   6.398
 6857SOL    HW121470   3.968   1.427   6.463
 6857SOL    HW221471   3.925   1.373   6.315
 6858SOL     OW21472   3.701   2.904   6.677
 6858SOL    HW121473   3.778   2.963   6.651
 6858SOL    HW221474   3.621   2.961   6.697
 6859SOL     OW21475   3.307   0.744   0.326
 6859SOL    HW121476   3.316   0.766   0.229
 6859SOL    HW221477   3.255   0.815   0.373
 6860SOL     OW21478   3.968   3.874   6.697
 6860SOL    HW121479   3.953   3.876   6.796
 6860SOL    HW221480   4.050   3.927   6.674
 6861SOL     OW21481   5.200   4.021   0.644
 6861SOL    HW121482   5.116   4.075   0.654
 6861SOL    HW221483   5.251   4.053   0.565
 6862SOL     OW21484   2.539   5.262   4.096
 6862SOL    HW121485   2.619   5.202   4.102
 6862SOL    HW221486   2.508   5.286   4.188
 6863SOL     OW21487   0.892   2.885   4.209
 6863SOL    HW121488   0.967   2.838   4.162
 6863SOL    HW221489   0.922   2.913   4.300
 6864SOL     OW21490   4.878   5.395   6.613
 6864SOL    HW121491   4.915   5.343   6.690
 6864SOL    HW221492   4.930   5.481   6.602
 6865SOL     OW21493   0.159   3.432   4.504
 6865SOL    HW121494   0.105   3.354   4.472
 6865SOL    HW221495   0.253   3.404   4.521
 6866SOL     OW21496   0.363   3.409   2.333
 6866SOL    HW121497   0.314   3.396   2.420
 6866SOL    HW221498   0.437   3.343   2.327
 6867SOL     OW21499   2.461   5.648   3.172
 6867SOL    HW121500   2.433   5.593   3.252
 6867SOL    HW221501   2.552   5.685   3.188
 6868SOL     OW21502   1.978   5.503   4.796
 6868SOL    HW121503   2.076   5.487   4.809
 6868SOL    HW221504   1.927   5.433   4.847
 6869SOL     OW21505   6.720   3.600   4.868
 6869SOL    HW121506   6.761   3.686   4.839
 6869SOL    HW221507   6.729   3.590   4.967
 6870SOL     OW21508   5.554   3.592   2.272
 6870SOL    HW121509   5.633   3.548   2.229
 6870SOL    HW221510   5.581   3.682   2.306
 6871SOL     OW21511   5.129   6.638   1.877
 6871SOL    HW121512   5.200   6.574   1.847
 6871SOL    HW221513   5.065   6.592   1.937
 6872SOL     OW21514   3.271   3.954   0.061
 6872SOL    HW121515   3.257   4.001   7.000
 6872SOL    HW221516   3.368   3.935   0.073
 6873SOL     OW21517   5.767   4.455   5.133
 6873SOL    HW121518   5.813   4.544   5.139
 6873SOL    HW221519   5.781   4.405   5.218
 6874SOL     OW21520   1.286   2.041   5.342
 6874SOL    HW121521   1.340   2.059   5.425
 6874SOL    HW221522   1.244   2.127   5.311
 6875SOL     OW21523   3.321   1.734   4.023
 6875SOL    HW121524   3.352   1.731   3.928
 6875SOL    HW221525   3.394   1.769   4.081
 6876SOL     OW21526   3.653   6.558   4.386
 6876SOL    HW121527   3.684   6.638   4.437
 6876SOL    HW221528   3.553   6.559   4.379
 6877SOL     OW21529   1.877   3.790   6.462
 6877SOL    HW121530   1.863   3.706   6.515
 6877SOL    HW221531   1.949   3.775   6.394
 6878SOL     OW21532   1.651   2.349   4.404
 6878SOL    HW121533   1.722   2.325   4.338
 6878SOL    HW221534   1.694   2.378   4.490
 6879SOL     OW21535   0.820   1.180   5.840
 6879SOL    HW121536   0.794   1.264   5.886
 6879SOL    HW221537   0.818   1.194   5.741
 6880SOL     OW21538   2.110   3.888   4.150
 6880SOL    HW121539   2.026   3.912   4.198
 6880SOL    HW221540   2.113   3.789   4.136
 6881SOL     OW21541   5.867   5.737   1.737
 6881SOL    HW121542   5.850   5.737   1.639
 6881SOL    HW221543   5.781   5.748   1.786
 6882SOL     OW21544   2.670   6.322   5.343
 6882SOL    HW121545   2.717   6.243   5.382
 6882SOL    HW221546   2.718   6.353   5.261
 6883SOL     OW21547   3.471   6.512   1.545
 6883SOL    HW121548   3.484   6.414   1.560
 6883SOL    HW221549   3.531   6.564   1.605
 6884SOL     OW21550   2.452   5.063   3.330
 6884SOL    HW121551   2.404   5.142   3.368
 6884SOL    HW221552   2.407   5.033   3.246
 6885SOL     OW21553   4.108   5.265   5.302
 6885SOL    HW121554   4.029   5.301   5.253
 6885SOL    HW221555   4.097   5.280   5.400
 6886SOL     OW21556   5.331   1.379   2.112
 6886SOL    HW121557   5.232   1.392   2.120
 6886SOL    HW221558   5.373   1.386   2.202
 6887SOL     OW21559   4.868   0.729   5.438
 6887SOL    HW121560   4.873   0.801   5.369
 6887SOL    HW221561   4.960   0.711   5.474
 6888SOL     OW21562   6.182   0.139   5.061
 6888SOL    HW121563   6.149   0.044   5.053
 6888SOL    HW221564   6.125   0.198   5.004
 6889SOL     OW21565   1.583   4.213   6.126
 6889SOL    HW121566   1.485   4.227   6.143
 6889SOL    HW221567   1.613   4.276   6.053
 6890SOL     OW21568   2.236   0.611   0.717
 6890SOL    HW121569   2.336   0.612   0.713
 6890SOL    HW221570   2.206   0.628   0.810
 6891SOL     OW21571   3.679   5.227   5.454
 6891SOL    HW121572   3.744   5.252   5.383
 6891SOL    HW221573   3.706   5.140   5.494
 6892SOL     OW21574   3.448   1.516   4.610
 6892SOL    HW121575   3.452   1.476   4.701
 6892SOL    HW221576   3.455   1.444   4.541
 6893SOL     OW21577   5.761   0.299   1.719
 6893SOL    HW121578   5.840   0.350   1.755
 6893SOL    HW221579   5.736   0.335   1.630
 6894SOL     OW21580   6.134   4.769   6.234
 6894SOL    HW121581   6.184   4.812   6.309
 6894SOL    HW221582   6.156   4.671   6.232
 6895SOL     OW21583   4.385   5.070   6.658
 6895SOL    HW121584   4.449   5.117   6.718
 6895SOL    HW221585   4.306   5.038   6.712
 6896SOL     OW21586   4.377   0.733   3.075
 6896SOL    HW121587   4.437   0.776   3.008
 6896SOL    HW221588   4.432   0.690   3.147
 6897SOL     OW21589   3.443   1.875   0.635
 6897SOL    HW121590   3.372   1.893   0.567
 6897SOL    HW221591   3.458   1.776   0.641
 6898SOL     OW21592   3.869   1.546   2.973
 6898SOL    HW121593   3.804   1.540   2.897
 6898SOL    HW221594   3.962   1.546   2.937
 6899SOL     OW21595   5.720   6.354   6.428
 6899SOL    HW121596   5.750   6.423   6.363
 6899SOL    HW221597   5.762   6.266   6.405
 6900SOL     OW21598   3.998   1.524   5.721
 6900SOL    HW121599   4.093   1.549   5.701
 6900SOL    HW221600   3.989   1.425   5.725
 6901SOL     OW21601   1.368   1.130   0.587
 6901SOL    HW121602   1.269   1.143   0.581
 6901SOL    HW221603   1.407   1.197   0.649
 6902SOL     OW21604   6.658   5.436   1.952
 6902SOL    HW121605   6.645   5.526   1.910
 6902SOL    HW221606   6.641   5.442   2.051
 6903SOL     OW21607   4.264   5.037   0.908
 6903SOL    HW121608   4.321   4.962   0.940
 6903SOL    HW221609   4.322   5.113   0.879
 6904SOL     OW21610   0.892   1.830   3.450
 6904SOL    HW121611   0.852   1.882   3.374
 6904SOL    HW221612   0.943   1.752   3.415
 6905SOL     OW21613   4.049   5.431   1.379
 6905SOL    HW121614   4.127   5.494   1.381
 6905SOL    HW221615   4.047   5.377   1.463
 6906SOL     OW21616   5.038   5.856   3.775
 6906SOL    HW121617   5.078   5.781   3.828
 6906SOL    HW221618   5.111   5.921   3.750
 6907SOL     OW21619   3.580   0.797   1.103
 6907SOL    HW121620   3.495   0.827   1.146
 6907SOL    HW221621   3.601   0.704   1.134
 6908SOL     OW21622   6.482   0.459   6.830
 6908SOL    HW121623   6.410   0.419   6.773
 6908SOL    HW221624   6.440   0.498   6.912
 6909SOL     OW21625   3.400   3.003   6.677
 6909SOL    HW121626   3.346   2.962   6.604
 6909SOL    HW221627   3.341   3.063   6.732
 6910SOL     OW21628   6.157   0.536   1.534
 6910SOL    HW121629   6.214   0.613   1.504
 6910SOL    HW221630   6.065   0.569   1.556
 6911SOL     OW21631   4.471   0.617   4.695
 6911SOL    HW121632   4.543   0.551   4.718
 6911SOL    HW221633   4.394   0.606   4.758
 6912SOL     OW21634   4.316   4.654   2.020
 6912SOL    HW121635   4.277   4.572   1.978
 6912SOL    HW221636   4.415   4.655   2.004
 6913SOL     OW21637   4.284   5.760   5.919
 6913SOL    HW121638   4.346   5.837   5.936
 6913SOL    HW221639   4.219   5.752   5.995
 6914SOL     OW21640   6.251   5.090   0.011
 6914SOL    HW121641   6.304   5.157   6.985
 6914SOL    HW221642   6.313   5.028   0.059
 6915SOL     OW21643   1.585   5.626   0.603
 6915SOL    HW121644   1.485   5.618   0.603
 6915SOL    HW221645   1.622   5.571   0.678
 6916SOL     OW21646   6.368   0.973   5.527
 6916SOL    HW121647   6.369   0.892   5.585
 6916SOL    HW221648   6.273   0.999   5.508
 6917SOL     OW21649   4.344   0.255   6.813
 6917SOL    HW121650   4.279   0.200   6.866
 6917SOL    HW221651   4.332   0.352   6.836
 6918SOL     OW21652   2.205   2.950   3.431
 6918SOL    HW121653   2.211   2.874   3.365
 6918SOL    HW221654   2.194   3.036   3.381
 6919SOL     OW21655   1.034   6.352   3.208
 6919SOL    HW121656   1.046   6.264   3.253
 6919SOL    HW221657   1.094   6.420   3.250
 6920SOL     OW21658   4.897   6.179   4.599
 6920SOL    HW121659   4.946   6.264   4.578
 6920SOL    HW221660   4.885   6.172   4.698
 6921SOL     OW21661   1.122   6.301   2.851
 6921SOL    HW121662   1.069   6.370   2.900
 6921SOL    HW221663   1.209   6.286   2.898
 6922SOL     OW21664   2.015   6.121   0.260
 6922SOL    HW121665   1.978   6.149   0.348
 6922SOL    HW221666   2.113   6.141   0.256
 6923SOL     OW21667   4.649   6.554   3.952
 6923SOL    HW121668   4.742   6.573   3.983
 6923SOL    HW221669   4.590   6.631   3.977
 6924SOL     OW21670   6.728   6.084   1.796
 6924SOL    HW121671   6.690   6.117   1.710
 6924SOL    HW221672   6.654   6.064   1.860
 6925SOL     OW21673   5.789   5.535   3.173
 6925SOL    HW121674   5.800   5.583   3.086
 6925SOL    HW221675   5.819   5.594   3.248
 6926SOL     OW21676   3.082   4.034   5.353
 6926SOL    HW121677   3.129   3.951   5.380
 6926SOL    HW221678   2.987   4.032   5.386
 6927SOL     OW21679   3.876   2.859   0.528
 6927SOL    HW121680   3.890   2.800   0.608
 6927SOL    HW221681   3.932   2.826   0.452
 6928SOL     OW21682   6.709   0.121   6.428
 6928SOL    HW121683   6.721   0.186   6.353
 6928SOL    HW221684   6.629   0.145   6.481
 6929SOL     OW21685   3.064   5.196   0.932
 6929SOL    HW121686   3.107   5.108   0.909
 6929SOL    HW221687   3.041   5.244   0.848
 6930SOL     OW21688   1.226   0.230   3.357
 6930SOL    HW121689   1.211   0.327   3.378
 6930SOL    HW221690   1.324   0.213   3.347
 6931SOL     OW21691   2.327   0.065   0.856
 6931SOL    HW121692   2.390   0.082   0.931
 6931SOL    HW221693   2.238   0.105   0.877
 6932SOL     OW21694   2.636   2.589   6.952
 6932SOL    HW121695   2.603   2.548   0.011
 6932SOL    HW221696   2.661   2.517   6.887
 6933SOL     OW21697   2.768   6.260   6.253
 6933SOL    HW121698   2.867   6.265   6.239
 6933SOL    HW221699   2.721   6.305   6.177
 6934SOL     OW21700   5.444   4.566   6.218
 6934SOL    HW121701   5.446   4.656   6.262
 6934SOL    HW221702   5.401   4.500   6.280
 6935SOL     OW21703   4.345   6.064   2.834
 6935SOL    HW121704   4.282   6.094   2.906
 6935SOL    HW221705   4.422   6.016   2.876
 6936SOL     OW21706   0.233   4.737   0.927
 6936SOL    HW121707   0.184   4.675   0.989
 6936SOL    HW221708   0.331   4.727   0.941
 6937SOL     OW21709   4.588   6.432   6.057
 6937SOL    HW121710   4.551   6.448   5.965
 6937SOL    HW221711   4.565   6.339   6.086
 6938SOL     OW21712   6.057   2.405   5.003
 6938SOL    HW121713   6.047   2.502   4.986
 6938SOL    HW221714   6.144   2.387   5.049
 6939SOL     OW21715   6.990   4.883   2.123
 6939SOL    HW121716   6.933   4.802   2.136
 6939SOL    HW221717   6.955   4.958   2.179
 6940SOL     OW21718   4.451   0.891   5.061
 6940SOL    HW121719   4.491   0.821   5.120
 6940SOL    HW221720   4.403   0.958   5.117
 6941SOL     OW21721   3.995   3.065   3.955
 6941SOL    HW121722   3.923   3.046   3.888
 6941SOL    HW221723   4.081   3.024   3.924
 6942SOL     OW21724   6.795   1.539   6.840
 6942SOL    HW121725   6.813   1.636   6.823
 6942SOL    HW221726   6.881   1.491   6.856
 6943SOL     OW21727   6.500   6.249   0.028
 6943SOL    HW121728   6.415   6.209   0.063
 6943SOL    HW221729   6.538   6.189   6.983
 6944SOL     OW21730   1.095   6.268   6.272
 6944SOL    HW121731   1.065   6.331   6.201
 6944SOL    HW221732   1.062   6.176   6.250
 6945SOL     OW21733   4.536   2.116   5.158
 6945SOL    HW121734   4.488   2.084   5.239
 6945SOL    HW221735   4.609   2.051   5.134
 6946SOL     OW21736   5.857   3.424   3.442
 6946SOL    HW121737   5.851   3.328   3.469
 6946SOL    HW221738   5.923   3.471   3.501
 6947SOL     OW21739   3.513   6.863   2.699
 6947SOL    HW121740   3.561   6.836   2.615
 6947SOL    HW221741   3.456   6.943   2.680
 6948SOL     OW21742   3.771   2.052   4.780
 6948SOL    HW121743   3.711   1.975   4.802
 6948SOL    HW221744   3.857   2.017   4.742
 6949SOL     OW21745   4.660   0.793   2.572
 6949SOL    HW121746   4.698   0.884   2.589
 6949SOL    HW221747   4.583   0.800   2.510
 6950SOL     OW21748   2.605   1.463   3.835
 6950SOL    HW121749   2.579   1.427   3.925
 6950SOL    HW221750   2.530   1.448   3.771
 6951SOL     OW21751   4.803   5.290   5.320
 6951SOL    HW121752   4.798   5.363   5.389
 6951SOL    HW221753   4.882   5.232   5.339
 6952SOL     OW21754   6.878   4.937   5.319
 6952SOL    HW121755   6.908   5.032   5.323
 6952SOL    HW221756   6.786   4.930   5.355
 6953SOL     OW21757   5.947   2.443   5.282
 6953SOL    HW121758   5.902   2.389   5.354
 6953SOL    HW221759   5.877   2.493   5.231
 6954SOL     OW21760   0.994   5.077   2.629
 6954SOL    HW121761   1.044   5.046   2.548
 6954SOL    HW221762   0.969   4.998   2.685
 6955SOL     OW21763   6.578   6.026   3.105
 6955SOL    HW121764   6.529   5.978   3.033
 6955SOL    HW221765   6.672   6.045   3.074
 6956SOL     OW21766   2.764   5.340   0.697
 6956SOL    HW121767   2.851   5.308   0.660
 6956SOL    HW221768   2.716   5.264   0.742
 6957SOL     OW21769   0.457   4.013   0.394
 6957SOL    HW121770   0.371   4.057   0.418
 6957SOL    HW221771   0.522   4.023   0.470
 6958SOL     OW21772   2.109   3.927   6.693
 6958SOL    HW121773   2.117   3.880   6.605
 6958SOL    HW221774   2.017   3.967   6.701
 6959SOL     OW21775   3.945   1.134   3.482
 6959SOL    HW121776   3.880   1.076   3.433
 6959SOL    HW221777   4.028   1.081   3.502
 6960SOL     OW21778   0.349   4.985   0.393
 6960SOL    HW121779   0.440   4.971   0.434
 6960SOL    HW221780   0.311   4.898   0.365
 6961SOL     OW21781   6.839   1.265   3.001
 6961SOL    HW121782   6.785   1.348   3.017
 6961SOL    HW221783   6.834   1.239   2.905
 6962SOL     OW21784   3.007   3.569   0.721
 6962SOL    HW121785   2.983   3.562   0.624
 6962SOL    HW221786   3.090   3.516   0.739
 6963SOL     OW21787   6.405   5.934   2.479
 6963SOL    HW121788   6.472   5.976   2.418
 6963SOL    HW221789   6.329   5.896   2.425
 6964SOL     OW21790   3.972   6.331   4.864
 6964SOL    HW121791   4.055   6.276   4.873
 6964SOL    HW221792   3.952   6.344   4.767
 6965SOL     OW21793   6.712   1.994   5.602
 6965SOL    HW121794   6.783   1.931   5.634
 6965SOL    HW221795   6.755   2.080   5.573
 6966SOL     OW21796   4.584   2.620   3.965
 6966SOL    HW121797   4.664   2.670   3.998
 6966SOL    HW221798   4.591   2.608   3.866
 6967SOL     OW21799   2.235   2.332   6.544
 6967SOL    HW121800   2.265   2.426   6.559
 6967SOL    HW221801   2.231   2.284   6.632
 6968SOL     OW21802   3.797   0.092   2.755
 6968SOL    HW121803   3.837   0.177   2.790
 6968SOL    HW221804   3.871   0.026   2.737
 6969SOL     OW21805   2.960   2.145   1.283
 6969SOL    HW121806   2.904   2.062   1.285
 6969SOL    HW221807   2.962   2.181   1.190
 6970SOL     OW21808   4.084   3.848   0.921
 6970SOL    HW121809   4.036   3.909   0.983
 6970SOL    HW221810   4.179   3.839   0.949
 6971SOL     OW21811   5.845   0.457   2.134
 6971SOL    HW121812   5.810   0.550   2.148
 6971SOL    HW221813   5.935   0.449   2.176
 6972SOL     OW21814   5.226   4.955   5.043
 6972SOL    HW121815   5.160   4.901   5.095
 6972SOL    HW221816   5.276   5.015   5.106
 6973SOL     OW21817   1.522   4.399   3.064
 6973SOL    HW121818   1.474   4.352   2.990
 6973SOL    HW221819   1.607   4.349   3.085
 6974SOL     OW21820   3.096   4.062   4.913
 6974SOL    HW121821   3.035   3.988   4.940
 6974SOL    HW221822   3.131   4.109   4.994
 6975SOL     OW21823   3.087   0.644   5.914
 6975SOL    HW121824   3.161   0.588   5.877
 6975SOL    HW221825   3.117   0.690   5.997
 6976SOL     OW21826   1.677   6.111   0.443
 6976SOL    HW121827   1.703   6.030   0.496
 6976SOL    HW221828   1.593   6.150   0.483
 6977SOL     OW21829   4.444   2.404   2.895
 6977SOL    HW121830   4.530   2.390   2.848
 6977SOL    HW221831   4.370   2.415   2.828
 6978SOL     OW21832   5.380   1.327   2.829
 6978SOL    HW121833   5.355   1.235   2.798
 6978SOL    HW221834   5.365   1.334   2.927
 6979SOL     OW21835   0.580   4.470   3.380
 6979SOL    HW121836   0.621   4.540   3.440
 6979SOL    HW221837   0.649   4.440   3.314
 6980SOL     OW21838   3.534   1.867   4.139
 6980SOL    HW121839   3.619   1.828   4.174
 6980SOL    HW221840   3.547   1.964   4.121
 6981SOL     OW21841   3.640   4.756   6.766
 6981SOL    HW121842   3.666   4.852   6.766
 6981SOL    HW221843   3.665   4.715   6.854
 6982SOL     OW21844   0.569   6.643   4.149
 6982SOL    HW121845   0.487   6.623   4.202
 6982SOL    HW221846   0.603   6.734   4.173
 6983SOL     OW21847   6.183   0.363   3.506
 6983SOL    HW121848   6.178   0.462   3.493
 6983SOL    HW221849   6.208   0.343   3.601
 6984SOL     OW21850   2.270   1.110   5.241
 6984SOL    HW121851   2.217   1.190   5.211
 6984SOL    HW221852   2.350   1.139   5.292
 6985SOL     OW21853   5.286   6.484   2.842
 6985SOL    HW121854   5.333   6.425   2.777
 6985SOL    HW221855   5.217   6.538   2.795
 6986SOL     OW21856   1.970   7.002   4.858
 6986SOL    HW121857   1.923   0.057   4.894
 6986SOL    HW221858   1.909   6.922   4.864
 6987SOL     OW21859   6.896   3.729   6.378
 6987SOL    HW121860   6.799   3.727   6.402
 6987SOL    HW221861   6.947   3.673   6.443
 6988SOL     OW21862   5.274   1.081   5.311
 6988SOL    HW121863   5.328   1.059   5.230
 6988SOL    HW221864   5.302   1.170   5.347
 6989SOL     OW21865   1.782   3.079   3.731
 6989SOL    HW121866   1.856   3.013   3.718
 6989SOL    HW221867   1.729   3.053   3.812
 6990SOL     OW21868   3.930   3.274   0.418
 6990SOL    HW121869   3.989   3.201   0.452
 6990SOL    HW221870   3.880   3.241   0.338
 6991SOL     OW21871   4.476   4.603   5.532
 6991SOL    HW121872   4.521   4.689   5.558
 6991SOL    HW221873   4.404   4.583   5.599
 6992SOL     OW21874   5.849   6.442   5.044
 6992SOL    HW121875   5.783   6.367   5.044
 6992SOL    HW221876   5.829   6.506   4.970
 6993SOL     OW21877   0.710   6.344   3.479
 6993SOL    HW121878   0.677   6.432   3.444
 6993SOL    HW221879   0.809   6.350   3.494
 6994SOL     OW21880   1.505   3.196   0.089
 6994SOL    HW121881   1.459   3.111   0.114
 6994SOL    HW221882   1.482   3.267   0.155
 6995SOL     OW21883   1.149   4.398   3.654
 6995SOL    HW121884   1.164   4.473   3.718
 6995SOL    HW221885   1.170   4.429   3.561
 6996SOL     OW21886   2.144   0.459   5.876
 6996SOL    HW121887   2.096   0.424   5.957
 6996SOL    HW221888   2.087   0.446   5.795
 6997SOL     OW21889   4.979   0.194   4.139
 6997SOL    HW121890   5.010   0.245   4.058
 6997SOL    HW221891   4.931   0.256   4.201
 6998SOL     OW21892   1.773   2.470   3.419
 6998SOL    HW121893   1.683   2.514   3.415
 6998SOL    HW221894   1.794   2.445   3.513
 6999SOL     OW21895   5.115   1.969   0.064
 6999SOL    HW121896   5.039   1.983   0.129
 6999SOL    HW221897   5.125   2.051   0.007
 7000SOL     OW21898   6.541   6.777   0.963
 7000SOL    HW121899   6.561   6.686   0.998
 7000SOL    HW221900   6.595   6.845   1.014
 7001SOL     OW21901   2.589   1.947   5.700
 7001SOL    HW121902   2.632   1.935   5.610
 7001SOL    HW221903   2.539   1.865   5.725
 7002SOL     OW21904   1.628   4.953   2.576
 7002SOL    HW121905   1.711   4.904   2.550
 7002SOL    HW221906   1.562   4.948   2.501
 7003SOL     OW21907   1.500   6.655   6.373
 7003SOL    HW121908   1.506   6.699   6.283
 7003SOL    HW221909   1.446   6.571   6.365
 7004SOL     OW21910   1.227   4.521   0.668
 7004SOL    HW121911   1.263   4.438   0.711
 7004SOL    HW221912   1.152   4.496   0.607
 7005SOL     OW21913   5.755   6.752   5.791
 7005SOL    HW121914   5.717   6.661   5.777
 7005SOL    HW221915   5.811   6.753   5.874
 7006SOL     OW21916   4.271   5.473   4.969
 7006SOL    HW121917   4.327   5.463   5.051
 7006SOL    HW221918   4.325   5.449   4.889
 7007SOL     OW21919   5.070   5.582   2.220
 7007SOL    HW121920   5.051   5.664   2.273
 7007SOL    HW221921   4.984   5.534   2.200
 7008SOL     OW21922   1.544   4.306   4.013
 7008SOL    HW121923   1.527   4.388   3.958
 7008SOL    HW221924   1.456   4.263   4.037
 7009SOL     OW21925   0.333   4.169   2.480
 7009SOL    HW121926   0.331   4.196   2.384
 7009SOL    HW221927   0.379   4.240   2.534
 7010SOL     OW21928   4.275   4.524   6.238
 7010SOL    HW121929   4.349   4.582   6.205
 7010SOL    HW221930   4.312   4.454   6.299
 7011SOL     OW21931   1.604   1.557   5.048
 7011SOL    HW121932   1.704   1.550   5.044
 7011SOL    HW221933   1.569   1.487   5.110
 7012SOL     OW21934   1.402   1.532   1.596
 7012SOL    HW121935   1.471   1.603   1.608
 7012SOL    HW221936   1.447   1.447   1.567
 7013SOL     OW21937   0.497   1.517   1.799
 7013SOL    HW121938   0.463   1.587   1.861
 7013SOL    HW221939   0.464   1.535   1.707
 7014SOL     OW21940   1.922   4.745   0.624
 7014SOL    HW121941   1.965   4.755   0.713
 7014SOL    HW221942   1.878   4.832   0.599
 7015SOL     OW21943   5.682   2.057   2.588
 7015SOL    HW121944   5.773   2.093   2.564
 7015SOL    HW221945   5.615   2.131   2.581
 7016SOL     OW21946   4.022   4.410   1.172
 7016SOL    HW121947   4.113   4.425   1.210
 7016SOL    HW221948   3.963   4.369   1.243
 7017SOL     OW21949   4.438   1.969   4.624
 7017SOL    HW121950   4.347   1.930   4.607
 7017SOL    HW221951   4.498   1.946   4.547
 7018SOL     OW21952   0.368   4.263   3.498
 7018SOL    HW121953   0.447   4.323   3.489
 7018SOL    HW221954   0.311   4.294   3.574
 7019SOL     OW21955   1.654   5.714   0.976
 7019SOL    HW121956   1.681   5.711   1.072
 7019SOL    HW221957   1.617   5.625   0.950
 7020SOL     OW21958   0.155   6.269   6.015
 7020SOL    HW121959   0.136   6.267   5.916
 7020SOL    HW221960   0.089   6.211   6.063
 7021SOL     OW21961   3.956   6.856   5.507
 7021SOL    HW121962   3.981   6.763   5.481
 7021SOL    HW221963   3.870   6.881   5.462
 7022SOL     OW21964   5.066   5.601   6.544
 7022SOL    HW121965   5.115   5.612   6.458
 7022SOL    HW221966   5.108   5.659   6.614
 7023SOL     OW21967   5.592   4.006   3.026
 7023SOL    HW121968   5.540   3.922   3.037
 7023SOL    HW221969   5.682   3.996   3.070
 7024SOL     OW21970   0.301   5.989   1.651
 7024SOL    HW121971   0.358   5.940   1.585
 7024SOL    HW221972   0.205   5.981   1.625
 7025SOL     OW21973   2.432   6.976   6.682
 7025SOL    HW121974   2.468   6.932   6.600
 7025SOL    HW221975   2.507   7.023   6.730
 7026SOL     OW21976   3.308   1.533   0.842
 7026SOL    HW121977   3.367   1.572   0.912
 7026SOL    HW221978   3.229   1.594   0.827
 7027SOL     OW21979   4.655   6.880   4.327
 7027SOL    HW121980   4.656   6.902   4.229
 7027SOL    HW221981   4.711   6.798   4.343
 7028SOL     OW21982   2.977   0.197   4.624
 7028SOL    HW121983   3.045   0.143   4.674
 7028SOL    HW221984   3.016   0.228   4.537
 7029SOL     OW21985   3.985   0.836   5.064
 7029SOL    HW121986   3.925   0.822   5.142
 7029SOL    HW221987   4.020   0.748   5.031
 7030SOL     OW21988   2.069   3.570   3.529
 7030SOL    HW121989   1.972   3.580   3.548
 7030SOL    HW221990   2.084   3.564   3.430
 7031SOL     OW21991   1.489   0.196   4.831
 7031SOL    HW121992   1.464   0.246   4.749
 7031SOL    HW221993   1.407   0.159   4.874
 7032SOL     OW21994   6.167   2.125   3.432
 7032SOL    HW121995   6.094   2.193   3.441
 7032SOL    HW221996   6.130   2.034   3.449
 7033SOL     OW21997   0.200   0.146   4.459
 7033SOL    HW121998   0.177   0.201   4.379
 7033SOL    HW221999   0.140   0.172   4.535
 7034SOL     OW22000   0.461   5.758   2.749
 7034SOL    HW122001   0.438   5.686   2.815
 7034SOL    HW222002   0.383   5.776   2.690
 7035SOL     OW22003   6.630   5.162   1.872
 7035SOL    HW122004   6.636   5.262   1.880
 7035SOL    HW222005   6.543   5.138   1.830
 7036SOL     OW22006   6.681   4.660   0.689
 7036SOL    HW122007   6.731   4.661   0.603
 7036SOL    HW222008   6.739   4.698   0.762
 7037SOL     OW22009   0.309   0.026   6.741
 7037SOL    HW122010   0.232   0.090   6.754
 7037SOL    HW222011   0.277   6.958   6.756
 7038SOL     OW22012   2.111   3.273   4.091
 7038SOL    HW122013   2.149   3.334   4.160
 7038SOL    HW222014   2.035   3.221   4.129
 7039SOL     OW22015   3.738   2.570   6.158
 7039SOL    HW122016   3.763   2.638   6.088
 7039SOL    HW222017   3.737   2.615   6.248
 7040SOL     OW22018   5.689   2.718   6.432
 7040SOL    HW122019   5.784   2.692   6.448
 7040SOL    HW222020   5.671   2.718   6.334
 7041SOL     OW22021   2.986   1.340   2.687
 7041SOL    HW122022   2.987   1.401   2.607
 7041SOL    HW222023   2.931   1.259   2.666
 7042SOL     OW22024   1.427   0.362   6.913
 7042SOL    HW122025   1.420   0.281   6.855
 7042SOL    HW222026   1.523   0.384   6.930
 7043SOL     OW22027   1.315   2.728   2.403
 7043SOL    HW122028   1.383   2.767   2.341
 7043SOL    HW222029   1.335   2.632   2.419
 7044SOL     OW22030   5.195   6.107   2.146
 7044SOL    HW122031   5.187   6.163   2.064
 7044SOL    HW222032   5.111   6.117   2.200
 7045SOL     OW22033   6.262   4.608   1.210
 7045SOL    HW122034   6.245   4.515   1.176
 7045SOL    HW222035   6.243   4.611   1.308
 7046SOL     OW22036   2.543   1.091   3.763
 7046SOL    HW122037   2.530   1.064   3.668
 7046SOL    HW222038   2.455   1.093   3.810
 7047SOL     OW22039   1.651   1.140   2.909
 7047SOL    HW122040   1.687   1.155   2.817
 7047SOL    HW222041   1.690   1.057   2.947
 7048SOL     OW22042   6.718   5.852   0.674
 7048SOL    HW122043   6.697   5.872   0.578
 7048SOL    HW222044   6.778   5.923   0.711
 7049SOL     OW22045   1.652   0.974   0.059
 7049SOL    HW122046   1.670   0.976   0.157
 7049SOL    HW222047   1.736   0.999   0.010
 7050SOL     OW22048   3.819   4.029   4.717
 7050SOL    HW122049   3.756   4.073   4.654
 7050SOL    HW222050   3.854   3.945   4.676
 7051SOL     OW22051   0.327   6.547   2.799
 7051SOL    HW122052   0.253   6.596   2.844
 7051SOL    HW222053   0.415   6.588   2.825
 7052SOL     OW22054   6.962   1.276   3.756
 7052SOL    HW122055   7.004   1.284   3.847
 7052SOL    HW222056   6.899   1.198   3.756
 7053SOL     OW22057   6.435   4.088   5.770
 7053SOL    HW122058   6.426   4.180   5.807
 7053SOL    HW222059   6.482   4.029   5.835
 7054SOL     OW22060   6.877   0.281   1.820
 7054SOL    HW122061   6.909   0.189   1.794
 7054SOL    HW222062   6.780   0.277   1.841
 7055SOL     OW22063   3.882   6.870   4.852
 7055SOL    HW122064   3.835   6.795   4.899
 7055SOL    HW222065   3.930   6.835   4.772
 7056SOL     OW22066   4.555   5.123   3.866
 7056SOL    HW122067   4.588   5.049   3.925
 7056SOL    HW222068   4.624   5.143   3.796
 7057SOL     OW22069   0.646   6.095   3.146
 7057SOL    HW122070   0.659   6.041   3.229
 7057SOL    HW222071   0.732   6.100   3.096
 7058SOL     OW22072   0.285   4.040   5.130
 7058SOL    HW122073   0.223   3.965   5.105
 7058SOL    HW222074   0.294   4.102   5.052
 7059SOL     OW22075   2.303   0.212   2.916
 7059SOL    HW122076   2.343   0.252   2.999
 7059SOL    HW222077   2.341   0.120   2.902
 7060SOL     OW22078   3.574   0.147   1.366
 7060SOL    HW122079   3.557   0.226   1.426
 7060SOL    HW222080   3.672   0.132   1.357
 7061SOL     OW22081   0.223   0.842   3.070
 7061SOL    HW122082   0.137   0.870   3.027
 7061SOL    HW222083   0.280   0.922   3.087
 7062SOL     OW22084   6.667   1.229   5.710
 7062SOL    HW122085   6.594   1.238   5.642
 7062SOL    HW222086   6.705   1.319   5.731
 7063SOL     OW22087   2.792   0.065   1.922
 7063SOL    HW122088   2.731   7.011   1.911
 7063SOL    HW222089   2.781   0.101   2.015
 7064SOL     OW22090   4.425   2.149   0.628
 7064SOL    HW122091   4.433   2.053   0.604
 7064SOL    HW222092   4.328   2.174   0.637
 7065SOL     OW22093   3.622   3.615   2.062
 7065SOL    HW122094   3.618   3.657   1.972
 7065SOL    HW222095   3.671   3.675   2.125
 7066SOL     OW22096   3.119   6.272   1.354
 7066SOL    HW122097   3.130   6.336   1.278
 7066SOL    HW222098   3.027   6.233   1.352
 7067SOL     OW22099   6.920   3.917   4.467
 7067SOL    HW122100   6.988   3.987   4.446
 7067SOL    HW222101   6.966   3.830   4.484
 7068SOL     OW22102   0.949   0.572   2.453
 7068SOL    HW122103   1.028   0.632   2.462
 7068SOL    HW222104   0.872   0.610   2.505
 7069SOL     OW22105   1.552   4.271   5.050
 7069SOL    HW122106   1.617   4.329   5.099
 7069SOL    HW222107   1.567   4.279   4.952
 7070SOL     OW22108   5.114   5.515   4.453
 7070SOL    HW122109   5.154   5.423   4.451
 7070SOL    HW222110   5.177   5.579   4.409
 7071SOL     OW22111   1.423   6.876   5.352
 7071SOL    HW122112   1.333   6.900   5.387
 7071SOL    HW222113   1.490   6.944   5.382
 7072SOL     OW22114   6.957   6.192   6.360
 7072SOL    HW122115   0.022   6.233   6.371
 7072SOL    HW222116   6.896   6.225   6.432
 7073SOL     OW22117   1.389   1.801   6.725
 7073SOL    HW122118   1.340   1.714   6.721
 7073SOL    HW222119   1.339   1.864   6.785
 7074SOL     OW22120   2.718   1.669   0.699
 7074SOL    HW122121   2.761   1.579   0.693
 7074SOL    HW222122   2.681   1.694   0.610
 7075SOL     OW22123   1.310   5.582   2.730
 7075SOL    HW122124   1.379   5.631   2.783
 7075SOL    HW222125   1.334   5.584   2.633
 7076SOL     OW22126   3.234   2.375   6.571
 7076SOL    HW122127   3.275   2.309   6.508
 7076SOL    HW222128   3.136   2.381   6.553
 7077SOL     OW22129   1.710   4.921   6.035
 7077SOL    HW122130   1.716   4.926   6.135
 7077SOL    HW222131   1.795   4.954   5.995
 7078SOL     OW22132   6.703   0.741   2.532
 7078SOL    HW122133   6.690   0.840   2.541
 7078SOL    HW222134   6.800   0.722   2.515
 7079SOL     OW22135   4.834   5.762   5.847
 7079SOL    HW122136   4.904   5.736   5.780
 7079SOL    HW222137   4.778   5.683   5.870
 7080SOL     OW22138   5.649   0.066   3.900
 7080SOL    HW122139   5.559   0.080   3.941
 7080SOL    HW222140   5.643   0.082   3.801
 7081SOL     OW22141   3.641   1.271   5.385
 7081SOL    HW122142   3.703   1.230   5.452
 7081SOL    HW222143   3.692   1.332   5.325
 7082SOL     OW22144   5.257   1.622   6.471
 7082SOL    HW122145   5.293   1.698   6.525
 7082SOL    HW222146   5.161   1.639   6.450
 7083SOL     OW22147   3.303   6.930   5.875
 7083SOL    HW122148   3.313   7.022   5.912
 7083SOL    HW222149   3.333   6.929   5.780
 7084SOL     OW22150   6.714   6.392   0.157
 7084SOL    HW122151   6.702   6.491   0.152
 7084SOL    HW222152   6.630   6.346   0.128
 7085SOL     OW22153   3.190   2.688   0.640
 7085SOL    HW122154   3.274   2.728   0.601
 7085SOL    HW222155   3.139   2.759   0.688
 7086SOL     OW22156   6.907   0.886   6.478
 7086SOL    HW122157   6.912   0.795   6.519
 7086SOL    HW222158   6.997   0.911   6.443
 7087SOL     OW22159   1.912   2.528   4.999
 7087SOL    HW122160   1.981   2.557   4.933
 7087SOL    HW222161   1.957   2.497   5.083
 7088SOL     OW22162   0.346   1.665   5.626
 7088SOL    HW122163   0.305   1.642   5.537
 7088SOL    HW222164   0.428   1.609   5.639
 7089SOL     OW22165   2.478   1.569   0.806
 7089SOL    HW122166   2.445   1.603   0.894
 7089SOL    HW222167   2.573   1.595   0.793
 7090SOL     OW22168   2.352   2.784   4.615
 7090SOL    HW122169   2.444   2.746   4.620
 7090SOL    HW222170   2.311   2.784   4.706
 7091SOL     OW22171   0.167   5.954   0.763
 7091SOL    HW122172   0.201   6.039   0.723
 7091SOL    HW222173   0.135   5.893   0.691
 7092SOL     OW22174   2.931   3.451   6.512
 7092SOL    HW122175   2.977   3.402   6.587
 7092SOL    HW222176   2.851   3.399   6.482
 7093SOL     OW22177   3.934   2.967   6.027
 7093SOL    HW122178   3.878   2.948   6.107
 7093SOL    HW222179   4.030   2.957   6.050
 7094SOL     OW22180   6.967   0.310   6.375
 7094SOL    HW122181   6.952   0.386   6.312
 7094SOL    HW222182   6.879   0.268   6.397
 7095SOL     OW22183   0.297   4.349   6.618
 7095SOL    HW122184   0.259   4.322   6.707
 7095SOL    HW222185   0.384   4.396   6.632
 7096SOL     OW22186   5.455   0.813   2.339
 7096SOL    HW122187   5.475   0.731   2.286
 7096SOL    HW222188   5.383   0.865   2.293
 7097SOL     OW22189   1.214   0.579   1.561
 7097SOL    HW122190   1.280   0.653   1.572
 7097SOL    HW222191   1.260   0.491   1.571
 7098SOL     OW22192   1.660   0.105   5.774
 7098SOL    HW122193   1.730   0.035   5.765
 7098SOL    HW222194   1.677   0.179   5.709
 7099SOL     OW22195   0.601   1.041   6.309
 7099SOL    HW122196   0.588   1.003   6.400
 7099SOL    HW222197   0.668   1.115   6.314
 7100SOL     OW22198   5.465   2.315   1.149
 7100SOL    HW122199   5.369   2.292   1.163
 7100SOL    HW222200   5.474   2.370   1.066
 7101SOL     OW22201   1.839   0.290   4.313
 7101SOL    HW122202   1.848   0.382   4.275
 7101SOL    HW222203   1.925   0.241   4.300
 7102SOL     OW22204   4.648   2.666   0.763
 7102SOL    HW122205   4.637   2.593   0.830
 7102SOL    HW222206   4.745   2.677   0.740
 7103SOL     OW22207   2.402   6.545   6.394
 7103SOL    HW122208   2.307   6.570   6.376
 7103SOL    HW222209   2.437   6.490   6.318
 7104SOL     OW22210   0.528   2.289   1.850
 7104SOL    HW122211   0.558   2.384   1.859
 7104SOL    HW222212   0.434   2.288   1.816
 7105SOL     OW22213   2.439   4.135   5.357
 7105SOL    HW122214   2.341   4.147   5.373
 7105SOL    HW222215   2.454   4.055   5.299
 7106SOL     OW22216   3.085   2.560   5.373
 7106SOL    HW122217   3.136   2.646   5.365
 7106SOL    HW222218   3.115   2.497   5.302
 7107SOL     OW22219   2.630   0.686   6.933
 7107SOL    HW122220   2.724   0.668   6.961
 7107SOL    HW222221   2.568   0.625   6.982
 7108SOL     OW22222   4.173   6.513   2.520
 7108SOL    HW122223   4.247   6.456   2.484
 7108SOL    HW222224   4.108   6.455   2.570
 7109SOL     OW22225   3.856   6.207   6.053
 7109SOL    HW122226   3.895   6.292   6.019
 7109SOL    HW222227   3.847   6.211   6.153
 7110SOL     OW22228   3.391   5.449   3.044
 7110SOL    HW122229   3.376   5.354   3.016
 7110SOL    HW222230   3.422   5.452   3.139
 7111SOL     OW22231   1.435   2.895   3.817
 7111SOL    HW122232   1.505   2.843   3.867
 7111SOL    HW222233   1.349   2.845   3.820
 7112SOL     OW22234   1.591   6.426   2.413
 7112SOL    HW122235   1.612   6.485   2.491
 7112SOL    HW222236   1.502   6.381   2.428
 7113SOL     OW22237   3.228   3.819   4.842
 7113SOL    HW122238   3.180   3.906   4.851
 7113SOL    HW222239   3.168   3.752   4.798
 7114SOL     OW22240   4.189   0.132   1.098
 7114SOL    HW122241   4.185   0.032   1.091
 7114SOL    HW222242   4.271   0.166   1.053
 7115SOL     OW22243   4.033   1.740   1.764
 7115SOL    HW122244   4.023   1.834   1.798
 7115SOL    HW222245   3.942   1.698   1.756
 7116SOL     OW22246   6.027   3.630   3.098
 7116SOL    HW122247   6.093   3.690   3.053
 7116SOL    HW222248   6.012   3.548   3.043
 7117SOL     OW22249   6.493   6.618   2.190
 7117SOL    HW122250   6.566   6.684   2.173
 7117SOL    HW222251   6.429   6.619   2.113
 7118SOL     OW22252   6.973   2.622   2.097
 7118SOL    HW122253   7.016   2.712   2.107
 7118SOL    HW222254   6.968   2.577   2.186
 7119SOL     OW22255   6.989   1.675   2.980
 7119SOL    HW122256   0.042   1.674   2.919
 7119SOL    HW222257   6.908   1.643   2.931
 7120SOL     OW22258   5.282   6.968   3.409
 7120SOL    HW122259   5.281   6.970   3.509
 7120SOL    HW222260   5.235   6.886   3.377
 7121SOL     OW22261   3.597   6.660   1.781
 7121SOL    HW122262   3.514   6.629   1.827
 7121SOL    HW222263   3.650   6.718   1.843
 7122SOL     OW22264   6.850   7.025   0.061
 7122SOL    HW122265   6.821   6.941   0.014
 7122SOL    HW222266   6.943   0.022   0.035
 7123SOL     OW22267   2.242   5.152   0.721
 7123SOL    HW122268   2.210   5.237   0.679
 7123SOL    HW222269   2.284   5.095   0.651
 7124SOL     OW22270   0.391   5.637   1.710
 7124SOL    HW122271   0.395   5.705   1.637
 7124SOL    HW222272   0.407   5.546   1.673
 7125SOL     OW22273   6.957   6.526   2.610
 7125SOL    HW122274   6.971   6.604   2.549
 7125SOL    HW222275   0.011   6.465   2.604
 7126SOL     OW22276   0.962   4.942   0.661
 7126SOL    HW122277   0.976   5.031   0.704
 7126SOL    HW222278   0.880   4.899   0.700
 7127SOL     OW22279   3.465   0.153   4.567
 7127SOL    HW122280   3.405   0.073   4.561
 7127SOL    HW222281   3.560   0.125   4.566
 7128SOL     OW22282   2.829   4.717   1.689
 7128SOL    HW122283   2.813   4.643   1.754
 7128SOL    HW222284   2.832   4.679   1.596
 7129SOL     OW22285   2.912   1.705   1.629
 7129SOL    HW122286   2.822   1.742   1.654
 7129SOL    HW222287   2.933   1.626   1.687
 7130SOL     OW22288   2.119   6.354   2.121
 7130SOL    HW122289   2.156   6.298   2.046
 7130SOL    HW222290   2.102   6.295   2.201
 7131SOL     OW22291   2.797   1.258   3.763
 7131SOL    HW122292   2.750   1.344   3.784
 7131SOL    HW222293   2.729   1.184   3.754
 7132SOL     OW22294   3.255   4.132   2.690
 7132SOL    HW122295   3.216   4.218   2.723
 7132SOL    HW222296   3.184   4.061   2.692
 7133SOL     OW22297   5.185   4.699   2.391
 7133SOL    HW122298   5.108   4.635   2.385
 7133SOL    HW222299   5.229   4.689   2.480
 7134SOL     OW22300   5.111   4.632   3.397
 7134SOL    HW122301   5.021   4.621   3.439
 7134SOL    HW222302   5.118   4.573   3.316
 7135SOL     OW22303   1.099   2.191   5.037
 7135SOL    HW122304   1.124   2.260   4.969
 7135SOL    HW222305   1.129   2.222   5.128
 7136SOL     OW22306   2.326   2.021   6.559
 7136SOL    HW122307   2.341   1.950   6.627
 7136SOL    HW222308   2.404   2.084   6.559
 7137SOL     OW22309   3.663   1.358   5.032
 7137SOL    HW122310   3.709   1.270   5.021
 7137SOL    HW222311   3.713   1.429   4.981
 7138SOL     OW22312   2.216   3.843   6.931
 7138SOL    HW122313   2.151   3.779   6.973
 7138SOL    HW222314   2.178   3.879   6.846
 7139SOL     OW22315   3.100   2.363   0.392
 7139SOL    HW122316   3.187   2.326   0.357
 7139SOL    HW222317   3.113   2.393   0.486
 7140SOL     OW22318   6.505   3.234   5.274
 7140SOL    HW122319   6.537   3.253   5.181
 7140SOL    HW222320   6.406   3.229   5.274
 7141SOL     OW22321   2.061   0.128   0.917
 7141SOL    HW122322   2.087   0.052   0.976
 7141SOL    HW222323   1.961   0.135   0.913
 7142SOL     OW22324   4.132   7.001   3.986
 7142SOL    HW122325   4.146   7.018   3.888
 7142SOL    HW222326   4.118   6.904   4.002
 7143SOL     OW22327   1.737   3.299   4.010
 7143SOL    HW122328   1.681   3.235   3.957
 7143SOL    HW222329   1.807   3.338   3.950
 7144SOL     OW22330   1.151   2.792   4.069
 7144SOL    HW122331   1.121   2.820   3.978
 7144SOL    HW222332   1.162   2.692   4.071
 7145SOL     OW22333   4.091   6.733   6.072
 7145SOL    HW122334   4.173   6.683   6.101
 7145SOL    HW222335   4.044   6.770   6.152
 7146SOL     OW22336   2.925   4.913   0.727
 7146SOL    HW122337   2.902   4.818   0.706
 7146SOL    HW222338   2.998   4.916   0.795
 7147SOL     OW22339   0.106   0.924   4.038
 7147SOL    HW122340   0.172   0.856   4.006
 7147SOL    HW222341   0.023   0.918   3.984
 7148SOL     OW22342   0.852   1.592   0.676
 7148SOL    HW122343   0.880   1.499   0.702
 7148SOL    HW222344   0.880   1.610   0.582
 7149SOL     OW22345   6.551   0.581   3.574
 7149SOL    HW122346   6.487   0.631   3.516
 7149SOL    HW222347   6.544   0.483   3.555
 7150SOL     OW22348   5.709   3.831   7.020
 7150SOL    HW122349   5.666   3.760   0.050
 7150SOL    HW222350   5.808   3.827   0.005
 7151SOL     OW22351   1.946   5.884   1.190
 7151SOL    HW122352   2.039   5.877   1.153
 7151SOL    HW222353   1.932   5.975   1.228
 7152SOL     OW22354   1.463   2.429   4.235
 7152SOL    HW122355   1.422   2.346   4.196
 7152SOL    HW222356   1.537   2.403   4.298
 7153SOL     OW22357   3.374   1.868   3.384
 7153SOL    HW122358   3.429   1.908   3.457
 7153SOL    HW222359   3.350   1.774   3.408
 7154SOL     OW22360   4.640   6.262   4.471
 7154SOL    HW122361   4.666   6.251   4.375
 7154SOL    HW222362   4.721   6.254   4.528
 7155SOL     OW22363   2.384   0.264   2.404
 7155SOL    HW122364   2.416   0.358   2.407
 7155SOL    HW222365   2.447   0.210   2.347
 7156SOL     OW22366   0.840   5.832   4.311
 7156SOL    HW122367   0.821   5.826   4.213
 7156SOL    HW222368   0.937   5.816   4.328
 7157SOL     OW22369   5.197   4.320   1.327
 7157SOL    HW122370   5.167   4.406   1.287
 7157SOL    HW222371   5.138   4.246   1.295
 7158SOL     OW22372   5.249   7.022   4.139
 7158SOL    HW122373   5.150   7.024   4.122
 7158SOL    HW222374   5.295   0.055   4.071
 7159SOL     OW22375   0.906   5.266   0.236
 7159SOL    HW122376   0.990   5.223   0.270
 7159SOL    HW222377   0.842   5.279   0.311
 7160SOL     OW22378   6.126   0.782   2.063
 7160SOL    HW122379   6.078   0.868   2.082
 7160SOL    HW222380   6.214   0.802   2.019
 7161SOL     OW22381   3.299   4.119   3.824
 7161SOL    HW122382   3.349   4.035   3.802
 7161SOL    HW222383   3.272   4.117   3.921
 7162SOL     OW22384   2.914   4.791   3.701
 7162SOL    HW122385   2.815   4.782   3.714
 7162SOL    HW222386   2.953   4.700   3.684
 7163SOL     OW22387   2.574   6.625   3.267
 7163SOL    HW122388   2.547   6.598   3.360
 7163SOL    HW222389   2.509   6.586   3.201
 7164SOL     OW22390   2.816   1.840   3.247
 7164SOL    HW122391   2.818   1.935   3.279
 7164SOL    HW222392   2.728   1.799   3.271
 7165SOL     OW22393   4.585   7.013   1.938
 7165SOL    HW122394   4.645   0.055   1.981
 7165SOL    HW222395   4.506   6.996   1.996
 7166SOL     OW22396   4.973   5.274   1.724
 7166SOL    HW122397   5.021   5.194   1.688
 7166SOL    HW222398   4.986   5.279   1.823
 7167SOL     OW22399   5.525   2.803   5.465
 7167SOL    HW122400   5.451   2.737   5.450
 7167SOL    HW222401   5.494   2.873   5.529
 7168SOL     OW22402   1.116   2.024   4.544
 7168SOL    HW122403   1.065   2.110   4.558
 7168SOL    HW222404   1.148   1.991   4.633
 7169SOL     OW22405   1.445   2.988   6.874
 7169SOL    HW122406   1.470   2.968   6.969
 7169SOL    HW222407   1.345   2.991   6.866
 7170SOL     OW22408   6.365   5.366   4.134
 7170SOL    HW122409   6.425   5.440   4.102
 7170SOL    HW222410   6.351   5.375   4.233
 7171SOL     OW22411   4.123   2.750   5.701
 7171SOL    HW122412   4.205   2.790   5.661
 7171SOL    HW222413   4.137   2.737   5.799
 7172SOL     OW22414   1.121   6.916   0.896
 7172SOL    HW122415   1.140   6.825   0.933
 7172SOL    HW222416   1.207   6.961   0.871
 7173SOL     OW22417   5.716   6.516   5.477
 7173SOL    HW122418   5.738   6.572   5.396
 7173SOL    HW222419   5.627   6.544   5.513
 7174SOL     OW22420   0.615   5.513   0.027
 7174SOL    HW122421   0.712   5.534   0.017
 7174SOL    HW222422   0.575   5.574   0.096
 7175SOL     OW22423   6.391   2.804   5.481
 7175SOL    HW122424   6.478   2.757   5.474
 7175SOL    HW222425   6.323   2.757   5.425
 7176SOL     OW22426   6.300   3.466   1.565
 7176SOL    HW122427   6.205   3.443   1.584
 7176SOL    HW222428   6.316   3.563   1.587
 7177SOL     OW22429   0.934   6.044   2.171
 7177SOL    HW122430   1.031   6.027   2.187
 7177SOL    HW222431   0.919   6.060   2.074
 7178SOL     OW22432   0.134   2.378   6.268
 7178SOL    HW122433   0.163   2.355   6.175
 7178SOL    HW222434   0.215   2.386   6.327
 7179SOL     OW22435   2.405   4.379   6.247
 7179SOL    HW122436   2.462   4.407   6.170
 7179SOL    HW222437   2.411   4.448   6.320
 7180SOL     OW22438   1.230   6.515   3.306
 7180SOL    HW122439   1.212   6.595   3.249
 7180SOL    HW222440   1.328   6.498   3.311
 7181SOL     OW22441   5.322   6.759   2.464
 7181SOL    HW122442   5.375   6.809   2.395
 7181SOL    HW222443   5.383   6.697   2.513
 7182SOL     OW22444   3.443   3.546   5.756
 7182SOL    HW122445   3.475   3.561   5.849
 7182SOL    HW222446   3.345   3.526   5.758
 7183SOL     OW22447   1.742   4.811   3.184
 7183SOL    HW122448   1.658   4.864   3.191
 7183SOL    HW222449   1.757   4.784   3.089
 7184SOL     OW22450   2.188   5.965   2.786
 7184SOL    HW122451   2.186   6.007   2.877
 7184SOL    HW222452   2.249   6.018   2.727
 7185SOL     OW22453   4.006   2.320   6.437
 7185SOL    HW122454   4.028   2.260   6.514
 7185SOL    HW222455   3.965   2.404   6.472
 7186SOL     OW22456   0.237   6.911   4.139
 7186SOL    HW122457   0.282   6.892   4.051
 7186SOL    HW222458   0.245   7.008   4.160
 7187SOL     OW22459   2.553   5.835   1.423
 7187SOL    HW122460   2.550   5.891   1.506
 7187SOL    HW222461   2.537   5.893   1.343
 7188SOL     OW22462   4.841   0.453   1.617
 7188SOL    HW122463   4.866   0.407   1.532
 7188SOL    HW222464   4.838   0.552   1.602
 7189SOL     OW22465   6.601   0.334   4.727
 7189SOL    HW122466   6.587   0.235   4.717
 7189SOL    HW222467   6.592   0.379   4.639
 7190SOL     OW22468   4.876   5.193   3.170
 7190SOL    HW122469   4.802   5.232   3.116
 7190SOL    HW222470   4.964   5.210   3.125
 7191SOL     OW22471   0.964   2.988   1.745
 7191SOL    HW122472   0.920   2.943   1.823
 7191SOL    HW222473   0.978   3.085   1.766
 7192SOL     OW22474   3.858   5.592   6.233
 7192SOL    HW122475   3.926   5.578   6.161
 7192SOL    HW222476   3.837   5.504   6.276
 7193SOL     OW22477   5.223   1.507   3.513
 7193SOL    HW122478   5.123   1.501   3.506
 7193SOL    HW222479   5.249   1.522   3.608
 7194SOL     OW22480   3.101   1.532   1.071
 7194SOL    HW122481   3.175   1.559   1.132
 7194SOL    HW222482   3.086   1.433   1.078
 7195SOL     OW22483   0.406   6.219   2.070
 7195SOL    HW122484   0.388   6.308   2.027
 7195SOL    HW222485   0.416   6.230   2.169
 7196SOL     OW22486   3.674   2.950   2.118
 7196SOL    HW122487   3.638   2.886   2.050
 7196SOL    HW222488   3.659   3.044   2.088
 7197SOL     OW22489   1.554   1.711   4.650
 7197SOL    HW122490   1.614   1.652   4.596
 7197SOL    HW222491   1.597   1.800   4.662
 7198SOL     OW22492   0.435   6.232   6.289
 7198SOL    HW122493   0.370   6.164   6.323
 7198SOL    HW222494   0.520   6.226   6.342
 7199SOL     OW22495   5.966   6.478   2.585
 7199SOL    HW122496   5.913   6.398   2.613
 7199SOL    HW222497   6.055   6.477   2.630
 7200SOL     OW22498   2.185   1.909   1.690
 7200SOL    HW122499   2.225   1.817   1.688
 7200SOL    HW222500   2.143   1.925   1.779
 7201SOL     OW22501   2.711   4.975   3.308
 7201SOL    HW122502   2.714   4.875   3.301
 7201SOL    HW222503   2.617   5.005   3.319
 7202SOL     OW22504   3.663   0.251   5.806
 7202SOL    HW122505   3.643   0.176   5.870
 7202SOL    HW222506   3.751   0.292   5.831
 7203SOL     OW22507   5.990   6.974   6.652
 7203SOL    HW122508   5.972   7.009   6.744
 7203SOL    HW222509   6.089   6.970   6.636
 7204SOL     OW22510   5.877   1.628   2.343
 7204SOL    HW122511   5.952   1.633   2.408
 7204SOL    HW222512   5.857   1.719   2.307
 7205SOL     OW22513   2.032   5.246   1.957
 7205SOL    HW122514   2.078   5.159   1.936
 7205SOL    HW222515   1.935   5.238   1.936
 7206SOL     OW22516   5.730   1.406   1.899
 7206SOL    HW122517   5.654   1.402   1.834
 7206SOL    HW222518   5.743   1.501   1.929
 7207SOL     OW22519   4.408   6.603   2.071
 7207SOL    HW122520   4.386   6.620   1.975
 7207SOL    HW222521   4.331   6.558   2.115
 7208SOL     OW22522   3.104   0.097   5.148
 7208SOL    HW122523   3.026   0.102   5.210
 7208SOL    HW222524   3.079   0.044   5.067
 7209SOL     OW22525   3.970   3.551   4.464
 7209SOL    HW122526   4.029   3.503   4.398
 7209SOL    HW222527   3.984   3.513   4.555
 7210SOL     OW22528   4.814   0.831   4.046
 7210SOL    HW122529   4.718   0.857   4.036
 7210SOL    HW222530   4.849   0.799   3.959
 7211SOL     OW22531   1.592   4.964   2.843
 7211SOL    HW122532   1.620   4.959   2.747
 7211SOL    HW222533   1.499   4.930   2.852
 7212SOL     OW22534   5.004   6.865   3.614
 7212SOL    HW122535   4.913   6.827   3.597
 7212SOL    HW222536   5.002   6.964   3.597
 7213SOL     OW22537   5.824   0.105   5.712
 7213SOL    HW122538   5.734   0.066   5.733
 7213SOL    HW222539   5.818   0.204   5.707
 7214SOL     OW22540   0.270   4.961   5.199
 7214SOL    HW122541   0.307   5.014   5.123
 7214SOL    HW222542   0.257   4.866   5.171
 7215SOL     OW22543   1.131   2.956   2.755
 7215SOL    HW122544   1.057   2.889   2.744
 7215SOL    HW222545   1.094   3.039   2.795
 7216SOL     OW22546   2.452   1.522   1.812
 7216SOL    HW122547   2.354   1.544   1.817
 7216SOL    HW222548   2.490   1.557   1.727
 7217SOL     OW22549   1.505   3.279   2.004
 7217SOL    HW122550   1.584   3.226   1.975
 7217SOL    HW222551   1.484   3.259   2.100
 7218SOL     OW22552   6.415   1.994   6.008
 7218SOL    HW122553   6.436   1.897   6.021
 7218SOL    HW222554   6.337   2.020   6.065
 7219SOL     OW22555   3.610   0.611   1.294
 7219SOL    HW122556   3.705   0.597   1.265
 7219SOL    HW222557   3.588   0.547   1.367
 7220SOL     OW22558   0.291   0.946   2.648
 7220SOL    HW122559   0.358   1.001   2.696
 7220SOL    HW222560   0.331   0.858   2.622
 7221SOL     OW22561   5.535   4.889   5.546
 7221SOL    HW122562   5.633   4.871   5.545
 7221SOL    HW222563   5.488   4.821   5.489
 7222SOL     OW22564   5.664   6.363   3.113
 7222SOL    HW122565   5.727   6.323   3.179
 7222SOL    HW222566   5.706   6.362   3.022
 7223SOL     OW22567   3.999   1.038   5.425
 7223SOL    HW122568   4.029   1.071   5.335
 7223SOL    HW222569   4.052   0.957   5.449
 7224SOL     OW22570   5.023   0.776   4.263
 7224SOL    HW122571   5.032   0.847   4.193
 7224SOL    HW222572   4.936   0.786   4.310
 7225SOL     OW22573   2.105   0.575   0.489
 7225SOL    HW122574   2.121   0.492   0.437
 7225SOL    HW222575   2.152   0.569   0.577
 7226SOL     OW22576   5.707   6.686   6.527
 7226SOL    HW122577   5.784   6.747   6.507
 7226SOL    HW222578   5.634   6.704   6.462
 7227SOL     OW22579   6.885   2.401   6.256
 7227SOL    HW122580   6.860   2.480   6.313
 7227SOL    HW222581   6.984   2.387   6.261
 7228SOL     OW22582   2.151   0.511   2.609
 7228SOL    HW122583   2.067   0.458   2.600
 7228SOL    HW222584   2.173   0.554   2.522
 7229SOL     OW22585   0.615   0.489   3.946
 7229SOL    HW122586   0.564   0.474   4.031
 7229SOL    HW222587   0.711   0.467   3.960
 7230SOL     OW22588   5.693   5.081   1.869
 7230SOL    HW122589   5.779   5.070   1.819
 7230SOL    HW222590   5.666   5.178   1.868
 7231SOL     OW22591   5.503   1.251   6.775
 7231SOL    HW122592   5.447   1.312   6.718
 7231SOL    HW222593   5.587   1.228   6.725
 7232SOL     OW22594   3.767   4.128   0.880
 7232SOL    HW122595   3.788   4.220   0.846
 7232SOL    HW222596   3.765   4.064   0.803
 7233SOL     OW22597   0.366   2.022   5.985
 7233SOL    HW122598   0.346   2.006   5.888
 7233SOL    HW222599   0.463   2.047   5.995
 7234SOL     OW22600   5.796   1.718   2.765
 7234SOL    HW122601   5.717   1.731   2.705
 7234SOL    HW222602   5.765   1.696   2.857
 7235SOL     OW22603   6.088   2.789   4.488
 7235SOL    HW122604   5.996   2.773   4.525
 7235SOL    HW222605   6.082   2.799   4.388
 7236SOL     OW22606   2.713   1.101   3.270
 7236SOL    HW122607   2.709   1.199   3.252
 7236SOL    HW222608   2.807   1.074   3.292
 7237SOL     OW22609   5.826   5.316   5.407
 7237SOL    HW122610   5.870   5.231   5.378
 7237SOL    HW222611   5.835   5.384   5.334
 7238SOL     OW22612   0.832   1.144   1.661
 7238SOL    HW122613   0.738   1.150   1.627
 7238SOL    HW222614   0.845   1.211   1.735
 7239SOL     OW22615   4.342   1.081   2.298
 7239SOL    HW122616   4.273   1.082   2.226
 7239SOL    HW222617   4.377   1.173   2.314
 7240SOL     OW22618   2.709   3.177   1.322
 7240SOL    HW122619   2.686   3.118   1.400
 7240SOL    HW222620   2.808   3.193   1.321
 7241SOL     OW22621   4.962   6.601   4.599
 7241SOL    HW122622   5.004   6.512   4.612
 7241SOL    HW222623   4.999   6.666   4.665
 7242SOL     OW22624   5.457   4.959   0.539
 7242SOL    HW122625   5.425   5.052   0.553
 7242SOL    HW222626   5.385   4.904   0.497
 7243SOL     OW22627   0.461   5.696   0.432
 7243SOL    HW122628   0.378   5.650   0.398
 7243SOL    HW222629   0.468   5.681   0.531
 7244SOL     OW22630   5.682   1.434   0.975
 7244SOL    HW122631   5.780   1.447   0.964
 7244SOL    HW222632   5.658   1.440   1.072
 7245SOL     OW22633   6.409   1.768   4.502
 7245SOL    HW122634   6.364   1.857   4.502
 7245SOL    HW222635   6.340   1.696   4.494
 7246SOL     OW22636   1.691   5.818   5.367
 7246SOL    HW122637   1.686   5.792   5.463
 7246SOL    HW222638   1.613   5.876   5.343
 7247SOL     OW22639   3.580   5.567   2.862
 7247SOL    HW122640   3.498   5.517   2.890
 7247SOL    HW222641   3.652   5.554   2.930
 7248SOL     OW22642   3.148   1.028   4.983
 7248SOL    HW122643   3.054   1.001   5.005
 7248SOL    HW222644   3.156   1.049   4.886
 7249SOL     OW22645   5.974   4.400   6.174
 7249SOL    HW122646   6.048   4.422   6.238
 7249SOL    HW222647   5.960   4.301   6.172
 7250SOL     OW22648   2.970   3.610   0.438
 7250SOL    HW122649   2.904   3.664   0.385
 7250SOL    HW222650   3.019   3.548   0.378
 7251SOL     OW22651   5.299   0.727   4.673
 7251SOL    HW122652   5.342   0.643   4.640
 7251SOL    HW222653   5.300   0.728   4.773
 7252SOL     OW22654   4.450   3.643   5.325
 7252SOL    HW122655   4.399   3.602   5.250
 7252SOL    HW222656   4.548   3.626   5.313
 7253SOL     OW22657   5.277   4.710   1.256
 7253SOL    HW122658   5.260   4.796   1.207
 7253SOL    HW222659   5.219   4.638   1.218
 7254SOL     OW22660   5.375   0.007   5.666
 7254SOL    HW122661   5.416   0.025   5.576
 7254SOL    HW222662   5.281   0.042   5.667
 7255SOL     OW22663   3.910   3.412   1.788
 7255SOL    HW122664   3.990   3.468   1.769
 7255SOL    HW222665   3.880   3.427   1.882
 7256SOL     OW22666   3.859   5.168   4.070
 7256SOL    HW122667   3.788   5.194   4.135
 7256SOL    HW222668   3.850   5.070   4.049
 7257SOL     OW22669   5.911   3.737   3.325
 7257SOL    HW122670   5.947   3.688   3.404
 7257SOL    HW222671   5.934   3.686   3.242
 7258SOL     OW22672   2.156   0.177   5.749
 7258SOL    HW122673   2.222   0.102   5.747
 7258SOL    HW222674   2.110   0.179   5.838
 7259SOL     OW22675   2.541   5.821   6.369
 7259SOL    HW122676   2.491   5.802   6.453
 7259SOL    HW222677   2.482   5.868   6.304
 7260SOL     OW22678   4.865   1.640   2.592
 7260SOL    HW122679   4.837   1.736   2.589
 7260SOL    HW222680   4.888   1.615   2.686
 7261SOL     OW22681   1.757   4.702   1.271
 7261SOL    HW122682   1.786   4.797   1.282
 7261SOL    HW222683   1.676   4.684   1.326
 7262SOL     OW22684   6.310   1.343   5.892
 7262SOL    HW122685   6.321   1.372   5.987
 7262SOL    HW222686   6.252   1.408   5.843
 7263SOL     OW22687   5.330   6.116   1.799
 7263SOL    HW122688   5.248   6.060   1.791
 7263SOL    HW222689   5.325   6.191   1.733
 7264SOL     OW22690   1.501   6.639   4.689
 7264SOL    HW122691   1.487   6.726   4.738
 7264SOL    HW222692   1.425   6.578   4.709
 7265SOL     OW22693   4.361   3.329   6.050
 7265SOL    HW122694   4.358   3.391   5.972
 7265SOL    HW222695   4.268   3.314   6.084
 7266SOL     OW22696   3.876   1.433   1.583
 7266SOL    HW122697   3.804   1.488   1.540
 7266SOL    HW222698   3.918   1.374   1.514
 7267SOL     OW22699   0.126   2.871   4.350
 7267SOL    HW122700   0.181   2.789   4.339
 7267SOL    HW222701   0.099   2.905   4.260
 7268SOL     OW22702   3.520   0.373   0.186
 7268SOL    HW122703   3.424   0.347   0.181
 7268SOL    HW222704   3.574   0.297   0.222
 7269SOL     OW22705   1.013   6.572   1.977
 7269SOL    HW122706   0.999   6.476   2.003
 7269SOL    HW222707   0.944   6.629   2.021
 7270SOL     OW22708   3.283   1.830   2.273
 7270SOL    HW122709   3.249   1.866   2.360
 7270SOL    HW222710   3.205   1.804   2.216
 7271SOL     OW22711   6.245   5.156   3.807
 7271SOL    HW122712   6.234   5.131   3.711
 7271SOL    HW222713   6.325   5.109   3.845
 7272SOL     OW22714   6.448   2.129   1.283
 7272SOL    HW122715   6.496   2.099   1.365
 7272SOL    HW222716   6.455   2.058   1.213
 7273SOL     OW22717   5.390   5.922   5.442
 7273SOL    HW122718   5.389   5.825   5.421
 7273SOL    HW222719   5.343   5.939   5.529
 7274SOL     OW22720   6.444   5.134   4.025
 7274SOL    HW122721   6.440   5.221   4.075
 7274SOL    HW222722   6.426   5.059   4.089
 7275SOL     OW22723   5.403   6.560   1.179
 7275SOL    HW122724   5.451   6.647   1.176
 7275SOL    HW222725   5.443   6.502   1.250
 7276SOL     OW22726   2.676   2.093   3.920
 7276SOL    HW122727   2.745   2.161   3.897
 7276SOL    HW222728   2.714   2.001   3.910
 7277SOL     OW22729   5.995   1.165   4.106
 7277SOL    HW122730   5.966   1.072   4.129
 7277SOL    HW222731   5.946   1.230   4.164
 7278SOL     OW22732   2.435   1.682   3.561
 7278SOL    HW122733   2.504   1.712   3.627
 7278SOL    HW222734   2.410   1.587   3.580
 7279SOL     OW22735   3.976   4.070   1.049
 7279SOL    HW122736   3.982   4.143   1.117
 7279SOL    HW222737   3.907   4.095   0.980
 7280SOL     OW22738   6.619   1.817   5.381
 7280SOL    HW122739   6.563   1.875   5.322
 7280SOL    HW222740   6.674   1.874   5.442
 7281SOL     OW22741   3.903   5.753   2.266
 7281SOL    HW122742   3.897   5.736   2.168
 7281SOL    HW222743   3.998   5.771   2.291
 7282SOL     OW22744   6.759   3.859   1.963
 7282SOL    HW122745   6.735   3.763   1.977
 7282SOL    HW222746   6.820   3.867   1.884
 7283SOL     OW22747   3.757   6.128   3.083
 7283SOL    HW122748   3.813   6.137   3.165
 7283SOL    HW222749   3.811   6.155   3.003
 7284SOL     OW22750   0.902   1.436   2.654
 7284SOL    HW122751   0.948   1.378   2.722
 7284SOL    HW222752   0.930   1.531   2.666
 7285SOL     OW22753   4.933   2.783   2.139
 7285SOL    HW122754   4.942   2.879   2.163
 7285SOL    HW222755   4.838   2.764   2.113
 7286SOL     OW22756   6.315   1.322   3.522
 7286SOL    HW122757   6.277   1.393   3.582
 7286SOL    HW222758   6.253   1.244   3.520
 7287SOL     OW22759   3.808   0.822   3.838
 7287SOL    HW122760   3.874   0.769   3.891
 7287SOL    HW222761   3.718   0.779   3.843
 7288SOL     OW22762   3.368   1.622   2.420
 7288SOL    HW122763   3.369   1.681   2.340
 7288SOL    HW222764   3.365   1.526   2.392
 7289SOL     OW22765   5.627   2.931   2.002
 7289SOL    HW122766   5.701   2.952   2.066
 7289SOL    HW222767   5.599   3.014   1.954
 7290SOL     OW22768   4.114   1.791   5.016
 7290SOL    HW122769   4.173   1.739   4.954
 7290SOL    HW222770   4.169   1.856   5.068
 7291SOL     OW22771   1.476   1.338   0.755
 7291SOL    HW122772   1.432   1.423   0.724
 7291SOL    HW222773   1.571   1.357   0.777
 7292SOL     OW22774   2.804   0.881   2.870
 7292SOL    HW122775   2.898   0.851   2.852
 7292SOL    HW222776   2.781   0.864   2.965
 7293SOL     OW22777   6.293   1.147   3.788
 7293SOL    HW122778   6.228   1.198   3.731
 7293SOL    HW222779   6.242   1.086   3.849
 7294SOL     OW22780   3.876   6.763   2.369
 7294SOL    HW122781   3.950   6.696   2.376
 7294SOL    HW222782   3.823   6.745   2.287
 7295SOL     OW22783   5.156   3.852   1.291
 7295SOL    HW122784   5.186   3.783   1.225
 7295SOL    HW222785   5.093   3.810   1.357
 7296SOL     OW22786   3.506   6.329   2.028
 7296SOL    HW122787   3.489   6.265   2.104
 7296SOL    HW222788   3.605   6.346   2.021
 7297SOL     OW22789   4.552   6.417   0.546
 7297SOL    HW122790   4.542   6.488   0.616
 7297SOL    HW222791   4.471   6.359   0.546
 7298SOL     OW22792   4.228   5.651   1.460
 7298SOL    HW122793   4.321   5.628   1.433
 7298SOL    HW222794   4.186   5.706   1.388
 7299SOL     OW22795   0.482   3.648   5.355
 7299SOL    HW122796   0.433   3.589   5.418
 7299SOL    HW222797   0.560   3.690   5.402
 7300SOL     OW22798   0.321   4.834   2.468
 7300SOL    HW122799   0.341   4.763   2.401
 7300SOL    HW222800   0.231   4.818   2.508
 7301SOL     OW22801   4.242   2.175   6.327
 7301SOL    HW122802   4.316   2.236   6.295
 7301SOL    HW222803   4.155   2.224   6.321
 7302SOL     OW22804   5.375   2.383   6.912
 7302SOL    HW122805   5.396   2.464   6.857
 7302SOL    HW222806   5.456   2.358   6.965
 7303SOL     OW22807   3.192   2.026   1.759
 7303SOL    HW122808   3.223   2.099   1.698
 7303SOL    HW222809   3.264   1.956   1.766
 7304SOL     OW22810   2.282   5.909   0.631
 7304SOL    HW122811   2.355   5.858   0.586
 7304SOL    HW222812   2.277   6.002   0.593
 7305SOL     OW22813   6.052   0.267   6.565
 7305SOL    HW122814   6.016   0.175   6.581
 7305SOL    HW222815   6.007   0.308   6.486
 7306SOL     OW22816   1.033   3.184   1.218
 7306SOL    HW122817   1.055   3.252   1.147
 7306SOL    HW222818   1.047   3.225   1.308
 7307SOL     OW22819   2.314   0.475   2.181
 7307SOL    HW122820   2.380   0.481   2.255
 7307SOL    HW222821   2.362   0.471   2.093
 7308SOL     OW22822   3.308   0.949   3.476
 7308SOL    HW122823   3.330   0.853   3.491
 7308SOL    HW222824   3.250   0.983   3.551
 7309SOL     OW22825   2.145   5.606   3.778
 7309SOL    HW122826   2.098   5.642   3.859
 7309SOL    HW222827   2.225   5.553   3.807
 7310SOL     OW22828   2.554   2.823   6.829
 7310SOL    HW122829   2.482   2.865   6.883
 7310SOL    HW222830   2.569   2.729   6.861
 7311SOL     OW22831   0.339   5.962   5.724
 7311SOL    HW122832   0.419   5.985   5.669
 7311SOL    HW222833   0.358   5.980   5.820
 7312SOL     OW22834   6.083   2.300   4.486
 7312SOL    HW122835   6.050   2.379   4.537
 7312SOL    HW222836   6.012   2.270   4.422
 7313SOL     OW22837   3.070   0.841   2.759
 7313SOL    HW122838   3.078   0.925   2.813
 7313SOL    HW222839   3.085   0.861   2.663
 7314SOL     OW22840   1.958   5.073   5.952
 7314SOL    HW122841   2.031   5.026   6.000
 7314SOL    HW222842   1.960   5.048   5.855
 7315SOL     OW22843   3.290   4.929   2.274
 7315SOL    HW122844   3.343   4.942   2.190
 7315SOL    HW222845   3.277   5.018   2.319
 7316SOL     OW22846   3.545   1.328   1.577
 7316SOL    HW122847   3.568   1.284   1.664
 7316SOL    HW222848   3.501   1.261   1.516
 7317SOL     OW22849   4.748   2.042   0.847
 7317SOL    HW122850   4.814   2.003   0.783
 7317SOL    HW222851   4.678   1.973   0.868
 7318SOL     OW22852   5.198   0.195   0.318
 7318SOL    HW122853   5.277   0.218   0.375
 7318SOL    HW222854   5.213   0.105   0.276
 7319SOL     OW22855   5.343   6.196   6.727
 7319SOL    HW122856   5.259   6.223   6.681
 7319SOL    HW222857   5.414   6.265   6.710
 7320SOL     OW22858   0.538   2.925   0.432
 7320SOL    HW122859   0.460   2.892   0.378
 7320SOL    HW222860   0.512   2.930   0.528
 7321SOL     OW22861   2.120   2.268   6.162
 7321SOL    HW122862   2.048   2.214   6.119
 7321SOL    HW222863   2.082   2.353   6.197
 7322SOL     OW22864   1.240   2.463   3.983
 7322SOL    HW122865   1.184   2.402   3.927
 7322SOL    HW222866   1.333   2.466   3.946
 7323SOL     OW22867   1.356   2.287   0.834
 7323SOL    HW122868   1.330   2.380   0.809
 7323SOL    HW222869   1.274   2.229   0.837
 7324SOL     OW22870   4.930   3.895   4.230
 7324SOL    HW122871   5.019   3.853   4.213
 7324SOL    HW222872   4.896   3.937   4.146
 7325SOL     OW22873   3.536   1.647   6.169
 7325SOL    HW122874   3.440   1.621   6.153
 7325SOL    HW222875   3.562   1.718   6.103
 7326SOL     OW22876   4.034   6.780   0.580
 7326SOL    HW122877   3.938   6.777   0.552
 7326SOL    HW222878   4.086   6.832   0.513
 7327SOL     OW22879   1.837   4.178   3.473
 7327SOL    HW122880   1.905   4.126   3.524
 7327SOL    HW222881   1.881   4.257   3.430
 7328SOL     OW22882   4.562   5.393   6.274
 7328SOL    HW122883   4.529   5.309   6.318
 7328SOL    HW222884   4.489   5.430   6.216
 7329SOL     OW22885   2.805   3.798   1.018
 7329SOL    HW122886   2.833   3.814   0.923
 7329SOL    HW222887   2.714   3.758   1.019
 7330SOL     OW22888   2.619   2.834   0.697
 7330SOL    HW122889   2.575   2.746   0.714
 7330SOL    HW222890   2.549   2.906   0.694
 7331SOL     OW22891   5.118   1.999   2.499
 7331SOL    HW122892   5.151   1.993   2.405
 7331SOL    HW222893   5.156   2.080   2.543
 7332SOL     OW22894   2.705   6.625   5.644
 7332SOL    HW122895   2.759   6.655   5.565
 7332SOL    HW222896   2.684   6.527   5.634
 7333SOL     OW22897   6.885   0.606   1.303
 7333SOL    HW122898   6.974   0.564   1.286
 7333SOL    HW222899   6.819   0.535   1.329
 7334SOL     OW22900   1.608   4.676   4.697
 7334SOL    HW122901   1.612   4.594   4.639
 7334SOL    HW222902   1.625   4.651   4.792
 7335SOL     OW22903   0.686   3.695   2.266
 7335SOL    HW122904   0.600   3.663   2.225
 7335SOL    HW222905   0.720   3.627   2.331
 7336SOL     OW22906   2.846   6.796   1.001
 7336SOL    HW122907   2.939   6.763   1.015
 7336SOL    HW222908   2.781   6.728   1.034
 7337SOL     OW22909   3.602   1.299   3.790
 7337SOL    HW122910   3.674   1.235   3.818
 7337SOL    HW222911   3.525   1.247   3.752
 7338SOL     OW22912   4.952   3.890   1.028
 7338SOL    HW122913   4.960   3.797   0.994
 7338SOL    HW222914   5.023   3.947   0.986
 7339SOL     OW22915   0.374   5.886   4.674
 7339SOL    HW122916   0.342   5.794   4.695
 7339SOL    HW222917   0.462   5.881   4.626
 7340SOL     OW22918   2.641   6.173   0.264
 7340SOL    HW122919   2.651   6.159   0.362
 7340SOL    HW222920   2.689   6.100   0.214
 7341SOL     OW22921   6.334   5.686   4.246
 7341SOL    HW122922   6.377   5.744   4.315
 7341SOL    HW222923   6.339   5.591   4.276
 7342SOL     OW22924   0.868   5.069   0.967
 7342SOL    HW122925   0.964   5.049   0.983
 7342SOL    HW222926   0.836   5.134   1.036
 7343SOL     OW22927   6.119   2.494   3.152
 7343SOL    HW122928   6.106   2.537   3.063
 7343SOL    HW222929   6.156   2.402   3.139
 7344SOL     OW22930   2.126   1.297   6.780
 7344SOL    HW122931   2.204   1.238   6.803
 7344SOL    HW222932   2.110   1.294   6.682
 7345SOL     OW22933   2.251   6.679   0.307
 7345SOL    HW122934   2.340   6.719   0.331
 7345SOL    HW222935   2.182   6.751   0.304
 7346SOL     OW22936   3.960   4.812   2.237
 7346SOL    HW122937   3.866   4.846   2.245
 7346SOL    HW222938   4.024   4.887   2.246
 7347SOL     OW22939   6.471   2.779   2.443
 7347SOL    HW122940   6.497   2.869   2.477
 7347SOL    HW222941   6.499   2.709   2.508
 7348SOL     OW22942   6.958   1.242   5.235
 7348SOL    HW122943   6.883   1.276   5.292
 7348SOL    HW222944   6.961   1.142   5.240
 7349SOL     OW22945   3.764   1.544   1.019
 7349SOL    HW122946   3.684   1.596   1.050
 7349SOL    HW222947   3.808   1.502   1.098
 7350SOL     OW22948   2.080   1.349   3.097
 7350SOL    HW122949   2.165   1.297   3.091
 7350SOL    HW222950   2.006   1.289   3.127
 7351SOL     OW22951   4.417   5.271   0.800
 7351SOL    HW122952   4.342   5.332   0.774
 7351SOL    HW222953   4.503   5.323   0.803
 7352SOL     OW22954   6.601   0.580   3.174
 7352SOL    HW122955   6.578   0.527   3.093
 7352SOL    HW222956   6.679   0.538   3.221
 7353SOL     OW22957   5.384   1.782   4.678
 7353SOL    HW122958   5.468   1.730   4.691
 7353SOL    HW222959   5.405   1.875   4.650
 7354SOL     OW22960   6.351   4.192   4.411
 7354SOL    HW122961   6.445   4.202   4.377
 7354SOL    HW222962   6.288   4.236   4.347
 7355SOL     OW22963   0.827   5.430   0.871
 7355SOL    HW122964   0.856   5.483   0.791
 7355SOL    HW222965   0.732   5.400   0.859
 7356SOL     OW22966   0.020   1.895   5.979
 7356SOL    HW122967   7.024   1.860   6.071
 7356SOL    HW222968   7.025   1.992   5.975
 7357SOL     OW22969   1.024   1.695   0.085
 7357SOL    HW122970   0.948   1.631   0.095
 7357SOL    HW222971   1.108   1.644   0.068
 7358SOL     OW22972   3.659   0.861   4.127
 7358SOL    HW122973   3.727   0.918   4.173
 7358SOL    HW222974   3.681   0.765   4.142
 7359SOL     OW22975   3.607   2.913   3.272
 7359SOL    HW122976   3.609   2.896   3.173
 7359SOL    HW222977   3.513   2.909   3.305
 7360SOL     OW22978   0.217   4.110   6.020
 7360SOL    HW122979   0.257   4.193   5.983
 7360SOL    HW222980   0.267   4.030   5.984
 7361SOL     OW22981   5.024   6.505   1.575
 7361SOL    HW122982   5.084   6.484   1.498
 7361SOL    HW222983   5.068   6.573   1.634
 7362SOL     OW22984   1.712   6.554   5.991
 7362SOL    HW122985   1.655   6.477   5.960
 7362SOL    HW222986   1.762   6.527   6.073
 7363SOL     OW22987   4.859   2.911   6.657
 7363SOL    HW122988   4.824   2.955   6.739
 7363SOL    HW222989   4.784   2.875   6.603
 7364SOL     OW22990   4.548   0.979   1.072
 7364SOL    HW122991   4.544   0.999   1.170
 7364SOL    HW222992   4.625   1.027   1.031
 7365SOL     OW22993   3.519   0.923   1.867
 7365SOL    HW122994   3.578   0.891   1.793
 7365SOL    HW222995   3.424   0.903   1.845
 7366SOL     OW22996   0.841   6.809   0.011
 7366SOL    HW122997   0.807   6.791   0.104
 7366SOL    HW222998   0.764   6.831   6.977
 7367SOL     OW22999   4.494   2.974   6.862
 7367SOL    HW123000   4.591   2.967   6.839
 7367SOL    HW223001   4.466   3.070   6.861
 7368SOL     OW23002   3.447   2.868   3.767
 7368SOL    HW123003   3.361   2.911   3.741
 7368SOL    HW223004   3.480   2.811   3.691
 7369SOL     OW23005   5.059   1.711   6.313
 7369SOL    HW123006   4.978   1.760   6.279
 7369SOL    HW223007   5.084   1.639   6.248
 7370SOL     OW23008   0.986   5.439   1.126
 7370SOL    HW123009   1.061   5.504   1.114
 7370SOL    HW223010   0.934   5.433   1.041
 7371SOL     OW23011   1.760   5.023   4.415
 7371SOL    HW123012   1.724   5.016   4.508
 7371SOL    HW223013   1.780   5.119   4.394
 7372SOL     OW23014   3.037   6.527   5.232
 7372SOL    HW123015   2.956   6.568   5.274
 7372SOL    HW223016   3.120   6.564   5.276
 7373SOL     OW23017   3.654   0.511   0.803
 7373SOL    HW123018   3.626   0.480   0.894
 7373SOL    HW223019   3.580   0.565   0.762
 7374SOL     OW23020   2.414   3.099   6.469
 7374SOL    HW123021   2.324   3.142   6.466
 7374SOL    HW223022   2.407   3.010   6.515
 7375SOL     OW23023   2.435   6.450   3.077
 7375SOL    HW123024   2.466   6.493   2.992
 7375SOL    HW223025   2.437   6.351   3.066
 7376SOL     OW23026   3.704   4.411   6.429
 7376SOL    HW123027   3.673   4.499   6.465
 7376SOL    HW223028   3.657   4.392   6.343
 7377SOL     OW23029   5.915   5.450   1.755
 7377SOL    HW123030   5.907   5.548   1.772
 7377SOL    HW223031   5.878   5.429   1.664
 7378SOL     OW23032   0.267   2.648   6.037
 7378SOL    HW123033   0.181   2.603   6.015
 7378SOL    HW223034   0.339   2.613   5.977
 7379SOL     OW23035   3.959   1.253   1.425
 7379SOL    HW123036   4.058   1.236   1.432
 7379SOL    HW223037   3.916   1.180   1.372
 7380SOL     OW23038   6.636   2.661   5.432
 7380SOL    HW123039   6.723   2.695   5.467
 7380SOL    HW223040   6.639   2.561   5.426
 7381SOL     OW23041   4.586   2.507   0.091
 7381SOL    HW123042   4.613   2.583   0.150
 7381SOL    HW223043   4.630   2.517   0.002
 7382SOL     OW23044   0.970   5.521   3.719
 7382SOL    HW123045   0.987   5.505   3.622
 7382SOL    HW223046   1.052   5.497   3.772
 7383SOL     OW23047   0.535   5.044   3.177
 7383SOL    HW123048   0.575   4.968   3.228
 7383SOL    HW223049   0.525   5.019   3.081
 7384SOL     OW23050   6.355   1.883   1.614
 7384SOL    HW123051   6.419   1.960   1.605
 7384SOL    HW223052   6.372   1.817   1.541
 7385SOL     OW23053   4.978   0.648   1.454
 7385SOL    HW123054   4.979   0.683   1.547
 7385SOL    HW223055   4.931   0.714   1.395
 7386SOL     OW23056   0.059   2.841   5.829
 7386SOL    HW123057   0.083   2.744   5.833
 7386SOL    HW223058   0.139   2.894   5.802
 7387SOL     OW23059   5.370   6.234   4.253
 7387SOL    HW123060   5.314   6.297   4.306
 7387SOL    HW223061   5.328   6.220   4.163
 7388SOL     OW23062   5.437   4.060   5.089
 7388SOL    HW123063   5.405   4.013   5.006
 7388SOL    HW223064   5.513   4.120   5.066
 7389SOL     OW23065   0.370   4.053   4.526
 7389SOL    HW123066   0.424   3.971   4.505
 7389SOL    HW223067   0.415   4.134   4.488
 7390SOL     OW23068   3.192   0.247   6.189
 7390SOL    HW123069   3.155   0.235   6.281
 7390SOL    HW223070   3.199   0.344   6.168
 7391SOL     OW23071   6.784   4.487   0.337
 7391SOL    HW123072   6.871   4.444   0.312
 7391SOL    HW223073   6.802   4.570   0.390
 7392SOL     OW23074   2.085   4.306   2.784
 7392SOL    HW123075   2.154   4.374   2.809
 7392SOL    HW223076   1.998   4.330   2.827
 7393SOL     OW23077   0.417   3.850   0.157
 7393SOL    HW123078   0.506   3.892   0.174
 7393SOL    HW223079   0.345   3.914   0.183
 7394SOL     OW23080   2.558   2.479   6.218
 7394SOL    HW123081   2.490   2.411   6.243
 7394SOL    HW223082   2.648   2.437   6.215
 7395SOL     OW23083   1.993   6.976   0.184
 7395SOL    HW123084   1.964   6.915   0.258
 7395SOL    HW223085   1.913   7.020   0.144
 7396SOL     OW23086   7.001   0.053   1.726
 7396SOL    HW123087   0.065   0.084   1.755
 7396SOL    HW223088   7.009   0.003   1.639
 7397SOL     OW23089   6.238   4.550   4.599
 7397SOL    HW123090   6.159   4.561   4.539
 7397SOL    HW223091   6.247   4.454   4.626
 7398SOL     OW23092   4.489   6.840   3.123
 7398SOL    HW123093   4.588   6.839   3.135
 7398SOL    HW223094   4.458   6.934   3.109
 7399SOL     OW23095   5.279   4.531   4.576
 7399SOL    HW123096   5.216   4.596   4.534
 7399SOL    HW223097   5.373   4.564   4.566
 7400SOL     OW23098   2.844   4.121   0.295
 7400SOL    HW123099   2.762   4.162   0.335
 7400SOL    HW223100   2.901   4.192   0.255
 7401SOL     OW23101   5.896   1.926   5.213
 7401SOL    HW123102   5.829   1.994   5.241
 7401SOL    HW223103   5.861   1.834   5.233
 7402SOL     OW23104   2.775   6.397   4.482
 7402SOL    HW123105   2.741   6.304   4.493
 7402SOL    HW223106   2.857   6.396   4.426
 7403SOL     OW23107   2.628   2.856   1.258
 7403SOL    HW123108   2.612   2.904   1.172
 7403SOL    HW223109   2.596   2.762   1.250
 7404SOL     OW23110   1.076   2.315   2.627
 7404SOL    HW123111   1.041   2.363   2.708
 7404SOL    HW223112   1.036   2.224   2.622
 7405SOL     OW23113   4.148   5.087   6.778
 7405SOL    HW123114   4.126   4.998   6.738
 7405SOL    HW223115   4.066   5.127   6.819
 7406SOL     OW23116   0.609   6.489   2.092
 7406SOL    HW123117   0.642   6.434   2.168
 7406SOL    HW223118   0.541   6.554   2.125
 7407SOL     OW23119   2.586   0.817   5.772
 7407SOL    HW123120   2.683   0.793   5.772
 7407SOL    HW223121   2.531   0.735   5.785
 7408SOL     OW23122   0.648   3.912   5.156
 7408SOL    HW123123   0.589   3.946   5.230
 7408SOL    HW223124   0.680   3.820   5.179
 7409SOL     OW23125   2.315   6.834   5.489
 7409SOL    HW123126   2.392   6.899   5.492
 7409SOL    HW223127   2.260   6.853   5.408
 7410SOL     OW23128   4.938   4.909   6.296
 7410SOL    HW123129   5.016   4.853   6.321
 7410SOL    HW223130   4.969   4.999   6.264
 7411SOL     OW23131   5.100   5.051   5.792
 7411SOL    HW123132   5.175   4.995   5.826
 7411SOL    HW223133   5.129   5.146   5.786
 7412SOL     OW23134   1.475   1.022   6.748
 7412SOL    HW123135   1.499   1.047   6.654
 7412SOL    HW223136   1.425   1.098   6.790
 7413SOL     OW23137   0.010   3.715   4.167
 7413SOL    HW123138   0.026   3.653   4.090
 7413SOL    HW223139   0.090   3.716   4.227
 7414SOL     OW23140   0.203   5.303   2.783
 7414SOL    HW123141   0.212   5.401   2.801
 7414SOL    HW223142   0.288   5.268   2.743
 7415SOL     OW23143   2.858   1.605   3.603
 7415SOL    HW123144   2.857   1.568   3.697
 7415SOL    HW223145   2.815   1.694   3.602
 7416SOL     OW23146   5.898   0.104   3.113
 7416SOL    HW123147   5.853   0.177   3.061
 7416SOL    HW223148   5.936   0.142   3.197
 7417SOL     OW23149   0.925   5.575   0.640
 7417SOL    HW123150   0.842   5.560   0.586
 7417SOL    HW223151   0.922   5.665   0.682
 7418SOL     OW23152   0.649   3.945   0.581
 7418SOL    HW123153   0.590   3.869   0.611
 7418SOL    HW223154   0.740   3.909   0.560
 7419SOL     OW23155   5.632   1.680   5.786
 7419SOL    HW123156   5.609   1.644   5.696
 7419SOL    HW223157   5.685   1.611   5.837
 7420SOL     OW23158   6.744   5.808   2.521
 7420SOL    HW123159   6.688   5.867   2.579
 7420SOL    HW223160   6.693   5.724   2.501
 7421SOL     OW23161   3.978   2.334   1.294
 7421SOL    HW123162   4.067   2.332   1.339
 7421SOL    HW223163   3.911   2.284   1.350
 7422SOL     OW23164   0.762   2.036   0.749
 7422SOL    HW123165   0.704   2.109   0.786
 7422SOL    HW223166   0.777   1.966   0.819
 7423SOL     OW23167   2.710   4.779   6.823
 7423SOL    HW123168   2.716   4.842   6.746
 7423SOL    HW223169   2.614   4.753   6.837
 7424SOL     OW23170   5.440   0.523   4.578
 7424SOL    HW123171   5.376   0.466   4.526
 7424SOL    HW223172   5.531   0.482   4.575
 7425SOL     OW23173   4.136   0.585   4.928
 7425SOL    HW123174   4.214   0.596   4.991
 7425SOL    HW223175   4.080   0.508   4.957
 7426SOL     OW23176   0.403   1.718   0.153
 7426SOL    HW123177   0.461   1.755   0.225
 7426SOL    HW223178   0.439   1.745   0.063
 7427SOL     OW23179   4.946   5.641   4.825
 7427SOL    HW123180   4.867   5.603   4.778
 7427SOL    HW223181   5.030   5.597   4.791
 7428SOL     OW23182   3.141   1.432   5.696
 7428SOL    HW123183   3.142   1.338   5.731
 7428SOL    HW223184   3.151   1.430   5.596
 7429SOL     OW23185   6.539   6.823   3.700
 7429SOL    HW123186   6.591   6.745   3.665
 7429SOL    HW223187   6.588   6.863   3.778
 7430SOL     OW23188   0.131   4.514   4.755
 7430SOL    HW123189   0.160   4.539   4.663
 7430SOL    HW223190   0.206   4.530   4.819
 7431SOL     OW23191   0.603   4.119   2.387
 7431SOL    HW123192   0.552   4.173   2.455
 7431SOL    HW223193   0.700   4.124   2.407
 7432SOL     OW23194   1.311   6.471   4.760
 7432SOL    HW123195   1.225   6.424   4.780
 7432SOL    HW223196   1.387   6.412   4.784
 7433SOL     OW23197   0.108   6.306   1.052
 7433SOL    HW123198   0.154   6.357   1.125
 7433SOL    HW223199   0.127   6.349   0.964
 7434SOL     OW23200   4.151   0.075   6.953
 7434SOL    HW123201   4.090   0.026   7.015
 7434SOL    HW223202   4.157   0.027   6.866
 7435SOL     OW23203   1.458   5.867   6.576
 7435SOL    HW123204   1.421   5.948   6.529
 7435SOL    HW223205   1.417   5.860   6.667
 7436SOL     OW23206   4.342   3.522   6.993
 7436SOL    HW123207   4.365   3.483   0.056
 7436SOL    HW223208   4.427   3.543   6.943
 7437SOL     OW23209   7.009   5.798   5.849
 7437SOL    HW123210   0.066   5.789   5.794
 7437SOL    HW223211   6.968   5.888   5.833
 7438SOL     OW23212   5.510   3.848   1.572
 7438SOL    HW123213   5.432   3.884   1.623
 7438SOL    HW223214   5.531   3.909   1.496
 7439SOL     OW23215   1.227   5.912   3.603
 7439SOL    HW123216   1.309   5.965   3.582
 7439SOL    HW223217   1.196   5.863   3.521
 7440SOL     OW23218   0.680   1.654   3.443
 7440SOL    HW123219   0.740   1.734   3.452
 7440SOL    HW223220   0.711   1.583   3.507
 7441SOL     OW23221   6.079   7.006   3.495
 7441SOL    HW123222   6.047   0.060   3.443
 7441SOL    HW223223   6.150   0.009   3.560
 7442SOL     OW23224   1.489   0.731   6.163
 7442SOL    HW123225   1.530   0.682   6.240
 7442SOL    HW223226   1.556   0.795   6.125
 7443SOL     OW23227   6.735   1.831   1.261
 7443SOL    HW123228   6.719   1.841   1.360
 7443SOL    HW223229   6.660   1.874   1.211
 7444SOL     OW23230   0.613   1.888   5.411
 7444SOL    HW123231   0.571   1.805   5.446
 7444SOL    HW223232   0.557   1.967   5.434
 7445SOL     OW23233   5.873   2.527   1.837
 7445SOL    HW123234   5.958   2.577   1.819
 7445SOL    HW223235   5.882   2.477   1.923
 7446SOL     OW23236   6.102   3.252   2.277
 7446SOL    HW123237   6.119   3.153   2.282
 7446SOL    HW223238   6.123   3.293   2.365
 7447SOL     OW23239   0.189   4.084   6.296
 7447SOL    HW123240   0.176   4.180   6.320
 7447SOL    HW223241   0.192   4.074   6.197
 7448SOL     OW23242   7.019   6.517   5.840
 7448SOL    HW123243   0.054   6.539   5.916
 7448SOL    HW223244   6.929   6.493   5.876
 7449SOL     OW23245   4.281   0.699   1.417
 7449SOL    HW123246   4.246   0.793   1.414
 7449SOL    HW223247   4.379   0.701   1.436
 7450SOL     OW23248   3.504   0.335   1.918
 7450SOL    HW123249   3.595   0.312   1.886
 7450SOL    HW223250   3.509   0.413   1.981
 7451SOL     OW23251   1.544   0.780   2.291
 7451SOL    HW123252   1.539   0.782   2.391
 7451SOL    HW223253   1.461   0.739   2.254
 7452SOL     OW23254   1.737   6.419   3.545
 7452SOL    HW123255   1.788   6.490   3.495
 7452SOL    HW223256   1.789   6.334   3.542
 7453SOL     OW23257   6.037   5.197   5.655
 7453SOL    HW123258   6.038   5.109   5.607
 7453SOL    HW223259   5.978   5.261   5.606
 7454SOL     OW23260   0.790   3.108   6.815
 7454SOL    HW123261   0.713   3.053   6.848
 7454SOL    HW223262   0.872   3.086   6.867
 7455SOL     OW23263   5.251   1.038   0.313
 7455SOL    HW123264   5.184   0.975   0.275
 7455SOL    HW223265   5.215   1.077   0.399
 7456SOL     OW23266   1.024   3.278   5.440
 7456SOL    HW123267   0.961   3.210   5.476
 7456SOL    HW223268   0.982   3.369   5.447
 7457SOL     OW23269   6.296   6.532   6.065
 7457SOL    HW123270   6.200   6.508   6.083
 7457SOL    HW223271   6.354   6.452   6.078
 7458SOL     OW23272   2.480   0.237   1.433
 7458SOL    HW123273   2.553   0.219   1.367
 7458SOL    HW223274   2.499   0.189   1.518
 7459SOL     OW23275   4.823   0.021   4.507
 7459SOL    HW123276   4.802   6.972   4.443
 7459SOL    HW223277   4.765   0.011   4.589
 7460SOL     OW23278   0.903   5.568   6.632
 7460SOL    HW123279   1.002   5.561   6.623
 7460SOL    HW223280   0.859   5.513   6.561
 7461SOL     OW23281   4.565   0.952   4.233
 7461SOL    HW123282   4.534   0.882   4.297
 7461SOL    HW223283   4.544   1.043   4.271
 7462SOL     OW23284   1.831   0.982   2.297
 7462SOL    HW123285   1.752   0.921   2.305
 7462SOL    HW223286   1.892   0.969   2.376
 7463SOL     OW23287   3.592   4.034   2.058
 7463SOL    HW123288   3.590   3.967   2.133
 7463SOL    HW223289   3.687   4.061   2.040
 7464SOL     OW23290   4.957   6.906   0.117
 7464SOL    HW123291   4.984   6.906   0.213
 7464SOL    HW223292   4.859   6.886   0.109
 7465SOL     OW23293   3.157   1.257   2.414
 7465SOL    HW123294   3.119   1.341   2.453
 7465SOL    HW223295   3.255   1.271   2.397
 7466SOL     OW23296   6.457   0.577   6.498
 7466SOL    HW123297   6.482   0.673   6.490
 7466SOL    HW223298   6.441   0.539   6.407
 7467SOL     OW23299   5.224   1.484   1.103
 7467SOL    HW123300   5.201   1.493   1.006
 7467SOL    HW223301   5.215   1.389   1.132
 7468SOL     OW23302   5.953   3.360   4.523
 7468SOL    HW123303   5.988   3.453   4.516
 7468SOL    HW223304   6.005   3.300   4.463
 7469SOL     OW23305   5.814   1.060   2.188
 7469SOL    HW123306   5.817   1.105   2.278
 7469SOL    HW223307   5.751   1.109   2.128
 7470SOL     OW23308   0.553   3.312   2.866
 7470SOL    HW123309   0.541   3.245   2.793
 7470SOL    HW223310   0.554   3.404   2.827
 7471SOL     OW23311   6.110   4.454   5.596
 7471SOL    HW123312   6.071   4.368   5.631
 7471SOL    HW223313   6.207   4.441   5.576
 7472SOL     OW23314   3.542   4.943   3.308
 7472SOL    HW123315   3.585   4.930   3.219
 7472SOL    HW223316   3.443   4.944   3.298
 7473SOL     OW23317   0.833   3.377   5.119
 7473SOL    HW123318   0.777   3.414   5.046
 7473SOL    HW223319   0.926   3.415   5.113
 7474SOL     OW23320   3.333   2.130   3.328
 7474SOL    HW123321   3.351   2.038   3.362
 7474SOL    HW223322   3.405   2.156   3.264
 7475SOL     OW23323   4.251   1.433   6.764
 7475SOL    HW123324   4.327   1.462   6.707
 7475SOL    HW223325   4.260   1.335   6.785
 7476SOL     OW23326   3.378   0.104   5.168
 7476SOL    HW123327   3.279   0.117   5.171
 7476SOL    HW223328   3.423   0.192   5.155
 7477SOL     OW23329   4.889   3.766   3.908
 7477SOL    HW123330   4.893   3.851   3.961
 7477SOL    HW223331   4.832   3.779   3.827
 7478SOL     OW23332   1.516   4.592   1.392
 7478SOL    HW123333   1.431   4.640   1.372
 7478SOL    HW223334   1.515   4.501   1.350
 7479SOL     OW23335   4.265   0.733   5.706
 7479SOL    HW123336   4.341   0.773   5.757
 7479SOL    HW223337   4.179   0.772   5.738
 7480SOL     OW23338   6.284   5.268   0.844
 7480SOL    HW123339   6.200   5.286   0.793
 7480SOL    HW223340   6.320   5.355   0.879
 7481SOL     OW23341   6.186   5.965   0.634
 7481SOL    HW123342   6.209   5.896   0.565
 7481SOL    HW223343   6.269   6.014   0.660
 7482SOL     OW23344   5.170   0.292   3.678
 7482SOL    HW123345   5.265   0.279   3.652
 7482SOL    HW223346   5.128   0.360   3.617
 7483SOL     OW23347   3.346   0.024   6.158
 7483SOL    HW123348   3.334   6.971   6.218
 7483SOL    HW223349   3.276   0.093   6.178
 7484SOL     OW23350   3.244   0.356   2.367
 7484SOL    HW123351   3.266   0.411   2.286
 7484SOL    HW223352   3.276   0.403   2.449
 7485SOL     OW23353   1.027   6.793   5.085
 7485SOL    HW123354   0.934   6.810   5.052
 7485SOL    HW223355   1.024   6.740   5.169
 7486SOL     OW23356   1.577   0.937   4.770
 7486SOL    HW123357   1.548   0.882   4.692
 7486SOL    HW223358   1.675   0.957   4.762
 7487SOL     OW23359   4.029   5.495   3.056
 7487SOL    HW123360   3.975   5.563   3.006
 7487SOL    HW223361   4.123   5.527   3.065
 7488SOL     OW23362   3.516   0.805   5.426
 7488SOL    HW123363   3.520   0.887   5.368
 7488SOL    HW223364   3.425   0.764   5.420
 7489SOL     OW23365   6.335   3.675   3.020
 7489SOL    HW123366   6.396   3.605   3.059
 7489SOL    HW223367   6.319   3.746   3.088
 7490SOL     OW23368   5.737   1.581   2.993
 7490SOL    HW123369   5.812   1.531   3.036
 7490SOL    HW223370   5.689   1.635   3.061
 7491SOL     OW23371   0.200   6.492   6.999
 7491SOL    HW123372   0.117   6.518   6.948
 7491SOL    HW223373   0.275   6.553   6.973
 7492SOL     OW23374   2.100   2.460   3.689
 7492SOL    HW123375   2.138   2.511   3.612
 7492SOL    HW223376   2.122   2.507   3.774
 7493SOL     OW23377   5.186   4.796   6.946
 7493SOL    HW123378   5.180   4.729   6.871
 7493SOL    HW223379   5.271   4.781   6.997
 7494SOL     OW23380   4.987   1.733   1.487
 7494SOL    HW123381   5.055   1.799   1.518
 7494SOL    HW223382   4.942   1.767   1.404
 7495SOL     OW23383   0.954   1.697   2.457
 7495SOL    HW123384   1.007   1.750   2.391
 7495SOL    HW223385   0.930   1.609   2.416
 7496SOL     OW23386   0.698   4.595   5.823
 7496SOL    HW123387   0.680   4.497   5.819
 7496SOL    HW223388   0.797   4.610   5.827
 7497SOL     OW23389   2.040   5.005   2.591
 7497SOL    HW123390   1.997   5.043   2.509
 7497SOL    HW223391   2.005   4.914   2.608
 7498SOL     OW23392   4.838   1.517   4.375
 7498SOL    HW123393   4.881   1.605   4.356
 7498SOL    HW223394   4.886   1.471   4.449
 7499SOL     OW23395   4.123   5.338   3.738
 7499SOL    HW123396   4.181   5.273   3.688
 7499SOL    HW223397   4.027   5.316   3.721
 7500SOL     OW23398   4.814   4.176   1.739
 7500SOL    HW123399   4.849   4.114   1.810
 7500SOL    HW223400   4.759   4.123   1.673
 7501SOL     OW23401   0.246   4.560   3.658
 7501SOL    HW123402   0.275   4.487   3.720
 7501SOL    HW223403   0.312   4.635   3.662
 7502SOL     OW23404   1.893   2.331   4.561
 7502SOL    HW123405   1.889   2.393   4.639
 7502SOL    HW223406   1.966   2.360   4.499
 7503SOL     OW23407   1.820   2.563   6.938
 7503SOL    HW123408   1.783   2.562   6.845
 7503SOL    HW223409   1.762   2.507   6.998
 7504SOL     OW23410   4.061   5.757   3.255
 7504SOL    HW123411   4.028   5.670   3.291
 7504SOL    HW223412   3.986   5.807   3.213
 7505SOL     OW23413   1.768   2.023   3.869
 7505SOL    HW123414   1.673   2.007   3.896
 7505SOL    HW223415   1.801   2.107   3.913
 7506SOL     OW23416   3.601   1.754   3.612
 7506SOL    HW123417   3.639   1.826   3.670
 7506SOL    HW223418   3.647   1.667   3.631
 7507SOL     OW23419   1.789   6.195   5.816
 7507SOL    HW123420   1.698   6.220   5.849
 7507SOL    HW223421   1.795   6.211   5.718
 7508SOL     OW23422   4.904   5.404   4.260
 7508SOL    HW123423   4.809   5.393   4.289
 7508SOL    HW223424   4.958   5.442   4.335
 7509SOL     OW23425   4.102   3.590   6.200
 7509SOL    HW123426   4.115   3.675   6.250
 7509SOL    HW223427   4.104   3.608   6.101
 7510SOL     OW23428   2.994   3.641   4.789
 7510SOL    HW123429   2.964   3.621   4.882
 7510SOL    HW223430   2.970   3.735   4.765
 7511SOL     OW23431   1.282   0.371   2.371
 7511SOL    HW123432   1.263   0.334   2.280
 7511SOL    HW223433   1.222   0.327   2.438
 7512SOL     OW23434   2.570   2.777   1.745
 7512SOL    HW123435   2.653   2.722   1.734
 7512SOL    HW223436   2.563   2.842   1.669
 7513SOL     OW23437   0.905   3.502   6.630
 7513SOL    HW123438   1.001   3.530   6.641
 7513SOL    HW223439   0.865   3.485   6.719
 7514SOL     OW23440   2.868   5.883   3.151
 7514SOL    HW123441   2.935   5.818   3.115
 7514SOL    HW223442   2.819   5.840   3.227
 7515SOL     OW23443   6.990   4.998   2.575
 7515SOL    HW123444   7.015   4.910   2.534
 7515SOL    HW223445   7.010   5.072   2.511
 7516SOL     OW23446   1.458   1.565   2.536
 7516SOL    HW123447   1.431   1.623   2.459
 7516SOL    HW223448   1.468   1.621   2.618
 7517SOL     OW23449   0.225   5.306   1.301
 7517SOL    HW123450   0.302   5.244   1.311
 7517SOL    HW223451   0.150   5.260   1.254
 7518SOL     OW23452   5.388   4.888   3.274
 7518SOL    HW123453   5.362   4.965   3.333
 7518SOL    HW223454   5.445   4.825   3.326
 7519SOL     OW23455   1.003   6.784   4.112
 7519SOL    HW123456   1.067   6.760   4.039
 7519SOL    HW223457   0.941   6.707   4.129
 7520SOL     OW23458   2.534   6.999   4.174
 7520SOL    HW123459   2.480   6.925   4.214
 7520SOL    HW223460   2.518   0.058   4.226
 7521SOL     OW23461   4.980   3.901   5.987
 7521SOL    HW123462   5.080   3.900   5.977
 7521SOL    HW223463   4.938   3.919   5.898
 7522SOL     OW23464   1.740   0.524   2.586
 7522SOL    HW123465   1.645   0.520   2.554
 7522SOL    HW223466   1.801   0.533   2.507
 7523SOL     OW23467   6.157   0.395   6.982
 7523SOL    HW123468   6.153   0.324   6.912
 7523SOL    HW223469   6.065   0.411   7.018
 7524SOL     OW23470   6.021   0.668   4.383
 7524SOL    HW123471   6.027   0.569   4.397
 7524SOL    HW223472   6.085   0.714   4.444
 7525SOL     OW23473   1.065   6.088   0.200
 7525SOL    HW123474   1.156   6.128   0.206
 7525SOL    HW223475   1.051   6.024   0.276
 7526SOL     OW23476   3.712   3.007   4.909
 7526SOL    HW123477   3.742   2.963   4.824
 7526SOL    HW223478   3.631   3.063   4.890
 7527SOL     OW23479   5.057   5.316   1.993
 7527SOL    HW123480   5.151   5.299   2.024
 7527SOL    HW223481   4.996   5.322   2.072
 7528SOL     OW23482   5.896   3.040   6.141
 7528SOL    HW123483   5.798   3.055   6.157
 7528SOL    HW223484   5.909   2.960   6.084
 7529SOL     OW23485   3.204   0.355   5.057
 7529SOL    HW123486   3.184   0.265   5.096
 7529SOL    HW223487   3.173   0.426   5.120
 7530SOL     OW23488   6.629   2.954   3.228
 7530SOL    HW123489   6.576   2.960   3.313
 7530SOL    HW223490   6.602   2.873   3.178
 7531SOL     OW23491   2.576   2.026   4.158
 7531SOL    HW123492   2.505   1.956   4.163
 7531SOL    HW223493   2.593   2.051   4.063
 7532SOL     OW23494   4.836   4.595   2.324
 7532SOL    HW123495   4.824   4.510   2.272
 7532SOL    HW223496   4.900   4.578   2.399
 7533SOL     OW23497   3.375   0.312   4.777
 7533SOL    HW123498   3.390   0.277   4.685
 7533SOL    HW223499   3.290   0.273   4.814
 7534SOL     OW23500   5.521   6.913   4.166
 7534SOL    HW123501   5.567   6.870   4.089
 7534SOL    HW223502   5.443   6.967   4.133
 7535SOL     OW23503   3.986   4.645   0.362
 7535SOL    HW123504   3.899   4.596   0.365
 7535SOL    HW223505   4.055   4.588   0.317
 7536SOL     OW23506   3.718   6.279   4.323
 7536SOL    HW123507   3.721   6.378   4.313
 7536SOL    HW223508   3.645   6.253   4.386
 7537SOL     OW23509   2.063   4.466   5.566
 7537SOL    HW123510   2.143   4.504   5.518
 7537SOL    HW223511   2.000   4.428   5.498
 7538SOL     OW23512   3.324   2.976   3.363
 7538SOL    HW123513   3.379   3.031   3.427
 7538SOL    HW223514   3.306   2.887   3.404
 7539SOL     OW23515   1.592   2.688   4.646
 7539SOL    HW123516   1.520   2.654   4.586
 7539SOL    HW223517   1.597   2.632   4.728
 7540SOL     OW23518   1.978   1.110   0.214
 7540SOL    HW123519   2.049   1.041   0.225
 7540SOL    HW223520   1.973   1.138   0.118
 7541SOL     OW23521   6.833   2.110   5.140
 7541SOL    HW123522   6.901   2.119   5.067
 7541SOL    HW223523   6.777   2.028   5.124
 7542SOL     OW23524   1.896   0.811   6.263
 7542SOL    HW123525   1.872   0.714   6.252
 7542SOL    HW223526   1.870   0.842   6.354
 7543SOL     OW23527   3.699   3.357   6.876
 7543SOL    HW123528   3.616   3.395   6.837
 7543SOL    HW223529   3.752   3.312   6.804
 7544SOL     OW23530   1.337   1.923   2.709
 7544SOL    HW123531   1.303   1.904   2.801
 7544SOL    HW223532   1.368   2.018   2.704
 7545SOL     OW23533   5.274   0.114   3.138
 7545SOL    HW123534   5.346   0.049   3.115
 7545SOL    HW223535   5.200   0.066   3.185
 7546SOL     OW23536   4.867   6.680   6.463
 7546SOL    HW123537   4.933   6.753   6.481
 7546SOL    HW223538   4.839   6.684   6.367
 7547SOL     OW23539   3.072   6.806   0.429
 7547SOL    HW123540   3.068   6.805   0.329
 7547SOL    HW223541   3.017   6.882   0.464
 7548SOL     OW23542   1.214   3.020   1.037
 7548SOL    HW123543   1.122   3.059   1.033
 7548SOL    HW223544   1.279   3.088   1.070
 7549SOL     OW23545   6.115   2.211   2.020
 7549SOL    HW123546   6.053   2.143   2.059
 7549SOL    HW223547   6.127   2.193   1.922
 7550SOL     OW23548   1.231   5.117   1.623
 7550SOL    HW123549   1.173   5.132   1.703
 7550SOL    HW223550   1.242   5.019   1.607
 7551SOL     OW23551   4.388   4.238   6.467
 7551SOL    HW123552   4.442   4.290   6.401
 7551SOL    HW223553   4.307   4.201   6.422
 7552SOL     OW23554   3.176   5.419   4.103
 7552SOL    HW123555   3.270   5.394   4.080
 7552SOL    HW223556   3.153   5.381   4.193
 7553SOL     OW23557   4.890   4.057   6.192
 7553SOL    HW123558   4.921   3.993   6.121
 7553SOL    HW223559   4.841   4.007   6.263
 7554SOL     OW23560   6.505   0.933   1.155
 7554SOL    HW123561   6.581   0.932   1.220
 7554SOL    HW223562   6.526   0.872   1.079
 7555SOL     OW23563   1.357   5.761   5.943
 7555SOL    HW123564   1.321   5.747   6.035
 7555SOL    HW223565   1.396   5.853   5.936
 7556SOL     OW23566   7.022   3.489   3.666
 7556SOL    HW123567   7.024   3.585   3.639
 7556SOL    HW223568   0.035   3.480   3.758
 7557SOL     OW23569   4.037   3.560   0.235
 7557SOL    HW123570   4.027   3.520   0.327
 7557SOL    HW223571   3.964   3.526   0.176
 7558SOL     OW23572   1.333   2.639   3.508
 7558SOL    HW123573   1.348   2.561   3.569
 7558SOL    HW223574   1.272   2.705   3.553
 7559SOL     OW23575   1.367   4.734   0.634
 7559SOL    HW123576   1.327   4.643   0.644
 7559SOL    HW223577   1.304   4.793   0.583
 7560SOL     OW23578   4.491   0.073   5.408
 7560SOL    HW123579   4.484   0.008   5.333
 7560SOL    HW223580   4.485   0.166   5.372
 7561SOL     OW23581   0.383   3.567   0.231
 7561SOL    HW123582   0.413   3.654   0.191
 7561SOL    HW223583   0.462   3.507   0.243
 7562SOL     OW23584   5.076   6.480   5.334
 7562SOL    HW123585   5.004   6.516   5.275
 7562SOL    HW223586   5.120   6.402   5.289
 7563SOL     OW23587   2.534   1.019   2.813
 7563SOL    HW123588   2.619   0.971   2.834
 7563SOL    HW223589   2.530   1.040   2.715
 7564SOL     OW23590   4.893   6.656   4.060
 7564SOL    HW123591   4.984   6.662   4.018
 7564SOL    HW223592   4.872   6.742   4.106
 7565SOL     OW23593   4.785   4.463   0.111
 7565SOL    HW123594   4.810   4.395   0.179
 7565SOL    HW223595   4.714   4.523   0.148
 7566SOL     OW23596   2.347   5.643   5.341
 7566SOL    HW123597   2.364   5.740   5.322
 7566SOL    HW223598   2.433   5.599   5.369
 7567SOL     OW23599   2.418   3.073   0.129
 7567SOL    HW123600   2.488   3.056   0.059
 7567SOL    HW223601   2.462   3.107   0.212
 7568SOL     OW23602   4.607   4.879   3.117
 7568SOL    HW123603   4.647   4.845   3.032
 7568SOL    HW223604   4.627   4.976   3.127
 7569SOL     OW23605   3.997   0.337   1.092
 7569SOL    HW123606   4.045   0.403   1.035
 7569SOL    HW223607   4.063   0.278   1.138
 7570SOL     OW23608   5.849   5.243   4.782
 7570SOL    HW123609   5.852   5.319   4.717
 7570SOL    HW223610   5.832   5.158   4.732
 7571SOL     OW23611   5.472   4.290   1.770
 7571SOL    HW123612   5.432   4.224   1.834
 7571SOL    HW223613   5.407   4.306   1.695
 7572SOL     OW23614   1.032   1.239   3.892
 7572SOL    HW123615   0.951   1.292   3.919
 7572SOL    HW223616   1.019   1.143   3.917
 7573SOL     OW23617   3.240   5.493   5.390
 7573SOL    HW123618   3.340   5.497   5.384
 7573SOL    HW223619   3.203   5.582   5.365
 7574SOL     OW23620   4.999   6.190   2.322
 7574SOL    HW123621   4.915   6.243   2.322
 7574SOL    HW223622   5.031   6.178   2.416
 7575SOL     OW23623   5.153   2.750   4.816
 7575SOL    HW123624   5.086   2.676   4.822
 7575SOL    HW223625   5.170   2.788   4.907
 7576SOL     OW23626   6.458   3.335   1.775
 7576SOL    HW123627   6.377   3.371   1.729
 7576SOL    HW223628   6.515   3.411   1.805
 7577SOL     OW23629   4.440   0.240   4.940
 7577SOL    HW123630   4.537   0.231   4.915
 7577SOL    HW223631   4.418   0.175   5.012
 7578SOL     OW23632   2.465   5.193   4.641
 7578SOL    HW123633   2.470   5.196   4.741
 7578SOL    HW223634   2.549   5.152   4.605
 7579SOL     OW23635   4.462   2.332   3.983
 7579SOL    HW123636   4.396   2.286   4.042
 7579SOL    HW223637   4.520   2.392   4.038
 7580SOL     OW23638   2.142   3.402   2.442
 7580SOL    HW123639   2.071   3.381   2.509
 7580SOL    HW223640   2.197   3.320   2.426
 7581SOL     OW23641   5.627   0.900   1.398
 7581SOL    HW123642   5.674   0.917   1.484
 7581SOL    HW223643   5.534   0.935   1.403
 7582SOL     OW23644   3.315   1.791   0.946
 7582SOL    HW123645   3.229   1.754   0.909
 7582SOL    HW223646   3.338   1.875   0.897
 7583SOL     OW23647   6.579   3.440   2.691
 7583SOL    HW123648   6.587   3.359   2.750
 7583SOL    HW223649   6.651   3.505   2.714
 7584SOL     OW23650   1.986   1.557   1.264
 7584SOL    HW123651   2.051   1.598   1.199
 7584SOL    HW223652   1.899   1.606   1.259
 7585SOL     OW23653   2.059   5.366   6.515
 7585SOL    HW123654   2.147   5.347   6.473
 7585SOL    HW223655   2.060   5.457   6.556
 7586SOL     OW23656   2.237   1.012   1.746
 7586SOL    HW123657   2.144   1.030   1.714
 7586SOL    HW223658   2.274   1.095   1.788
 7587SOL     OW23659   1.783   0.923   5.839
 7587SOL    HW123660   1.874   0.886   5.821
 7587SOL    HW223661   1.729   0.921   5.755
 7588SOL     OW23662   0.949   4.180   1.600
 7588SOL    HW123663   0.929   4.086   1.627
 7588SOL    HW223664   1.032   4.211   1.646
 7589SOL     OW23665   5.916   6.322   6.768
 7589SOL    HW123666   5.863   6.297   6.687
 7589SOL    HW223667   5.865   6.298   6.850
 7590SOL     OW23668   1.754   0.641   6.837
 7590SOL    HW123669   1.670   0.591   6.814
 7590SOL    HW223670   1.763   0.646   6.936
 7591SOL     OW23671   6.646   5.154   0.035
 7591SOL    HW123672   6.743   5.163   0.012
 7591SOL    HW223673   6.604   5.087   6.999
 7592SOL     OW23674   5.188   5.649   6.287
 7592SOL    HW123675   5.165   5.554   6.311
 7592SOL    HW223676   5.192   5.659   6.188
 7593SOL     OW23677   6.219   3.531   0.283
 7593SOL    HW123678   6.243   3.434   0.278
 7593SOL    HW223679   6.125   3.543   0.251
 7594SOL     OW23680   0.817   6.086   3.425
 7594SOL    HW123681   0.911   6.119   3.428
 7594SOL    HW223682   0.754   6.163   3.419
 7595SOL     OW23683   6.612   1.888   6.929
 7595SOL    HW123684   6.672   1.854   6.857
 7595SOL    HW223685   6.544   1.818   6.952
 7596SOL     OW23686   4.861   4.604   1.914
 7596SOL    HW123687   4.887   4.661   1.992
 7596SOL    HW223688   4.819   4.519   1.946
 7597SOL     OW23689   2.651   6.003   1.944
 7597SOL    HW123690   2.631   6.033   1.851
 7597SOL    HW223691   2.742   5.964   1.947
 7598SOL     OW23692   6.677   0.538   2.721
 7598SOL    HW123693   6.654   0.585   2.636
 7598SOL    HW223694   6.724   0.452   2.700
 7599SOL     OW23695   6.708   2.471   2.383
 7599SOL    HW123696   6.716   2.383   2.431
 7599SOL    HW223697   6.625   2.470   2.326
 7600SOL     OW23698   2.131   1.633   2.114
 7600SOL    HW123699   2.060   1.565   2.095
 7600SOL    HW223700   2.099   1.723   2.084
 7601SOL     OW23701   1.466   6.988   5.099
 7601SOL    HW123702   1.396   0.031   5.084
 7601SOL    HW223703   1.444   6.936   5.182
 7602SOL     OW23704   2.141   3.225   5.190
 7602SOL    HW123705   2.225   3.178   5.163
 7602SOL    HW223706   2.101   3.179   5.270
 7603SOL     OW23707   0.846   1.106   2.102
 7603SOL    HW123708   0.774   1.037   2.114
 7603SOL    HW223709   0.867   1.148   2.191
 7604SOL     OW23710   5.175   6.245   6.940
 7604SOL    HW123711   5.231   6.192   6.877
 7604SOL    HW223712   5.218   6.244   0.005
 7605SOL     OW23713   5.740   4.135   5.638
 7605SOL    HW123714   5.667   4.197   5.666
 7605SOL    HW223715   5.729   4.047   5.684
 7606SOL     OW23716   6.505   1.775   3.111
 7606SOL    HW123717   6.482   1.770   3.014
 7606SOL    HW223718   6.480   1.864   3.147
 7607SOL     OW23719   5.370   6.957   6.548
 7607SOL    HW123720   5.280   6.913   6.548
 7607SOL    HW223721   5.371   0.003   6.618
 7608SOL     OW23722   3.986   3.118   3.461
 7608SOL    HW123723   4.075   3.160   3.440
 7608SOL    HW223724   3.941   3.091   3.377
 7609SOL     OW23725   1.651   3.130   4.642
 7609SOL    HW123726   1.621   3.175   4.557
 7609SOL    HW223727   1.740   3.086   4.627
 7610SOL     OW23728   5.176   0.984   1.462
 7610SOL    HW123729   5.269   1.022   1.453
 7610SOL    HW223730   5.113   1.057   1.487
 7611SOL     OW23731   1.942   1.696   0.996
 7611SOL    HW123732   1.965   1.791   0.979
 7611SOL    HW223733   1.857   1.690   1.049
 7612SOL     OW23734   4.260   1.490   2.461
 7612SOL    HW123735   4.357   1.469   2.474
 7612SOL    HW223736   4.211   1.475   2.548
 7613SOL     OW23737   5.325   1.090   2.747
 7613SOL    HW123738   5.334   1.090   2.647
 7613SOL    HW223739   5.379   1.015   2.785
 7614SOL     OW23740   3.840   1.131   0.250
 7614SOL    HW123741   3.859   1.174   0.338
 7614SOL    HW223742   3.916   1.146   0.187
 7615SOL     OW23743   4.141   4.567   6.007
 7615SOL    HW123744   4.042   4.554   6.015
 7615SOL    HW223745   4.181   4.581   6.098
 7616SOL     OW23746   6.829   4.755   3.794
 7616SOL    HW123747   6.850   4.659   3.777
 7616SOL    HW223748   6.732   4.766   3.813
 7617SOL     OW23749   3.115   6.014   2.446
 7617SOL    HW123750   3.019   5.997   2.426
 7617SOL    HW223751   3.133   5.993   2.542
 7618SOL     OW23752   1.691   2.494   0.896
 7618SOL    HW123753   1.750   2.493   0.976
 7618SOL    HW223754   1.596   2.510   0.924
 7619SOL     OW23755   6.133   3.618   5.722
 7619SOL    HW123756   6.158   3.522   5.738
 7619SOL    HW223757   6.150   3.671   5.806
 7620SOL     OW23758   3.224   6.064   1.896
 7620SOL    HW123759   3.185   6.044   1.986
 7620SOL    HW223760   3.255   6.159   1.894
 7621SOL     OW23761   2.712   1.977   1.255
 7621SOL    HW123762   2.706   1.942   1.161
 7621SOL    HW223763   2.635   1.942   1.309
 7622SOL     OW23764   5.139   1.904   1.013
 7622SOL    HW123765   5.104   1.812   1.027
 7622SOL    HW223766   5.238   1.899   0.997
 7623SOL     OW23767   5.368   0.464   5.711
 7623SOL    HW123768   5.299   0.535   5.727
 7623SOL    HW223769   5.366   0.399   5.787
 7624SOL     OW23770   6.772   0.686   4.167
 7624SOL    HW123771   6.682   0.643   4.159
 7624SOL    HW223772   6.793   0.737   4.084
 7625SOL     OW23773   4.281   6.408   0.704
 7625SOL    HW123774   4.251   6.372   0.792
 7625SOL    HW223775   4.203   6.417   0.643
 7626SOL     OW23776   2.330   4.291   4.589
 7626SOL    HW123777   2.290   4.222   4.649
 7626SOL    HW223778   2.326   4.260   4.494
 7627SOL     OW23779   6.779   1.910   0.316
 7627SOL    HW123780   6.821   1.985   0.368
 7627SOL    HW223781   6.805   1.917   0.220
 7628SOL     OW23782   4.089   2.059   0.949
 7628SOL    HW123783   3.993   2.075   0.926
 7628SOL    HW223784   4.097   1.976   1.004
 7629SOL     OW23785   6.199   5.071   3.242
 7629SOL    HW123786   6.164   5.012   3.169
 7629SOL    HW223787   6.285   5.112   3.214
 7630SOL     OW23788   0.138   1.370   2.157
 7630SOL    HW123789   0.193   1.400   2.235
 7630SOL    HW223790   0.041   1.384   2.178
 7631SOL     OW23791   1.538   2.075   3.267
 7631SOL    HW123792   1.519   2.170   3.246
 7631SOL    HW223793   1.455   2.031   3.302
 7632SOL     OW23794   4.448   1.862   6.390
 7632SOL    HW123795   4.427   1.843   6.294
 7632SOL    HW223796   4.377   1.822   6.448
 7633SOL     OW23797   5.826   4.562   6.657
 7633SOL    HW123798   5.898   4.558   6.726
 7633SOL    HW223799   5.846   4.635   6.592
 7634SOL     OW23800   1.447   1.923   1.764
 7634SOL    HW123801   1.412   2.011   1.795
 7634SOL    HW223802   1.406   1.850   1.819
 7635SOL     OW23803   3.212   5.026   6.142
 7635SOL    HW123804   3.267   5.080   6.207
 7635SOL    HW223805   3.214   5.071   6.052
 7636SOL     OW23806   1.994   0.724   3.550
 7636SOL    HW123807   1.967   0.628   3.548
 7636SOL    HW223808   1.919   0.781   3.516
 7637SOL     OW23809   2.514   5.976   3.968
 7637SOL    HW123810   2.609   6.004   3.979
 7637SOL    HW223811   2.458   6.056   3.945
 7638SOL     OW23812   4.309   4.444   1.773
 7638SOL    HW123813   4.368   4.370   1.803
 7638SOL    HW223814   4.363   4.511   1.722
 7639SOL     OW23815   0.411   2.225   4.583
 7639SOL    HW123816   0.403   2.256   4.677
 7639SOL    HW223817   0.441   2.301   4.525
 7640SOL     OW23818   2.268   3.363   6.259
 7640SOL    HW123819   2.198   3.404   6.201
 7640SOL    HW223820   2.244   3.377   6.355
 7641SOL     OW23821   6.480   2.945   3.476
 7641SOL    HW123822   6.421   2.873   3.513
 7641SOL    HW223823   6.561   2.955   3.534
 7642SOL     OW23824   2.553   1.581   2.963
 7642SOL    HW123825   2.550   1.673   2.924
 7642SOL    HW223826   2.628   1.575   3.030
 7643SOL     OW23827   5.185   3.606   3.306
 7643SOL    HW123828   5.106   3.560   3.266
 7643SOL    HW223829   5.159   3.648   3.393
 7644SOL     OW23830   6.789   3.825   3.888
 7644SOL    HW123831   6.708   3.841   3.944
 7644SOL    HW223832   6.783   3.879   3.804
 7645SOL     OW23833   4.437   3.237   6.869
 7645SOL    HW123834   4.408   3.229   6.774
 7645SOL    HW223835   4.436   3.333   6.897
 7646SOL     OW23836   0.975   1.686   1.338
 7646SOL    HW123837   0.926   1.658   1.421
 7646SOL    HW223838   1.071   1.659   1.346
 7647SOL     OW23839   2.073   5.084   0.938
 7647SOL    HW123840   2.037   5.159   0.993
 7647SOL    HW223841   2.102   5.119   0.849
 7648SOL     OW23842   3.857   0.444   3.547
 7648SOL    HW123843   3.858   0.395   3.460
 7648SOL    HW223844   3.942   0.497   3.556
 7649SOL     OW23845   2.980   1.489   1.830
 7649SOL    HW123846   3.068   1.477   1.877
 7649SOL    HW223847   2.913   1.526   1.895
 7650SOL     OW23848   5.728   4.627   1.986
 7650SOL    HW123849   5.823   4.654   1.968
 7650SOL    HW223850   5.673   4.710   2.001
 7651SOL     OW23851   3.805   2.115   6.241
 7651SOL    HW123852   3.845   2.062   6.316
 7651SOL    HW223853   3.874   2.179   6.206
 7652SOL     OW23854   0.977   3.206   2.849
 7652SOL    HW123855   0.905   3.233   2.913
 7652SOL    HW223856   1.034   3.285   2.829
 7653SOL     OW23857   3.825   2.150   1.446
 7653SOL    HW123858   3.905   2.140   1.506
 7653SOL    HW223859   3.754   2.086   1.474
 7654SOL     OW23860   4.989   3.332   4.398
 7654SOL    HW123861   5.009   3.426   4.371
 7654SOL    HW223862   4.950   3.331   4.490
 7655SOL     OW23863   4.227   6.421   5.162
 7655SOL    HW123864   4.312   6.372   5.144
 7655SOL    HW223865   4.170   6.366   5.224
 7656SOL     OW23866   1.271   6.126   4.647
 7656SOL    HW123867   1.361   6.103   4.609
 7656SOL    HW223868   1.230   6.045   4.689
 7657SOL     OW23869   4.579   1.563   4.645
 7657SOL    HW123870   4.485   1.584   4.620
 7657SOL    HW223871   4.582   1.527   4.739
 7658SOL     OW23872   3.596   0.563   6.656
 7658SOL    HW123873   3.673   0.522   6.607
 7658SOL    HW223874   3.510   0.527   6.620
 7659SOL     OW23875   5.672   6.964   0.164
 7659SOL    HW123876   5.668   6.894   0.235
 7659SOL    HW223877   5.642   0.026   0.200
 7660SOL     OW23878   6.332   4.833   4.273
 7660SOL    HW123879   6.369   4.749   4.312
 7660SOL    HW223880   6.331   4.826   4.173
 7661SOL     OW23881   5.576   3.038   3.915
 7661SOL    HW123882   5.643   3.111   3.916
 7661SOL    HW223883   5.561   3.007   3.821
 7662SOL     OW23884   6.933   5.837   2.305
 7662SOL    HW123885   6.860   5.828   2.373
 7662SOL    HW223886   6.962   5.746   2.275
 7663SOL     OW23887   6.583   5.508   6.879
 7663SOL    HW123888   6.592   5.464   6.968
 7663SOL    HW223889   6.629   5.596   6.880
 7664SOL     OW23890   2.671   5.583   4.825
 7664SOL    HW123891   2.722   5.526   4.761
 7664SOL    HW223892   2.577   5.595   4.791
 7665SOL     OW23893   2.283   6.321   4.612
 7665SOL    HW123894   2.377   6.291   4.630
 7665SOL    HW223895   2.239   6.346   4.698
 7666SOL     OW23896   1.730   1.495   0.786
 7666SOL    HW123897   1.803   1.510   0.853
 7666SOL    HW223898   1.763   1.434   0.714
 7667SOL     OW23899   4.945   5.920   6.780
 7667SOL    HW123900   4.906   5.891   6.693
 7667SOL    HW223901   4.927   6.017   6.795
 7668SOL     OW23902   2.480   4.245   1.800
 7668SOL    HW123903   2.439   4.232   1.891
 7668SOL    HW223904   2.523   4.335   1.795
 7669SOL     OW23905   4.545   6.300   4.780
 7669SOL    HW123906   4.587   6.341   4.699
 7669SOL    HW223907   4.617   6.261   4.838
 7670SOL     OW23908   1.742   4.919   0.906
 7670SOL    HW123909   1.694   4.916   0.819
 7670SOL    HW223910   1.731   5.011   0.946
 7671SOL     OW23911   5.627   2.569   4.558
 7671SOL    HW123912   5.649   2.476   4.530
 7671SOL    HW223913   5.630   2.575   4.658
 7672SOL     OW23914   5.746   6.917   2.486
 7672SOL    HW123915   5.671   6.941   2.548
 7672SOL    HW223916   5.746   6.818   2.471
 7673SOL     OW23917   0.096   3.852   0.070
 7673SOL    HW123918   0.088   3.755   0.096
 7673SOL    HW223919   0.156   3.860   7.016
 7674SOL     OW23920   6.601   1.199   5.148
 7674SOL    HW123921   6.691   1.241   5.151
 7674SOL    HW223922   6.606   1.111   5.101
 7675SOL     OW23923   4.864   6.842   3.222
 7675SOL    HW123924   4.842   6.745   3.238
 7675SOL    HW223925   4.909   6.852   3.133
 7676SOL     OW23926   1.441   0.096   1.179
 7676SOL    HW123927   1.373   0.107   1.251
 7676SOL    HW223928   1.519   0.157   1.196
 7677SOL     OW23929   1.726   2.181   2.843
 7677SOL    HW123930   1.800   2.243   2.817
 7677SOL    HW223931   1.744   2.145   2.935
 7678SOL     OW23932   5.504   6.843   6.335
 7678SOL    HW123933   5.561   6.890   6.268
 7678SOL    HW223934   5.466   6.909   6.399
 7679SOL     OW23935   1.258   5.100   5.397
 7679SOL    HW123936   1.202   5.053   5.465
 7679SOL    HW223937   1.351   5.064   5.400
 7680SOL     OW23938   4.550   1.760   6.745
 7680SOL    HW123939   4.638   1.777   6.789
 7680SOL    HW223940   4.490   1.839   6.759
 7681SOL     OW23941   2.387   2.265   6.279
 7681SOL    HW123942   2.311   2.243   6.218
 7681SOL    HW223943   2.353   2.276   6.372
 7682SOL     OW23944   2.666   0.247   1.223
 7682SOL    HW123945   2.638   0.342   1.208
 7682SOL    HW223946   2.748   0.227   1.168
 7683SOL     OW23947   6.286   1.572   3.084
 7683SOL    HW123948   6.346   1.513   3.137
 7683SOL    HW223949   6.262   1.653   3.138
 7684SOL     OW23950   4.034   1.952   5.970
 7684SOL    HW123951   4.009   1.915   5.881
 7684SOL    HW223952   3.960   1.934   6.035
 7685SOL     OW23953   3.780   3.777   0.977
 7685SOL    HW123954   3.818   3.759   0.886
 7685SOL    HW223955   3.694   3.828   0.968
 7686SOL     OW23956   3.196   0.948   3.756
 7686SOL    HW123957   3.164   0.877   3.693
 7686SOL    HW223958   3.168   0.923   3.849
 7687SOL     OW23959   4.777   5.076   5.786
 7687SOL    HW123960   4.753   5.173   5.784
 7687SOL    HW223961   4.871   5.064   5.754
 7688SOL     OW23962   0.039   0.262   3.868
 7688SOL    HW123963   0.102   0.329   3.829
 7688SOL    HW223964   0.069   0.170   3.845
 7689SOL     OW23965   4.294   0.273   4.702
 7689SOL    HW123966   4.345   0.252   4.785
 7689SOL    HW223967   4.316   0.206   4.631
 7690SOL     OW23968   0.282   5.712   3.366
 7690SOL    HW123969   0.275   5.612   3.374
 7690SOL    HW223970   0.299   5.751   3.457
 7691SOL     OW23971   5.821   4.269   5.336
 7691SOL    HW123972   5.819   4.179   5.292
 7691SOL    HW223973   5.742   4.277   5.398
 7692SOL     OW23974   2.227   6.184   1.253
 7692SOL    HW123975   2.207   6.098   1.299
 7692SOL    HW223976   2.145   6.218   1.207
 7693SOL     OW23977   5.446   0.459   0.255
 7693SOL    HW123978   5.379   0.452   0.328
 7693SOL    HW223979   5.435   0.547   0.208
 7694SOL     OW23980   6.567   4.793   3.896
 7694SOL    HW123981   6.611   4.799   3.986
 7694SOL    HW223982   6.560   4.884   3.856
 7695SOL     OW23983   3.800   0.441   6.556
 7695SOL    HW123984   3.881   0.430   6.614
 7695SOL    HW223985   3.750   0.355   6.551
 7696SOL     OW23986   0.463   4.012   5.370
 7696SOL    HW123987   0.387   4.028   5.433
 7696SOL    HW223988   0.448   4.063   5.286
 7697SOL     OW23989   4.039   1.974   1.897
 7697SOL    HW123990   4.077   2.065   1.883
 7697SOL    HW223991   4.049   1.948   1.993
 7698SOL     OW23992   0.314   3.341   5.887
 7698SOL    HW123993   0.278   3.357   5.979
 7698SOL    HW223994   0.310   3.244   5.866
 7699SOL     OW23995   2.457   4.327   0.122
 7699SOL    HW123996   2.544   4.374   0.138
 7699SOL    HW223997   2.387   4.363   0.184
 7700SOL     OW23998   5.740   6.812   5.519
 7700SOL    HW123999   5.828   6.841   5.479
 7700SOL    HW224000   5.755   6.782   5.613
 7701SOL     OW24001   6.166   1.998   5.148
 7701SOL    HW124002   6.074   1.977   5.181
 7701SOL    HW224003   6.159   2.040   5.057
 7702SOL     OW24004   2.802   6.019   5.874
 7702SOL    HW124005   2.713   5.984   5.842
 7702SOL    HW224006   2.813   6.114   5.844
 7703SOL     OW24007   0.568   1.804   5.858
 7703SOL    HW124008   0.526   1.771   5.943
 7703SOL    HW224009   0.659   1.841   5.878
 7704SOL     OW24010   3.748   4.578   0.658
 7704SOL    HW124011   3.837   4.534   0.644
 7704SOL    HW224012   3.752   4.635   0.740
 7705SOL     OW24013   3.754   4.951   5.527
 7705SOL    HW124014   3.827   4.884   5.532
 7705SOL    HW224015   3.673   4.917   5.574
 7706SOL     OW24016   6.250   0.782   4.810
 7706SOL    HW124017   6.159   0.757   4.844
 7706SOL    HW224018   6.269   0.877   4.834
 7707SOL     OW24019   0.007   5.003   6.144
 7707SOL    HW124020   7.016   5.086   6.091
 7707SOL    HW224021   0.081   4.951   6.102
 7708SOL     OW24022   5.237   0.146   4.370
 7708SOL    HW124023   5.266   0.091   4.292
 7708SOL    HW224024   5.159   0.101   4.415
 7709SOL     OW24025   3.630   1.935   1.830
 7709SOL    HW124026   3.538   1.942   1.868
 7709SOL    HW224027   3.686   2.010   1.865
 7710SOL     OW24028   2.569   2.181   6.577
 7710SOL    HW124029   2.666   2.156   6.582
 7710SOL    HW224030   2.547   2.244   6.651
 7711SOL     OW24031   5.121   6.934   6.196
 7711SOL    HW124032   5.216   6.937   6.165
 7711SOL    HW224033   5.072   6.864   6.143
 7712SOL     OW24034   5.225   4.921   1.074
 7712SOL    HW124035   5.295   4.988   1.049
 7712SOL    HW224036   5.151   4.967   1.124
 7713SOL     OW24037   1.015   4.921   6.842
 7713SOL    HW124038   0.925   4.940   6.881
 7713SOL    HW224039   1.074   4.880   6.912
 7714SOL     OW24040   5.536   4.217   4.353
 7714SOL    HW124041   5.441   4.245   4.341
 7714SOL    HW224042   5.584   4.225   4.266
 7715SOL     OW24043   4.693   2.171   1.183
 7715SOL    HW124044   4.647   2.198   1.268
 7715SOL    HW224045   4.626   2.135   1.119
 7716SOL     OW24046   4.768   2.712   3.424
 7716SOL    HW124047   4.752   2.737   3.329
 7716SOL    HW224048   4.799   2.792   3.476
 7717SOL     OW24049   3.339   0.484   6.521
 7717SOL    HW124050   3.341   0.391   6.557
 7717SOL    HW224051   3.305   0.483   6.427
 7718SOL     OW24052   3.057   6.120   3.628
 7718SOL    HW124053   3.020   6.140   3.537
 7718SOL    HW224054   3.125   6.047   3.621
 7719SOL     OW24055   6.099   2.383   5.520
 7719SOL    HW124056   6.198   2.391   5.537
 7719SOL    HW224057   6.077   2.428   5.433
 7720SOL     OW24058   5.641   6.061   1.595
 7720SOL    HW124059   5.569   6.063   1.525
 7720SOL    HW224060   5.598   6.058   1.686
 7721SOL     OW24061   1.227   4.509   2.815
 7721SOL    HW124062   1.167   4.524   2.894
 7721SOL    HW224063   1.308   4.457   2.845
 7722SOL     OW24064   0.870   6.148   4.208
 7722SOL    HW124065   0.847   6.176   4.301
 7722SOL    HW224066   0.787   6.141   4.153
 7723SOL     OW24067   6.549   3.233   0.522
 7723SOL    HW124068   6.510   3.312   0.474
 7723SOL    HW224069   6.510   3.227   0.614
 7724SOL     OW24070   1.587   5.286   0.482
 7724SOL    HW124071   1.620   5.378   0.460
 7724SOL    HW224072   1.509   5.293   0.545
 7725SOL     OW24073   5.155   3.757   4.585
 7725SOL    HW124074   5.205   3.691   4.642
 7725SOL    HW224075   5.184   3.850   4.609
 7726SOL     OW24076   5.678   4.213   3.799
 7726SOL    HW124077   5.659   4.201   3.702
 7726SOL    HW224078   5.740   4.141   3.830
 7727SOL     OW24079   6.709   2.826   2.275
 7727SOL    HW124080   6.751   2.739   2.250
 7727SOL    HW224081   6.640   2.811   2.347
 7728SOL     OW24082   2.335   2.108   2.816
 7728SOL    HW124083   2.333   2.198   2.773
 7728SOL    HW224084   2.391   2.046   2.761
 7729SOL     OW24085   5.474   2.500   1.403
 7729SOL    HW124086   5.408   2.515   1.329
 7729SOL    HW224087   5.559   2.463   1.364
 7730SOL     OW24088   5.153   0.136   1.896
 7730SOL    HW124089   5.248   0.168   1.895
 7730SOL    HW224090   5.114   0.145   1.804
 7731SOL     OW24091   6.852   0.882   5.015
 7731SOL    HW124092   6.864   0.788   4.982
 7731SOL    HW224093   6.921   0.901   5.084
 7732SOL     OW24094   4.688   4.752   0.567
 7732SOL    HW124095   4.604   4.699   0.586
 7732SOL    HW224096   4.766   4.690   0.564
 7733SOL     OW24097   3.305   6.852   0.570
 7733SOL    HW124098   3.220   6.841   0.518
 7733SOL    HW224099   3.330   6.949   0.572
 7734SOL     OW24100   1.573   1.842   3.077
 7734SOL    HW124101   1.646   1.861   3.011
 7734SOL    HW224102   1.591   1.892   3.162
 7735SOL     OW24103   5.084   3.742   0.524
 7735SOL    HW124104   5.123   3.822   0.570
 7735SOL    HW224105   4.986   3.739   0.540
 7736SOL     OW24106   5.854   4.751   6.200
 7736SOL    HW124107   5.800   4.769   6.117
 7736SOL    HW224108   5.949   4.735   6.175
 7737SOL     OW24109   4.986   2.126   0.919
 7737SOL    HW124110   5.032   2.044   0.954
 7737SOL    HW224111   4.892   2.104   0.893
 7738SOL     OW24112   2.518   4.635   7.005
 7738SOL    HW124113   2.596   4.592   0.024
 7738SOL    HW224114   2.479   4.705   0.040
 7739SOL     OW24115   6.178   3.418   2.073
 7739SOL    HW124116   6.139   3.374   2.154
 7739SOL    HW224117   6.266   3.377   2.051
 7740SOL     OW24118   0.881   6.717   3.738
 7740SOL    HW124119   0.848   6.757   3.652
 7740SOL    HW224120   0.831   6.633   3.758
 7741SOL     OW24121   3.151   5.630   4.526
 7741SOL    HW124122   3.169   5.728   4.528
 7741SOL    HW224123   3.176   5.588   4.613
 7742SOL     OW24124   6.298   0.607   4.339
 7742SOL    HW124125   6.233   0.587   4.266
 7742SOL    HW224126   6.272   0.691   4.387
 7743SOL     OW24127   4.945   2.947   2.766
 7743SOL    HW124128   4.901   2.932   2.678
 7743SOL    HW224129   4.964   3.045   2.777
 7744SOL     OW24130   0.126   6.902   4.686
 7744SOL    HW124131   0.206   6.921   4.742
 7744SOL    HW224132   0.153   6.891   4.590
 7745SOL     OW24133   4.931   3.415   5.516
 7745SOL    HW124134   4.849   3.384   5.469
 7745SOL    HW224135   5.006   3.424   5.450
 7746SOL     OW24136   1.572   0.827   0.391
 7746SOL    HW124137   1.572   0.912   0.337
 7746SOL    HW224138   1.568   0.749   0.329
 7747SOL     OW24139   5.617   4.985   1.487
 7747SOL    HW124140   5.609   5.004   1.389
 7747SOL    HW224141   5.641   4.888   1.499
 7748SOL     OW24142   2.783   3.453   6.753
 7748SOL    HW124143   2.823   3.533   6.709
 7748SOL    HW224144   2.723   3.406   6.688
 7749SOL     OW24145   5.433   3.565   6.670
 7749SOL    HW124146   5.451   3.577   6.573
 7749SOL    HW224147   5.410   3.653   6.711
 7750SOL     OW24148   6.002   5.044   2.993
 7750SOL    HW124149   5.943   4.966   2.977
 7750SOL    HW224150   5.963   5.102   3.065
 7751SOL     OW24151   0.324   2.491   1.464
 7751SOL    HW124152   0.327   2.532   1.372
 7751SOL    HW224153   0.360   2.398   1.460
 7752SOL     OW24154   4.250   1.531   3.505
 7752SOL    HW124155   4.206   1.543   3.593
 7752SOL    HW224156   4.191   1.477   3.445
 7753SOL     OW24157   3.074   1.818   5.127
 7753SOL    HW124158   2.992   1.787   5.174
 7753SOL    HW224159   3.153   1.766   5.160
 7754SOL     OW24160   5.715   5.638   2.115
 7754SOL    HW124161   5.718   5.716   2.053
 7754SOL    HW224162   5.801   5.632   2.165
 7755SOL     OW24163   0.311   4.876   4.498
 7755SOL    HW124164   0.287   4.835   4.586
 7755SOL    HW224165   0.310   4.976   4.506
 7756SOL     OW24166   2.564   4.927   2.641
 7756SOL    HW124167   2.617   4.954   2.561
 7756SOL    HW224168   2.625   4.915   2.719
 7757SOL     OW24169   0.094   4.711   1.854
 7757SOL    HW124170   0.075   4.809   1.857
 7757SOL    HW224171   0.029   4.662   1.913
 7758SOL     OW24172   1.194   2.511   4.556
 7758SOL    HW124173   1.230   2.430   4.509
 7758SOL    HW224174   1.114   2.546   4.507
 7759SOL     OW24175   3.414   1.468   1.276
 7759SOL    HW124176   3.447   1.378   1.247
 7759SOL    HW224177   3.449   1.538   1.214
 7760SOL     OW24178   5.088   3.338   0.411
 7760SOL    HW124179   5.099   3.337   0.510
 7760SOL    HW224180   4.995   3.367   0.388
 7761SOL     OW24181   4.700   5.298   2.984
 7761SOL    HW124182   4.779   5.357   2.966
 7761SOL    HW224183   4.680   5.243   2.903
 7762SOL     OW24184   5.606   1.461   1.663
 7762SOL    HW124185   5.678   1.498   1.605
 7762SOL    HW224186   5.528   1.524   1.664
 7763SOL     OW24187   2.426   0.359   4.209
 7763SOL    HW124188   2.496   0.431   4.209
 7763SOL    HW224189   2.448   0.291   4.278
 7764SOL     OW24190   2.891   4.392   5.737
 7764SOL    HW124191   2.923   4.473   5.688
 7764SOL    HW224192   2.861   4.323   5.670
 7765SOL     OW24193   5.530   3.786   4.452
 7765SOL    HW124194   5.523   3.693   4.488
 7765SOL    HW224195   5.441   3.816   4.419
 7766SOL     OW24196   6.949   3.338   6.646
 7766SOL    HW124197   6.982   3.244   6.636
 7766SOL    HW224198   7.017   3.401   6.607
 7767SOL     OW24199   4.224   0.382   3.865
 7767SOL    HW124200   4.271   0.374   3.952
 7767SOL    HW224201   4.290   0.403   3.793
 7768SOL     OW24202   3.764   5.636   4.042
 7768SOL    HW124203   3.785   5.620   4.138
 7768SOL    HW224204   3.666   5.647   4.030
 7769SOL     OW24205   3.546   2.966   6.070
 7769SOL    HW124206   3.573   2.916   6.152
 7769SOL    HW224207   3.446   2.970   6.065
 7770SOL     OW24208   1.296   3.764   4.353
 7770SOL    HW124209   1.201   3.758   4.384
 7770SOL    HW224210   1.354   3.708   4.411
 7771SOL     OW24211   1.881   4.037   6.577
 7771SOL    HW124212   1.851   3.942   6.574
 7771SOL    HW224213   1.893   4.070   6.483
 7772SOL     OW24214   5.590   6.087   1.900
 7772SOL    HW124215   5.614   6.169   1.952
 7772SOL    HW224216   5.494   6.091   1.874
 7773SOL     OW24217   1.981   6.621   6.612
 7773SOL    HW124218   1.947   6.538   6.569
 7773SOL    HW224219   2.080   6.614   6.625
 7774SOL     OW24220   5.195   1.497   2.689
 7774SOL    HW124221   5.263   1.434   2.728
 7774SOL    HW224222   5.221   1.591   2.710
 7775SOL     OW24223   3.059   1.632   1.422
 7775SOL    HW124224   3.017   1.695   1.488
 7775SOL    HW224225   3.004   1.550   1.415
 7776SOL     OW24226   2.865   1.120   4.667
 7776SOL    HW124227   2.878   1.209   4.709
 7776SOL    HW224228   2.787   1.124   4.604
 7777SOL     OW24229   6.132   5.912   3.353
 7777SOL    HW124230   6.146   5.892   3.256
 7777SOL    HW224231   6.039   5.885   3.379
 7778SOL     OW24232   0.546   4.819   2.635
 7778SOL    HW124233   0.618   4.888   2.641
 7778SOL    HW224234   0.480   4.846   2.565
 7779SOL     OW24235   3.970   6.383   2.171
 7779SOL    HW124236   3.920   6.399   2.255
 7779SOL    HW224237   4.030   6.461   2.152
 7780SOL     OW24238   6.195   5.940   4.843
 7780SOL    HW124239   6.272   5.998   4.818
 7780SOL    HW224240   6.121   5.996   4.879
 7781SOL     OW24241   1.728   3.174   0.827
 7781SOL    HW124242   1.817   3.129   0.826
 7781SOL    HW224243   1.700   3.196   0.733
 7782SOL     OW24244   5.444   3.556   4.633
 7782SOL    HW124245   5.475   3.463   4.613
 7782SOL    HW224246   5.361   3.552   4.689
 7783SOL     OW24247   2.375   6.407   4.260
 7783SOL    HW124248   2.461   6.396   4.210
 7783SOL    HW224249   2.390   6.465   4.340
 7784SOL     OW24250   1.654   1.852   1.932
 7784SOL    HW124251   1.571   1.867   1.878
 7784SOL    HW224252   1.634   1.868   2.029
 7785SOL     OW24253   0.145   6.266   2.998
 7785SOL    HW124254   0.229   6.221   3.028
 7785SOL    HW224255   0.079   6.197   2.969
 7786SOL     OW24256   4.464   1.040   6.024
 7786SOL    HW124257   4.554   1.084   6.020
 7786SOL    HW224258   4.475   0.943   6.046
 7787SOL     OW24259   2.267   2.366   1.800
 7787SOL    HW124260   2.315   2.305   1.863
 7787SOL    HW224261   2.175   2.330   1.783
 7788SOL     OW24262   0.622   3.815   1.744
 7788SOL    HW124263   0.571   3.763   1.675
 7788SOL    HW224264   0.657   3.753   1.814
 7789SOL     OW24265   3.667   1.269   6.342
 7789SOL    HW124266   3.675   1.235   6.248
 7789SOL    HW224267   3.612   1.205   6.396
 7790SOL     OW24268   4.172   5.373   2.747
 7790SOL    HW124269   4.234   5.409   2.817
 7790SOL    HW224270   4.083   5.416   2.756
 7791SOL     OW24271   2.863   5.606   2.525
 7791SOL    HW124272   2.812   5.554   2.593
 7791SOL    HW224273   2.873   5.551   2.442
 7792SOL     OW24274   1.373   1.315   2.960
 7792SOL    HW124275   1.336   1.406   2.939
 7792SOL    HW224276   1.457   1.301   2.908
 7793SOL     OW24277   5.211   1.151   0.586
 7793SOL    HW124278   5.242   1.186   0.675
 7793SOL    HW224279   5.197   1.227   0.523
 7794SOL     OW24280   1.008   0.282   3.529
 7794SOL    HW124281   1.104   0.278   3.556
 7794SOL    HW224282   1.001   0.295   3.430
 7795SOL     OW24283   3.692   4.344   1.102
 7795SOL    HW124284   3.596   4.369   1.085
 7795SOL    HW224285   3.747   4.367   1.022
 7796SOL     OW24286   3.141   1.670   0.222
 7796SOL    HW124287   3.236   1.641   0.229
 7796SOL    HW224288   3.096   1.656   0.310
 7797SOL     OW24289   1.242   5.630   3.107
 7797SOL    HW124290   1.159   5.629   3.162
 7797SOL    HW224291   1.317   5.670   3.160
 7798SOL     OW24292   1.997   3.175   0.722
 7798SOL    HW124293   2.018   3.272   0.710
 7798SOL    HW224294   1.940   3.143   0.647
 7799SOL     OW24295   3.478   5.996   3.656
 7799SOL    HW124296   3.468   6.040   3.567
 7799SOL    HW224297   3.395   5.946   3.678
 7800SOL     OW24298   1.691   0.651   2.116
 7800SOL    HW124299   1.744   0.708   2.053
 7800SOL    HW224300   1.637   0.710   2.177
 7801SOL     OW24301   1.126   2.129   1.190
 7801SOL    HW124302   1.117   2.035   1.159
 7801SOL    HW224303   1.036   2.167   1.210
 7802SOL     OW24304   6.587   3.996   3.781
 7802SOL    HW124305   6.579   4.019   3.878
 7802SOL    HW224306   6.539   3.910   3.763
 7803SOL     OW24307   2.915   2.756   5.640
 7803SOL    HW124308   2.846   2.780   5.709
 7803SOL    HW224309   2.953   2.666   5.662
 7804SOL     OW24310   3.175   1.837   5.521
 7804SOL    HW124311   3.209   1.883   5.603
 7804SOL    HW224312   3.084   1.872   5.498
 7805SOL     OW24313   5.553   2.887   6.566
 7805SOL    HW124314   5.581   2.805   6.515
 7805SOL    HW224315   5.615   2.901   6.643
 7806SOL     OW24316   6.399   1.437   5.407
 7806SOL    HW124317   6.450   1.409   5.326
 7806SOL    HW224318   6.408   1.368   5.478
 7807SOL     OW24319   2.592   5.556   5.415
 7807SOL    HW124320   2.551   5.567   5.505
 7807SOL    HW224321   2.680   5.508   5.423
 7808SOL     OW24322   6.398   3.803   3.656
 7808SOL    HW124323   6.345   3.757   3.727
 7808SOL    HW224324   6.349   3.796   3.569
 7809SOL     OW24325   4.839   6.238   1.899
 7809SOL    HW124326   4.774   6.275   1.966
 7809SOL    HW224327   4.833   6.291   1.815
 7810SOL     OW24328   2.439   6.651   5.657
 7810SOL    HW124329   2.394   6.697   5.580
 7810SOL    HW224330   2.538   6.666   5.650
 7811SOL     OW24331   0.959   5.932   2.425
 7811SOL    HW124332   0.931   5.979   2.342
 7811SOL    HW224333   0.923   5.981   2.505
 7812SOL     OW24334   2.745   1.020   5.464
 7812SOL    HW124335   2.717   1.080   5.539
 7812SOL    HW224336   2.845   1.015   5.460
 7813SOL     OW24337   5.314   0.793   1.322
 7813SOL    HW124338   5.360   0.721   1.374
 7813SOL    HW224339   5.256   0.846   1.384
 7814SOL     OW24340   5.686   2.725   2.542
 7814SOL    HW124341   5.762   2.790   2.542
 7814SOL    HW224342   5.621   2.750   2.470
 7815SOL     OW24343   4.806   5.558   3.815
 7815SOL    HW124344   4.890   5.548   3.764
 7815SOL    HW224345   4.728   5.532   3.758
 7816SOL     OW24346   0.628   1.277   5.090
 7816SOL    HW124347   0.716   1.321   5.107
 7816SOL    HW224348   0.582   1.259   5.178
 7817SOL     OW24349   4.198   1.909   6.852
 7817SOL    HW124350   4.123   1.967   6.881
 7817SOL    HW224351   4.285   1.953   6.874
 7818SOL     OW24352   5.922   1.201   3.057
 7818SOL    HW124353   5.892   1.164   2.969
 7818SOL    HW224354   5.958   1.127   3.114
 7819SOL     OW24355   1.531   3.500   5.330
 7819SOL    HW124356   1.434   3.514   5.347
 7819SOL    HW224357   1.582   3.513   5.416
 7820SOL     OW24358   1.488   1.344   5.166
 7820SOL    HW124359   1.561   1.303   5.111
 7820SOL    HW224360   1.406   1.287   5.160
 7821SOL     OW24361   3.748   6.219   6.325
 7821SOL    HW124362   3.816   6.187   6.391
 7821SOL    HW224363   3.676   6.151   6.314
 7822SOL     OW24364   0.063   1.483   4.902
 7822SOL    HW124365   0.132   1.444   4.963
 7822SOL    HW224366   0.106   1.546   4.838
 7823SOL     OW24367   2.673   3.279   5.625
 7823SOL    HW124368   2.637   3.268   5.532
 7823SOL    HW224369   2.599   3.304   5.687
 7824SOL     OW24370   5.348   3.877   3.120
 7824SOL    HW124371   5.332   3.781   3.098
 7824SOL    HW224372   5.375   3.885   3.216
 7825SOL     OW24373   3.372   3.570   2.748
 7825SOL    HW124374   3.327   3.610   2.668
 7825SOL    HW224375   3.470   3.590   2.745
 7826SOL     OW24376   6.755   6.978   0.298
 7826SOL    HW124377   6.807   0.007   0.363
 7826SOL    HW224378   6.772   7.012   0.205
 7827SOL     OW24379   4.309   3.270   0.318
 7827SOL    HW124380   4.228   3.310   0.362
 7827SOL    HW224381   4.283   3.187   0.269
 7828SOL     OW24382   0.798   5.651   1.376
 7828SOL    HW124383   0.793   5.677   1.472
 7828SOL    HW224384   0.894   5.644   1.349
 7829SOL     OW24385   3.668   4.028   3.462
 7829SOL    HW124386   3.714   3.954   3.509
 7829SOL    HW224387   3.628   3.994   3.376
 7830SOL     OW24388   5.977   3.685   6.686
 7830SOL    HW124389   5.971   3.776   6.645
 7830SOL    HW224390   5.968   3.615   6.614
 7831SOL     OW24391   1.394   2.742   0.337
 7831SOL    HW124392   1.489   2.742   0.366
 7831SOL    HW224393   1.379   2.666   0.273
 7832SOL     OW24394   3.229   3.195   5.626
 7832SOL    HW124395   3.261   3.102   5.609
 7832SOL    HW224396   3.206   3.239   5.540
 7833SOL     OW24397   0.167   6.750   1.330
 7833SOL    HW124398   0.162   6.814   1.254
 7833SOL    HW224399   0.150   6.657   1.297
 7834SOL     OW24400   6.589   0.514   1.480
 7834SOL    HW124401   6.568   0.422   1.511
 7834SOL    HW224402   6.658   0.555   1.539
 7835SOL     OW24403   2.547   2.254   4.410
 7835SOL    HW124404   2.646   2.240   4.419
 7835SOL    HW224405   2.530   2.342   4.367
 7836SOL     OW24406   1.831   0.839   0.504
 7836SOL    HW124407   1.886   0.815   0.424
 7836SOL    HW224408   1.736   0.813   0.489
 7837SOL     OW24409   4.993   6.523   2.083
 7837SOL    HW124410   5.013   6.427   2.103
 7837SOL    HW224411   4.900   6.544   2.113
 7838SOL     OW24412   4.125   6.572   4.056
 7838SOL    HW124413   4.081   6.626   3.984
 7838SOL    HW224414   4.200   6.624   4.096
 7839SOL     OW24415   6.945   4.416   3.216
 7839SOL    HW124416   6.912   4.436   3.309
 7839SOL    HW224417   6.920   4.491   3.155
 7840SOL     OW24418   4.996   3.323   5.759
 7840SOL    HW124419   4.979   3.370   5.673
 7840SOL    HW224420   4.921   3.342   5.823
 7841SOL     OW24421   1.064   1.846   6.578
 7841SOL    HW124422   1.117   1.768   6.613
 7841SOL    HW224423   0.981   1.813   6.534
 7842SOL     OW24424   3.324   0.132   2.000
 7842SOL    HW124425   3.275   0.176   2.076
 7842SOL    HW224426   3.400   0.190   1.971
 7843SOL     OW24427   0.404   2.833   2.003
 7843SOL    HW124428   0.391   2.747   1.955
 7843SOL    HW224429   0.390   2.909   1.940
 7844SOL     OW24430   3.837   1.424   4.342
 7844SOL    HW124431   3.824   1.366   4.262
 7844SOL    HW224432   3.772   1.500   4.340
 7845SOL     OW24433   1.509   1.094   3.984
 7845SOL    HW124434   1.523   1.188   3.954
 7845SOL    HW224435   1.411   1.073   3.985
 7846SOL     OW24436   4.133   6.605   2.209
 7846SOL    HW124437   4.159   6.592   2.305
 7846SOL    HW224438   4.150   6.700   2.183
 7847SOL     OW24439   0.131   0.191   6.861
 7847SOL    HW124440   0.045   0.165   6.817
 7847SOL    HW224441   0.126   0.172   6.959
 7848SOL     OW24442   3.906   4.419   0.928
 7848SOL    HW124443   3.966   4.409   1.007
 7848SOL    HW224444   3.923   4.508   0.885
 7849SOL     OW24445   5.174   4.032   4.669
 7849SOL    HW124446   5.133   4.037   4.760
 7849SOL    HW224447   5.269   4.063   4.673
 7850SOL     OW24448   0.779   2.072   4.299
 7850SOL    HW124449   0.807   2.079   4.203
 7850SOL    HW224450   0.681   2.090   4.306
 7851SOL     OW24451   4.991   6.670   0.973
 7851SOL    HW124452   5.030   6.754   1.010
 7851SOL    HW224453   4.968   6.607   1.048
 7852SOL     OW24454   2.521   6.785   0.361
 7852SOL    HW124455   2.596   6.730   0.396
 7852SOL    HW224456   2.509   6.866   0.418
 7853SOL     OW24457   1.687   2.703   0.266
 7853SOL    HW124458   1.700   2.773   0.196
 7853SOL    HW224459   1.688   2.612   0.223
 7854SOL     OW24460   3.518   4.135   3.184
 7854SOL    HW124461   3.589   4.170   3.246
 7854SOL    HW224462   3.431   4.132   3.231
 7855SOL     OW24463   4.122   0.129   5.167
 7855SOL    HW124464   4.065   0.120   5.249
 7855SOL    HW224465   4.217   0.111   5.192
 7856SOL     OW24466   3.217   3.777   6.703
 7856SOL    HW124467   3.248   3.721   6.626
 7856SOL    HW224468   3.228   3.726   6.788
 7857SOL     OW24469   0.810   2.873   4.974
 7857SOL    HW124470   0.848   2.965   4.962
 7857SOL    HW224471   0.757   2.848   4.892
 7858SOL     OW24472   5.833   3.832   2.959
 7858SOL    HW124473   5.751   3.774   2.953
 7858SOL    HW224474   5.889   3.802   3.036
 7859SOL     OW24475   0.688   6.235   0.018
 7859SOL    HW124476   0.657   6.141   0.031
 7859SOL    HW224477   0.752   6.260   0.091
 7860SOL     OW24478   4.632   6.503   1.806
 7860SOL    HW124479   4.692   6.582   1.823
 7860SOL    HW224480   4.537   6.534   1.800
 7861SOL     OW24481   5.232   3.359   0.753
 7861SOL    HW124482   5.296   3.361   0.676
 7861SOL    HW224483   5.160   3.426   0.738
 7862SOL     OW24484   2.560   4.542   1.823
 7862SOL    HW124485   2.658   4.526   1.838
 7862SOL    HW224486   2.510   4.524   1.907
 7863SOL     OW24487   5.398   5.865   2.168
 7863SOL    HW124488   5.386   5.778   2.119
 7863SOL    HW224489   5.335   5.933   2.130
 7864SOL     OW24490   1.159   6.083   4.238
 7864SOL    HW124491   1.189   6.007   4.297
 7864SOL    HW224492   1.060   6.077   4.225
 7865SOL     OW24493   3.379   0.578   2.959
 7865SOL    HW124494   3.287   0.538   2.969
 7865SOL    HW224495   3.433   0.557   3.041
 7866SOL     OW24496   2.077   2.172   4.773
 7866SOL    HW124497   2.123   2.208   4.854
 7866SOL    HW224498   2.123   2.204   4.691
 7867SOL     OW24499   5.417   4.168   2.029
 7867SOL    HW124500   5.394   4.254   2.076
 7867SOL    HW224501   5.357   4.095   2.061
 7868SOL     OW24502   5.435   0.164   0.875
 7868SOL    HW124503   5.355   0.144   0.931
 7868SOL    HW224504   5.511   0.190   0.934
 7869SOL     OW24505   6.534   1.505   4.078
 7869SOL    HW124506   6.603   1.548   4.138
 7869SOL    HW224507   6.531   1.554   3.991
 7870SOL     OW24508   6.535   6.502   3.226
 7870SOL    HW124509   6.609   6.541   3.170
 7870SOL    HW224510   6.494   6.574   3.281
 7871SOL     OW24511   5.581   3.419   3.747
 7871SOL    HW124512   5.622   3.413   3.838
 7871SOL    HW224513   5.490   3.459   3.754
 7872SOL     OW24514   6.624   3.566   4.317
 7872SOL    HW124515   6.697   3.630   4.296
 7872SOL    HW224516   6.580   3.592   4.403
 7873SOL     OW24517   0.042   5.525   4.595
 7873SOL    HW124518   0.054   5.608   4.650
 7873SOL    HW224519   0.129   5.500   4.552
 7874SOL     OW24520   6.145   1.211   1.068
 7874SOL    HW124521   6.200   1.221   0.985
 7874SOL    HW224522   6.063   1.158   1.047
 7875SOL     OW24523   4.645   2.962   0.860
 7875SOL    HW124524   4.636   2.863   0.876
 7875SOL    HW224525   4.645   2.980   0.762
 7876SOL     OW24526   0.374   0.448   5.043
 7876SOL    HW124527   0.417   0.518   4.986
 7876SOL    HW224528   0.292   0.414   4.996
 7877SOL     OW24529   6.208   2.599   2.678
 7877SOL    HW124530   6.239   2.505   2.663
 7877SOL    HW224531   6.286   2.657   2.703
 7878SOL     OW24532   4.595   3.954   1.642
 7878SOL    HW124533   4.550   3.997   1.563
 7878SOL    HW224534   4.562   3.997   1.726
 7879SOL     OW24535   5.955   0.979   4.447
 7879SOL    HW124536   6.016   0.986   4.368
 7879SOL    HW224537   5.860   0.995   4.417
 7880SOL     OW24538   1.315   6.657   6.035
 7880SOL    HW124539   1.351   6.705   5.955
 7880SOL    HW224540   1.339   6.560   6.030
 7881SOL     OW24541   0.693   4.765   3.585
 7881SOL    HW124542   0.726   4.821   3.662
 7881SOL    HW224543   0.757   4.690   3.569
 7882SOL     OW24544   1.852   4.402   1.565
 7882SOL    HW124545   1.785   4.438   1.630
 7882SOL    HW224546   1.933   4.370   1.614
 7883SOL     OW24547   3.678   2.057   3.310
 7883SOL    HW124548   3.735   1.974   3.308
 7883SOL    HW224549   3.614   2.051   3.387
 7884SOL     OW24550   0.422   3.375   4.573
 7884SOL    HW124551   0.437   3.462   4.619
 7884SOL    HW224552   0.498   3.356   4.511
 7885SOL     OW24553   5.719   5.085   2.621
 7885SOL    HW124554   5.705   4.987   2.614
 7885SOL    HW224555   5.696   5.129   2.533
 7886SOL     OW24556   4.846   3.852   2.524
 7886SOL    HW124557   4.814   3.947   2.525
 7886SOL    HW224558   4.883   3.832   2.433
 7887SOL     OW24559   1.332   2.951   1.920
 7887SOL    HW124560   1.355   2.952   1.823
 7887SOL    HW224561   1.397   3.009   1.970
 7888SOL     OW24562   6.338   1.018   4.983
 7888SOL    HW124563   6.363   1.109   4.949
 7888SOL    HW224564   6.421   0.968   5.009
 7889SOL     OW24565   5.702   5.390   0.509
 7889SOL    HW124566   5.674   5.486   0.518
 7889SOL    HW224567   5.704   5.366   0.412
 7890SOL     OW24568   2.194   3.028   3.734
 7890SOL    HW124569   2.228   3.011   3.642
 7890SOL    HW224570   2.248   2.975   3.800
 7891SOL     OW24571   6.229   2.058   4.498
 7891SOL    HW124572   6.182   1.988   4.552
 7891SOL    HW224573   6.183   2.146   4.511
 7892SOL     OW24574   1.047   1.916   5.079
 7892SOL    HW124575   0.983   1.892   5.152
 7892SOL    HW224576   1.045   2.015   5.063
 7893SOL     OW24577   6.009   0.161   0.323
 7893SOL    HW124578   5.967   0.215   0.250
 7893SOL    HW224579   6.087   0.210   0.362
 7894SOL     OW24580   2.904   0.653   6.994
 7894SOL    HW124581   2.999   0.635   7.021
 7894SOL    HW224582   2.901   0.680   6.898
 7895SOL     OW24583   6.409   5.940   3.320
 7895SOL    HW124584   6.311   5.940   3.302
 7895SOL    HW224585   6.456   5.994   3.250
 7896SOL     OW24586   2.569   2.024   0.783
 7896SOL    HW124587   2.618   2.086   0.844
 7896SOL    HW224588   2.589   2.049   0.688
 7897SOL     OW24589   3.520   2.770   0.660
 7897SOL    HW124590   3.476   2.751   0.747
 7897SOL    HW224591   3.528   2.869   0.647
 7898SOL     OW24592   5.430   6.852   3.113
 7898SOL    HW124593   5.511   6.901   3.145
 7898SOL    HW224594   5.443   6.753   3.126
 7899SOL     OW24595   5.954   4.298   4.062
 7899SOL    HW124596   5.980   4.361   3.988
 7899SOL    HW224597   5.857   4.277   4.056
 7900SOL     OW24598   0.431   3.777   0.709
 7900SOL    HW124599   0.348   3.810   0.754
 7900SOL    HW224600   0.408   3.745   0.617
 7901SOL     OW24601   0.419   2.200   0.228
 7901SOL    HW124602   0.322   2.226   0.223
 7901SOL    HW224603   0.445   2.186   0.324
 7902SOL     OW24604   1.995   6.724   1.977
 7902SOL    HW124605   2.011   6.793   1.906
 7902SOL    HW224606   1.918   6.666   1.950
 7903SOL     OW24607   2.278   2.158   5.142
 7903SOL    HW124608   2.235   2.073   5.112
 7903SOL    HW224609   2.310   2.148   5.236
 7904SOL     OW24610   4.416   2.229   3.142
 7904SOL    HW124611   4.331   2.213   3.092
 7904SOL    HW224612   4.475   2.291   3.090
 7905SOL     OW24613   5.317   2.106   1.440
 7905SOL    HW124614   5.280   2.112   1.347
 7905SOL    HW224615   5.417   2.097   1.435
 7906SOL     OW24616   1.204   4.762   6.998
 7906SOL    HW124617   1.162   4.674   7.019
 7906SOL    HW224618   1.285   4.775   0.031
 7907SOL     OW24619   5.863   6.235   2.624
 7907SOL    HW124620   5.809   6.245   2.541
 7907SOL    HW224621   5.922   6.154   2.616
 7908SOL     OW24622   1.728   0.145   6.231
 7908SOL    HW124623   1.720   0.220   6.166
 7908SOL    HW224624   1.793   0.077   6.195
 7909SOL     OW24625   6.161   4.002   1.966
 7909SOL    HW124626   6.115   4.067   2.027
 7909SOL    HW224627   6.230   3.951   2.017
 7910SOL     OW24628   1.133   4.133   6.307
 7910SOL    HW124629   1.101   4.094   6.393
 7910SOL    HW224630   1.122   4.066   6.233
 7911SOL     OW24631   6.808   4.313   5.892
 7911SOL    HW124632   6.881   4.313   5.824
 7911SOL    HW224633   6.837   4.367   5.971
 7912SOL     OW24634   5.878   5.781   0.989
 7912SOL    HW124635   5.956   5.815   1.041
 7912SOL    HW224636   5.906   5.763   0.894
 7913SOL     OW24637   1.186   5.080   0.091
 7913SOL    HW124638   1.100   5.040   0.059
 7913SOL    HW224639   1.182   5.094   0.190
 7914SOL     OW24640   0.790   0.012   5.082
 7914SOL    HW124641   0.728   0.087   5.104
 7914SOL    HW224642   0.756   6.989   5.001
 7915SOL     OW24643   3.088   4.963   2.645
 7915SOL    HW124644   3.094   4.907   2.727
 7915SOL    HW224645   3.145   5.045   2.655
 7916SOL     OW24646   1.362   0.452   4.221
 7916SOL    HW124647   1.411   0.382   4.272
 7916SOL    HW224648   1.282   0.412   4.177
 7917SOL     OW24649   4.538   1.830   1.771
 7917SOL    HW124650   4.528   1.853   1.868
 7917SOL    HW224651   4.614   1.882   1.732
 7918SOL     OW24652   2.657   2.403   3.737
 7918SOL    HW124653   2.611   2.445   3.816
 7918SOL    HW224654   2.600   2.329   3.702
 7919SOL     OW24655   1.643   6.046   5.037
 7919SOL    HW124656   1.694   6.130   5.056
 7919SOL    HW224657   1.585   6.024   5.115
 7920SOL     OW24658   5.209   0.327   1.058
 7920SOL    HW124659   5.241   0.358   0.969
 7920SOL    HW224660   5.145   0.393   1.096
 7921SOL     OW24661   5.296   2.549   0.893
 7921SOL    HW124662   5.354   2.570   0.972
 7921SOL    HW224663   5.252   2.633   0.862
 7922SOL     OW24664   2.804   0.214   2.148
 7922SOL    HW124665   2.762   0.187   2.235
 7922SOL    HW224666   2.794   0.313   2.135
 7923SOL     OW24667   4.285   1.667   6.955
 7923SOL    HW124668   4.291   1.606   6.876
 7923SOL    HW224669   4.246   1.755   6.927
 7924SOL     OW24670   6.095   6.064   6.846
 7924SOL    HW124671   6.096   5.983   6.786
 7924SOL    HW224672   6.129   6.143   6.795
 7925SOL     OW24673   1.986   5.102   6.798
 7925SOL    HW124674   1.909   5.042   6.778
 7925SOL    HW224675   1.970   5.149   6.885
 7926SOL     OW24676   5.190   5.955   6.528
 7926SOL    HW124677   5.144   6.042   6.544
 7926SOL    HW224678   5.182   5.898   6.610
 7927SOL     OW24679   4.490   0.355   2.840
 7927SOL    HW124680   4.551   0.374   2.917
 7927SOL    HW224681   4.417   0.423   2.838
 7928SOL     OW24682   6.249   2.255   3.220
 7928SOL    HW124683   6.215   2.187   3.155
 7928SOL    HW224684   6.218   2.232   3.312
 7929SOL     OW24685   4.434   4.198   5.908
 7929SOL    HW124686   4.477   4.153   5.986
 7929SOL    HW224687   4.382   4.130   5.856
 7930SOL     OW24688   4.258   6.575   6.263
 7930SOL    HW124689   4.177   6.522   6.291
 7930SOL    HW224690   4.276   6.646   6.332
 7931SOL     OW24691   3.623   1.692   1.667
 7931SOL    HW124692   3.657   1.776   1.708
 7931SOL    HW224693   3.555   1.650   1.727
 7932SOL     OW24694   1.387   3.779   1.398
 7932SOL    HW124695   1.446   3.855   1.373
 7932SOL    HW224696   1.383   3.770   1.497
 7933SOL     OW24697   1.113   1.996   0.101
 7933SOL    HW124698   1.135   2.038   0.189
 7933SOL    HW224699   1.083   1.901   0.116
 7934SOL     OW24700   1.022   5.200   0.734
 7934SOL    HW124701   1.106   5.255   0.736
 7934SOL    HW224702   0.953   5.245   0.791
 7935SOL     OW24703   6.249   2.626   3.360
 7935SOL    HW124704   6.346   2.604   3.355
 7935SOL    HW224705   6.203   2.594   3.277
 7936SOL     OW24706   3.193   5.605   3.859
 7936SOL    HW124707   3.223   5.543   3.932
 7936SOL    HW224708   3.253   5.594   3.779
 7937SOL     OW24709   4.005   0.978   0.666
 7937SOL    HW124710   4.085   1.001   0.609
 7937SOL    HW224711   3.948   0.911   0.618
 7938SOL     OW24712   3.102   7.024   3.503
 7938SOL    HW124713   3.160   6.942   3.508
 7938SOL    HW224714   3.009   7.000   3.529
 7939SOL     OW24715   0.921   1.169   2.841
 7939SOL    HW124716   1.015   1.191   2.869
 7939SOL    HW224717   0.888   1.091   2.895
 7940SOL     OW24718   5.854   1.365   4.254
 7940SOL    HW124719   5.850   1.400   4.347
 7940SOL    HW224720   5.873   1.439   4.190
 7941SOL     OW24721   3.574   0.156   1.062
 7941SOL    HW124722   3.514   0.099   1.006
 7941SOL    HW224723   3.604   0.106   1.143
 7942SOL     OW24724   1.561   4.532   0.660
 7942SOL    HW124725   1.473   4.579   0.646
 7942SOL    HW224726   1.582   4.530   0.757
 7943SOL     OW24727   1.533   5.982   5.963
 7943SOL    HW124728   1.476   6.030   6.029
 7943SOL    HW224729   1.558   6.044   5.889
 7944SOL     OW24730   0.784   2.195   1.277
 7944SOL    HW124731   0.773   2.283   1.324
 7944SOL    HW224732   0.834   2.132   1.336
 7945SOL     OW24733   6.001   4.215   2.901
 7945SOL    HW124734   5.913   4.207   2.853
 7945SOL    HW224735   6.047   4.126   2.899
 7946SOL     OW24736   3.805   1.245   6.655
 7946SOL    HW124737   3.800   1.261   6.557
 7946SOL    HW224738   3.850   1.157   6.672
 7947SOL     OW24739   7.008   3.972   6.437
 7947SOL    HW124740   0.063   3.996   6.383
 7947SOL    HW224741   6.998   3.873   6.442
 7948SOL     OW24742   2.041   5.495   2.846
 7948SOL    HW124743   2.120   5.434   2.856
 7948SOL    HW224744   1.974   5.475   2.917
 7949SOL     OW24745   3.050   5.985   5.757
 7949SOL    HW124746   3.116   5.914   5.785
 7949SOL    HW224747   2.979   5.993   5.827
 7950SOL     OW24748   6.234   4.704   5.254
 7950SOL    HW124749   6.308   4.637   5.242
 7950SOL    HW224750   6.243   4.776   5.185
 7951SOL     OW24751   4.452   6.406   2.513
 7951SOL    HW124752   4.515   6.476   2.479
 7951SOL    HW224753   4.484   6.316   2.484
 7952SOL     OW24754   6.286   4.048   5.200
 7952SOL    HW124755   6.195   4.068   5.164
 7952SOL    HW224756   6.335   3.990   5.135
 7953SOL     OW24757   1.576   6.713   0.534
 7953SOL    HW124758   1.661   6.714   0.587
 7953SOL    HW224759   1.498   6.704   0.595
 7954SOL     OW24760   3.717   3.706   6.905
 7954SOL    HW124761   3.680   3.675   6.817
 7954SOL    HW224762   3.731   3.805   6.902
 7955SOL     OW24763   1.409   1.351   6.721
 7955SOL    HW124764   1.507   1.366   6.712
 7955SOL    HW224765   1.365   1.362   6.632
 7956SOL     OW24766   6.920   6.034   0.245
 7956SOL    HW124767   6.924   6.129   0.276
 7956SOL    HW224768   7.011   5.993   0.253
 7957SOL     OW24769   5.076   1.522   6.116
 7957SOL    HW124770   4.997   1.463   6.136
 7957SOL    HW224771   5.103   1.510   6.021
 7958SOL     OW24772   5.224   2.685   0.082
 7958SOL    HW124773   5.135   2.653   0.048
 7958SOL    HW224774   5.296   2.646   0.026
 7959SOL     OW24775   5.696   2.544   0.293
 7959SOL    HW124776   5.677   2.562   0.389
 7959SOL    HW224777   5.769   2.476   0.285
 7960SOL     OW24778   0.977   1.280   5.422
 7960SOL    HW124779   1.030   1.286   5.337
 7960SOL    HW224780   1.025   1.328   5.495
 7961SOL     OW24781   6.281   6.722   6.904
 7961SOL    HW124782   6.297   6.624   6.894
 7961SOL    HW224783   6.187   6.744   6.877
 7962SOL     OW24784   6.219   0.145   5.345
 7962SOL    HW124785   6.221   0.146   5.245
 7962SOL    HW224786   6.268   0.224   5.380
 7963SOL     OW24787   6.731   6.348   3.479
 7963SOL    HW124788   6.793   6.407   3.428
 7963SOL    HW224789   6.670   6.300   3.415
 7964SOL     OW24790   6.127   4.127   1.729
 7964SOL    HW124791   6.123   4.079   1.816
 7964SOL    HW224792   6.060   4.088   1.666
 7965SOL     OW24793   4.477   2.318   6.277
 7965SOL    HW124794   4.508   2.412   6.291
 7965SOL    HW224795   4.554   2.261   6.247
 7966SOL     OW24796   5.261   3.750   4.878
 7966SOL    HW124797   5.241   3.662   4.835
 7966SOL    HW224798   5.291   3.735   4.972
 7967SOL     OW24799   1.374   4.779   0.291
 7967SOL    HW124800   1.438   4.855   0.302
 7967SOL    HW224801   1.296   4.792   0.353
 7968SOL     OW24802   0.984   3.114   4.566
 7968SOL    HW124803   0.951   3.171   4.490
 7968SOL    HW224804   1.080   3.136   4.585
 7969SOL     OW24805   3.539   5.393   6.612
 7969SOL    HW124806   3.470   5.413   6.681
 7969SOL    HW224807   3.620   5.449   6.628
 7970SOL     OW24808   6.283   2.978   4.183
 7970SOL    HW124809   6.237   2.924   4.254
 7970SOL    HW224810   6.300   2.920   4.103
 7971SOL     OW24811   2.504   1.352   6.381
 7971SOL    HW124812   2.489   1.294   6.461
 7971SOL    HW224813   2.589   1.324   6.336
 7972SOL     OW24814   3.212   4.118   4.359
 7972SOL    HW124815   3.255   4.028   4.360
 7972SOL    HW224816   3.169   4.135   4.448
 7973SOL     OW24817   5.794   4.579   2.307
 7973SOL    HW124818   5.770   4.636   2.386
 7973SOL    HW224819   5.781   4.630   2.223
 7974SOL     OW24820   0.361   2.587   5.212
 7974SOL    HW124821   0.408   2.671   5.184
 7974SOL    HW224822   0.412   2.508   5.180
 7975SOL     OW24823   5.559   0.541   1.206
 7975SOL    HW124824   5.514   0.476   1.268
 7975SOL    HW224825   5.583   0.495   1.120
 7976SOL     OW24826   0.343   0.333   0.657
 7976SOL    HW124827   0.405   0.411   0.659
 7976SOL    HW224828   0.323   0.309   0.562
 7977SOL     OW24829   5.489   5.922   3.646
 7977SOL    HW124830   5.454   5.944   3.737
 7977SOL    HW224831   5.580   5.882   3.654
 7978SOL     OW24832   0.468   4.462   1.421
 7978SOL    HW124833   0.374   4.430   1.434
 7978SOL    HW224834   0.482   4.546   1.472
 7979SOL     OW24835   2.210   2.262   4.552
 7979SOL    HW124836   2.271   2.191   4.515
 7979SOL    HW224837   2.167   2.311   4.476
 7980SOL     OW24838   3.923   5.847   1.032
 7980SOL    HW124839   3.954   5.926   0.979
 7980SOL    HW224840   3.854   5.877   1.098
 7981SOL     OW24841   1.216   3.545   3.731
 7981SOL    HW124842   1.234   3.617   3.664
 7981SOL    HW224843   1.134   3.495   3.705
 7982SOL     OW24844   6.940   0.789   5.786
 7982SOL    HW124845   6.863   0.797   5.850
 7982SOL    HW224846   6.985   0.878   5.776
 7983SOL     OW24847   4.304   1.326   1.783
 7983SOL    HW124848   4.336   1.272   1.861
 7983SOL    HW224849   4.323   1.423   1.799
 7984SOL     OW24850   7.018   2.713   3.034
 7984SOL    HW124851   7.007   2.796   2.979
 7984SOL    HW224852   0.090   2.695   3.048
 7985SOL     OW24853   3.275   2.781   5.310
 7985SOL    HW124854   3.278   2.805   5.213
 7985SOL    HW224855   3.368   2.770   5.345
 7986SOL     OW24856   4.052   1.095   4.612
 7986SOL    HW124857   3.957   1.062   4.621
 7986SOL    HW224858   4.110   1.049   4.679
 7987SOL     OW24859   0.788   3.396   6.872
 7987SOL    HW124860   0.804   3.298   6.861
 7987SOL    HW224861   0.690   3.413   6.879
 7988SOL     OW24862   6.932   1.464   1.443
 7988SOL    HW124863   6.960   1.368   1.450
 7988SOL    HW224864   7.009   1.519   1.412
 7989SOL     OW24865   0.053   4.071   0.990
 7989SOL    HW124866   0.007   4.109   0.910
 7989SOL    HW224867   0.083   4.146   1.050
 7990SOL     OW24868   4.844   5.485   5.537
 7990SOL    HW124869   4.900   5.417   5.585
 7990SOL    HW224870   4.757   5.495   5.585
 7991SOL     OW24871   5.826   0.676   4.659
 7991SOL    HW124872   5.874   0.742   4.602
 7991SOL    HW224873   5.816   0.590   4.609
 7992SOL     OW24874   2.180   6.868   7.022
 7992SOL    HW124875   2.103   6.889   0.057
 7992SOL    HW224876   2.159   6.899   6.929
 7993SOL     OW24877   6.185   5.669   0.800
 7993SOL    HW124878   6.245   5.652   0.722
 7993SOL    HW224879   6.239   5.707   0.876
 7994SOL     OW24880   6.440   0.271   4.144
 7994SOL    HW124881   6.462   0.354   4.194
 7994SOL    HW224882   6.524   0.221   4.122
 7995SOL     OW24883   0.840   5.339   1.361
 7995SOL    HW124884   0.906   5.355   1.287
 7995SOL    HW224885   0.759   5.396   1.347
 7996SOL     OW24886   2.700   0.118   3.177
 7996SOL    HW124887   2.646   0.076   3.249
 7996SOL    HW224888   2.797   0.101   3.194
 7997SOL     OW24889   2.022   2.073   5.829
 7997SOL    HW124890   2.088   2.004   5.800
 7997SOL    HW224891   2.041   2.160   5.783
 7998SOL     OW24892   2.707   1.080   0.624
 7998SOL    HW124893   2.619   1.065   0.578
 7998SOL    HW224894   2.773   1.116   0.559
 7999SOL     OW24895   0.899   0.386   3.864
 7999SOL    HW124896   0.993   0.368   3.835
 7999SOL    HW224897   0.843   0.407   3.784
 8000SOL     OW24898   3.899   5.655   0.808
 8000SOL    HW124899   3.908   5.736   0.866
 8000SOL    HW224900   3.911   5.681   0.713
 8001SOL     OW24901   4.339   4.326   1.201
 8001SOL    HW124902   4.426   4.374   1.197
 8001SOL    HW224903   4.310   4.317   1.297
 8002SOL     OW24904   0.969   6.830   4.458
 8002SOL    HW124905   1.050   6.785   4.422
 8002SOL    HW224906   0.911   6.861   4.383
 8003SOL     OW24907   2.816   5.400   2.347
 8003SOL    HW124908   2.822   5.424   2.250
 8003SOL    HW224909   2.885   5.331   2.368
 8004SOL     OW24910   1.134   3.310   3.983
 8004SOL    HW124911   1.225   3.278   3.956
 8004SOL    HW224912   1.142   3.379   4.054
 8005SOL     OW24913   2.219   0.830   2.990
 8005SOL    HW124914   2.162   0.868   3.063
 8005SOL    HW224915   2.189   0.865   2.902
 8006SOL     OW24916   3.897   5.138   5.659
 8006SOL    HW124917   3.852   5.066   5.607
 8006SOL    HW224918   3.940   5.098   5.740
 8007SOL     OW24919   0.155   0.570   0.698
 8007SOL    HW124920   0.206   0.497   0.651
 8007SOL    HW224921   0.184   0.659   0.662
 8008SOL     OW24922   4.800   5.049   6.836
 8008SOL    HW124923   4.702   5.051   6.853
 8008SOL    HW224924   4.820   4.991   6.757
 8009SOL     OW24925   6.084   1.039   0.589
 8009SOL    HW124926   6.000   1.067   0.636
 8009SOL    HW224927   6.068   0.956   0.537
 8010SOL     OW24928   2.833   0.327   5.547
 8010SOL    HW124929   2.894   0.401   5.576
 8010SOL    HW224930   2.807   0.272   5.626
 8011SOL     OW24931   4.012   2.142   3.234
 8011SOL    HW124932   4.005   2.109   3.140
 8011SOL    HW224933   3.920   2.156   3.271
 8012SOL     OW24934   6.284   1.272   4.390
 8012SOL    HW124935   6.228   1.336   4.443
 8012SOL    HW224936   6.257   1.178   4.412
 8013SOL     OW24937   3.569   1.012   2.987
 8013SOL    HW124938   3.508   0.981   3.060
 8013SOL    HW224939   3.556   0.955   2.906
 8014SOL     OW24940   2.333   2.363   2.714
 8014SOL    HW124941   2.277   2.433   2.759
 8014SOL    HW224942   2.408   2.408   2.665
 8015SOL     OW24943   3.749   0.691   4.864
 8015SOL    HW124944   3.699   0.770   4.901
 8015SOL    HW224945   3.684   0.624   4.828
 8016SOL     OW24946   3.562   2.494   5.477
 8016SOL    HW124947   3.632   2.550   5.432
 8016SOL    HW224948   3.516   2.437   5.409
 8017SOL     OW24949   6.564   6.277   1.135
 8017SOL    HW124950   6.580   6.189   1.089
 8017SOL    HW224951   6.510   6.261   1.218
 8018SOL     OW24952   3.902   3.154   0.137
 8018SOL    HW124953   3.869   3.067   0.101
 8018SOL    HW224954   4.001   3.160   0.124
 8019SOL     OW24955   2.326   3.304   0.429
 8019SOL    HW124956   2.242   3.275   0.384
 8019SOL    HW224957   2.398   3.238   0.410
 8020SOL     OW24958   0.506   0.531   5.532
 8020SOL    HW124959   0.518   0.599   5.460
 8020SOL    HW224960   0.452   0.455   5.497
 8021SOL     OW24961   0.936   3.202   0.893
 8021SOL    HW124962   1.008   3.256   0.936
 8021SOL    HW224963   0.848   3.222   0.937
 8022SOL     OW24964   4.335   0.577   1.760
 8022SOL    HW124965   4.314   0.513   1.833
 8022SOL    HW224966   4.258   0.639   1.746
 8023SOL     OW24967   4.626   6.032   1.344
 8023SOL    HW124968   4.630   6.048   1.443
 8023SOL    HW224969   4.616   6.119   1.297
 8024SOL     OW24970   2.552   1.126   0.195
 8024SOL    HW124971   2.599   1.212   0.215
 8024SOL    HW224972   2.520   1.084   0.280
 8025SOL     OW24973   1.026   5.804   1.656
 8025SOL    HW124974   1.074   5.889   1.634
 8025SOL    HW224975   1.036   5.784   1.754
 8026SOL     OW24976   0.633   5.934   6.476
 8026SOL    HW124977   0.709   5.870   6.466
 8026SOL    HW224978   0.625   5.960   6.572
 8027SOL     OW24979   3.718   0.022   6.672
 8027SOL    HW124980   3.748   6.973   6.733
 8027SOL    HW224981   3.759   0.108   6.703
 8028SOL     OW24982   4.156   5.628   5.464
 8028SOL    HW124983   4.193   5.669   5.547
 8028SOL    HW224984   4.117   5.538   5.485
 8029SOL     OW24985   0.884   0.404   1.420
 8029SOL    HW124986   0.789   0.404   1.453
 8029SOL    HW224987   0.943   0.360   1.486
 8030SOL     OW24988   0.659   4.480   1.189
 8030SOL    HW124989   0.580   4.429   1.224
 8030SOL    HW224990   0.696   4.538   1.262
 8031SOL     OW24991   6.896   0.102   2.881
 8031SOL    HW124992   6.950   0.052   2.948
 8031SOL    HW224993   6.856   0.183   2.924
 8032SOL     OW24994   0.121   2.739   0.984
 8032SOL    HW124995   0.194   2.739   0.916
 8032SOL    HW224996   0.067   2.823   0.975
 8033SOL     OW24997   4.237   3.944   1.513
 8033SOL    HW124998   4.314   4.001   1.484
 8033SOL    HW224999   4.198   3.982   1.597
 8034SOL     OW25000   6.844   6.937   5.804
 8034SOL    HW125001   6.867   6.993   5.725
 8034SOL    HW225002   6.915   6.868   5.818
 8035SOL     OW25003   5.902   0.646   3.267
 8035SOL    HW125004   5.999   0.639   3.291
 8035SOL    HW225005   5.847   0.602   3.338
 8036SOL     OW25006   4.784   2.781   4.089
 8036SOL    HW125007   4.861   2.832   4.052
 8036SOL    HW225008   4.772   2.805   4.186
 8037SOL     OW25009   2.501   0.910   6.011
 8037SOL    HW125010   2.554   0.874   5.935
 8037SOL    HW225011   2.562   0.933   6.087
 8038SOL     OW25012   6.923   5.512   2.263
 8038SOL    HW125013   7.001   5.511   2.200
 8038SOL    HW225014   6.846   5.463   2.222
 8039SOL     OW25015   1.399   2.844   5.250
 8039SOL    HW125016   1.452   2.860   5.167
 8039SOL    HW225017   1.450   2.878   5.329
 8040SOL     OW25018   1.010   6.054   6.063
 8040SOL    HW125019   1.089   5.994   6.079
 8040SOL    HW225020   0.926   6.003   6.081
 8041SOL     OW25021   3.180   1.337   3.121
 8041SOL    HW125022   3.148   1.341   3.027
 8041SOL    HW225023   3.199   1.430   3.154
 8042SOL     OW25024   4.089   4.201   5.824
 8042SOL    HW125025   4.132   4.112   5.807
 8042SOL    HW225026   4.132   4.245   5.903
 8043SOL     OW25027   5.477   5.411   6.843
 8043SOL    HW125028   5.543   5.429   6.915
 8043SOL    HW225029   5.478   5.487   6.777
 8044SOL     OW25030   2.162   3.074   1.340
 8044SOL    HW125031   2.066   3.102   1.345
 8044SOL    HW225032   2.168   2.975   1.350
 8045SOL     OW25033   6.821   2.891   4.286
 8045SOL    HW125034   6.830   2.969   4.349
 8045SOL    HW225035   6.750   2.829   4.320
 8046SOL     OW25036   6.887   4.475   1.541
 8046SOL    HW125037   6.827   4.516   1.610
 8046SOL    HW225038   6.983   4.490   1.567
 8047SOL     OW25039   3.086   6.066   6.850
 8047SOL    HW125040   3.113   6.158   6.823
 8047SOL    HW225041   3.012   6.035   6.790
 8048SOL     OW25042   3.624   2.084   5.647
 8048SOL    HW125043   3.592   2.162   5.594
 8048SOL    HW225044   3.592   2.092   5.742
 8049SOL     OW25045   1.700   1.585   0.148
 8049SOL    HW125046   1.674   1.535   0.231
 8049SOL    HW225047   1.755   1.527   0.090
 8050SOL     OW25048   0.810   4.771   6.073
 8050SOL    HW125049   0.770   4.774   5.982
 8050SOL    HW225050   0.898   4.818   6.071
 8051SOL     OW25051   4.194   6.879   3.339
 8051SOL    HW125052   4.276   6.931   3.363
 8051SOL    HW225053   4.194   6.859   3.241
 8052SOL     OW25054   3.285   1.805   2.608
 8052SOL    HW125055   3.341   1.755   2.541
 8052SOL    HW225056   3.327   1.894   2.626
 8053SOL     OW25057   1.650   2.489   6.542
 8053SOL    HW125058   1.599   2.491   6.627
 8053SOL    HW225059   1.726   2.424   6.550
 8054SOL     OW25060   4.969   3.428   5.026
 8054SOL    HW125061   4.894   3.494   5.027
 8054SOL    HW225062   5.050   3.471   4.985
 8055SOL     OW25063   6.291   0.383   6.640
 8055SOL    HW125064   6.305   0.461   6.580
 8055SOL    HW225065   6.214   0.328   6.607
 8056SOL     OW25066   2.261   1.145   3.749
 8056SOL    HW125067   2.278   1.188   3.661
 8056SOL    HW225068   2.211   1.059   3.736
 8057SOL     OW25069   2.799   2.048   2.011
 8057SOL    HW125070   2.821   2.145   2.020
 8057SOL    HW225071   2.866   2.004   1.952
 8058SOL     OW25072   3.785   6.318   1.963
 8058SOL    HW125073   3.830   6.311   2.052
 8058SOL    HW225074   3.787   6.230   1.917
 8059SOL     OW25075   2.633   2.635   5.965
 8059SOL    HW125076   2.718   2.639   6.017
 8059SOL    HW225077   2.631   2.708   5.897
 8060SOL     OW25078   6.442   1.021   5.851
 8060SOL    HW125079   6.364   1.033   5.913
 8060SOL    HW225080   6.517   1.081   5.880
 8061SOL     OW25081   6.977   0.654   2.543
 8061SOL    HW125082   6.994   0.690   2.451
 8061SOL    HW225083   0.004   0.571   2.556
 8062SOL     OW25084   4.436   5.399   5.586
 8062SOL    HW125085   4.420   5.303   5.609
 8062SOL    HW225086   4.474   5.406   5.494
 8063SOL     OW25087   2.828   5.143   3.142
 8063SOL    HW125088   2.788   5.077   3.206
 8063SOL    HW225089   2.762   5.164   3.070
 8064SOL     OW25090   6.499   1.832   0.692
 8064SOL    HW125091   6.527   1.897   0.763
 8064SOL    HW225092   6.507   1.875   0.602
 8065SOL     OW25093   4.119   6.160   6.305
 8065SOL    HW125094   4.043   6.142   6.367
 8065SOL    HW225095   4.165   6.074   6.283
 8066SOL     OW25096   0.446   6.882   5.952
 8066SOL    HW125097   0.407   6.972   5.968
 8066SOL    HW225098   0.546   6.887   5.962
 8067SOL     OW25099   5.800   1.371   3.821
 8067SOL    HW125100   5.897   1.395   3.817
 8067SOL    HW225101   5.744   1.452   3.805
 8068SOL     OW25102   6.030   3.347   1.573
 8068SOL    HW125103   5.961   3.281   1.600
 8068SOL    HW225104   6.029   3.425   1.636
 8069SOL     OW25105   1.634   3.543   2.589
 8069SOL    HW125106   1.590   3.476   2.649
 8069SOL    HW225107   1.712   3.584   2.637
 8070SOL     OW25108   4.761   4.746   1.163
 8070SOL    HW125109   4.769   4.803   1.244
 8070SOL    HW225110   4.848   4.698   1.147
 8071SOL     OW25111   2.378   6.848   6.104
 8071SOL    HW125112   2.390   6.852   6.005
 8071SOL    HW225113   2.448   6.788   6.143
 8072SOL     OW25114   2.211   1.914   5.035
 8072SOL    HW125115   2.119   1.908   5.073
 8072SOL    HW225116   2.263   1.832   5.059
 8073SOL     OW25117   4.587   0.204   6.946
 8073SOL    HW125118   4.562   0.204   0.017
 8073SOL    HW225119   4.507   0.223   6.890
 8074SOL     OW25120   0.169   0.464   6.887
 8074SOL    HW125121   0.106   0.496   6.958
 8074SOL    HW225122   0.160   0.366   6.876
 8075SOL     OW25123   6.882   6.965   1.069
 8075SOL    HW125124   6.981   6.979   1.063
 8075SOL    HW225125   6.836   7.024   1.002
 8076SOL     OW25126   0.130   5.911   0.284
 8076SOL    HW125127   0.132   5.811   0.274
 8076SOL    HW225128   0.213   5.941   0.330
 8077SOL     OW25129   5.237   4.693   0.880
 8077SOL    HW125130   5.216   4.772   0.937
 8077SOL    HW225131   5.334   4.695   0.854
 8078SOL     OW25132   7.013   1.043   1.282
 8078SOL    HW125133   0.033   1.040   1.192
 8078SOL    HW225134   7.022   0.954   1.326
 8079SOL     OW25135   1.038   0.920   6.530
 8079SOL    HW125136   1.014   0.967   6.615
 8079SOL    HW225137   1.067   0.827   6.551
 8080SOL     OW25138   1.135   3.016   3.332
 8080SOL    HW125139   1.039   3.008   3.308
 8080SOL    HW225140   1.144   3.027   3.432
 8081SOL     OW25141   6.331   6.823   5.202
 8081SOL    HW125142   6.376   6.736   5.186
 8081SOL    HW225143   6.389   6.897   5.167
 8082SOL     OW25144   3.678   2.121   3.938
 8082SOL    HW125145   3.580   2.108   3.925
 8082SOL    HW225146   3.694   2.163   4.028
 8083SOL     OW25147   6.148   1.843   4.676
 8083SOL    HW125148   6.175   1.779   4.748
 8083SOL    HW225149   6.123   1.792   4.594
 8084SOL     OW25150   3.846   1.037   5.908
 8084SOL    HW125151   3.855   1.007   6.003
 8084SOL    HW225152   3.920   1.101   5.887
 8085SOL     OW25153   1.869   6.159   4.342
 8085SOL    HW125154   1.815   6.239   4.315
 8085SOL    HW225155   1.936   6.186   4.411
 8086SOL     OW25156   6.798   1.544   2.419
 8086SOL    HW125157   6.820   1.510   2.327
 8086SOL    HW225158   6.769   1.467   2.477
 8087SOL     OW25159   6.875   0.615   6.531
 8087SOL    HW125160   6.856   0.543   6.599
 8087SOL    HW225161   6.856   0.580   6.440
 8088SOL     OW25162   0.022   0.571   5.025
 8088SOL    HW125163   0.061   0.606   5.110
 8088SOL    HW225164   0.045   0.475   5.015
 8089SOL     OW25165   6.205   1.854   6.493
 8089SOL    HW125166   6.130   1.789   6.482
 8089SOL    HW225167   6.215   1.877   6.590
 8090SOL     OW25168   4.234   2.405   5.471
 8090SOL    HW125169   4.306   2.453   5.421
 8090SOL    HW225170   4.270   2.369   5.557
 8091SOL     OW25171   1.085   4.201   3.973
 8091SOL    HW125172   1.071   4.148   4.057
 8091SOL    HW225173   1.047   4.293   3.986
 8092SOL     OW25174   4.991   0.573   5.929
 8092SOL    HW125175   4.959   0.650   5.984
 8092SOL    HW225176   4.954   0.581   5.836
 8093SOL     OW25177   3.505   6.012   3.159
 8093SOL    HW125178   3.573   6.075   3.122
 8093SOL    HW225179   3.498   5.931   3.100
 8094SOL     OW25180   1.927   3.694   3.881
 8094SOL    HW125181   1.961   3.775   3.833
 8094SOL    HW225182   1.971   3.688   3.970
 8095SOL     OW25183   1.221   5.054   5.133
 8095SOL    HW125184   1.219   5.078   5.230
 8095SOL    HW225185   1.284   5.115   5.085
 8096SOL     OW25186   0.739   5.252   0.461
 8096SOL    HW125187   0.645   5.221   0.451
 8096SOL    HW225188   0.768   5.240   0.556
 8097SOL     OW25189   4.811   6.278   0.367
 8097SOL    HW125190   4.847   6.232   0.285
 8097SOL    HW225191   4.807   6.376   0.350
 8098SOL     OW25192   2.147   5.498   5.073
 8098SOL    HW125193   2.070   5.487   5.136
 8098SOL    HW225194   2.229   5.522   5.126
 8099SOL     OW25195   1.867   3.932   2.435
 8099SOL    HW125196   1.950   3.904   2.386
 8099SOL    HW225197   1.893   3.986   2.515
 8100SOL     OW25198   6.524   0.199   6.610
 8100SOL    HW125199   6.461   0.274   6.591
 8100SOL    HW225200   6.533   0.187   6.709
 8101SOL     OW25201   3.079   5.555   0.846
 8101SOL    HW125202   2.994   5.530   0.893
 8101SOL    HW225203   3.149   5.578   0.914
 8102SOL     OW25204   0.712   3.623   4.392
 8102SOL    HW125205   0.755   3.582   4.472
 8102SOL    HW225206   0.776   3.684   4.346
 8103SOL     OW25207   3.288   0.633   1.642
 8103SOL    HW125208   3.368   0.689   1.622
 8103SOL    HW225209   3.314   0.536   1.642
 8104SOL     OW25210   2.220   5.223   0.368
 8104SOL    HW125211   2.158   5.166   0.314
 8104SOL    HW225212   2.295   5.166   0.402
 8105SOL     OW25213   0.089   6.898   3.540
 8105SOL    HW125214   0.022   6.941   3.479
 8105SOL    HW225215   0.173   6.879   3.490
 8106SOL     OW25216   1.995   0.148   5.980
 8106SOL    HW125217   1.923   0.214   5.959
 8106SOL    HW225218   1.957   0.070   6.029
 8107SOL     OW25219   1.369   6.127   6.502
 8107SOL    HW125220   1.426   6.146   6.582
 8107SOL    HW225221   1.394   6.189   6.428
 8108SOL     OW25222   1.084   1.301   6.979
 8108SOL    HW125223   1.026   1.219   6.978
 8108SOL    HW225224   1.179   1.275   6.963
 8109SOL     OW25225   6.182   2.974   1.776
 8109SOL    HW125226   6.235   3.022   1.846
 8109SOL    HW225227   6.090   2.956   1.810
 8110SOL     OW25228   3.652   5.034   1.089
 8110SOL    HW125229   3.649   5.041   1.189
 8110SOL    HW225230   3.727   4.974   1.062
 8111SOL     OW25231   6.474   1.265   2.569
 8111SOL    HW125232   6.442   1.197   2.634
 8111SOL    HW225233   6.398   1.296   2.512
 8112SOL     OW25234   1.882   4.699   6.507
 8112SOL    HW125235   1.957   4.632   6.506
 8112SOL    HW225236   1.906   4.776   6.448
 8113SOL     OW25237   5.531   3.900   5.874
 8113SOL    HW125238   5.480   3.924   5.791
 8113SOL    HW225239   5.471   3.912   5.953
 8114SOL     OW25240   1.417   3.827   2.631
 8114SOL    HW125241   1.483   3.825   2.556
 8114SOL    HW225242   1.455   3.877   2.709
 8115SOL     OW25243   2.823   1.674   5.875
 8115SOL    HW125244   2.840   1.773   5.872
 8115SOL    HW225245   2.782   1.650   5.962
 8116SOL     OW25246   3.799   3.146   1.361
 8116SOL    HW125247   3.832   3.236   1.389
 8116SOL    HW225248   3.699   3.145   1.363
 8117SOL     OW25249   2.677   6.632   4.428
 8117SOL    HW125250   2.716   6.551   4.472
 8117SOL    HW225251   2.707   6.635   4.332
 8118SOL     OW25252   6.634   2.921   0.305
 8118SOL    HW125253   6.591   2.868   0.232
 8118SOL    HW225254   6.565   2.975   0.353
 8119SOL     OW25255   5.857   6.420   0.254
 8119SOL    HW125256   5.932   6.354   0.247
 8119SOL    HW225257   5.879   6.487   0.326
 8120SOL     OW25258   1.662   6.832   2.182
 8120SOL    HW125259   1.701   6.741   2.197
 8120SOL    HW225260   1.671   6.857   2.086
 8121SOL     OW25261   1.033   3.208   2.385
 8121SOL    HW125262   0.980   3.237   2.465
 8121SOL    HW225263   1.033   3.108   2.380
 8122SOL     OW25264   0.172   5.263   1.643
 8122SOL    HW125265   0.181   5.279   1.545
 8122SOL    HW225266   0.193   5.347   1.693
 8123SOL     OW25267   6.998   1.999   6.748
 8123SOL    HW125268   0.046   1.981   6.812
 8123SOL    HW225269   0.002   1.978   6.655
 8124SOL     OW25270   5.601   5.755   5.032
 8124SOL    HW125271   5.541   5.753   5.112
 8124SOL    HW225272   5.654   5.670   5.027
 8125SOL     OW25273   2.414   5.305   3.115
 8125SOL    HW125274   2.458   5.349   3.193
 8125SOL    HW225275   2.318   5.334   3.111
 8126SOL     OW25276   3.764   5.450   4.525
 8126SOL    HW125277   3.828   5.431   4.600
 8126SOL    HW225278   3.695   5.515   4.556
 8127SOL     OW25279   4.038   2.211   6.689
 8127SOL    HW125280   4.030   2.121   6.730
 8127SOL    HW225281   3.977   2.275   6.736
 8128SOL     OW25282   3.310   2.951   1.419
 8128SOL    HW125283   3.246   2.927   1.345
 8128SOL    HW225284   3.258   2.983   1.498
 8129SOL     OW25285   1.249   2.453   2.480
 8129SOL    HW125286   1.218   2.448   2.385
 8129SOL    HW225287   1.184   2.403   2.538
 8130SOL     OW25288   0.640   5.884   6.785
 8130SOL    HW125289   0.577   5.896   6.861
 8130SOL    HW225290   0.621   5.797   6.739
 8131SOL     OW25291   1.636   3.398   6.735
 8131SOL    HW125292   1.707   3.350   6.786
 8131SOL    HW225293   1.576   3.331   6.691
 8132SOL     OW25294   0.601   0.860   5.087
 8132SOL    HW125295   0.676   0.908   5.041
 8132SOL    HW225296   0.622   0.849   5.184
 8133SOL     OW25297   3.502   4.836   0.740
 8133SOL    HW125298   3.466   4.927   0.758
 8133SOL    HW225299   3.501   4.818   0.641
 8134SOL     OW25300   5.715   1.418   5.926
 8134SOL    HW125301   5.806   1.419   5.967
 8134SOL    HW225302   5.649   1.384   5.993
 8135SOL     OW25303   2.531   6.611   1.973
 8135SOL    HW125304   2.486   6.571   2.053
 8135SOL    HW225305   2.584   6.540   1.926
 8136SOL     OW25306   4.886   4.380   2.152
 8136SOL    HW125307   4.846   4.354   2.065
 8136SOL    HW225308   4.935   4.302   2.191
 8137SOL     OW25309   4.267   1.549   5.673
 8137SOL    HW125310   4.296   1.522   5.765
 8137SOL    HW225311   4.306   1.487   5.605
 8138SOL     OW25312   5.109   0.718   2.346
 8138SOL    HW125313   5.018   0.718   2.304
 8138SOL    HW225314   5.152   0.629   2.333
 8139SOL     OW25315   0.192   2.245   3.292
 8139SOL    HW125316   0.243   2.178   3.346
 8139SOL    HW225317   0.097   2.216   3.282
 8140SOL     OW25318   4.353   1.710   3.851
 8140SOL    HW125319   4.359   1.746   3.757
 8140SOL    HW225320   4.421   1.639   3.864
 8141SOL     OW25321   5.109   4.706   4.438
 8141SOL    HW125322   5.086   4.726   4.342
 8141SOL    HW225323   5.043   4.641   4.475
 8142SOL     OW25324   0.313   6.054   6.679
 8142SOL    HW125325   0.395   6.106   6.701
 8142SOL    HW225326   0.235   6.093   6.727
 8143SOL     OW25327   6.674   3.116   5.836
 8143SOL    HW125328   6.689   3.215   5.839
 8143SOL    HW225329   6.580   3.095   5.863
 8144SOL     OW25330   5.094   0.238   6.833
 8144SOL    HW125331   5.153   0.165   6.870
 8144SOL    HW225332   5.103   0.320   6.890
 8145SOL     OW25333   5.550   6.111   2.783
 8145SOL    HW125334   5.563   6.197   2.734
 8145SOL    HW225335   5.536   6.129   2.880
 8146SOL     OW25336   3.654   1.210   4.642
 8146SOL    HW125337   3.705   1.288   4.678
 8146SOL    HW225338   3.693   1.125   4.679
 8147SOL     OW25339   4.922   0.384   3.285
 8147SOL    HW125340   4.972   0.444   3.223
 8147SOL    HW225341   4.905   0.296   3.241
 8148SOL     OW25342   5.379   4.371   3.209
 8148SOL    HW125343   5.369   4.285   3.258
 8148SOL    HW225344   5.288   4.411   3.193
 8149SOL     OW25345   4.015   4.808   3.501
 8149SOL    HW125346   3.938   4.849   3.550
 8149SOL    HW225347   4.002   4.819   3.403
 8150SOL     OW25348   0.532   5.347   1.341
 8150SOL    HW125349   0.539   5.432   1.290
 8150SOL    HW225350   0.559   5.270   1.283
 8151SOL     OW25351   0.877   1.500   4.993
 8151SOL    HW125352   0.963   1.546   4.971
 8151SOL    HW225353   0.843   1.453   4.911
 8152SOL     OW25354   1.426   0.617   2.788
 8152SOL    HW125355   1.501   0.587   2.847
 8152SOL    HW225356   1.356   0.545   2.785
 8153SOL     OW25357   1.583   6.541   0.317
 8153SOL    HW125358   1.678   6.510   0.311
 8153SOL    HW225359   1.575   6.612   0.387
 8154SOL     OW25360   2.441   6.774   3.854
 8154SOL    HW125361   2.414   6.710   3.926
 8154SOL    HW225362   2.519   6.737   3.804
 8155SOL     OW25363   3.675   3.645   3.816
 8155SOL    HW125364   3.584   3.652   3.856
 8155SOL    HW225365   3.683   3.558   3.767
 8156SOL     OW25366   6.785   0.731   5.330
 8156SOL    HW125367   6.854   0.781   5.383
 8156SOL    HW225368   6.810   0.634   5.327
 8157SOL     OW25369   6.371   2.601   6.721
 8157SOL    HW125370   6.279   2.563   6.722
 8157SOL    HW225371   6.438   2.526   6.728
 8158SOL     OW25372   2.226   5.300   2.798
 8158SOL    HW125373   2.163   5.265   2.868
 8158SOL    HW225374   2.264   5.224   2.746
 8159SOL     OW25375   1.257   4.856   1.712
 8159SOL    HW125376   1.187   4.793   1.679
 8159SOL    HW225377   1.315   4.810   1.780
 8160SOL     OW25378   4.672   2.229   1.762
 8160SOL    HW125379   4.728   2.285   1.701
 8160SOL    HW225380   4.703   2.241   1.856
 8161SOL     OW25381   4.170   2.058   1.244
 8161SOL    HW125382   4.141   2.141   1.291
 8161SOL    HW225383   4.094   2.022   1.189
 8162SOL     OW25384   6.348   0.447   1.700
 8162SOL    HW125385   6.275   0.490   1.646
 8162SOL    HW225386   6.416   0.408   1.638
 8163SOL     OW25387   1.832   3.567   4.639
 8163SOL    HW125388   1.920   3.569   4.686
 8163SOL    HW225389   1.774   3.496   4.679
 8164SOL     OW25390   4.656   2.132   2.462
 8164SOL    HW125391   4.700   2.204   2.410
 8164SOL    HW225392   4.696   2.128   2.554
 8165SOL     OW25393   2.432   4.978   1.098
 8165SOL    HW125394   2.426   4.968   1.197
 8165SOL    HW225395   2.383   4.903   1.053
 8166SOL     OW25396   3.590   6.796   1.042
 8166SOL    HW125397   3.543   6.841   1.119
 8166SOL    HW225398   3.621   6.705   1.070
 8167SOL     OW25399   5.288   3.192   4.139
 8167SOL    HW125400   5.257   3.266   4.079
 8167SOL    HW225401   5.275   3.105   4.093
 8168SOL     OW25402   3.542   1.873   2.914
 8168SOL    HW125403   3.526   1.923   2.829
 8168SOL    HW225404   3.482   1.793   2.916
 8169SOL     OW25405   5.405   4.218   5.449
 8169SOL    HW125406   5.465   4.143   5.423
 8169SOL    HW225407   5.334   4.230   5.380
 8170SOL     OW25408   1.315   4.572   4.119
 8170SOL    HW125409   1.240   4.551   4.182
 8170SOL    HW225410   1.281   4.565   4.025
 8171SOL     OW25411   1.610   1.540   5.666
 8171SOL    HW125412   1.684   1.591   5.711
 8171SOL    HW225413   1.633   1.528   5.569
 8172SOL     OW25414   0.127   6.421   1.582
 8172SOL    HW125415   0.061   6.495   1.592
 8172SOL    HW225416   0.214   6.458   1.548
 8173SOL     OW25417   5.952   2.666   6.356
 8173SOL    HW125418   5.957   2.636   6.261
 8173SOL    HW225419   6.045   2.678   6.392
 8174SOL     OW25420   5.500   0.028   2.170
 8174SOL    HW125421   5.404   0.037   2.144
 8174SOL    HW225422   5.542   0.118   2.174
 8175SOL     OW25423   1.558   3.104   5.156
 8175SOL    HW125424   1.557   3.130   5.253
 8175SOL    HW225425   1.629   3.036   5.140
 8176SOL     OW25426   4.064   5.074   2.955
 8176SOL    HW125427   3.988   5.126   2.916
 8176SOL    HW225428   4.063   5.082   3.054
 8177SOL     OW25429   0.868   0.321   5.906
 8177SOL    HW125430   0.801   0.346   5.976
 8177SOL    HW225431   0.950   0.285   5.949
 8178SOL     OW25432   1.947   6.839   5.878
 8178SOL    HW125433   1.986   6.806   5.964
 8178SOL    HW225434   1.906   6.762   5.828
 8179SOL     OW25435   3.567   0.647   0.150
 8179SOL    HW125436   3.510   0.705   0.208
 8179SOL    HW225437   3.533   0.553   0.151
 8180SOL     OW25438   4.689   4.873   5.442
 8180SOL    HW125439   4.709   4.813   5.365
 8180SOL    HW225440   4.751   4.853   5.517
 8181SOL     OW25441   2.608   2.073   2.568
 8181SOL    HW125442   2.611   2.146   2.636
 8181SOL    HW225443   2.524   2.080   2.515
 8182SOL     OW25444   5.060   2.367   6.195
 8182SOL    HW125445   4.985   2.348   6.131
 8182SOL    HW225446   5.146   2.376   6.144
 8183SOL     OW25447   1.892   2.715   3.894
 8183SOL    HW125448   1.793   2.699   3.903
 8183SOL    HW225449   1.912   2.746   3.801
 8184SOL     OW25450   5.700   5.888   5.386
 8184SOL    HW125451   5.603   5.872   5.409
 8184SOL    HW225452   5.731   5.818   5.322
 8185SOL     OW25453   1.813   1.759   2.508
 8185SOL    HW125454   1.725   1.785   2.549
 8185SOL    HW225455   1.834   1.821   2.432
 8186SOL     OW25456   3.860   4.518   6.097
 8186SOL    HW125457   3.902   4.543   6.185
 8186SOL    HW225458   3.805   4.595   6.064
 8187SOL     OW25459   2.035   1.019   6.100
 8187SOL    HW125460   2.067   0.971   6.018
 8187SOL    HW225461   1.985   0.954   6.159
 8188SOL     OW25462   5.598   2.987   2.751
 8188SOL    HW125463   5.657   3.056   2.708
 8188SOL    HW225464   5.627   2.974   2.846
 8189SOL     OW25465   6.775   4.886   2.793
 8189SOL    HW125466   6.702   4.837   2.842
 8189SOL    HW225467   6.765   4.871   2.695
 8190SOL     OW25468   5.185   3.355   2.180
 8190SOL    HW125469   5.218   3.446   2.204
 8190SOL    HW225470   5.264   3.297   2.155
 8191SOL     OW25471   0.406   5.437   2.088
 8191SOL    HW125472   0.413   5.350   2.138
 8191SOL    HW225473   0.498   5.472   2.069
 8192SOL     OW25474   1.473   3.175   0.523
 8192SOL    HW125475   1.461   3.252   0.585
 8192SOL    HW225476   1.392   3.117   0.526
 8193SOL     OW25477   3.741   0.230   5.513
 8193SOL    HW125478   3.644   0.255   5.520
 8193SOL    HW225479   3.762   0.159   5.580
 8194SOL     OW25480   1.813   0.112   1.495
 8194SOL    HW125481   1.892   0.173   1.498
 8194SOL    HW225482   1.782   0.091   1.588
 8195SOL     OW25483   5.270   0.537   0.746
 8195SOL    HW125484   5.275   0.560   0.844
 8195SOL    HW225485   5.188   0.482   0.729
 8196SOL     OW25486   1.717   0.351   6.915
 8196SOL    HW125487   1.766   0.368   6.829
 8196SOL    HW225488   1.764   0.278   6.965
 8197SOL     OW25489   0.670   6.776   1.005
 8197SOL    HW125490   0.649   6.873   1.000
 8197SOL    HW225491   0.739   6.760   1.076
 8198SOL     OW25492   3.537   0.186   2.733
 8198SOL    HW125493   3.540   0.284   2.753
 8198SOL    HW225494   3.629   0.147   2.738
 8199SOL     OW25495   5.620   4.566   0.176
 8199SOL    HW125496   5.593   4.474   0.203
 8199SOL    HW225497   5.704   4.561   0.122
 8200SOL     OW25498   4.451   3.081   1.445
 8200SOL    HW125499   4.414   3.082   1.353
 8200SOL    HW225500   4.539   3.130   1.446
 8201SOL     OW25501   6.222   0.792   4.540
 8201SOL    HW125502   6.221   0.774   4.638
 8201SOL    HW225503   6.261   0.882   4.523
 8202SOL     OW25504   1.847   4.020   3.923
 8202SOL    HW125505   1.876   4.115   3.913
 8202SOL    HW225506   1.891   3.980   4.003
 8203SOL     OW25507   5.968   4.090   0.237
 8203SOL    HW125508   5.956   3.992   0.222
 8203SOL    HW225509   5.913   4.118   0.315
 8204SOL     OW25510   3.424   0.611   0.594
 8204SOL    HW125511   3.429   0.702   0.552
 8204SOL    HW225512   3.334   0.598   0.634
 8205SOL     OW25513   5.716   5.960   2.586
 8205SOL    HW125514   5.638   5.985   2.642
 8205SOL    HW225515   5.721   6.019   2.506
 8206SOL     OW25516   4.053   1.720   4.241
 8206SOL    HW125517   4.113   1.640   4.234
 8206SOL    HW225518   4.090   1.794   4.185
 8207SOL     OW25519   3.098   5.710   6.964
 8207SOL    HW125520   3.131   5.727   6.871
 8207SOL    HW225521   3.173   5.721   0.003
 8208SOL     OW25522   1.548   5.764   6.945
 8208SOL    HW125523   1.531   5.711   6.862
 8208SOL    HW225524   1.478   5.743   7.013
 8209SOL     OW25525   1.191   6.064   5.478
 8209SOL    HW125526   1.280   6.110   5.477
 8209SOL    HW225527   1.118   6.133   5.474
 8210SOL     OW25528   2.417   2.000   0.102
 8210SOL    HW125529   2.366   1.923   0.065
 8210SOL    HW225530   2.354   2.066   0.142
 8211SOL     OW25531   3.341   3.628   4.153
 8211SOL    HW125532   3.385   3.703   4.202
 8211SOL    HW225533   3.330   3.654   4.056
 8212SOL     OW25534   3.621   5.653   0.442
 8212SOL    HW125535   3.523   5.661   0.424
 8212SOL    HW225536   3.656   5.569   0.402
 8213SOL     OW25537   4.528   4.262   1.613
 8213SOL    HW125538   4.469   4.233   1.689
 8213SOL    HW225539   4.586   4.337   1.643
 8214SOL     OW25540   4.395   5.401   3.111
 8214SOL    HW125541   4.338   5.479   3.134
 8214SOL    HW225542   4.448   5.420   3.029
 8215SOL     OW25543   2.105   6.304   6.583
 8215SOL    HW125544   2.155   6.382   6.621
 8215SOL    HW225545   2.015   6.298   6.625
 8216SOL     OW25546   5.754   5.809   1.501
 8216SOL    HW125547   5.722   5.890   1.551
 8216SOL    HW225548   5.755   5.829   1.403
 8217SOL     OW25549   3.059   6.512   4.336
 8217SOL    HW125550   3.126   6.547   4.271
 8217SOL    HW225551   3.004   6.587   4.370
 8218SOL     OW25552   2.444   6.314   5.037
 8218SOL    HW125553   2.455   6.233   5.095
 8218SOL    HW225554   2.496   6.390   5.076
 8219SOL     OW25555   4.033   3.092   2.192
 8219SOL    HW125556   4.128   3.063   2.183
 8219SOL    HW225557   3.996   3.115   2.102
 8220SOL     OW25558   3.377   4.094   5.433
 8220SOL    HW125559   3.395   4.119   5.338
 8220SOL    HW225560   3.394   3.996   5.445
 8221SOL     OW25561   6.237   3.764   3.867
 8221SOL    HW125562   6.175   3.840   3.889
 8221SOL    HW225563   6.295   3.744   3.946
 8222SOL     OW25564   6.223   2.478   0.159
 8222SOL    HW125565   6.150   2.437   0.104
 8222SOL    HW225566   6.312   2.455   0.119
 8223SOL     OW25567   2.071   6.337   5.517
 8223SOL    HW125568   2.083   6.304   5.424
 8223SOL    HW225569   2.160   6.339   5.563
 8224SOL     OW25570   4.649   1.373   6.752
 8224SOL    HW125571   4.741   1.394   6.783
 8224SOL    HW225572   4.583   1.406   6.819
 8225SOL     OW25573   5.845   2.997   0.349
 8225SOL    HW125574   5.747   2.978   0.345
 8225SOL    HW225575   5.891   2.924   0.399
 8226SOL     OW25576   3.987   0.726   6.795
 8226SOL    HW125577   4.014   0.686   6.708
 8226SOL    HW225578   3.979   0.654   6.864
 8227SOL     OW25579   4.600   2.464   3.136
 8227SOL    HW125580   4.566   2.519   3.213
 8227SOL    HW225581   4.535   2.470   3.061
 8228SOL     OW25582   2.982   6.935   4.960
 8228SOL    HW125583   2.895   6.984   4.970
 8228SOL    HW225584   2.965   6.846   4.916
 8229SOL     OW25585   4.212   4.741   1.071
 8229SOL    HW125586   4.136   4.683   1.043
 8229SOL    HW225587   4.202   4.765   1.168
 8230SOL     OW25588   6.130   0.709   5.726
 8230SOL    HW125589   6.206   0.769   5.750
 8230SOL    HW225590   6.097   0.732   5.635
 8231SOL     OW25591   3.063   1.193   2.172
 8231SOL    HW125592   2.989   1.261   2.170
 8231SOL    HW225593   3.115   1.202   2.256
 8232SOL     OW25594   3.839   6.276   3.320
 8232SOL    HW125595   3.899   6.200   3.343
 8232SOL    HW225596   3.780   6.297   3.398
 8233SOL     OW25597   1.664   1.345   6.636
 8233SOL    HW125598   1.689   1.402   6.557
 8233SOL    HW225599   1.743   1.335   6.697
 8234SOL     OW25600   0.939   2.942   0.564
 8234SOL    HW125601   0.899   2.864   0.515
 8234SOL    HW225602   0.894   3.026   0.535
 8235SOL     OW25603   0.966   0.895   1.732
 8235SOL    HW125604   1.006   0.928   1.817
 8235SOL    HW225605   0.904   0.964   1.695
 8236SOL     OW25606   0.357   0.495   1.779
 8236SOL    HW125607   0.456   0.496   1.791
 8236SOL    HW225608   0.314   0.461   1.863
 8237SOL     OW25609   3.938   4.698   5.208
 8237SOL    HW125610   3.985   4.765   5.266
 8237SOL    HW225611   3.850   4.673   5.249
 8238SOL     OW25612   0.439   5.264   0.989
 8238SOL    HW125613   0.397   5.351   1.015
 8238SOL    HW225614   0.385   5.188   1.026
 8239SOL     OW25615   3.084   1.634   5.879
 8239SOL    HW125616   2.985   1.648   5.878
 8239SOL    HW225617   3.108   1.559   5.818
 8240SOL     OW25618   3.459   3.190   4.818
 8240SOL    HW125619   3.432   3.182   4.722
 8240SOL    HW225620   3.503   3.278   4.834
 8241SOL     OW25621   1.433   3.268   5.920
 8241SOL    HW125622   1.356   3.227   5.872
 8241SOL    HW225623   1.410   3.279   6.016
 8242SOL     OW25624   0.390   2.986   2.332
 8242SOL    HW125625   0.297   3.024   2.331
 8242SOL    HW225626   0.390   2.895   2.293
 8243SOL     OW25627   1.228   6.146   3.779
 8243SOL    HW125628   1.204   6.050   3.762
 8243SOL    HW225629   1.265   6.155   3.871
 8244SOL     OW25630   6.808   1.061   3.211
 8244SOL    HW125631   6.728   1.120   3.201
 8244SOL    HW225632   6.873   1.078   3.137
 8245SOL     OW25633   5.209   2.885   2.851
 8245SOL    HW125634   5.269   2.876   2.770
 8245SOL    HW225635   5.114   2.885   2.822
 8246SOL     OW25636   1.768   4.724   7.000
 8246SOL    HW125637   1.773   4.625   7.013
 8246SOL    HW225638   1.683   4.747   6.952
 8247SOL     OW25639   3.233   5.415   3.590
 8247SOL    HW125640   3.330   5.399   3.575
 8247SOL    HW225641   3.192   5.335   3.633
 8248SOL     OW25642   6.802   4.831   3.372
 8248SOL    HW125643   6.764   4.787   3.290
 8248SOL    HW225644   6.729   4.881   3.419
 8249SOL     OW25645   3.448   1.382   6.656
 8249SOL    HW125646   3.440   1.289   6.622
 8249SOL    HW225647   3.362   1.431   6.642
 8250SOL     OW25648   1.276   2.068   6.817
 8250SOL    HW125649   1.191   2.059   6.869
 8250SOL    HW225650   1.278   2.158   6.773
 8251SOL     OW25651   0.949   2.122   5.660
 8251SOL    HW125652   0.967   2.060   5.583
 8251SOL    HW225653   0.964   2.216   5.631
 8252SOL     OW25654   1.042   2.134   6.600
 8252SOL    HW125655   1.054   2.042   6.637
 8252SOL    HW225656   1.026   2.128   6.501
 8253SOL     OW25657   5.699   4.942   6.299
 8253SOL    HW125658   5.766   4.870   6.281
 8253SOL    HW225659   5.730   5.027   6.257
 8254SOL     OW25660   6.420   5.663   0.128
 8254SOL    HW125661   6.511   5.631   0.101
 8254SOL    HW225662   6.366   5.684   0.047
 8255SOL     OW25663   1.302   0.532   5.774
 8255SOL    HW125664   1.397   0.538   5.744
 8255SOL    HW225665   1.248   0.482   5.707
 8256SOL     OW25666   1.535   6.067   4.585
 8256SOL    HW125667   1.620   6.113   4.611
 8256SOL    HW225668   1.547   6.023   4.496
 8257SOL     OW25669   4.796   4.030   3.413
 8257SOL    HW125670   4.868   4.059   3.350
 8257SOL    HW225671   4.783   4.100   3.483
 8258SOL     OW25672   0.719   2.595   3.794
 8258SOL    HW125673   0.760   2.594   3.885
 8258SOL    HW225674   0.790   2.600   3.724
 8259SOL     OW25675   5.842   1.948   4.287
 8259SOL    HW125676   5.834   1.939   4.386
 8259SOL    HW225677   5.763   1.908   4.242
 8260SOL     OW25678   5.200   2.631   0.434
 8260SOL    HW125679   5.202   2.684   0.349
 8260SOL    HW225680   5.105   2.617   0.463
 8261SOL     OW25681   5.997   1.548   2.800
 8261SOL    HW125682   5.915   1.600   2.776
 8261SOL    HW225683   5.995   1.527   2.898
 8262SOL     OW25684   5.218   3.969   2.054
 8262SOL    HW125685   5.123   3.994   2.073
 8262SOL    HW225686   5.231   3.956   1.955
 8263SOL     OW25687   6.667   1.876   5.938
 8263SOL    HW125688   6.606   1.947   5.904
 8263SOL    HW225689   6.641   1.788   5.900
 8264SOL     OW25690   2.771   0.938   2.260
 8264SOL    HW125691   2.749   1.030   2.292
 8264SOL    HW225692   2.819   0.945   2.172
 8265SOL     OW25693   4.677   5.360   0.497
 8265SOL    HW125694   4.756   5.308   0.466
 8265SOL    HW225695   4.687   5.382   0.595
 8266SOL     OW25696   3.734   1.031   3.348
 8266SOL    HW125697   3.667   0.962   3.323
 8266SOL    HW225698   3.687   1.109   3.391
 8267SOL     OW25699   1.835   2.401   3.678
 8267SOL    HW125700   1.815   2.311   3.717
 8267SOL    HW225701   1.932   2.422   3.691
 8268SOL     OW25702   3.416   4.841   0.311
 8268SOL    HW125703   3.460   4.928   0.290
 8268SOL    HW225704   3.463   4.797   0.388
 8269SOL     OW25705   6.447   1.975   5.232
 8269SOL    HW125706   6.361   1.945   5.192
 8269SOL    HW225707   6.493   2.039   5.170
 8270SOL     OW25708   4.404   5.059   0.565
 8270SOL    HW125709   4.388   5.129   0.636
 8270SOL    HW225710   4.366   4.972   0.596
 8271SOL     OW25711   3.248   6.754   6.075
 8271SOL    HW125712   3.265   6.836   6.021
 8271SOL    HW225713   3.268   6.773   6.171
 8272SOL     OW25714   0.440   0.530   2.113
 8272SOL    HW125715   0.427   0.581   2.027
 8272SOL    HW225716   0.445   0.594   2.189
 8273SOL     OW25717   3.625   6.859   6.427
 8273SOL    HW125718   3.622   6.922   6.504
 8273SOL    HW225719   3.705   6.878   6.371
 8274SOL     OW25720   5.444   6.574   5.524
 8274SOL    HW125721   5.346   6.553   5.529
 8274SOL    HW225722   5.461   6.633   5.445
 8275SOL     OW25723   5.114   1.012   5.532
 8275SOL    HW125724   5.025   1.053   5.513
 8275SOL    HW225725   5.176   1.028   5.455
 8276SOL     OW25726   5.948   2.664   0.136
 8276SOL    HW125727   5.852   2.679   0.114
 8276SOL    HW225728   5.967   2.565   0.136
 8277SOL     OW25729   1.200   5.905   0.752
 8277SOL    HW125730   1.299   5.895   0.763
 8277SOL    HW225731   1.179   5.998   0.720
 8278SOL     OW25732   1.894   0.410   0.894
 8278SOL    HW125733   1.979   0.419   0.946
 8278SOL    HW225734   1.886   0.487   0.830
 8279SOL     OW25735   4.523   5.995   5.629
 8279SOL    HW125736   4.453   6.046   5.580
 8279SOL    HW225737   4.564   6.054   5.699
 8280SOL     OW25738   5.234   4.217   6.858
 8280SOL    HW125739   5.166   4.267   6.912
 8280SOL    HW225740   5.189   4.140   6.812
 8281SOL     OW25741   2.909   5.816   6.053
 8281SOL    HW125742   2.873   5.901   6.013
 8281SOL    HW225743   2.895   5.741   5.988
 8282SOL     OW25744   3.436   2.760   1.626
 8282SOL    HW125745   3.377   2.814   1.566
 8282SOL    HW225746   3.531   2.766   1.593
 8283SOL     OW25747   0.448   0.353   3.333
 8283SOL    HW125748   0.437   0.302   3.419
 8283SOL    HW225749   0.424   0.293   3.256
 8284SOL     OW25750   4.869   1.978   1.800
 8284SOL    HW125751   4.878   2.078   1.792
 8284SOL    HW225752   4.811   1.944   1.726
 8285SOL     OW25753   0.770   4.596   0.487
 8285SOL    HW125754   0.859   4.589   0.443
 8285SOL    HW225755   0.698   4.588   0.419
 8286SOL     OW25756   6.454   2.114   6.776
 8286SOL    HW125757   6.519   2.048   6.813
 8286SOL    HW225758   6.392   2.144   6.848
 8287SOL     OW25759   1.287   1.449   3.232
 8287SOL    HW125760   1.239   1.477   3.149
 8287SOL    HW225761   1.233   1.380   3.280
 8288SOL     OW25762   1.891   0.551   2.345
 8288SOL    HW125763   1.812   0.578   2.291
 8288SOL    HW225764   1.925   0.462   2.314
 8289SOL     OW25765   5.727   0.191   6.962
 8289SOL    HW125766   5.669   0.110   6.964
 8289SOL    HW225767   5.718   0.236   6.873
 8290SOL     OW25768   4.675   2.740   2.069
 8290SOL    HW125769   4.681   2.838   2.051
 8290SOL    HW225770   4.627   2.695   1.993
 8291SOL     OW25771   4.988   6.078   6.207
 8291SOL    HW125772   4.923   6.085   6.283
 8291SOL    HW225773   5.079   6.102   6.239
 8292SOL     OW25774   0.366   2.647   5.664
 8292SOL    HW125775   0.456   2.612   5.638
 8292SOL    HW225776   0.331   2.596   5.742
 8293SOL     OW25777   2.968   5.271   4.018
 8293SOL    HW125778   2.901   5.342   4.041
 8293SOL    HW225779   3.060   5.307   4.031
 8294SOL     OW25780   6.048   3.866   5.384
 8294SOL    HW125781   5.961   3.888   5.342
 8294SOL    HW225782   6.091   3.951   5.417
 8295SOL     OW25783   4.733   5.080   2.757
 8295SOL    HW125784   4.653   5.082   2.697
 8295SOL    HW225785   4.814   5.109   2.706
 8296SOL     OW25786   4.201   0.599   2.454
 8296SOL    HW125787   4.171   0.676   2.511
 8296SOL    HW225788   4.153   0.601   2.367
 8297SOL     OW25789   5.477   4.525   1.912
 8297SOL    HW125790   5.571   4.548   1.937
 8297SOL    HW225791   5.478   4.446   1.851
 8298SOL     OW25792   6.448   6.672   0.544
 8298SOL    HW125793   6.382   6.743   0.568
 8298SOL    HW225794   6.539   6.712   0.537
 8299SOL     OW25795   1.357   3.328   6.941
 8299SOL    HW125796   1.337   3.259   6.872
 8299SOL    HW225797   1.430   3.296   7.001
 8300SOL     OW25798   6.033   5.114   4.449
 8300SOL    HW125799   5.946   5.148   4.413
 8300SOL    HW225800   6.024   5.017   4.473
 8301SOL     OW25801   6.445   5.975   0.274
 8301SOL    HW125802   6.379   6.035   0.229
 8301SOL    HW225803   6.412   5.881   0.272
 8302SOL     OW25804   4.031   6.543   5.028
 8302SOL    HW125805   4.102   6.500   5.083
 8302SOL    HW225806   3.992   6.475   4.965
 8303SOL     OW25807   1.200   4.619   3.841
 8303SOL    HW125808   1.252   4.690   3.793
 8303SOL    HW225809   1.113   4.657   3.873
 8304SOL     OW25810   6.355   2.762   3.687
 8304SOL    HW125811   6.393   2.680   3.644
 8304SOL    HW225812   6.256   2.763   3.675
 8305SOL     OW25813   4.527   0.243   5.752
 8305SOL    HW125814   4.456   0.278   5.814
 8305SOL    HW225815   4.502   0.151   5.722
 8306SOL     OW25816   6.281   0.371   3.764
 8306SOL    HW125817   6.381   0.365   3.760
 8306SOL    HW225818   6.247   0.322   3.844
 8307SOL     OW25819   1.171   3.815   3.419
 8307SOL    HW125820   1.078   3.779   3.418
 8307SOL    HW225821   1.192   3.849   3.511
 8308SOL     OW25822   1.192   5.077   0.386
 8308SOL    HW125823   1.141   4.998   0.419
 8308SOL    HW225824   1.290   5.062   0.402
 8309SOL     OW25825   6.281   5.363   3.541
 8309SOL    HW125826   6.310   5.445   3.491
 8309SOL    HW225827   6.206   5.386   3.603
 8310SOL     OW25828   2.451   6.607   2.809
 8310SOL    HW125829   2.425   6.522   2.762
 8310SOL    HW225830   2.549   6.624   2.794
 8311SOL     OW25831   4.564   6.175   2.423
 8311SOL    HW125832   4.647   6.178   2.368
 8311SOL    HW225833   4.529   6.082   2.425
 8312SOL     OW25834   6.192   1.579   0.997
 8312SOL    HW125835   6.093   1.575   0.985
 8312SOL    HW225836   6.237   1.588   0.907
 8313SOL     OW25837   5.629   2.455   6.596
 8313SOL    HW125838   5.672   2.375   6.555
 8313SOL    HW225839   5.605   2.521   6.525
 8314SOL     OW25840   4.454   5.908   4.091
 8314SOL    HW125841   4.407   5.843   4.032
 8314SOL    HW225842   4.553   5.904   4.074
 8315SOL     OW25843   3.240   2.877   6.176
 8315SOL    HW125844   3.222   2.781   6.156
 8315SOL    HW225845   3.224   2.932   6.094
 8316SOL     OW25846   1.609   1.970   5.579
 8316SOL    HW125847   1.638   2.027   5.503
 8316SOL    HW225848   1.682   1.965   5.647
 8317SOL     OW25849   1.131   2.027   4.107
 8317SOL    HW125850   1.049   2.077   4.080
 8317SOL    HW225851   1.111   1.970   4.186
 8318SOL     OW25852   4.366   6.791   5.897
 8318SOL    HW125853   4.281   6.744   5.916
 8318SOL    HW225854   4.350   6.890   5.894
 8319SOL     OW25855   2.374   5.786   6.582
 8319SOL    HW125856   2.275   5.792   6.566
 8319SOL    HW225857   2.391   5.717   6.652
 8320SOL     OW25858   3.977   3.873   5.473
 8320SOL    HW125859   3.889   3.845   5.436
 8320SOL    HW225860   3.963   3.935   5.550
 8321SOL     OW25861   0.793   0.226   0.554
 8321SOL    HW125862   0.879   0.264   0.521
 8321SOL    HW225863   0.802   0.201   0.650
 8322SOL     OW25864   1.078   0.264   0.484
 8322SOL    HW125865   1.105   0.297   0.394
 8322SOL    HW225866   1.126   0.316   0.555
 8323SOL     OW25867   5.347   4.399   6.692
 8323SOL    HW125868   5.311   4.322   6.744
 8323SOL    HW225869   5.447   4.397   6.693
 8324SOL     OW25870   5.585   6.383   6.674
 8324SOL    HW125871   5.572   6.478   6.703
 8324SOL    HW225872   5.631   6.381   6.585
 8325SOL     OW25873   1.489   6.516   5.019
 8325SOL    HW125874   1.518   6.561   5.104
 8325SOL    HW225875   1.393   6.536   5.002
 8326SOL     OW25876   1.979   2.778   6.767
 8326SOL    HW125877   1.968   2.790   6.668
 8326SOL    HW225878   1.937   2.691   6.794
 8327SOL     OW25879   0.631   6.482   5.052
 8327SOL    HW125880   0.576   6.565   5.044
 8327SOL    HW225881   0.604   6.417   4.982
 8328SOL     OW25882   1.507   6.348   0.506
 8328SOL    HW125883   1.526   6.375   0.412
 8328SOL    HW225884   1.570   6.395   0.568
 8329SOL     OW25885   1.757   2.568   5.266
 8329SOL    HW125886   1.685   2.533   5.207
 8329SOL    HW225887   1.842   2.517   5.250
 8330SOL     OW25888   2.783   6.615   0.412
 8330SOL    HW125889   2.844   6.694   0.406
 8330SOL    HW225890   2.837   6.531   0.399
 8331SOL     OW25891   2.376   2.454   6.009
 8331SOL    HW125892   2.446   2.467   6.079
 8331SOL    HW225893   2.419   2.450   5.919
 8332SOL     OW25894   5.977   4.036   1.503
 8332SOL    HW125895   5.997   4.097   1.425
 8332SOL    HW225896   5.967   3.943   1.470
 8333SOL     OW25897   2.486   4.235   6.804
 8333SOL    HW125898   2.544   4.159   6.831
 8333SOL    HW225899   2.395   4.201   6.779
 8334SOL     OW25900   3.451   2.331   5.275
 8334SOL    HW125901   3.356   2.345   5.248
 8334SOL    HW225902   3.484   2.244   5.239
 8335SOL     OW25903   5.433   4.661   5.399
 8335SOL    HW125904   5.405   4.616   5.315
 8335SOL    HW225905   5.471   4.593   5.462
 8336SOL     OW25906   1.446   2.981   3.557
 8336SOL    HW125907   1.372   3.049   3.553
 8336SOL    HW225908   1.448   2.940   3.648
 8337SOL     OW25909   6.498   0.994   4.237
 8337SOL    HW125910   6.555   0.965   4.160
 8337SOL    HW225911   6.503   1.094   4.247
 8338SOL     OW25912   2.828   6.059   1.032
 8338SOL    HW125913   2.856   6.099   1.120
 8338SOL    HW225914   2.833   5.959   1.037
 8339SOL     OW25915   5.943   0.438   1.875
 8339SOL    HW125916   5.895   0.437   1.962
 8339SOL    HW225917   5.999   0.521   1.869
 8340SOL     OW25918   5.903   2.286   6.418
 8340SOL    HW125919   5.862   2.196   6.404
 8340SOL    HW225920   6.002   2.281   6.404
 8341SOL     OW25921   3.904   1.178   0.824
 8341SOL    HW125922   3.896   1.144   0.917
 8341SOL    HW225923   3.929   1.102   0.763
 8342SOL     OW25924   3.832   0.507   0.456
 8342SOL    HW125925   3.736   0.482   0.442
 8342SOL    HW225926   3.879   0.434   0.506
 8343SOL     OW25927   5.737   5.125   3.158
 8343SOL    HW125928   5.733   5.150   3.255
 8343SOL    HW225929   5.655   5.073   3.134
 8344SOL     OW25930   2.108   5.195   5.559
 8344SOL    HW125931   2.171   5.158   5.627
 8344SOL    HW225932   2.029   5.236   5.605
 8345SOL     OW25933   5.935   0.624   3.864
 8345SOL    HW125934   5.872   0.700   3.881
 8345SOL    HW225935   5.960   0.621   3.767
 8346SOL     OW25936   5.296   3.906   4.340
 8346SOL    HW125937   5.241   3.978   4.382
 8346SOL    HW225938   5.241   3.857   4.273
 8347SOL     OW25939   1.508   1.335   5.833
 8347SOL    HW125940   1.547   1.407   5.776
 8347SOL    HW225941   1.507   1.365   5.929
 8348SOL     OW25942   2.839   5.526   2.062
 8348SOL    HW125943   2.740   5.512   2.064
 8348SOL    HW225944   2.860   5.621   2.086
 8349SOL     OW25945   5.074   6.100   1.571
 8349SOL    HW125946   5.007   6.086   1.644
 8349SOL    HW225947   5.033   6.078   1.483
 8350SOL     OW25948   1.284   0.017   7.014
 8350SOL    HW125949   1.320   0.092   0.044
 8350SOL    HW225950   1.337   6.960   0.007
 8351SOL     OW25951   0.523   2.379   3.045
 8351SOL    HW125952   0.425   2.375   3.028
 8351SOL    HW225953   0.542   2.447   3.117
 8352SOL     OW25954   2.272   6.468   0.150
 8352SOL    HW125955   2.366   6.481   0.117
 8352SOL    HW225956   2.251   6.537   0.219
 8353SOL     OW25957   0.648   6.415   2.584
 8353SOL    HW125958   0.695   6.387   2.501
 8353SOL    HW225959   0.556   6.446   2.561
 8354SOL     OW25960   4.036   1.735   3.438
 8354SOL    HW125961   4.120   1.739   3.491
 8354SOL    HW225962   4.002   1.641   3.437
 8355SOL     OW25963   3.385   5.325   6.157
 8355SOL    HW125964   3.313   5.292   6.218
 8355SOL    HW225965   3.344   5.382   6.085
 8356SOL     OW25966   3.079   4.487   1.198
 8356SOL    HW125967   3.060   4.401   1.246
 8356SOL    HW225968   2.992   4.528   1.169
 8357SOL     OW25969   4.362   0.009   5.120
 8357SOL    HW125970   4.317   7.004   5.036
 8357SOL    HW225971   4.397   6.955   5.170
 8358SOL     OW25972   0.619   0.806   5.372
 8358SOL    HW125973   0.550   0.860   5.420
 8358SOL    HW225974   0.696   0.789   5.434
 8359SOL     OW25975   4.510   2.097   5.631
 8359SOL    HW125976   4.450   2.173   5.656
 8359SOL    HW225977   4.606   2.128   5.633
 8360SOL     OW25978   4.144   6.933   1.449
 8360SOL    HW125979   4.095   6.848   1.471
 8360SOL    HW225980   4.191   6.922   1.362
 8361SOL     OW25981   4.609   1.464   0.019
 8361SOL    HW125982   4.510   1.466   0.037
 8361SOL    HW225983   4.650   1.389   0.072
 8362SOL     OW25984   6.719   3.539   1.393
 8362SOL    HW125985   6.661   3.574   1.467
 8362SOL    HW225986   6.672   3.550   1.306
 8363SOL     OW25987   1.692   2.372   1.435
 8363SOL    HW125988   1.720   2.461   1.400
 8363SOL    HW225989   1.595   2.357   1.414
 8364SOL     OW25990   0.520   2.142   4.290
 8364SOL    HW125991   0.534   2.224   4.234
 8364SOL    HW225992   0.431   2.102   4.268
 8365SOL     OW25993   1.680   1.963   1.381
 8365SOL    HW125994   1.671   2.002   1.289
 8365SOL    HW225995   1.758   2.005   1.427
 8366SOL     OW25996   5.582   5.327   1.800
 8366SOL    HW125997   5.486   5.352   1.783
 8366SOL    HW225998   5.642   5.397   1.762
 8367SOL     OW25999   1.919   4.404   3.338
 8367SOL    HW126000   1.971   4.475   3.290
 8367SOL    HW226001   1.829   4.441   3.364
 8368SOL     OW26002   6.270   5.316   5.744
 8368SOL    HW126003   6.238   5.344   5.834
 8368SOL    HW226004   6.192   5.289   5.687
 8369SOL     OW26005   1.610   6.904   0.220
 8369SOL    HW126006   1.667   6.822   0.230
 8369SOL    HW226007   1.528   6.882   0.167
 8370SOL     OW26008   2.879   3.260   0.816
 8370SOL    HW126009   2.866   3.206   0.733
 8370SOL    HW226010   2.821   3.223   0.889
 8371SOL     OW26011   2.770   3.817   6.513
 8371SOL    HW126012   2.765   3.783   6.419
 8371SOL    HW226013   2.679   3.849   6.541
 8372SOL     OW26014   1.261   6.128   0.994
 8372SOL    HW126015   1.349   6.172   0.979
 8372SOL    HW226016   1.212   6.121   0.907
 8373SOL     OW26017   6.748   1.087   3.757
 8373SOL    HW126018   6.672   1.145   3.788
 8373SOL    HW226019   6.713   0.997   3.732
 8374SOL     OW26020   0.505   1.052   3.895
 8374SOL    HW126021   0.463   1.078   3.981
 8374SOL    HW226022   0.504   0.952   3.886
 8375SOL     OW26023   1.597   2.033   5.000
 8375SOL    HW126024   1.688   2.066   4.975
 8375SOL    HW226025   1.527   2.091   4.959
 8376SOL     OW26026   1.450   2.001   3.638
 8376SOL    HW126027   1.525   1.964   3.694
 8376SOL    HW226028   1.370   2.017   3.696
 8377SOL     OW26029   4.091   5.649   6.939
 8377SOL    HW126030   4.113   5.635   6.842
 8377SOL    HW226031   3.994   5.627   6.954
 8378SOL     OW26032   4.707   5.840   4.696
 8378SOL    HW126033   4.671   5.911   4.635
 8378SOL    HW226034   4.768   5.780   4.644
 8379SOL     OW26035   6.150   2.176   1.767
 8379SOL    HW126036   6.173   2.269   1.739
 8379SOL    HW226037   6.145   2.118   1.686
 8380SOL     OW26038   0.742   6.050   1.560
 8380SOL    HW126039   0.705   6.065   1.468
 8380SOL    HW226040   0.739   5.953   1.582
 8381SOL     OW26041   0.948   2.027   2.604
 8381SOL    HW126042   0.882   2.101   2.589
 8381SOL    HW226043   0.938   1.993   2.698
 8382SOL     OW26044   0.914   0.146   1.899
 8382SOL    HW126045   1.003   0.123   1.859
 8382SOL    HW226046   0.916   0.241   1.931
 8383SOL     OW26047   2.969   6.867   5.885
 8383SOL    HW126048   3.004   6.786   5.931
 8383SOL    HW226049   2.965   6.943   5.950
 8384SOL     OW26050   0.443   3.765   2.613
 8384SOL    HW126051   0.363   3.785   2.556
 8384SOL    HW226052   0.454   3.837   2.681
 8385SOL     OW26053   4.165   2.240   1.874
 8385SOL    HW126054   4.243   2.294   1.841
 8385SOL    HW226055   4.084   2.261   1.819
 8386SOL     OW26056   2.333   5.750   1.805
 8386SOL    HW126057   2.276   5.796   1.873
 8386SOL    HW226058   2.369   5.665   1.845
 8387SOL     OW26059   0.720   1.188   3.794
 8387SOL    HW126060   0.645   1.128   3.823
 8387SOL    HW226061   0.746   1.248   3.869
 8388SOL     OW26062   3.710   5.292   1.267
 8388SOL    HW126063   3.649   5.286   1.188
 8388SOL    HW226064   3.739   5.387   1.279
 8389SOL     OW26065   0.841   2.677   4.026
 8389SOL    HW126066   0.886   2.640   4.107
 8389SOL    HW226067   0.771   2.742   4.053
 8390SOL     OW26068   2.731   0.408   6.013
 8390SOL    HW126069   2.805   0.341   6.006
 8390SOL    HW226070   2.646   0.369   5.976
 8391SOL     OW26071   5.541   6.018   0.855
 8391SOL    HW126072   5.516   5.922   0.842
 8391SOL    HW226073   5.484   6.075   0.796
 8392SOL     OW26074   4.879   6.146   0.128
 8392SOL    HW126075   4.830   6.060   0.115
 8392SOL    HW226076   4.964   6.130   0.177
 8393SOL     OW26077   0.513   4.945   2.913
 8393SOL    HW126078   0.444   4.882   2.876
 8393SOL    HW226079   0.573   4.974   2.839
 8394SOL     OW26080   1.212   1.549   2.915
 8394SOL    HW126081   1.184   1.577   2.823
 8394SOL    HW226082   1.176   1.615   2.982
 8395SOL     OW26083   0.565   6.486   5.484
 8395SOL    HW126084   0.512   6.571   5.491
 8395SOL    HW226085   0.553   6.447   5.393
 8396SOL     OW26086   4.352   2.519   1.648
 8396SOL    HW126087   4.267   2.568   1.626
 8396SOL    HW226088   4.420   2.536   1.577
 8397SOL     OW26089   2.402   5.156   3.870
 8397SOL    HW126090   2.447   5.211   3.941
 8397SOL    HW226091   2.306   5.181   3.865
 8398SOL     OW26092   5.739   1.553   0.268
 8398SOL    HW126093   5.696   1.613   0.200
 8398SOL    HW226094   5.670   1.489   0.302
 8399SOL     OW26095   5.783   6.010   6.583
 8399SOL    HW126096   5.683   6.013   6.588
 8399SOL    HW226097   5.813   6.052   6.498
 8400SOL     OW26098   6.354   6.811   4.013
 8400SOL    HW126099   6.417   6.870   3.963
 8400SOL    HW226100   6.330   6.854   4.100
 8401SOL     OW26101   2.788   3.978   5.780
 8401SOL    HW126102   2.756   3.912   5.712
 8401SOL    HW226103   2.752   4.069   5.757
 8402SOL     OW26104   4.542   0.777   5.787
 8402SOL    HW126105   4.556   0.742   5.694
 8402SOL    HW226106   4.553   0.701   5.852
 8403SOL     OW26107   0.863   2.499   4.790
 8403SOL    HW126108   0.828   2.422   4.844
 8403SOL    HW226109   0.787   2.547   4.746
 8404SOL     OW26110   4.471   4.986   5.041
 8404SOL    HW126111   4.541   5.002   4.971
 8404SOL    HW226112   4.425   5.072   5.062
 8405SOL     OW26113   1.691   2.592   4.867
 8405SOL    HW126114   1.638   2.671   4.895
 8405SOL    HW226115   1.771   2.582   4.927
 8406SOL     OW26116   5.907   3.428   1.129
 8406SOL    HW126117   5.845   3.506   1.125
 8406SOL    HW226118   5.857   3.344   1.108
 8407SOL     OW26119   5.056   3.667   2.857
 8407SOL    HW126120   5.128   3.643   2.791
 8407SOL    HW226121   5.014   3.754   2.830
 8408SOL     OW26122   4.510   4.483   4.401
 8408SOL    HW126123   4.490   4.535   4.318
 8408SOL    HW226124   4.553   4.396   4.377
 8409SOL     OW26125   0.482   1.709   3.767
 8409SOL    HW126126   0.433   1.646   3.706
 8409SOL    HW226127   0.486   1.800   3.726
 8410SOL     OW26128   2.342   6.136   2.579
 8410SOL    HW126129   2.426   6.081   2.586
 8410SOL    HW226130   2.305   6.128   2.487
 8411SOL     OW26131   1.694   3.027   3.461
 8411SOL    HW126132   1.740   3.111   3.491
 8411SOL    HW226133   1.600   3.028   3.494
 8412SOL     OW26134   5.895   2.894   2.620
 8412SOL    HW126135   5.881   2.931   2.712
 8412SOL    HW226136   5.990   2.864   2.610
 8413SOL     OW26137   2.677   4.838   1.137
 8413SOL    HW126138   2.712   4.920   1.184
 8413SOL    HW226139   2.600   4.864   1.078
 8414SOL     OW26140   5.847   6.863   3.178
 8414SOL    HW126141   5.859   6.956   3.142
 8414SOL    HW226142   5.821   6.802   3.103
 8415SOL     OW26143   6.401   3.855   2.136
 8415SOL    HW126144   6.329   3.902   2.187
 8415SOL    HW226145   6.490   3.886   2.169
 8416SOL     OW26146   4.636   4.300   2.381
 8416SOL    HW126147   4.593   4.352   2.308
 8416SOL    HW226148   4.571   4.288   2.456
 8417SOL     OW26149   2.506   5.949   6.809
 8417SOL    HW126150   2.436   5.967   6.741
 8417SOL    HW226151   2.596   5.945   6.765
 8418SOL     OW26152   5.905   5.393   2.620
 8418SOL    HW126153   5.922   5.322   2.552
 8418SOL    HW226154   5.918   5.355   2.711
 8419SOL     OW26155   5.095   0.307   3.943
 8419SOL    HW126156   5.116   0.307   3.845
 8419SOL    HW226157   5.033   0.383   3.964
 8420SOL     OW26158   3.692   1.809   5.565
 8420SOL    HW126159   3.706   1.812   5.466
 8420SOL    HW226160   3.653   1.896   5.596
 8421SOL     OW26161   0.609   0.016   1.019
 8421SOL    HW126162   0.566   0.086   0.963
 8421SOL    HW226163   0.644   0.057   1.103
 8422SOL     OW26164   4.273   0.333   1.583
 8422SOL    HW126165   4.304   0.417   1.628
 8422SOL    HW226166   4.339   0.307   1.512
 8423SOL     OW26167   2.040   3.405   1.604
 8423SOL    HW126168   1.967   3.337   1.613
 8423SOL    HW226169   2.037   3.445   1.513
 8424SOL     OW26170   2.650   2.373   2.117
 8424SOL    HW126171   2.584   2.330   2.055
 8424SOL    HW226172   2.743   2.358   2.082
 8425SOL     OW26173   6.672   4.610   6.110
 8425SOL    HW126174   6.764   4.630   6.077
 8425SOL    HW226175   6.676   4.542   6.183
 8426SOL     OW26176   3.917   3.772   2.816
 8426SOL    HW126177   3.957   3.798   2.904
 8426SOL    HW226178   3.819   3.791   2.817
 8427SOL     OW26179   1.946   2.665   6.475
 8427SOL    HW126180   1.863   2.678   6.420
 8427SOL    HW226181   1.937   2.582   6.529
 8428SOL     OW26182   6.195   4.417   1.749
 8428SOL    HW126183   6.126   4.463   1.693
 8428SOL    HW226184   6.180   4.318   1.745
 8429SOL     OW26185   2.251   6.849   3.037
 8429SOL    HW126186   2.280   6.885   2.949
 8429SOL    HW226187   2.157   6.879   3.055
 8430SOL     OW26188   5.222   4.005   2.697
 8430SOL    HW126189   5.308   3.960   2.721
 8430SOL    HW226190   5.208   4.000   2.598
 8431SOL     OW26191   2.775   3.572   1.825
 8431SOL    HW126192   2.828   3.490   1.803
 8431SOL    HW226193   2.682   3.562   1.792
 8432SOL     OW26194   4.835   6.520   6.833
 8432SOL    HW126195   4.925   6.511   6.875
 8432SOL    HW226196   4.772   6.454   6.874
 8433SOL     OW26197   0.643   1.812   4.052
 8433SOL    HW126198   0.620   1.735   3.993
 8433SOL    HW226199   0.651   1.895   3.997
 8434SOL     OW26200   5.807   6.023   6.084
 8434SOL    HW126201   5.757   5.939   6.107
 8434SOL    HW226202   5.750   6.082   6.028
 8435SOL     OW26203   4.906   2.637   1.743
 8435SOL    HW126204   4.928   2.723   1.789
 8435SOL    HW226205   4.867   2.573   1.810
 8436SOL     OW26206   2.976   4.351   1.733
 8436SOL    HW126207   3.020   4.276   1.782
 8436SOL    HW226208   2.927   4.409   1.798
 8437SOL     OW26209   6.951   1.616   0.997
 8437SOL    HW126210   7.008   1.535   0.986
 8437SOL    HW226211   6.869   1.592   1.050
 8438SOL     OW26212   2.073   6.310   1.084
 8438SOL    HW126213   2.089   6.401   1.045
 8438SOL    HW226214   2.040   6.249   1.012
 8439SOL     OW26215   6.566   0.579   2.339
 8439SOL    HW126216   6.642   0.635   2.371
 8439SOL    HW226217   6.484   0.636   2.331
 8440SOL     OW26218   6.928   2.367   4.411
 8440SOL    HW126219   6.861   2.361   4.337
 8440SOL    HW226220   6.919   2.456   4.456
 8441SOL     OW26221   4.098   5.464   2.206
 8441SOL    HW126222   4.180   5.437   2.255
 8441SOL    HW226223   4.079   5.561   2.222
 8442SOL     OW26224   1.828   3.097   0.261
 8442SOL    HW126225   1.786   3.094   0.352
 8442SOL    HW226226   1.806   3.012   0.212
 8443SOL     OW26227   1.134   2.111   2.074
 8443SOL    HW126228   1.072   2.166   2.017
 8443SOL    HW226229   1.090   2.025   2.097
 8444SOL     OW26230   4.983   1.343   2.806
 8444SOL    HW126231   4.907   1.398   2.841
 8444SOL    HW226232   5.062   1.402   2.788
 8445SOL     OW26233   4.635   5.516   1.830
 8445SOL    HW126234   4.561   5.565   1.877
 8445SOL    HW226235   4.676   5.576   1.761
 8446SOL     OW26236   6.461   3.734   2.779
 8446SOL    HW126237   6.556   3.706   2.784
 8446SOL    HW226238   6.427   3.754   2.871
 8447SOL     OW26239   4.688   3.238   1.422
 8447SOL    HW126240   4.668   3.324   1.376
 8447SOL    HW226241   4.683   3.251   1.521
 8448SOL     OW26242   1.707   3.362   5.936
 8448SOL    HW126243   1.764   3.310   5.873
 8448SOL    HW226244   1.612   3.331   5.929
 8449SOL     OW26245   1.134   1.457   4.390
 8449SOL    HW126246   1.174   1.366   4.377
 8449SOL    HW226247   1.205   1.519   4.425
 8450SOL     OW26248   2.156   5.086   1.690
 8450SOL    HW126249   2.189   5.047   1.604
 8450SOL    HW226250   2.160   5.186   1.685
 8451SOL     OW26251   4.034   2.698   0.353
 8451SOL    HW126252   4.134   2.695   0.358
 8451SOL    HW226253   3.996   2.617   0.396
 8452SOL     OW26254   0.236   5.747   1.944
 8452SOL    HW126255   0.254   5.735   2.042
 8452SOL    HW226256   0.323   5.755   1.895
 8453SOL     OW26257   6.628   5.396   5.395
 8453SOL    HW126258   6.556   5.384   5.463
 8453SOL    HW226259   6.617   5.329   5.322
 8454SOL     OW26260   2.060   6.596   4.568
 8454SOL    HW126261   2.107   6.615   4.655
 8454SOL    HW226262   1.968   6.635   4.570
 8455SOL     OW26263   5.792   2.661   0.840
 8455SOL    HW126264   5.784   2.610   0.926
 8455SOL    HW226265   5.879   2.636   0.796
 8456SOL     OW26266   5.553   5.609   3.479
 8456SOL    HW126267   5.471   5.592   3.534
 8456SOL    HW226268   5.586   5.701   3.497
 8457SOL     OW26269   6.486   5.981   6.329
 8457SOL    HW126270   6.495   5.992   6.230
 8457SOL    HW226271   6.576   5.991   6.372
 8458SOL     OW26272   1.551   2.179   1.003
 8458SOL    HW126273   1.476   2.233   0.964
 8458SOL    HW226274   1.639   2.220   0.977
 8459SOL     OW26275   2.626   5.647   2.939
 8459SOL    HW126276   2.542   5.638   2.993
 8459SOL    HW226277   2.698   5.591   2.981
 8460SOL     OW26278   4.061   1.377   0.682
 8460SOL    HW126279   4.008   1.305   0.726
 8460SOL    HW226280   4.028   1.466   0.713
 8461SOL     OW26281   5.013   4.198   3.224
 8461SOL    HW126282   5.041   4.155   3.310
 8461SOL    HW226283   5.069   4.162   3.149
 8462SOL     OW26284   2.520   4.306   0.490
 8462SOL    HW126285   2.431   4.261   0.495
 8462SOL    HW226286   2.516   4.394   0.537
 8463SOL     OW26287   6.539   0.426   0.237
 8463SOL    HW126288   6.537   0.449   0.334
 8463SOL    HW226289   6.611   0.480   0.192
 8464SOL     OW26290   6.787   3.692   6.643
 8464SOL    HW126291   6.848   3.743   6.704
 8464SOL    HW226292   6.790   3.595   6.666
 8465SOL     OW26293   4.679   3.298   0.813
 8465SOL    HW126294   4.640   3.219   0.859
 8465SOL    HW226295   4.701   3.369   0.880
 8466SOL     OW26296   0.520   1.199   5.397
 8466SOL    HW126297   0.560   1.276   5.447
 8466SOL    HW226298   0.506   1.122   5.460
 8467SOL     OW26299   3.401   1.550   0.254
 8467SOL    HW126300   3.455   1.613   0.309
 8467SOL    HW226301   3.443   1.542   0.163
 8468SOL     OW26302   5.697   3.489   6.648
 8468SOL    HW126303   5.602   3.518   6.662
 8468SOL    HW226304   5.699   3.408   6.590
 8469SOL     OW26305   3.842   3.426   5.218
 8469SOL    HW126306   3.934   3.406   5.252
 8469SOL    HW226307   3.802   3.343   5.179
 8470SOL     OW26308   1.797   4.985   1.574
 8470SOL    HW126309   1.723   4.970   1.640
 8470SOL    HW226310   1.875   4.926   1.597
 8471SOL     OW26311   4.210   1.463   4.274
 8471SOL    HW126312   4.290   1.478   4.215
 8471SOL    HW226313   4.222   1.378   4.325
 8472SOL     OW26314   5.998   1.663   6.473
 8472SOL    HW126315   5.926   1.648   6.542
 8472SOL    HW226316   6.082   1.619   6.503
 8473SOL     OW26317   5.211   4.934   6.154
 8473SOL    HW126318   5.183   4.915   6.061
 8473SOL    HW226319   5.175   5.023   6.183
 8474SOL     OW26320   3.112   4.038   4.625
 8474SOL    HW126321   3.077   4.077   4.711
 8474SOL    HW226322   3.055   3.959   4.600
 8475SOL     OW26323   6.569   2.160   3.005
 8475SOL    HW126324   6.570   2.093   3.078
 8475SOL    HW226325   6.645   2.224   3.018
 8476SOL     OW26326   5.890   1.209   1.616
 8476SOL    HW126327   5.986   1.192   1.639
 8476SOL    HW226328   5.854   1.281   1.675
 8477SOL     OW26329   5.633   0.066   1.787
 8477SOL    HW126330   5.665   0.156   1.760
 8477SOL    HW226331   5.684   0.035   1.868
 8478SOL     OW26332   0.257   0.138   5.110
 8478SOL    HW126333   0.255   0.043   5.141
 8478SOL    HW226334   0.330   0.150   5.043
 8479SOL     OW26335   0.413   3.089   0.724
 8479SOL    HW126336   0.350   3.119   0.796
 8479SOL    HW226337   0.400   3.145   0.642
 8480SOL     OW26338   4.179   3.897   0.653
 8480SOL    HW126339   4.143   3.889   0.746
 8480SOL    HW226340   4.164   3.812   0.603
 8481SOL     OW26341   4.229   2.260   3.363
 8481SOL    HW126342   4.294   2.203   3.313
 8481SOL    HW226343   4.138   2.251   3.322
 8482SOL     OW26344   4.257   1.166   6.814
 8482SOL    HW126345   4.186   1.180   6.745
 8482SOL    HW226346   4.234   1.085   6.869
 8483SOL     OW26347   4.085   5.245   3.423
 8483SOL    HW126348   3.996   5.239   3.469
 8483SOL    HW226349   4.158   5.227   3.488
 8484SOL     OW26350   5.821   6.079   5.220
 8484SOL    HW126351   5.803   5.999   5.276
 8484SOL    HW226352   5.801   6.162   5.273
 8485SOL     OW26353   3.763   1.452   6.881
 8485SOL    HW126354   3.712   1.399   6.949
 8485SOL    HW226355   3.771   1.400   6.796
 8486SOL     OW26356   6.010   2.387   4.135
 8486SOL    HW126357   6.050   2.471   4.171
 8486SOL    HW226358   6.083   2.329   4.097
 8487SOL     OW26359   6.684   2.245   6.093
 8487SOL    HW126360   6.756   2.292   6.144
 8487SOL    HW226361   6.646   2.171   6.149
 8488SOL     OW26362   4.408   5.035   2.250
 8488SOL    HW126363   4.483   4.993   2.301
 8488SOL    HW226364   4.430   5.038   2.153
 8489SOL     OW26365   6.336   2.461   2.021
 8489SOL    HW126366   6.287   2.378   2.050
 8489SOL    HW226367   6.275   2.519   1.967
 8490SOL     OW26368   3.050   0.060   0.073
 8490SOL    HW126369   3.058   7.017   0.145
 8490SOL    HW226370   3.070   0.019   7.011
 8491SOL     OW26371   2.882   5.812   1.887
 8491SOL    HW126372   2.837   5.746   1.828
 8491SOL    HW226373   2.950   5.863   1.834
 8492SOL     OW26374   6.284   6.202   4.462
 8492SOL    HW126375   6.277   6.120   4.405
 8492SOL    HW226376   6.364   6.255   4.434
 8493SOL     OW26377   4.983   1.088   5.972
 8493SOL    HW126378   5.030   1.097   5.884
 8493SOL    HW226379   5.039   1.128   6.044
 8494SOL     OW26380   6.815   3.382   2.211
 8494SOL    HW126381   6.800   3.284   2.228
 8494SOL    HW226382   6.859   3.394   2.123
 8495SOL     OW26383   5.834   5.178   6.219
 8495SOL    HW126384   5.817   5.276   6.220
 8495SOL    HW226385   5.868   5.149   6.309
 8496SOL     OW26386   5.454   2.197   2.952
 8496SOL    HW126387   5.362   2.164   2.931
 8496SOL    HW226388   5.519   2.121   2.945
 8497SOL     OW26389   6.503   0.482   2.935
 8497SOL    HW126390   6.422   0.529   2.900
 8497SOL    HW226391   6.579   0.498   2.872
 8498SOL     OW26392   4.748   6.929   4.046
 8498SOL    HW126393   4.842   6.923   4.079
 8498SOL    HW226394   4.738   7.011   3.989
 8499SOL     OW26395   5.983   7.024   5.539
 8499SOL    HW126396   5.918   0.033   5.607
 8499SOL    HW226397   6.027   0.076   5.494
 8500SOL     OW26398   1.130   0.628   6.619
 8500SOL    HW126399   1.158   0.572   6.541
 8500SOL    HW226400   1.058   0.580   6.669
 8501SOL     OW26401   2.352   1.041   6.287
 8501SOL    HW126402   2.348   1.122   6.345
 8501SOL    HW226403   2.266   0.991   6.294
 8502SOL     OW26404   6.889   3.875   6.896
 8502SOL    HW126405   6.875   3.822   6.979
 8502SOL    HW226406   6.986   3.893   6.883
 8503SOL     OW26407   5.107   1.761   5.706
 8503SOL    HW126408   5.137   1.816   5.784
 8503SOL    HW226409   5.163   1.678   5.699
 8504SOL     OW26410   1.108   0.194   2.530
 8504SOL    HW126411   1.133   0.194   2.627
 8504SOL    HW226412   1.014   0.227   2.520
 8505SOL     OW26413   5.397   2.597   2.149
 8505SOL    HW126414   5.395   2.525   2.218
 8505SOL    HW226415   5.463   2.573   2.078
 8506SOL     OW26416   1.171   0.104   6.456
 8506SOL    HW126417   1.220   0.052   6.387
 8506SOL    HW226418   1.074   0.078   6.455
 8507SOL     OW26419   3.019   5.958   5.491
 8507SOL    HW126420   3.055   5.869   5.460
 8507SOL    HW226421   3.019   5.961   5.591
 8508SOL     OW26422   2.475   1.201   6.598
 8508SOL    HW126423   2.425   1.207   6.684
 8508SOL    HW226424   2.544   1.129   6.605
 8509SOL     OW26425   5.616   1.787   2.564
 8509SOL    HW126426   5.645   1.882   2.573
 8509SOL    HW226427   5.572   1.773   2.475
 8510SOL     OW26428   0.487   1.438   4.629
 8510SOL    HW126429   0.502   1.420   4.726
 8510SOL    HW226430   0.532   1.368   4.575
 8511SOL     OW26431   6.188   1.763   3.234
 8511SOL    HW126432   6.093   1.796   3.236
 8511SOL    HW226433   6.209   1.718   3.321
 8512SOL     OW26434   2.305   6.381   5.649
 8512SOL    HW126435   2.350   6.469   5.663
 8512SOL    HW226436   2.370   6.307   5.664
 8513SOL     OW26437   5.508   6.021   6.591
 8513SOL    HW126438   5.455   6.076   6.655
 8513SOL    HW226439   5.451   5.946   6.556
 8514SOL     OW26440   3.693   5.828   3.720
 8514SOL    HW126441   3.711   5.840   3.818
 8514SOL    HW226442   3.614   5.884   3.694
 8515SOL     OW26443   5.861   2.529   1.407
 8515SOL    HW126444   5.907   2.448   1.445
 8515SOL    HW226445   5.886   2.610   1.460
 8516SOL     OW26446   0.129   1.945   2.185
 8516SOL    HW126447   0.075   1.914   2.107
 8516SOL    HW226448   0.091   2.032   2.218
 8517SOL     OW26449   1.188   3.927   0.131
 8517SOL    HW126450   1.104   3.980   0.137
 8517SOL    HW226451   1.179   3.859   0.058
 8518SOL     OW26452   2.972   5.798   0.746
 8518SOL    HW126453   2.937   5.745   0.669
 8518SOL    HW226454   3.040   5.744   0.796
 8519SOL     OW26455   2.620   5.876   3.590
 8519SOL    HW126456   2.586   5.820   3.665
 8519SOL    HW226457   2.719   5.867   3.584
 8520SOL     OW26458   3.342   6.701   0.279
 8520SOL    HW126459   3.294   6.636   0.338
 8520SOL    HW226460   3.346   6.666   0.186
 8521SOL     OW26461   1.679   0.570   1.526
 8521SOL    HW126462   1.595   0.574   1.471
 8521SOL    HW226463   1.755   0.538   1.470
 8522SOL     OW26464   2.367   6.723   4.227
 8522SOL    HW126465   2.350   6.681   4.139
 8522SOL    HW226466   2.372   6.653   4.298
 8523SOL     OW26467   1.179   6.351   6.586
 8523SOL    HW126468   1.153   6.259   6.614
 8523SOL    HW226469   1.152   6.416   6.656
 8524SOL     OW26470   1.189   1.563   6.673
 8524SOL    HW126471   1.273   1.557   6.618
 8524SOL    HW226472   1.137   1.478   6.662
 8525SOL     OW26473   5.461   3.868   4.121
 8525SOL    HW126474   5.439   3.880   4.218
 8525SOL    HW226475   5.490   3.774   4.105
 8526SOL     OW26476   2.144   3.611   2.273
 8526SOL    HW126477   2.177   3.571   2.187
 8526SOL    HW226478   2.145   3.542   2.345
 8527SOL     OW26479   4.545   0.848   3.945
 8527SOL    HW126480   4.466   0.882   3.894
 8527SOL    HW226481   4.564   0.909   4.022
 8528SOL     OW26482   5.757   2.127   0.045
 8528SOL    HW126483   5.697   2.048   0.038
 8528SOL    HW226484   5.851   2.099   0.028
 8529SOL     OW26485   6.795   5.490   6.125
 8529SOL    HW126486   6.772   5.419   6.192
 8529SOL    HW226487   6.894   5.500   6.118
 8530SOL     OW26488   2.191   4.615   6.421
 8530SOL    HW126489   2.276   4.563   6.415
 8530SOL    HW226490   2.168   4.650   6.330
 8531SOL     OW26491   4.022   4.729   1.988
 8531SOL    HW126492   3.966   4.759   2.066
 8531SOL    HW226493   4.102   4.680   2.021
 8532SOL     OW26494   1.353   3.747   1.053
 8532SOL    HW126495   1.397   3.828   1.094
 8532SOL    HW226496   1.342   3.762   0.955
 8533SOL     OW26497   4.499   6.608   5.559
 8533SOL    HW126498   4.409   6.576   5.529
 8533SOL    HW226499   4.561   6.610   5.481
 8534SOL     OW26500   1.958   2.783   2.172
 8534SOL    HW126501   1.947   2.698   2.223
 8534SOL    HW226502   1.874   2.802   2.120
 8535SOL     OW26503   6.970   3.661   5.067
 8535SOL    HW126504   6.976   3.578   5.011
 8535SOL    HW226505   6.983   3.637   5.163
 8536SOL     OW26506   5.945   1.555   5.532
 8536SOL    HW126507   6.011   1.535   5.460
 8536SOL    HW226508   5.927   1.653   5.535
 8537SOL     OW26509   5.046   6.333   2.908
 8537SOL    HW126510   5.075   6.303   2.999
 8537SOL    HW226511   5.099   6.414   2.882
 8538SOL     OW26512   5.128   0.728   5.528
 8538SOL    HW126513   5.146   0.826   5.519
 8538SOL    HW226514   5.117   0.705   5.625
 8539SOL     OW26515   0.439   3.289   3.134
 8539SOL    HW126516   0.475   3.280   3.041
 8539SOL    HW226517   0.419   3.386   3.152
 8540SOL     OW26518   3.955   6.824   6.601
 8540SOL    HW126519   4.038   6.861   6.642
 8540SOL    HW226520   3.894   6.791   6.673
 8541SOL     OW26521   3.233   6.158   5.172
 8541SOL    HW126522   3.147   6.149   5.222
 8541SOL    HW226523   3.251   6.254   5.153
 8542SOL     OW26524   1.027   5.318   5.478
 8542SOL    HW126525   0.974   5.247   5.431
 8542SOL    HW226526   1.124   5.294   5.476
 8543SOL     OW26527   2.843   2.681   5.399
 8543SOL    HW126528   2.917   2.628   5.356
 8543SOL    HW226529   2.863   2.691   5.496
 8544SOL     OW26530   5.489   4.504   5.177
 8544SOL    HW126531   5.560   4.574   5.172
 8544SOL    HW226532   5.531   4.413   5.170
 8545SOL     OW26533   1.911   6.984   6.161
 8545SOL    HW126534   1.917   6.946   6.254
 8545SOL    HW226535   1.972   6.934   6.100
 8546SOL     OW26536   4.562   1.536   3.755
 8546SOL    HW126537   4.607   1.450   3.730
 8546SOL    HW226538   4.605   1.611   3.706
 8547SOL     OW26539   5.542   6.235   5.726
 8547SOL    HW126540   5.463   6.241   5.665
 8547SOL    HW226541   5.626   6.245   5.672
 8548SOL     OW26542   1.071   4.656   4.616
 8548SOL    HW126543   1.027   4.634   4.529
 8548SOL    HW226544   1.169   4.666   4.602
 8549SOL     OW26545   1.744   0.268   4.036
 8549SOL    HW126546   1.766   0.179   3.996
 8549SOL    HW226547   1.709   0.255   4.129
 8550SOL     OW26548   6.838   4.918   5.978
 8550SOL    HW126549   6.760   4.914   6.042
 8550SOL    HW226550   6.923   4.907   6.029
 8551SOL     OW26551   3.960   0.723   4.677
 8551SOL    HW126552   3.905   0.714   4.760
 8551SOL    HW226553   3.990   0.632   4.647
 8552SOL     OW26554   3.267   1.483   1.872
 8552SOL    HW126555   3.363   1.500   1.891
 8552SOL    HW226556   3.256   1.388   1.841
 8553SOL     OW26557   4.830   3.704   0.605
 8553SOL    HW126558   4.737   3.672   0.585
 8553SOL    HW226559   4.827   3.772   0.679
 8554SOL     OW26560   1.501   0.568   6.752
 8554SOL    HW126561   1.437   0.506   6.798
 8554SOL    HW226562   1.452   0.650   6.721
 8555SOL     OW26563   3.981   1.956   3.616
 8555SOL    HW126564   3.976   1.876   3.557
 8555SOL    HW226565   3.977   1.928   3.711
 8556SOL     OW26566   0.644   5.383   5.612
 8556SOL    HW126567   0.724   5.442   5.625
 8556SOL    HW226568   0.633   5.362   5.514
 8557SOL     OW26569   6.771   0.800   6.244
 8557SOL    HW126570   6.813   0.827   6.331
 8557SOL    HW226571   6.673   0.820   6.248
 8558SOL     OW26572   3.072   5.779   4.031
 8558SOL    HW126573   3.086   5.734   4.119
 8558SOL    HW226574   3.105   5.719   3.958
 8559SOL     OW26575   1.638   3.808   2.407
 8559SOL    HW126576   1.647   3.727   2.466
 8559SOL    HW226577   1.717   3.867   2.419
 8560SOL     OW26578   3.448   4.174   1.234
 8560SOL    HW126579   3.362   4.144   1.193
 8560SOL    HW226580   3.436   4.183   1.333
 8561SOL     OW26581   3.567   0.451   2.788
 8561SOL    HW126582   3.619   0.514   2.730
 8561SOL    HW226583   3.502   0.503   2.844
 8562SOL     OW26584   5.836   2.636   6.896
 8562SOL    HW126585   5.842   2.537   6.903
 8562SOL    HW226586   5.928   2.676   6.905
 8563SOL     OW26587   2.657   5.282   2.921
 8563SOL    HW126588   2.563   5.313   2.936
 8563SOL    HW226589   2.663   5.236   2.832
 8564SOL     OW26590   4.067   6.395   0.910
 8564SOL    HW126591   4.017   6.397   0.996
 8564SOL    HW226592   4.003   6.382   0.834
 8565SOL     OW26593   1.262   4.666   1.264
 8565SOL    HW126594   1.213   4.601   1.206
 8565SOL    HW226595   1.196   4.718   1.318
 8566SOL     OW26596   3.198   0.370   2.899
 8566SOL    HW126597   3.260   0.291   2.896
 8566SOL    HW226598   3.146   0.368   2.985
 8567SOL     OW26599   1.522   2.508   2.317
 8567SOL    HW126600   1.618   2.516   2.344
 8567SOL    HW226601   1.510   2.423   2.265
 8568SOL     OW26602   6.099   0.905   6.202
 8568SOL    HW126603   6.002   0.886   6.217
 8568SOL    HW226604   6.112   0.938   6.108
 8569SOL     OW26605   4.977   2.105   0.589
 8569SOL    HW126606   5.035   2.136   0.515
 8569SOL    HW226607   4.975   2.174   0.662
 8570SOL     OW26608   2.438   1.877   2.676
 8570SOL    HW126609   2.383   1.798   2.704
 8570SOL    HW226610   2.439   1.884   2.577
 8571SOL     OW26611   1.664   0.649   2.965
 8571SOL    HW126612   1.706   0.671   2.877
 8571SOL    HW226613   1.587   0.712   2.981
 8572SOL     OW26614   2.847   4.098   6.021
 8572SOL    HW126615   2.753   4.080   6.048
 8572SOL    HW226616   2.862   4.064   5.928
 8573SOL     OW26617   2.454   6.388   6.158
 8573SOL    HW126618   2.424   6.296   6.182
 8573SOL    HW226619   2.542   6.383   6.109
 8574SOL     OW26620   4.831   1.050   5.532
 8574SOL    HW126621   4.798   1.057   5.438
 8574SOL    HW226622   4.753   1.043   5.594
 8575SOL     OW26623   3.298   6.278   3.868
 8575SOL    HW126624   3.237   6.198   3.877
 8575SOL    HW226625   3.384   6.259   3.916
 8576SOL     OW26626   1.806   4.695   3.616
 8576SOL    HW126627   1.761   4.658   3.534
 8576SOL    HW226628   1.740   4.701   3.690
 8577SOL     OW26629   1.402   0.850   0.611
 8577SOL    HW126630   1.458   0.823   0.533
 8577SOL    HW226631   1.389   0.950   0.609
 8578SOL     OW26632   1.670   6.824   5.971
 8578SOL    HW126633   1.759   6.871   5.964
 8578SOL    HW226634   1.684   6.734   6.011
 8579SOL     OW26635   3.098   6.641   2.518
 8579SOL    HW126636   3.032   6.707   2.482
 8579SOL    HW226637   3.191   6.675   2.503
 8580SOL     OW26638   1.724   0.383   2.158
 8580SOL    HW126639   1.730   0.306   2.094
 8580SOL    HW226640   1.702   0.466   2.108
 8581SOL     OW26641   3.684   4.113   1.511
 8581SOL    HW126642   3.601   4.167   1.496
 8581SOL    HW226643   3.694   4.094   1.609
 8582SOL     OW26644   4.318   5.163   5.703
 8582SOL    HW126645   4.290   5.069   5.681
 8582SOL    HW226646   4.268   5.194   5.784
 8583SOL     OW26647   3.448   6.546   2.780
 8583SOL    HW126648   3.363   6.504   2.811
 8583SOL    HW226649   3.441   6.646   2.789
 8584SOL     OW26650   6.428   1.499   4.706
 8584SOL    HW126651   6.459   1.430   4.641
 8584SOL    HW226652   6.490   1.577   4.705
 8585SOL     OW26653   5.295   2.582   2.608
 8585SOL    HW126654   5.361   2.538   2.669
 8585SOL    HW226655   5.306   2.681   2.613
 8586SOL     OW26656   6.068   5.786   5.653
 8586SOL    HW126657   6.140   5.739   5.704
 8586SOL    HW226658   5.995   5.814   5.716
 8587SOL     OW26659   6.701   1.234   6.509
 8587SOL    HW126660   6.743   1.248   6.419
 8587SOL    HW226661   6.770   1.206   6.575
 8588SOL     OW26662   2.046   0.747   5.154
 8588SOL    HW126663   1.954   0.713   5.174
 8588SOL    HW226664   2.081   0.796   5.233
 8589SOL     OW26665   5.702   2.869   6.814
 8589SOL    HW126666   5.711   2.769   6.820
 8589SOL    HW226667   5.786   2.912   6.848
 8590SOL     OW26668   0.807   1.348   3.975
 8590SOL    HW126669   0.838   1.366   4.068
 8590SOL    HW226670   0.737   1.416   3.950
 8591SOL     OW26671   0.098   4.542   5.315
 8591SOL    HW126672   0.072   4.446   5.308
 8591SOL    HW226673   0.039   4.588   5.381
 8592SOL     OW26674   0.004   1.562   4.100
 8592SOL    HW126675   0.100   1.568   4.075
 8592SOL    HW226676   7.015   1.481   4.157
 8593SOL     OW26677   5.730   1.391   6.878
 8593SOL    HW126678   5.644   1.365   6.834
 8593SOL    HW226679   5.744   1.335   6.960
 8594SOL     OW26680   5.948   3.715   6.122
 8594SOL    HW126681   6.024   3.699   6.060
 8594SOL    HW226682   5.970   3.793   6.181
 8595SOL     OW26683   5.238   6.032   3.175
 8595SOL    HW126684   5.245   5.947   3.123
 8595SOL    HW226685   5.251   6.014   3.272
 8596SOL     OW26686   0.853   1.886   4.596
 8596SOL    HW126687   0.849   1.800   4.647
 8596SOL    HW226688   0.946   1.924   4.601
 8597SOL     OW26689   6.059   3.021   6.383
 8597SOL    HW126690   6.053   3.104   6.439
 8597SOL    HW226691   5.999   3.029   6.304
 8598SOL     OW26692   6.667   0.661   4.935
 8598SOL    HW126693   6.755   0.628   4.902
 8598SOL    HW226694   6.618   0.707   4.861
 8599SOL     OW26695   6.473   3.625   4.736
 8599SOL    HW126696   6.396   3.601   4.796
 8599SOL    HW226697   6.559   3.593   4.778
 8600SOL     OW26698   4.468   2.531   1.381
 8600SOL    HW126699   4.477   2.475   1.299
 8600SOL    HW226700   4.466   2.628   1.356
 8601SOL     OW26701   6.619   5.793   3.454
 8601SOL    HW126702   6.556   5.828   3.385
 8601SOL    HW226703   6.708   5.836   3.443
 8602SOL     OW26704   1.757   6.493   5.364
 8602SOL    HW126705   1.715   6.525   5.280
 8602SOL    HW226706   1.800   6.570   5.412
 8603SOL     OW26707   0.151   0.473   6.386
 8603SOL    HW126708   0.166   0.533   6.465
 8603SOL    HW226709   0.092   0.397   6.412
 8604SOL     OW26710   2.204   5.220   6.208
 8604SOL    HW126711   2.185   5.196   6.303
 8604SOL    HW226712   2.231   5.137   6.158
 8605SOL     OW26713   0.451   5.293   4.132
 8605SOL    HW126714   0.456   5.375   4.075
 8605SOL    HW226715   0.516   5.225   4.099
 8606SOL     OW26716   1.509   1.336   0.143
 8606SOL    HW126717   1.501   1.249   0.191
 8606SOL    HW226718   1.464   1.408   0.196
 8607SOL     OW26719   2.390   3.483   0.971
 8607SOL    HW126720   2.357   3.401   0.926
 8607SOL    HW226721   2.467   3.460   1.031
 8608SOL     OW26722   1.691   5.680   2.593
 8608SOL    HW126723   1.785   5.646   2.588
 8608SOL    HW226724   1.658   5.696   2.500
 8609SOL     OW26725   4.902   2.028   4.359
 8609SOL    HW126726   4.889   2.117   4.315
 8609SOL    HW226727   4.999   2.014   4.379
 8610SOL     OW26728   0.395   6.001   3.386
 8610SOL    HW126729   0.457   5.927   3.356
 8610SOL    HW226730   0.335   6.026   3.310
 8611SOL     OW26731   1.911   1.518   4.879
 8611SOL    HW126732   1.982   1.521   4.809
 8611SOL    HW226733   1.878   1.610   4.897
 8612SOL     OW26734   3.201   3.015   4.423
 8612SOL    HW126735   3.248   2.977   4.344
 8612SOL    HW226736   3.234   2.971   4.506
 8613SOL     OW26737   3.890   3.027   2.907
 8613SOL    HW126738   3.813   2.977   2.869
 8613SOL    HW226739   3.889   3.121   2.872
 8614SOL     OW26740   0.706   2.202   3.396
 8614SOL    HW126741   0.792   2.196   3.346
 8614SOL    HW226742   0.711   2.274   3.465
 8615SOL     OW26743   3.382   2.349   5.655
 8615SOL    HW126744   3.454   2.406   5.615
 8615SOL    HW226745   3.374   2.263   5.605
 8616SOL     OW26746   5.817   3.971   4.322
 8616SOL    HW126747   5.809   3.874   4.344
 8616SOL    HW226748   5.751   3.995   4.251
 8617SOL     OW26749   1.655   6.904   2.802
 8617SOL    HW126750   1.579   6.934   2.744
 8617SOL    HW226751   1.731   6.875   2.744
 8618SOL     OW26752   5.786   3.871   0.816
 8618SOL    HW126753   5.742   3.950   0.859
 8618SOL    HW226754   5.808   3.893   0.721
 8619SOL     OW26755   5.667   5.685   0.476
 8619SOL    HW126756   5.620   5.773   0.466
 8619SOL    HW226757   5.763   5.696   0.451
 8620SOL     OW26758   2.098   6.864   4.239
 8620SOL    HW126759   2.083   6.952   4.283
 8620SOL    HW226760   2.148   6.804   4.302
 8621SOL     OW26761   5.661   3.370   1.637
 8621SOL    HW126762   5.563   3.369   1.657
 8621SOL    HW226763   5.711   3.393   1.721
 8622SOL     OW26764   0.182   5.566   2.619
 8622SOL    HW126765   0.220   5.506   2.548
 8622SOL    HW226766   0.084   5.549   2.628
 8623SOL     OW26767   2.003   2.526   4.052
 8623SOL    HW126768   2.101   2.533   4.032
 8623SOL    HW226769   1.953   2.590   3.993
 8624SOL     OW26770   3.512   3.805   5.164
 8624SOL    HW126771   3.505   3.710   5.195
 8624SOL    HW226772   3.421   3.843   5.151
 8625SOL     OW26773   4.073   3.151   5.571
 8625SOL    HW126774   4.021   3.065   5.564
 8625SOL    HW226775   4.166   3.136   5.537
 8626SOL     OW26776   4.342   2.090   1.545
 8626SOL    HW126777   4.356   2.129   1.636
 8626SOL    HW226778   4.350   1.991   1.549
 8627SOL     OW26779   1.965   1.161   2.638
 8627SOL    HW126780   1.887   1.223   2.641
 8627SOL    HW226781   2.041   1.205   2.590
 8628SOL     OW26782   0.927   6.684   0.827
 8628SOL    HW126783   0.837   6.719   0.850
 8628SOL    HW226784   0.987   6.759   0.801
 8629SOL     OW26785   0.626   6.682   4.692
 8629SOL    HW126786   0.697   6.612   4.691
 8629SOL    HW226787   0.623   6.728   4.604
 8630SOL     OW26788   5.091   2.436   2.706
 8630SOL    HW126789   4.991   2.434   2.712
 8630SOL    HW226790   5.119   2.514   2.651
 8631SOL     OW26791   2.411   6.084   6.204
 8631SOL    HW126792   2.404   6.002   6.147
 8631SOL    HW226793   2.322   6.104   6.245
 8632SOL     OW26794   5.638   5.849   4.225
 8632SOL    HW126795   5.715   5.867   4.285
 8632SOL    HW226796   5.554   5.842   4.279
 8633SOL     OW26797   5.860   3.565   5.016
 8633SOL    HW126798   5.924   3.585   5.090
 8633SOL    HW226799   5.877   3.627   4.939
 8634SOL     OW26800   4.963   4.295   6.902
 8634SOL    HW126801   4.993   4.273   6.995
 8634SOL    HW226802   4.898   4.227   6.870
 8635SOL     OW26803   5.365   2.768   6.772
 8635SOL    HW126804   5.448   2.715   6.793
 8635SOL    HW226805   5.380   2.864   6.797
 8636SOL     OW26806   4.348   6.195   1.890
 8636SOL    HW126807   4.430   6.214   1.943
 8636SOL    HW226808   4.300   6.280   1.871
 8637SOL     OW26809   1.907   1.898   6.181
 8637SOL    HW126810   1.879   1.989   6.151
 8637SOL    HW226811   2.002   1.882   6.155
 8638SOL     OW26812   4.976   3.316   3.689
 8638SOL    HW126813   4.919   3.297   3.769
 8638SOL    HW226814   5.063   3.267   3.698
 8639SOL     OW26815   3.244   3.704   6.958
 8639SOL    HW126816   3.334   3.672   6.989
 8639SOL    HW226817   3.215   3.781   7.015
 8640SOL     OW26818   3.604   2.561   0.823
 8640SOL    HW126819   3.519   2.551   0.875
 8640SOL    HW226820   3.586   2.614   0.740
 8641SOL     OW26821   4.016   4.842   2.597
 8641SOL    HW126822   3.930   4.893   2.593
 8641SOL    HW226823   4.030   4.807   2.690
 8642SOL     OW26824   1.453   5.943   2.874
 8642SOL    HW126825   1.524   5.957   2.943
 8642SOL    HW226826   1.398   6.026   2.865
 8643SOL     OW26827   3.921   6.878   1.225
 8643SOL    HW126828   4.020   6.886   1.216
 8643SOL    HW226829   3.881   6.849   1.138
 8644SOL     OW26830   6.306   2.350   5.938
 8644SOL    HW126831   6.386   2.398   5.974
 8644SOL    HW226832   6.228   2.413   5.936
 8645SOL     OW26833   6.176   5.851   3.091
 8645SOL    HW126834   6.260   5.891   3.053
 8645SOL    HW226835   6.121   5.814   3.016
 8646SOL     OW26836   6.742   2.309   5.303
 8646SOL    HW126837   6.827   2.348   5.338
 8646SOL    HW226838   6.761   2.223   5.255
 8647SOL     OW26839   1.978   5.480   1.749
 8647SOL    HW126840   1.982   5.473   1.649
 8647SOL    HW226841   2.022   5.399   1.790
 8648SOL     OW26842   5.223   5.407   0.349
 8648SOL    HW126843   5.156   5.371   0.414
 8648SOL    HW226844   5.247   5.501   0.373
 8649SOL     OW26845   5.200   1.291   0.843
 8649SOL    HW126846   5.285   1.301   0.894
 8649SOL    HW226847   5.150   1.378   0.845
 8650SOL     OW26848   2.115   0.253   5.495
 8650SOL    HW126849   2.125   0.230   5.591
 8650SOL    HW226850   2.112   0.170   5.440
 8651SOL     OW26851   3.878   2.538   1.548
 8651SOL    HW126852   3.819   2.618   1.538
 8651SOL    HW226853   3.823   2.455   1.548
 8652SOL     OW26854   0.731   2.695   3.441
 8652SOL    HW126855   0.795   2.722   3.368
 8652SOL    HW226856   0.666   2.769   3.456
 8653SOL     OW26857   5.813   1.379   6.392
 8653SOL    HW126858   5.858   1.455   6.345
 8653SOL    HW226859   5.860   1.294   6.372
 8654SOL     OW26860   0.615   4.301   3.102
 8654SOL    HW126861   0.538   4.299   3.039
 8654SOL    HW226862   0.604   4.230   3.171
 8655SOL     OW26863   0.981   0.326   4.820
 8655SOL    HW126864   0.981   0.392   4.895
 8655SOL    HW226865   0.910   0.349   4.754
 8656SOL     OW26866   5.204   6.808   1.136
 8656SOL    HW126867   5.274   6.851   1.079
 8656SOL    HW226868   5.234   6.716   1.161
 8657SOL     OW26869   3.185   2.044   3.060
 8657SOL    HW126870   3.138   2.105   3.124
 8657SOL    HW226871   3.284   2.053   3.073
 8658SOL     OW26872   5.930   4.784   1.627
 8658SOL    HW126873   5.837   4.762   1.598
 8658SOL    HW226874   5.996   4.729   1.576
 8659SOL     OW26875   3.618   0.723   2.299
 8659SOL    HW126876   3.695   0.710   2.362
 8659SOL    HW226877   3.535   0.741   2.351
 8660SOL     OW26878   0.445   4.868   1.621
 8660SOL    HW126879   0.484   4.803   1.686
 8660SOL    HW226880   0.491   4.859   1.532
 8661SOL     OW26881   0.136   3.646   2.096
 8661SOL    HW126882   0.102   3.653   2.003
 8661SOL    HW226883   0.124   3.552   2.129
 8662SOL     OW26884   1.450   2.701   2.832
 8662SOL    HW126885   1.521   2.717   2.764
 8662SOL    HW226886   1.463   2.763   2.909
 8663SOL     OW26887   3.757   4.928   2.624
 8663SOL    HW126888   3.709   4.992   2.684
 8663SOL    HW226889   3.700   4.908   2.545
 8664SOL     OW26890   3.973   6.106   3.650
 8664SOL    HW126891   3.903   6.177   3.639
 8664SOL    HW226892   4.057   6.147   3.685
 8665SOL     OW26893   4.616   3.833   6.722
 8665SOL    HW126894   4.632   3.925   6.686
 8665SOL    HW226895   4.703   3.784   6.725
 8666SOL     OW26896   4.478   0.085   2.815
 8666SOL    HW126897   4.398   0.059   2.761
 8666SOL    HW226898   4.479   0.184   2.827
 8667SOL     OW26899   5.274   2.240   2.603
 8667SOL    HW126900   5.367   2.274   2.615
 8667SOL    HW226901   5.208   2.314   2.620
 8668SOL     OW26902   4.904   2.596   4.849
 8668SOL    HW126903   4.841   2.634   4.917
 8668SOL    HW226904   4.879   2.501   4.829
 8669SOL     OW26905   6.426   6.346   5.782
 8669SOL    HW126906   6.365   6.343   5.703
 8669SOL    HW226907   6.380   6.307   5.861
 8670SOL     OW26908   6.660   4.936   5.531
 8670SOL    HW126909   6.630   4.842   5.544
 8670SOL    HW226910   6.717   4.964   5.607
 8671SOL     OW26911   6.851   3.234   2.781
 8671SOL    HW126912   6.941   3.202   2.752
 8671SOL    HW226913   6.818   3.176   2.855
 8672SOL     OW26914   0.051   1.531   2.506
 8672SOL    HW126915   6.981   1.515   2.483
 8672SOL    HW226916   0.072   1.628   2.499
 8673SOL     OW26917   1.263   1.683   0.913
 8673SOL    HW126918   1.359   1.693   0.941
 8673SOL    HW226919   1.228   1.772   0.883
 8674SOL     OW26920   6.756   3.649   2.712
 8674SOL    HW126921   6.781   3.632   2.616
 8674SOL    HW226922   6.839   3.649   2.768
 8675SOL     OW26923   4.364   2.236   4.956
 8675SOL    HW126924   4.440   2.178   4.986
 8675SOL    HW226925   4.341   2.301   5.029
 8676SOL     OW26926   5.112   2.037   1.263
 8676SOL    HW126927   5.133   1.978   1.185
 8676SOL    HW226928   5.014   2.030   1.284
 8677SOL     OW26929   2.222   0.091   6.193
 8677SOL    HW126930   2.143   0.092   6.132
 8677SOL    HW226931   2.283   0.016   6.168
 8678SOL     OW26932   2.494   2.479   0.484
 8678SOL    HW126933   2.396   2.498   0.497
 8678SOL    HW226934   2.543   2.565   0.467
 8679SOL     OW26935   1.074   1.345   6.580
 8679SOL    HW126936   0.976   1.365   6.582
 8679SOL    HW226937   1.109   1.359   6.488
 8680SOL     OW26938   6.871   0.681   0.362
 8680SOL    HW126939   6.812   0.693   0.282
 8680SOL    HW226940   6.950   0.625   0.337
 8681SOL     OW26941   4.742   5.204   0.955
 8681SOL    HW126942   4.817   5.218   1.019
 8681SOL    HW226943   4.727   5.106   0.941
 8682SOL     OW26944   2.289   0.902   2.336
 8682SOL    HW126945   2.370   0.890   2.393
 8682SOL    HW226946   2.241   0.815   2.328
 8683SOL     OW26947   2.279   4.518   4.355
 8683SOL    HW126948   2.285   4.423   4.322
 8683SOL    HW226949   2.184   4.541   4.375
 8684SOL     OW26950   2.561   4.543   3.359
 8684SOL    HW126951   2.526   4.452   3.337
 8684SOL    HW226952   2.490   4.595   3.407
 8685SOL     OW26953   4.982   2.931   4.409
 8685SOL    HW126954   4.958   2.986   4.330
 8685SOL    HW226955   4.922   2.955   4.486
 8686SOL     OW26956   1.311   5.458   3.513
 8686SOL    HW126957   1.351   5.496   3.596
 8686SOL    HW226958   1.347   5.367   3.497
 8687SOL     OW26959   5.794   4.967   4.952
 8687SOL    HW126960   5.796   5.004   4.859
 8687SOL    HW226961   5.799   4.867   4.949
 8688SOL     OW26962   1.342   3.723   5.187
 8688SOL    HW126963   1.336   3.660   5.110
 8688SOL    HW226964   1.339   3.670   5.273
 8689SOL     OW26965   4.257   3.192   0.718
 8689SOL    HW126966   4.343   3.240   0.700
 8689SOL    HW226967   4.266   3.096   0.691
 8690SOL     OW26968   1.605   1.787   2.214
 8690SOL    HW126969   1.652   1.712   2.261
 8690SOL    HW226970   1.644   1.874   2.244
 8691SOL     OW26971   3.291   2.678   5.989
 8691SOL    HW126972   3.373   2.656   5.936
 8691SOL    HW226973   3.230   2.735   5.934
 8692SOL     OW26974   4.959   3.117   4.182
 8692SOL    HW126975   4.973   3.192   4.247
 8692SOL    HW226976   5.048   3.076   4.159
 8693SOL     OW26977   6.290   6.910   5.478
 8693SOL    HW126978   6.349   6.901   5.398
 8693SOL    HW226979   6.244   6.998   5.476
 8694SOL     OW26980   5.308   3.011   5.496
 8694SOL    HW126981   5.269   3.070   5.425
 8694SOL    HW226982   5.243   2.938   5.518
 8695SOL     OW26983   3.367   5.263   1.199
 8695SOL    HW126984   3.361   5.212   1.114
 8695SOL    HW226985   3.316   5.214   1.271
 8696SOL     OW26986   2.819   5.621   5.867
 8696SOL    HW126987   2.801   5.567   5.948
 8696SOL    HW226988   2.775   5.579   5.788
 8697SOL     OW26989   1.020   4.008   5.418
 8697SOL    HW126990   1.101   4.009   5.360
 8697SOL    HW226991   0.974   4.096   5.413
 8698SOL     OW26992   4.401   4.787   6.980
 8698SOL    HW126993   4.458   4.869   6.975
 8698SOL    HW226994   4.313   4.810   7.021
 8699SOL     OW26995   1.691   2.371   0.400
 8699SOL    HW126996   1.634   2.415   0.470
 8699SOL    HW226997   1.645   2.288   0.367
 8700SOL     OW26998   0.812   1.356   4.750
 8700SOL    HW126999   0.725   1.376   4.705
 8700SOL    HW227000   0.887   1.392   4.694
 8701SOL     OW27001   1.466   2.744   6.548
 8701SOL    HW127002   1.368   2.744   6.569
 8701SOL    HW227003   1.485   2.812   6.477
 8702SOL     OW27004   5.949   4.146   0.998
 8702SOL    HW127005   5.963   4.048   1.008
 8702SOL    HW227006   5.927   4.168   0.903
 8703SOL     OW27007   3.059   5.853   1.230
 8703SOL    HW127008   3.098   5.762   1.217
 8703SOL    HW227009   3.055   5.874   1.328
 8704SOL     OW27010   0.191   1.191   4.916
 8704SOL    HW127011   0.188   1.225   5.010
 8704SOL    HW227012   0.098   1.182   4.881
 8705SOL     OW27013   3.912   2.341   6.904
 8705SOL    HW127014   3.853   2.419   6.926
 8705SOL    HW227015   3.992   2.341   6.964
 8706SOL     OW27016   4.737   2.610   6.875
 8706SOL    HW127017   4.813   2.647   6.929
 8706SOL    HW227018   4.773   2.547   6.807
 8707SOL     OW27019   2.214   0.803   4.336
 8707SOL    HW127020   2.258   0.714   4.325
 8707SOL    HW227021   2.115   0.789   4.345
 8708SOL     OW27022   6.042   2.230   0.759
 8708SOL    HW127023   5.955   2.245   0.806
 8708SOL    HW227024   6.106   2.303   0.784
 8709SOL     OW27025   6.353   6.567   4.494
 8709SOL    HW127026   6.319   6.597   4.583
 8709SOL    HW227027   6.307   6.620   4.422
 8710SOL     OW27028   1.991   1.706   3.533
 8710SOL    HW127029   2.052   1.772   3.577
 8710SOL    HW227030   2.034   1.616   3.535
 8711SOL     OW27031   1.533   1.197   1.774
 8711SOL    HW127032   1.441   1.205   1.811
 8711SOL    HW227033   1.542   1.111   1.724
 8712SOL     OW27034   1.226   4.411   4.536
 8712SOL    HW127035   1.271   4.376   4.454
 8712SOL    HW227036   1.271   4.495   4.565
 8713SOL     OW27037   0.554   3.346   1.679
 8713SOL    HW127038   0.541   3.398   1.595
 8713SOL    HW227039   0.648   3.310   1.682
 8714SOL     OW27040   5.990   4.200   6.721
 8714SOL    HW127041   6.089   4.200   6.734
 8714SOL    HW227042   5.945   4.200   6.810
 8715SOL     OW27043   2.143   4.620   1.748
 8715SOL    HW127044   2.116   4.525   1.735
 8715SOL    HW227045   2.166   4.636   1.844
 8716SOL     OW27046   6.748   0.546   1.917
 8716SOL    HW127047   6.658   0.587   1.902
 8716SOL    HW227048   6.738   0.462   1.971
 8717SOL     OW27049   2.986   2.967   0.502
 8717SOL    HW127050   3.078   2.964   0.464
 8717SOL    HW227051   2.992   2.960   0.602
 8718SOL     OW27052   2.863   5.321   6.577
 8718SOL    HW127053   2.846   5.277   6.489
 8718SOL    HW227054   2.781   5.371   6.605
 8719SOL     OW27055   3.432   1.360   4.890
 8719SOL    HW127056   3.482   1.352   4.975
 8719SOL    HW227057   3.347   1.412   4.906
 8720SOL     OW27058   1.072   5.547   4.630
 8720SOL    HW127059   1.169   5.528   4.650
 8720SOL    HW227060   1.061   5.643   4.606
 8721SOL     OW27061   0.854   6.900   0.537
 8721SOL    HW127062   0.821   6.949   0.456
 8721SOL    HW227063   0.776   6.860   0.585
 8722SOL     OW27064   3.065   0.818   0.787
 8722SOL    HW127065   2.987   0.876   0.810
 8722SOL    HW227066   3.148   0.858   0.826
 8723SOL     OW27067   4.395   6.998   2.134
 8723SOL    HW127068   4.322   6.929   2.141
 8723SOL    HW227069   4.400   0.024   2.220
 8724SOL     OW27070   3.416   1.448   5.212
 8724SOL    HW127071   3.510   1.428   5.185
 8724SOL    HW227072   3.405   1.430   5.310
 8725SOL     OW27073   6.760   0.260   3.075
 8725SOL    HW127074   6.769   0.167   3.110
 8725SOL    HW227075   6.782   0.325   3.147
 8726SOL     OW27076   6.251   0.879   1.199
 8726SOL    HW127077   6.340   0.917   1.175
 8726SOL    HW227078   6.213   0.831   1.120
 8727SOL     OW27079   5.514   6.121   0.224
 8727SOL    HW127080   5.525   6.218   0.249
 8727SOL    HW227081   5.541   6.108   0.128
 8728SOL     OW27082   6.560   0.064   4.742
 8728SOL    HW127083   6.534   0.076   4.838
 8728SOL    HW227084   6.540   6.997   4.713
 8729SOL     OW27085   5.501   5.659   5.913
 8729SOL    HW127086   5.438   5.722   5.958
 8729SOL    HW227087   5.553   5.709   5.843
 8730SOL     OW27088   4.168   4.682   1.505
 8730SOL    HW127089   4.115   4.627   1.569
 8730SOL    HW227090   4.129   4.775   1.501
 8731SOL     OW27091   6.775   1.747   4.141
 8731SOL    HW127092   6.745   1.721   4.233
 8731SOL    HW227093   6.840   1.680   4.106
 8732SOL     OW27094   4.883   6.545   5.870
 8732SOL    HW127095   4.920   6.469   5.923
 8732SOL    HW227096   4.783   6.540   5.869
 8733SOL     OW27097   6.419   4.609   2.396
 8733SOL    HW127098   6.335   4.663   2.405
 8733SOL    HW227099   6.433   4.586   2.299
 8734SOL     OW27100   1.055   4.644   0.831
 8734SOL    HW127101   1.118   4.614   0.759
 8734SOL    HW227102   1.095   4.721   0.880
 8735SOL     OW27103   1.226   2.989   5.523
 8735SOL    HW127104   1.167   2.917   5.559
 8735SOL    HW227105   1.178   3.038   5.450
 8736SOL     OW27106   1.355   5.801   3.364
 8736SOL    HW127107   1.397   5.712   3.344
 8736SOL    HW227108   1.427   5.870   3.368
 8737SOL     OW27109   0.455   5.890   6.994
 8737SOL    HW127110   0.368   5.841   6.998
 8737SOL    HW227111   0.514   5.860   0.044
 8738SOL     OW27112   1.718   2.699   2.438
 8738SOL    HW127113   1.672   2.760   2.373
 8738SOL    HW227114   1.808   2.735   2.461
 8739SOL     OW27115   5.937   4.966   4.205
 8739SOL    HW127116   5.886   5.044   4.240
 8739SOL    HW227117   5.998   4.996   4.132
 8740SOL     OW27118   3.390   1.688   3.765
 8740SOL    HW127119   3.313   1.659   3.709
 8740SOL    HW227120   3.461   1.728   3.707
 8741SOL     OW27121   1.062   1.686   2.708
 8741SOL    HW127122   1.051   1.688   2.609
 8741SOL    HW227123   1.029   1.772   2.747
 8742SOL     OW27124   2.793   2.559   1.731
 8742SOL    HW127125   2.850   2.525   1.806
 8742SOL    HW227126   2.787   2.490   1.659
 8743SOL     OW27127   0.651   3.052   1.050
 8743SOL    HW127128   0.718   3.068   1.122
 8743SOL    HW227129   0.625   3.139   1.008
 8744SOL     OW27130   3.784   4.282   5.827
 8744SOL    HW127131   3.753   4.285   5.922
 8744SOL    HW227132   3.854   4.210   5.817
 8745SOL     OW27133   5.930   1.345   6.049
 8745SOL    HW127134   5.925   1.248   6.072
 8745SOL    HW227135   5.965   1.397   6.127
 8746SOL     OW27136   4.053   4.866   5.018
 8746SOL    HW127137   3.999   4.793   5.059
 8746SOL    HW227138   4.011   4.954   5.040
 8747SOL     OW27139   1.094   0.480   2.988
 8747SOL    HW127140   1.139   0.391   2.998
 8747SOL    HW227141   1.039   0.480   2.905
 8748SOL     OW27142   5.628   1.657   4.694
 8748SOL    HW127143   5.594   1.577   4.644
 8748SOL    HW227144   5.685   1.626   4.770
 8749SOL     OW27145   2.789   1.174   4.087
 8749SOL    HW127146   2.773   1.272   4.075
 8749SOL    HW227147   2.874   1.160   4.137
 8750SOL     OW27148   4.152   3.696   1.331
 8750SOL    HW127149   4.138   3.648   1.417
 8750SOL    HW227150   4.063   3.721   1.292
 8751SOL     OW27151   2.757   0.050   0.317
 8751SOL    HW127152   2.841   0.031   0.367
 8751SOL    HW227153   2.679   0.044   0.380
 8752SOL     OW27154   6.762   2.972   5.623
 8752SOL    HW127155   6.862   2.980   5.614
 8752SOL    HW227156   6.732   3.026   5.702
 8753SOL     OW27157   2.160   1.968   0.504
 8753SOL    HW127158   2.124   1.951   0.412
 8753SOL    HW227159   2.219   1.892   0.532
 8754SOL     OW27160   0.879   5.814   6.528
 8754SOL    HW127161   0.956   5.876   6.539
 8754SOL    HW227162   0.885   5.740   6.595
 8755SOL     OW27163   0.454   2.726   1.601
 8755SOL    HW127164   0.394   2.802   1.579
 8755SOL    HW227165   0.414   2.641   1.567
 8756SOL     OW27166   1.251   1.631   2.097
 8756SOL    HW127167   1.255   1.681   2.184
 8756SOL    HW227168   1.171   1.571   2.097
 8757SOL     OW27169   5.561   6.546   5.782
 8757SOL    HW127170   5.520   6.575   5.695
 8757SOL    HW227171   5.548   6.447   5.793
 8758SOL     OW27172   3.943   5.930   5.695
 8758SOL    HW127173   3.915   5.835   5.681
 8758SOL    HW227174   3.980   5.940   5.788
 8759SOL     OW27175   6.011   1.297   1.881
 8759SOL    HW127176   6.087   1.358   1.860
 8759SOL    HW227177   5.946   1.344   1.940
 8760SOL     OW27178   2.686   2.475   4.004
 8760SOL    HW127179   2.725   2.436   4.088
 8760SOL    HW227180   2.752   2.465   3.929
 8761SOL     OW27181   4.761   1.838   2.927
 8761SOL    HW127182   4.734   1.919   2.876
 8761SOL    HW227183   4.686   1.809   2.986
 8762SOL     OW27184   3.877   5.710   2.976
 8762SOL    HW127185   3.865   5.780   2.906
 8762SOL    HW227186   3.851   5.746   3.065
 8763SOL     OW27187   0.233   0.978   5.985
 8763SOL    HW127188   0.292   0.983   6.066
 8763SOL    HW227189   0.240   0.887   5.945
 8764SOL     OW27190   3.611   5.027   6.101
 8764SOL    HW127191   3.667   4.955   6.060
 8764SOL    HW227192   3.535   5.049   6.039
 8765SOL     OW27193   3.999   0.007   3.430
 8765SOL    HW127194   4.072   6.989   3.378
 8765SOL    HW227195   4.034   0.087   3.478
 8766SOL     OW27196   5.554   6.917   4.979
 8766SOL    HW127197   5.505   6.829   4.975
 8766SOL    HW227198   5.487   6.991   4.987
 8767SOL     OW27199   1.804   1.411   3.589
 8767SOL    HW127200   1.751   1.493   3.566
 8767SOL    HW227201   1.742   1.334   3.600
 8768SOL     OW27202   0.138   1.623   0.065
 8768SOL    HW127203   0.091   1.590   0.148
 8768SOL    HW227204   0.237   1.620   0.080
 8769SOL     OW27205   6.246   6.940   6.250
 8769SOL    HW127206   6.324   6.902   6.200
 8769SOL    HW227207   6.166   6.881   6.236
 8770SOL     OW27208   5.133   2.226   0.374
 8770SOL    HW127209   5.156   2.191   0.283
 8770SOL    HW227210   5.159   2.323   0.379
 8771SOL     OW27211   0.821   3.020   6.397
 8771SOL    HW127212   0.886   3.086   6.434
 8771SOL    HW227213   0.784   2.963   6.471
 8772SOL     OW27214   0.228   0.168   4.163
 8772SOL    HW127215   0.130   0.186   4.152
 8772SOL    HW227216   0.269   0.240   4.218
 8773SOL     OW27217   0.325   1.416   3.717
 8773SOL    HW127218   0.296   1.323   3.695
 8773SOL    HW227219   0.361   1.460   3.634
 8774SOL     OW27220   1.263   1.547   0.038
 8774SOL    HW127221   1.341   1.607   0.051
 8774SOL    HW227222   1.266   1.507   6.972
 8775SOL     OW27223   5.175   2.505   3.269
 8775SOL    HW127224   5.135   2.493   3.178
 8775SOL    HW227225   5.167   2.601   3.296
 8776SOL     OW27226   4.552   2.489   0.960
 8776SOL    HW127227   4.465   2.510   1.006
 8776SOL    HW227228   4.537   2.413   0.896
 8777SOL     OW27229   6.732   2.245   3.604
 8777SOL    HW127230   6.825   2.226   3.636
 8777SOL    HW227231   6.667   2.198   3.663
 8778SOL     OW27232   3.168   4.086   6.860
 8778SOL    HW127233   3.148   4.009   6.800
 8778SOL    HW227234   3.106   4.161   6.841
 8779SOL     OW27235   3.715   5.098   2.828
 8779SOL    HW127236   3.751   5.188   2.855
 8779SOL    HW227237   3.790   5.036   2.807
 8780SOL     OW27238   0.858   3.678   3.721
 8780SOL    HW127239   0.871   3.582   3.697
 8780SOL    HW227240   0.903   3.697   3.808
 8781SOL     OW27241   2.272   0.947   0.981
 8781SOL    HW127242   2.244   1.042   0.998
 8781SOL    HW227243   2.368   0.946   0.952
 8782SOL     OW27244   6.007   2.522   1.169
 8782SOL    HW127245   6.070   2.579   1.116
 8782SOL    HW227246   5.989   2.566   1.257
 8783SOL     OW27247   4.773   4.096   4.907
 8783SOL    HW127248   4.716   4.055   4.835
 8783SOL    HW227249   4.752   4.194   4.913
 8784SOL     OW27250   4.424   0.753   0.032
 8784SOL    HW127251   4.488   0.719   6.988
 8784SOL    HW227252   4.419   0.852   0.027
 8785SOL     OW27253   6.843   5.320   5.596
 8785SOL    HW127254   6.754   5.313   5.551
 8785SOL    HW227255   6.829   5.352   5.690
 8786SOL     OW27256   5.708   1.881   3.094
 8786SOL    HW127257   5.650   1.883   3.176
 8786SOL    HW227258   5.656   1.918   3.016
 8787SOL     OW27259   3.467   5.780   1.505
 8787SOL    HW127260   3.419   5.750   1.423
 8787SOL    HW227261   3.551   5.828   1.479
 8788SOL     OW27262   0.360   6.521   4.320
 8788SOL    HW127263   0.322   6.578   4.392
 8788SOL    HW227264   0.286   6.474   4.272
 8789SOL     OW27265   1.180   2.303   6.010
 8789SOL    HW127266   1.175   2.205   5.993
 8789SOL    HW227267   1.133   2.324   6.095
 8790SOL     OW27268   4.272   3.086   5.383
 8790SOL    HW127269   4.287   2.991   5.411
 8790SOL    HW227270   4.217   3.088   5.300
 8791SOL     OW27271   4.003   6.475   4.300
 8791SOL    HW127272   4.055   6.504   4.220
 8791SOL    HW227273   3.908   6.506   4.291
 8792SOL     OW27274   5.339   5.412   1.803
 8792SOL    HW127275   5.348   5.354   1.884
 8792SOL    HW227276   5.243   5.410   1.772
 8793SOL     OW27277   6.739   6.201   5.125
 8793SOL    HW127278   6.743   6.269   5.199
 8793SOL    HW227279   6.797   6.230   5.050
 8794SOL     OW27280   0.170   1.429   2.747
 8794SOL    HW127281   0.106   1.418   2.671
 8794SOL    HW227282   0.194   1.526   2.757
 8795SOL     OW27283   1.131   6.496   6.840
 8795SOL    HW127284   1.140   6.560   6.916
 8795SOL    HW227285   1.037   6.462   6.836
 8796SOL     OW27286   5.853   3.785   4.825
 8796SOL    HW127287   5.761   3.752   4.848
 8796SOL    HW227288   5.875   3.761   4.731
 8797SOL     OW27289   4.864   6.436   4.249
 8797SOL    HW127290   4.899   6.477   4.165
 8797SOL    HW227291   4.804   6.360   4.226
 8798SOL     OW27292   2.627   6.367   5.603
 8798SOL    HW127293   2.632   6.389   5.506
 8798SOL    HW227294   2.570   6.285   5.616
 8799SOL     OW27295   1.442   5.971   1.632
 8799SOL    HW127296   1.398   5.893   1.675
 8799SOL    HW227297   1.540   5.969   1.652
 8800SOL     OW27298   6.269   5.996   4.292
 8800SOL    HW127299   6.238   5.901   4.284
 8800SOL    HW227300   6.280   6.035   4.200
 8801SOL     OW27301   5.790   3.612   5.544
 8801SOL    HW127302   5.748   3.521   5.549
 8801SOL    HW227303   5.881   3.604   5.504
 8802SOL     OW27304   1.803   5.666   6.348
 8802SOL    HW127305   1.730   5.603   6.323
 8802SOL    HW227306   1.874   5.664   6.279
 8803SOL     OW27307   5.803   6.201   5.629
 8803SOL    HW127308   5.769   6.250   5.549
 8803SOL    HW227309   5.853   6.119   5.600
 8804SOL     OW27310   1.143   6.193   1.984
 8804SOL    HW127311   1.062   6.247   1.960
 8804SOL    HW227312   1.224   6.236   1.945
 8805SOL     OW27313   5.138   4.939   3.179
 8805SOL    HW127314   5.225   4.898   3.206
 8805SOL    HW227315   5.086   4.962   3.261
 8806SOL     OW27316   0.892   0.421   1.942
 8806SOL    HW127317   0.870   0.447   2.036
 8806SOL    HW227318   0.951   0.490   1.901
 8807SOL     OW27319   5.207   2.806   0.797
 8807SOL    HW127320   5.258   2.825   0.713
 8807SOL    HW227321   5.196   2.891   0.849
 8808SOL     OW27322   1.908   2.435   6.627
 8808SOL    HW127323   1.937   2.402   6.717
 8808SOL    HW227324   1.946   2.376   6.556
 8809SOL     OW27325   6.832   3.414   2.982
 8809SOL    HW127326   6.789   3.376   2.901
 8809SOL    HW227327   6.852   3.511   2.967
 8810SOL     OW27328   0.401   1.716   4.979
 8810SOL    HW127329   0.389   1.804   4.932
 8810SOL    HW227330   0.315   1.689   5.021
 8811SOL     OW27331   4.320   4.759   2.966
 8811SOL    HW127332   4.376   4.838   2.991
 8811SOL    HW227333   4.359   4.715   2.885
 8812SOL     OW27334   4.929   1.313   6.849
 8812SOL    HW127335   4.924   1.221   6.888
 8812SOL    HW227336   5.025   1.338   6.837
 8813SOL     OW27337   2.102   3.315   2.702
 8813SOL    HW127338   2.157   3.235   2.727
 8813SOL    HW227339   2.013   3.309   2.747
 8814SOL     OW27340   5.111   6.774   5.355
 8814SOL    HW127341   5.097   6.809   5.447
 8814SOL    HW227342   5.132   6.676   5.359
 8815SOL     OW27343   5.225   0.666   0.977
 8815SOL    HW127344   5.240   0.757   1.016
 8815SOL    HW227345   5.171   0.611   1.041
 8816SOL     OW27346   0.758   6.876   3.975
 8816SOL    HW127347   0.751   6.860   3.877
 8816SOL    HW227348   0.850   6.852   4.006
 8817SOL     OW27349   1.053   2.564   2.950
 8817SOL    HW127350   1.138   2.569   3.003
 8817SOL    HW227351   1.076   2.564   2.852
 8818SOL     OW27352   0.649   6.837   5.640
 8818SOL    HW127353   0.687   6.777   5.711
 8818SOL    HW227354   0.704   6.830   5.557
 8819SOL     OW27355   4.635   5.653   6.401
 8819SOL    HW127356   4.617   5.561   6.368
 8819SOL    HW227357   4.553   5.690   6.445
 8820SOL     OW27358   4.481   0.323   5.310
 8820SOL    HW127359   4.451   0.363   5.396
 8820SOL    HW227360   4.441   0.375   5.234
 8821SOL     OW27361   0.742   4.535   6.157
 8821SOL    HW127362   0.659   4.525   6.101
 8821SOL    HW227363   0.794   4.614   6.125
 8822SOL     OW27364   5.967   0.134   4.776
 8822SOL    HW127365   6.027   0.213   4.762
 8822SOL    HW227366   5.873   0.159   4.751
 8823SOL     OW27367   4.050   1.893   2.682
 8823SOL    HW127368   3.997   1.963   2.730
 8823SOL    HW227369   4.139   1.930   2.656
 8824SOL     OW27370   1.640   6.963   3.405
 8824SOL    HW127371   1.644   6.866   3.379
 8824SOL    HW227372   1.730   7.005   3.392
 8825SOL     OW27373   0.082   0.316   0.390
 8825SOL    HW127374   0.165   0.286   0.342
 8825SOL    HW227375   0.097   0.408   0.427
 8826SOL     OW27376   0.075   4.424   0.551
 8826SOL    HW127377   0.028   4.383   0.473
 8826SOL    HW227378   0.101   4.518   0.528
 8827SOL     OW27379   4.403   6.635   3.566
 8827SOL    HW127380   4.420   6.631   3.468
 8827SOL    HW227381   4.469   6.578   3.614
 8828SOL     OW27382   4.425   2.281   6.565
 8828SOL    HW127383   4.502   2.222   6.591
 8828SOL    HW227384   4.391   2.253   6.475
 8829SOL     OW27385   7.018   0.927   2.930
 8829SOL    HW127386   0.013   0.976   2.846
 8829SOL    HW227387   6.977   0.838   2.908
 8830SOL     OW27388   3.119   0.413   3.637
 8830SOL    HW127389   3.193   0.467   3.676
 8830SOL    HW227390   3.031   0.446   3.671
 8831SOL     OW27391   0.204   3.245   2.958
 8831SOL    HW127392   0.146   3.184   3.012
 8831SOL    HW227393   0.278   3.280   3.016
 8832SOL     OW27394   5.529   0.541   6.083
 8832SOL    HW127395   5.443   0.491   6.082
 8832SOL    HW227396   5.521   0.622   6.025
 8833SOL     OW27397   5.179   2.283   1.107
 8833SOL    HW127398   5.105   2.350   1.095
 8833SOL    HW227399   5.139   2.193   1.125
 8834SOL     OW27400   5.585   3.895   6.238
 8834SOL    HW127401   5.601   3.885   6.336
 8834SOL    HW227402   5.591   3.991   6.212
 8835SOL     OW27403   0.041   0.937   5.160
 8835SOL    HW127404   0.132   0.910   5.127
 8835SOL    HW227405   0.041   0.936   5.260
 8836SOL     OW27406   4.327   1.583   1.416
 8836SOL    HW127407   4.345   1.493   1.379
 8836SOL    HW227408   4.237   1.585   1.459
 8837SOL     OW27409   4.658   6.091   0.522
 8837SOL    HW127410   4.674   6.179   0.479
 8837SOL    HW227411   4.589   6.100   0.594
 8838SOL     OW27412   1.915   3.271   3.400
 8838SOL    HW127413   1.938   3.178   3.371
 8838SOL    HW227414   1.973   3.298   3.477
 8839SOL     OW27415   5.078   5.252   1.400
 8839SOL    HW127416   5.148   5.324   1.401
 8839SOL    HW227417   5.075   5.207   1.489
 8840SOL     OW27418   6.368   1.191   0.805
 8840SOL    HW127419   6.400   1.212   0.713
 8840SOL    HW227420   6.441   1.148   0.857
 8841SOL     OW27421   3.256   1.376   0.607
 8841SOL    HW127422   3.263   1.450   0.674
 8841SOL    HW227423   3.189   1.309   0.639
 8842SOL     OW27424   3.315   3.263   3.921
 8842SOL    HW127425   3.386   3.303   3.978
 8842SOL    HW227426   3.252   3.210   3.978
 8843SOL     OW27427   3.035   5.665   5.417
 8843SOL    HW127428   2.986   5.687   5.333
 8843SOL    HW227429   2.991   5.587   5.461
 8844SOL     OW27430   3.548   2.602   5.860
 8844SOL    HW127431   3.621   2.659   5.898
 8844SOL    HW227432   3.565   2.506   5.884
 8845SOL     OW27433   1.029   3.234   1.826
 8845SOL    HW127434   1.093   3.287   1.770
 8845SOL    HW227435   1.070   3.215   1.915
 8846SOL     OW27436   5.984   4.806   4.639
 8846SOL    HW127437   5.960   4.780   4.546
 8846SOL    HW227438   5.946   4.740   4.704
 8847SOL     OW27439   1.218   2.058   3.825
 8847SOL    HW127440   1.167   2.000   3.761
 8847SOL    HW227441   1.205   2.024   3.918
 8848SOL     OW27442   6.060   1.633   0.743
 8848SOL    HW127443   6.158   1.612   0.738
 8848SOL    HW227444   6.040   1.712   0.686
 8849SOL     OW27445   3.349   5.221   4.446
 8849SOL    HW127446   3.443   5.233   4.478
 8849SOL    HW227447   3.334   5.124   4.423
 8850SOL     OW27448   2.541   1.609   1.584
 8850SOL    HW127449   2.594   1.688   1.615
 8850SOL    HW227450   2.481   1.636   1.509
 8851SOL     OW27451   6.796   5.212   2.697
 8851SOL    HW127452   6.734   5.274   2.745
 8851SOL    HW227453   6.850   5.264   2.630
 8852SOL     OW27454   5.346   2.443   4.212
 8852SOL    HW127455   5.330   2.530   4.257
 8852SOL    HW227456   5.260   2.392   4.206
 8853SOL     OW27457   4.772   1.883   5.687
 8853SOL    HW127458   4.810   1.794   5.662
 8853SOL    HW227459   4.674   1.884   5.666
 8854SOL     OW27460   1.747   0.951   6.485
 8854SOL    HW127461   1.657   0.983   6.455
 8854SOL    HW227462   1.740   0.915   6.578
 8855SOL     OW27463   6.597   4.900   6.461
 8855SOL    HW127464   6.540   4.893   6.543
 8855SOL    HW227465   6.664   4.826   6.461
 8856SOL     OW27466   5.172   0.776   5.159
 8856SOL    HW127467   5.242   0.775   5.088
 8856SOL    HW227468   5.209   0.820   5.241
 8857SOL     OW27469   0.684   3.213   4.795
 8857SOL    HW127470   0.782   3.226   4.808
 8857SOL    HW227471   0.666   3.183   4.701
 8858SOL     OW27472   6.803   3.888   5.454
 8858SOL    HW127473   6.747   3.965   5.424
 8858SOL    HW227474   6.828   3.901   5.551
 8859SOL     OW27475   2.960   5.917   5.063
 8859SOL    HW127476   2.905   5.980   5.008
 8859SOL    HW227477   3.056   5.925   5.036
 8860SOL     OW27478   1.557   1.917   1.097
 8860SOL    HW127479   1.556   2.009   1.058
 8860SOL    HW227480   1.467   1.896   1.135
 8861SOL     OW27481   2.434   2.656   1.186
 8861SOL    HW127482   2.390   2.623   1.269
 8861SOL    HW227483   2.370   2.713   1.134
 8862SOL     OW27484   6.528   2.153   5.043
 8862SOL    HW127485   6.453   2.150   4.977
 8862SOL    HW227486   6.555   2.248   5.059
 8863SOL     OW27487   1.212   5.689   5.090
 8863SOL    HW127488   1.197   5.761   5.158
 8863SOL    HW227489   1.308   5.689   5.062
 8864SOL     OW27490   1.541   3.930   6.359
 8864SOL    HW127491   1.626   3.913   6.307
 8864SOL    HW227492   1.500   3.842   6.384
 8865SOL     OW27493   2.127   2.251   5.634
 8865SOL    HW127494   2.163   2.177   5.577
 8865SOL    HW227495   2.195   2.325   5.639
 8866SOL     OW27496   4.772   6.973   5.779
 8866SOL    HW127497   4.722   6.886   5.779
 8866SOL    HW227498   4.821   6.984   5.693
 8867SOL     OW27499   6.540   1.260   3.861
 8867SOL    HW127500   6.448   1.222   3.856
 8867SOL    HW227501   6.550   1.312   3.946
 8868SOL     OW27502   4.807   3.387   1.058
 8868SOL    HW127503   4.798   3.422   1.151
 8868SOL    HW227504   4.806   3.287   1.060
 8869SOL     OW27505   4.360   2.324   3.713
 8869SOL    HW127506   4.370   2.355   3.808
 8869SOL    HW227507   4.264   2.300   3.696
 8870SOL     OW27508   4.639   1.278   2.051
 8870SOL    HW127509   4.548   1.320   2.062
 8870SOL    HW227510   4.628   1.184   2.018
 8871SOL     OW27511   1.246   2.819   4.411
 8871SOL    HW127512   1.325   2.772   4.449
 8871SOL    HW227513   1.269   2.859   4.323
 8872SOL     OW27514   1.889   3.029   2.721
 8872SOL    HW127515   1.909   2.965   2.648
 8872SOL    HW227516   1.974   3.054   2.768
 8873SOL     OW27517   6.848   5.775   4.973
 8873SOL    HW127518   6.849   5.874   4.973
 8873SOL    HW227519   6.776   5.741   5.034
 8874SOL     OW27520   0.868   1.470   0.021
 8874SOL    HW127521   0.780   1.422   0.014
 8874SOL    HW227522   0.935   1.426   6.987
 8875SOL     OW27523   1.896   1.123   4.079
 8875SOL    HW127524   1.983   1.098   4.122
 8875SOL    HW227525   1.887   1.223   4.081
 8876SOL     OW27526   2.651   0.635   4.721
 8876SOL    HW127527   2.689   0.633   4.813
 8876SOL    HW227528   2.557   0.602   4.722
 8877SOL     OW27529   3.132   6.422   4.618
 8877SOL    HW127530   3.113   6.415   4.520
 8877SOL    HW227531   3.115   6.333   4.662
 8878SOL     OW27532   5.663   4.506   5.565
 8878SOL    HW127533   5.712   4.528   5.649
 8878SOL    HW227534   5.724   4.517   5.487
 8879SOL     OW27535   4.768   5.476   4.701
 8879SOL    HW127536   4.717   5.491   4.617
 8879SOL    HW227537   4.848   5.419   4.682
 8880SOL     OW27538   6.999   6.063   5.517
 8880SOL    HW127539   0.009   5.971   5.502
 8880SOL    HW227540   0.002   6.123   5.442
 8881SOL     OW27541   6.802   0.558   1.635
 8881SOL    HW127542   6.881   0.528   1.582
 8881SOL    HW227543   6.812   0.530   1.730
 8882SOL     OW27544   5.578   2.590   6.836
 8882SOL    HW127545   5.662   2.610   6.887
 8882SOL    HW227546   5.601   2.554   6.746
 8883SOL     OW27547   0.111   1.382   5.397
 8883SOL    HW127548   0.158   1.321   5.461
 8883SOL    HW227549   0.068   1.327   5.325
 8884SOL     OW27550   6.806   1.026   5.554
 8884SOL    HW127551   6.764   1.104   5.601
 8884SOL    HW227552   6.757   0.942   5.578
 8885SOL     OW27553   5.395   3.619   1.491
 8885SOL    HW127554   5.426   3.709   1.522
 8885SOL    HW227555   5.312   3.630   1.437
 8886SOL     OW27556   3.009   5.816   6.326
 8886SOL    HW127557   3.037   5.723   6.351
 8886SOL    HW227558   2.951   5.811   6.244
 8887SOL     OW27559   1.812   0.182   1.050
 8887SOL    HW127560   1.747   0.193   1.126
 8887SOL    HW227561   1.821   0.269   1.001
 8888SOL     OW27562   3.503   2.093   3.543
 8888SOL    HW127563   3.573   2.067   3.609
 8888SOL    HW227564   3.419   2.118   3.592
 8889SOL     OW27565   3.590   0.202   4.917
 8889SOL    HW127566   3.677   0.198   4.868
 8889SOL    HW227567   3.518   0.233   4.854
 8890SOL     OW27568   0.758   4.090   3.857
 8890SOL    HW127569   0.685   4.109   3.791
 8890SOL    HW227570   0.831   4.038   3.812
 8891SOL     OW27571   2.434   1.770   6.167
 8891SOL    HW127572   2.499   1.833   6.211
 8891SOL    HW227573   2.358   1.823   6.129
 8892SOL     OW27574   1.127   6.692   2.794
 8892SOL    HW127575   1.047   6.659   2.743
 8892SOL    HW227576   1.208   6.687   2.736
 8893SOL     OW27577   0.086   0.943   1.012
 8893SOL    HW127578   0.172   0.987   0.987
 8893SOL    HW227579   0.091   0.846   0.992
 8894SOL     OW27580   4.056   2.787   6.587
 8894SOL    HW127581   4.015   2.863   6.637
 8894SOL    HW227582   4.113   2.733   6.650
 8895SOL     OW27583   1.747   1.084   1.906
 8895SOL    HW127584   1.693   1.139   1.842
 8895SOL    HW227585   1.744   1.126   1.997
 8896SOL     OW27586   2.247   4.108   4.747
 8896SOL    HW127587   2.255   4.101   4.846
 8896SOL    HW227588   2.154   4.136   4.723
 8897SOL     OW27589   1.085   2.370   1.506
 8897SOL    HW127590   1.123   2.278   1.522
 8897SOL    HW227591   0.987   2.363   1.491
 8898SOL     OW27592   6.947   2.882   4.840
 8898SOL    HW127593   6.998   2.890   4.754
 8898SOL    HW227594   6.899   2.967   4.858
 8899SOL     OW27595   3.270   4.897   0.569
 8899SOL    HW127596   3.181   4.886   0.526
 8899SOL    HW227597   3.312   4.983   0.539
 8900SOL     OW27598   6.710   1.757   3.354
 8900SOL    HW127599   6.775   1.717   3.419
 8900SOL    HW227600   6.632   1.794   3.403
 8901SOL     OW27601   1.928   6.898   1.743
 8901SOL    HW127602   1.898   6.810   1.706
 8901SOL    HW227603   2.002   6.934   1.688
 8902SOL     OW27604   3.227   5.929   5.029
 8902SOL    HW127605   3.318   5.912   4.991
 8902SOL    HW227606   3.233   6.000   5.099
 8903SOL     OW27607   0.820   1.151   3.538
 8903SOL    HW127608   0.763   1.195   3.469
 8903SOL    HW227609   0.790   1.180   3.630
 8904SOL     OW27610   1.463   5.542   3.305
 8904SOL    HW127611   1.407   5.518   3.384
 8904SOL    HW227612   1.533   5.472   3.291
 8905SOL     OW27613   2.116   4.142   5.050
 8905SOL    HW127614   2.038   4.097   5.095
 8905SOL    HW227615   2.192   4.079   5.044
 8906SOL     OW27616   1.421   5.222   4.652
 8906SOL    HW127617   1.454   5.128   4.659
 8906SOL    HW227618   1.347   5.227   4.585
 8907SOL     OW27619   3.885   2.879   5.521
 8907SOL    HW127620   3.943   2.823   5.580
 8907SOL    HW227621   3.799   2.900   5.568
 8908SOL     OW27622   0.403   2.692   2.235
 8908SOL    HW127623   0.472   2.621   2.237
 8908SOL    HW227624   0.378   2.714   2.141
 8909SOL     OW27625   2.377   0.081   5.254
 8909SOL    HW127626   2.332   0.157   5.301
 8909SOL    HW227627   2.309   0.028   5.203
 8910SOL     OW27628   3.952   3.042   6.656
 8910SOL    HW127629   3.972   3.100   6.577
 8910SOL    HW227630   3.994   3.082   6.737
 8911SOL     OW27631   4.841   2.455   3.773
 8911SOL    HW127632   4.880   2.377   3.724
 8911SOL    HW227633   4.763   2.492   3.721
 8912SOL     OW27634   5.722   1.813   6.430
 8912SOL    HW127635   5.701   1.741   6.364
 8912SOL    HW227636   5.640   1.869   6.445
 8913SOL     OW27637   4.746   4.249   0.836
 8913SOL    HW127638   4.666   4.253   0.777
 8913SOL    HW227639   4.717   4.240   0.931
 8914SOL     OW27640   4.817   1.787   3.377
 8914SOL    HW127641   4.864   1.721   3.435
 8914SOL    HW227642   4.777   1.740   3.298
 8915SOL     OW27643   1.260   5.467   1.782
 8915SOL    HW127644   1.199   5.447   1.705
 8915SOL    HW227645   1.206   5.486   1.864
 8916SOL     OW27646   5.980   3.651   2.112
 8916SOL    HW127647   6.000   3.717   2.040
 8916SOL    HW227648   6.052   3.581   2.114
 8917SOL     OW27649   5.300   5.561   5.745
 8917SOL    HW127650   5.343   5.505   5.674
 8917SOL    HW227651   5.369   5.618   5.789
 8918SOL     OW27652   5.085   4.228   6.082
 8918SOL    HW127653   5.164   4.237   6.142
 8918SOL    HW227654   5.017   4.169   6.125
 8919SOL     OW27655   2.520   3.934   1.377
 8919SOL    HW127656   2.482   3.932   1.285
 8919SOL    HW227657   2.620   3.929   1.371
 8920SOL     OW27658   6.431   5.095   5.783
 8920SOL    HW127659   6.356   5.159   5.770
 8920SOL    HW227660   6.474   5.076   5.695
 8921SOL     OW27661   1.039   5.466   3.458
 8921SOL    HW127662   1.138   5.463   3.468
 8921SOL    HW227663   1.015   5.527   3.382
 8922SOL     OW27664   6.383   4.017   7.019
 8922SOL    HW127665   6.473   4.037   6.980
 8922SOL    HW227666   6.394   3.966   0.079
 8923SOL     OW27667   2.017   4.216   4.664
 8923SOL    HW127668   1.921   4.215   4.693
 8923SOL    HW227669   2.028   4.285   4.592
 8924SOL     OW27670   2.882   5.695   5.190
 8924SOL    HW127671   2.783   5.693   5.202
 8924SOL    HW227672   2.909   5.779   5.144
 8925SOL     OW27673   5.263   6.275   1.572
 8925SOL    HW127674   5.196   6.204   1.551
 8925SOL    HW227675   5.237   6.360   1.525
 8926SOL     OW27676   4.876   1.068   7.014
 8926SOL    HW127677   4.857   0.987   0.043
 8926SOL    HW227678   4.933   1.132   0.041
 8927SOL     OW27679   2.313   1.425   4.347
 8927SOL    HW127680   2.268   1.511   4.372
 8927SOL    HW227681   2.409   1.443   4.325
 8928SOL     OW27682   0.927   0.126   3.906
 8928SOL    HW127683   1.012   0.097   3.861
 8928SOL    HW227684   0.916   0.225   3.895
 8929SOL     OW27685   5.131   4.419   4.167
 8929SOL    HW127686   5.100   4.513   4.158
 8929SOL    HW227687   5.228   4.418   4.193
 8930SOL     OW27688   1.362   5.263   5.005
 8930SOL    HW127689   1.399   5.305   4.922
 8930SOL    HW227690   1.305   5.330   5.053
 8931SOL     OW27691   5.039   1.214   1.511
 8931SOL    HW127692   5.029   1.304   1.468
 8931SOL    HW227693   5.032   1.223   1.610
 8932SOL     OW27694   6.269   0.787   0.040
 8932SOL    HW127695   6.291   0.691   0.054
 8932SOL    HW227696   6.169   0.798   0.038
 8933SOL     OW27697   1.798   0.527   5.693
 8933SOL    HW127698   1.756   0.448   5.647
 8933SOL    HW227699   1.780   0.610   5.641
 8934SOL     OW27700   4.463   6.615   3.284
 8934SOL    HW127701   4.454   6.707   3.244
 8934SOL    HW227702   4.531   6.563   3.231
 8935SOL     OW27703   5.970   1.921   2.385
 8935SOL    HW127704   6.030   1.848   2.416
 8935SOL    HW227705   5.952   1.984   2.460
 8936SOL     OW27706   1.802   3.888   2.877
 8936SOL    HW127707   1.758   3.814   2.928
 8936SOL    HW227708   1.808   3.969   2.935
 8937SOL     OW27709   4.216   0.638   5.241
 8937SOL    HW127710   4.131   0.593   5.214
 8937SOL    HW227711   4.293   0.592   5.198
 8938SOL     OW27712   5.842   6.645   1.930
 8938SOL    HW127713   5.777   6.600   1.869
 8938SOL    HW227714   5.909   6.697   1.877
 8939SOL     OW27715   0.500   2.500   4.502
 8939SOL    HW127716   0.532   2.577   4.447
 8939SOL    HW227717   0.502   2.525   4.599
 8940SOL     OW27718   6.102   2.837   2.064
 8940SOL    HW127719   6.168   2.913   2.067
 8940SOL    HW227720   6.011   2.871   2.088
 8941SOL     OW27721   5.153   2.157   3.000
 8941SOL    HW127722   5.054   2.163   2.990
 8941SOL    HW227723   5.182   2.206   3.083
 8942SOL     OW27724   4.815   4.397   4.134
 8942SOL    HW127725   4.783   4.478   4.085
 8942SOL    HW227726   4.914   4.403   4.148
 8943SOL     OW27727   4.389   2.730   0.788
 8943SOL    HW127728   4.350   2.699   0.875
 8943SOL    HW227729   4.486   2.706   0.785
 8944SOL     OW27730   4.715   5.609   5.045
 8944SOL    HW127731   4.802   5.652   5.068
 8944SOL    HW227732   4.727   5.547   4.968
 8945SOL     OW27733   5.730   3.750   2.564
 8945SOL    HW127734   5.740   3.787   2.471
 8945SOL    HW227735   5.744   3.822   2.631
 8946SOL     OW27736   4.323   1.083   5.197
 8946SOL    HW127737   4.374   1.168   5.181
 8946SOL    HW227738   4.226   1.100   5.185
 8947SOL     OW27739   2.051   4.742   6.997
 8947SOL    HW127740   1.953   4.758   6.981
 8947SOL    HW227741   2.077   4.778   0.060
 8948SOL     OW27742   5.542   0.827   2.596
 8948SOL    HW127743   5.462   0.838   2.655
 8948SOL    HW227744   5.513   0.822   2.501
 8949SOL     OW27745   3.741   6.113   0.857
 8949SOL    HW127746   3.710   6.030   0.810
 8949SOL    HW227747   3.823   6.148   0.812
 8950SOL     OW27748   3.480   3.536   2.440
 8950SOL    HW127749   3.549   3.529   2.513
 8950SOL    HW227750   3.470   3.631   2.413
 8951SOL     OW27751   1.114   0.511   4.657
 8951SOL    HW127752   1.069   0.454   4.725
 8951SOL    HW227753   1.071   0.497   4.567
 8952SOL     OW27754   1.363   4.353   4.311
 8952SOL    HW127755   1.343   4.260   4.280
 8952SOL    HW227756   1.416   4.401   4.241
 8953SOL     OW27757   0.674   4.826   1.479
 8953SOL    HW127758   0.716   4.738   1.455
 8953SOL    HW227759   0.727   4.870   1.552
 8954SOL     OW27760   2.182   4.198   5.419
 8954SOL    HW127761   2.096   4.229   5.377
 8954SOL    HW227762   2.183   4.223   5.515
 8955SOL     OW27763   5.839   3.061   5.182
 8955SOL    HW127764   5.910   3.012   5.233
 8955SOL    HW227765   5.758   3.003   5.174
 8956SOL     OW27766   0.737   5.881   1.004
 8956SOL    HW127767   0.782   5.892   1.093
 8956SOL    HW227768   0.780   5.805   0.955
 8957SOL     OW27769   1.336   6.329   2.472
 8957SOL    HW127770   1.292   6.419   2.474
 8957SOL    HW227771   1.301   6.276   2.395
 8958SOL     OW27772   0.754   4.214   4.732
 8958SOL    HW127773   0.692   4.143   4.698
 8958SOL    HW227774   0.815   4.174   4.801
 8959SOL     OW27775   5.585   1.886   4.181
 8959SOL    HW127776   5.592   1.815   4.110
 8959SOL    HW227777   5.500   1.937   4.168
 8960SOL     OW27778   5.120   5.267   2.995
 8960SOL    HW127779   5.148   5.237   2.904
 8960SOL    HW227780   5.195   5.252   3.059
 8961SOL     OW27781   2.743   1.652   4.695
 8961SOL    HW127782   2.744   1.553   4.681
 8961SOL    HW227783   2.832   1.690   4.671
 8962SOL     OW27784   6.389   5.552   2.328
 8962SOL    HW127785   6.315   5.485   2.322
 8962SOL    HW227786   6.351   5.644   2.318
 8963SOL     OW27787   2.932   6.620   6.251
 8963SOL    HW127788   2.882   6.588   6.332
 8963SOL    HW227789   3.005   6.682   6.280
 8964SOL     OW27790   2.108   3.264   3.825
 8964SOL    HW127791   2.125   3.170   3.793
 8964SOL    HW227792   2.134   3.272   3.921
 8965SOL     OW27793   4.046   5.434   0.431
 8965SOL    HW127794   4.125   5.444   0.371
 8965SOL    HW227795   4.016   5.339   0.431
 8966SOL     OW27796   5.305   0.070   5.026
 8966SOL    HW127797   5.212   0.045   5.051
 8966SOL    HW227798   5.365   0.063   5.106
 8967SOL     OW27799   3.142   0.265   3.427
 8967SOL    HW127800   3.132   0.320   3.511
 8967SOL    HW227801   3.140   0.168   3.451
 8968SOL     OW27802   3.714   4.989   2.217
 8968SOL    HW127803   3.651   5.038   2.156
 8968SOL    HW227804   3.741   5.049   2.292
 8969SOL     OW27805   0.148   0.523   2.932
 8969SOL    HW127806   0.145   0.620   2.907
 8969SOL    HW227807   0.138   0.468   2.849
 8970SOL     OW27808   1.918   1.154   3.215
 8970SOL    HW127809   1.835   1.102   3.232
 8970SOL    HW227810   1.987   1.130   3.284
 8971SOL     OW27811   3.302   4.481   0.983
 8971SOL    HW127812   3.243   4.477   1.063
 8971SOL    HW227813   3.266   4.547   0.918
 8972SOL     OW27814   5.113   3.944   6.804
 8972SOL    HW127815   5.045   3.928   6.876
 8972SOL    HW227816   5.067   3.946   6.715
 8973SOL     OW27817   2.512   2.468   3.273
 8973SOL    HW127818   2.449   2.540   3.302
 8973SOL    HW227819   2.522   2.471   3.173
 8974SOL     OW27820   1.979   4.443   3.675
 8974SOL    HW127821   2.044   4.415   3.605
 8974SOL    HW227822   1.946   4.535   3.656
 8975SOL     OW27823   6.536   4.392   5.794
 8975SOL    HW127824   6.502   4.427   5.882
 8975SOL    HW227825   6.623   4.344   5.808
 8976SOL     OW27826   6.106   0.205   1.869
 8976SOL    HW127827   6.059   0.292   1.853
 8976SOL    HW227828   6.105   0.184   1.967
 8977SOL     OW27829   6.426   4.430   6.815
 8977SOL    HW127830   6.437   4.511   6.759
 8977SOL    HW227831   6.512   4.409   6.862
 8978SOL     OW27832   6.271   5.737   6.217
 8978SOL    HW127833   6.339   5.684   6.268
 8978SOL    HW227834   6.302   5.750   6.123
 8979SOL     OW27835   1.631   4.975   3.797
 8979SOL    HW127836   1.596   4.981   3.703
 8979SOL    HW227837   1.636   4.879   3.825
 8980SOL     OW27838   3.889   0.637   0.222
 8980SOL    HW127839   3.884   0.612   0.319
 8980SOL    HW227840   3.805   0.685   0.196
 8981SOL     OW27841   3.889   2.567   6.528
 8981SOL    HW127842   3.799   2.578   6.487
 8981SOL    HW227843   3.936   2.656   6.531
 8982SOL     OW27844   0.277   1.428   1.503
 8982SOL    HW127845   0.255   1.404   1.409
 8982SOL    HW227846   0.258   1.349   1.562
 8983SOL     OW27847   1.497   0.018   2.310
 8983SOL    HW127848   1.570   6.987   2.272
 8983SOL    HW227849   1.524   0.115   2.306
 8984SOL     OW27850   6.840   1.429   4.886
 8984SOL    HW127851   6.870   1.346   4.839
 8984SOL    HW227852   6.920   1.478   4.921
 8985SOL     OW27853   4.998   1.114   2.653
 8985SOL    HW127854   5.011   1.196   2.709
 8985SOL    HW227855   5.085   1.066   2.644
 8986SOL     OW27856   6.900   5.437   0.710
 8986SOL    HW127857   6.970   5.378   0.670
 8986SOL    HW227858   6.832   5.381   0.758
 8987SOL     OW27859   2.130   0.022   1.593
 8987SOL    HW127860   2.122   0.078   1.511
 8987SOL    HW227861   2.209   6.987   1.584
 8988SOL     OW27862   2.818   7.021   1.165
 8988SOL    HW127863   2.838   0.084   1.123
 8988SOL    HW227864   2.818   6.950   1.095
 8989SOL     OW27865   5.644   1.510   2.513
 8989SOL    HW127866   5.713   1.502   2.441
 8989SOL    HW227867   5.636   1.606   2.542
 8990SOL     OW27868   3.327   0.715   2.737
 8990SOL    HW127869   3.230   0.735   2.724
 8990SOL    HW227870   3.339   0.659   2.819
 8991SOL     OW27871   1.280   2.595   0.750
 8991SOL    HW127872   1.197   2.547   0.724
 8991SOL    HW227873   1.282   2.684   0.704
 8992SOL     OW27874   6.268   4.113   6.495
 8992SOL    HW127875   6.266   4.193   6.556
 8992SOL    HW227876   6.319   4.136   6.412
 8993SOL     OW27877   5.699   4.490   4.857
 8993SOL    HW127878   5.720   4.447   4.945
 8993SOL    HW227879   5.604   4.472   4.833
 8994SOL     OW27880   1.380   6.189   2.700
 8994SOL    HW127881   1.297   6.138   2.722
 8994SOL    HW227882   1.358   6.263   2.637
 8995SOL     OW27883   1.861   3.943   4.201
 8995SOL    HW127884   1.818   3.863   4.242
 8995SOL    HW227885   1.795   4.018   4.197
 8996SOL     OW27886   2.151   3.521   1.266
 8996SOL    HW127887   2.169   3.615   1.296
 8996SOL    HW227888   2.152   3.518   1.166
 8997SOL     OW27889   4.284   1.212   5.643
 8997SOL    HW127890   4.319   1.297   5.605
 8997SOL    HW227891   4.332   1.135   5.603
 8998SOL     OW27892   0.520   1.615   6.328
 8998SOL    HW127893   0.563   1.545   6.270
 8998SOL    HW227894   0.443   1.655   6.279
 8999SOL     OW27895   4.937   2.110   5.159
 8999SOL    HW127896   4.854   2.055   5.147
 8999SOL    HW227897   5.006   2.055   5.207
 9000SOL     OW27898   3.156   4.912   0.913
 9000SOL    HW127899   3.209   4.845   0.861
 9000SOL    HW227900   3.139   4.878   1.005
 9001SOL     OW27901   2.424   4.325   3.309
 9001SOL    HW127902   2.449   4.229   3.298
 9001SOL    HW227903   2.373   4.356   3.229
 9002SOL     OW27904   5.606   4.064   5.389
 9002SOL    HW127905   5.658   3.992   5.343
 9002SOL    HW227906   5.651   4.089   5.475
 9003SOL     OW27907   6.524   3.059   6.523
 9003SOL    HW127908   6.453   3.095   6.584
 9003SOL    HW227909   6.523   2.959   6.526
 9004SOL     OW27910   5.054   5.489   0.914
 9004SOL    HW127911   5.030   5.394   0.893
 9004SOL    HW227912   5.030   5.510   1.008
 9005SOL     OW27913   4.968   3.050   3.809
 9005SOL    HW127914   4.989   2.960   3.849
 9005SOL    HW227915   4.989   3.122   3.876
 9006SOL     OW27916   2.175   6.950   1.082
 9006SOL    HW127917   2.134   6.868   1.122
 9006SOL    HW227918   2.272   6.934   1.065
 9007SOL     OW27919   2.229   6.304   4.883
 9007SOL    HW127920   2.287   6.301   4.964
 9007SOL    HW227921   2.199   6.211   4.860
 9008SOL     OW27922   0.571   4.308   2.577
 9008SOL    HW127923   0.620   4.261   2.650
 9008SOL    HW227924   0.580   4.407   2.589
 9009SOL     OW27925   4.477   6.457   0.285
 9009SOL    HW127926   4.479   6.376   0.227
 9009SOL    HW227927   4.519   6.435   0.373
 9010SOL     OW27928   7.024   5.373   4.963
 9010SOL    HW127929   6.959   5.444   4.938
 9010SOL    HW227930   0.070   5.367   4.894
 9011SOL     OW27931   4.462   2.037   2.808
 9011SOL    HW127932   4.559   2.049   2.827
 9011SOL    HW227933   4.408   2.082   2.879
 9012SOL     OW27934   5.544   5.449   2.185
 9012SOL    HW127935   5.486   5.508   2.242
 9012SOL    HW227936   5.617   5.504   2.143
 9013SOL     OW27937   4.473   6.627   2.700
 9013SOL    HW127938   4.446   6.550   2.642
 9013SOL    HW227939   4.462   6.712   2.650
 9014SOL     OW27940   2.254   0.628   1.298
 9014SOL    HW127941   2.318   0.606   1.371
 9014SOL    HW227942   2.176   0.678   1.337
 9015SOL     OW27943   6.211   1.624   4.854
 9015SOL    HW127944   6.180   1.646   4.947
 9015SOL    HW227945   6.311   1.629   4.850
 9016SOL     OW27946   0.026   5.675   6.156
 9016SOL    HW127947   0.031   5.640   6.249
 9016SOL    HW227948   0.096   5.746   6.144
 9017SOL     OW27949   0.108   3.724   3.105
 9017SOL    HW127950   0.138   3.818   3.119
 9017SOL    HW227951   0.077   3.685   3.192
 9018SOL     OW27952   3.643   1.916   6.077
 9018SOL    HW127953   3.660   2.004   6.121
 9018SOL    HW227954   3.716   1.852   6.099
 9019SOL     OW27955   1.302   5.344   0.046
 9019SOL    HW127956   1.258   5.259   0.076
 9019SOL    HW227957   1.328   5.335   6.975
 9020SOL     OW27958   0.977   4.996   3.607
 9020SOL    HW127959   0.903   4.960   3.664
 9020SOL    HW227960   1.009   4.925   3.545
 9021SOL     OW27961   6.163   5.742   5.392
 9021SOL    HW127962   6.149   5.771   5.487
 9021SOL    HW227963   6.146   5.644   5.384
 9022SOL     OW27964   2.885   6.931   6.768
 9022SOL    HW127965   2.835   6.844   6.759
 9022SOL    HW227966   2.977   6.912   6.804
 9023SOL     OW27967   3.507   3.079   3.512
 9023SOL    HW127968   3.595   3.044   3.544
 9023SOL    HW227969   3.470   3.143   3.579
 9024SOL     OW27970   0.455   0.136   6.527
 9024SOL    HW127971   0.413   0.103   6.612
 9024SOL    HW227972   0.540   0.184   6.548
 9025SOL     OW27973   0.095   3.781   0.479
 9025SOL    HW127974   0.094   3.875   0.445
 9025SOL    HW227975   0.187   3.742   0.469
 9026SOL     OW27976   2.903   3.433   5.478
 9026SOL    HW127977   2.948   3.509   5.526
 9026SOL    HW227978   2.839   3.388   5.540
 9027SOL     OW27979   2.392   2.722   2.732
 9027SOL    HW127980   2.463   2.764   2.675
 9027SOL    HW227981   2.346   2.792   2.785
 9028SOL     OW27982   2.729   4.672   4.567
 9028SOL    HW127983   2.677   4.658   4.652
 9028SOL    HW227984   2.685   4.623   4.492
 9029SOL     OW27985   5.585   5.394   2.940
 9029SOL    HW127986   5.521   5.318   2.948
 9029SOL    HW227987   5.670   5.370   2.988
 9030SOL     OW27988   3.744   2.062   2.115
 9030SOL    HW127989   3.699   1.977   2.087
 9030SOL    HW227990   3.709   2.138   2.061
 9031SOL     OW27991   1.561   1.515   1.042
 9031SOL    HW127992   1.522   1.455   1.111
 9031SOL    HW227993   1.547   1.475   0.951
 9032SOL     OW27994   1.294   2.984   2.549
 9032SOL    HW127995   1.325   2.892   2.525
 9032SOL    HW227996   1.232   2.979   2.627
 9033SOL     OW27997   1.474   4.007   1.809
 9033SOL    HW127998   1.411   4.005   1.887
 9033SOL    HW227999   1.567   4.022   1.841
 9034SOL     OW28000   1.657   6.678   6.789
 9034SOL    HW128001   1.647   6.752   6.722
 9034SOL    HW228002   1.581   6.614   6.779
 9035SOL     OW28003   0.235   0.505   4.495
 9035SOL    HW128004   0.148   0.499   4.544
 9035SOL    HW228005   0.259   0.601   4.480
 9036SOL     OW28006   1.323   1.328   4.183
 9036SOL    HW128007   1.300   1.399   4.117
 9036SOL    HW228008   1.399   1.358   4.240
 9037SOL     OW28009   2.584   4.046   6.102
 9037SOL    HW128010   2.532   4.013   6.182
 9037SOL    HW228011   2.527   4.108   6.049
 9038SOL     OW28012   4.746   6.351   5.285
 9038SOL    HW128013   4.807   6.273   5.297
 9038SOL    HW228014   4.654   6.327   5.317
 9039SOL     OW28015   2.831   4.581   6.666
 9039SOL    HW128016   2.897   4.628   6.608
 9039SOL    HW228017   2.778   4.648   6.718
 9040SOL     OW28018   2.712   2.081   2.276
 9040SOL    HW128019   2.750   2.077   2.183
 9040SOL    HW228020   2.692   1.988   2.307
 9041SOL     OW28021   1.718   3.295   6.418
 9041SOL    HW128022   1.772   3.283   6.501
 9041SOL    HW228023   1.664   3.213   6.400
 9042SOL     OW28024   2.404   5.483   3.755
 9042SOL    HW128025   2.497   5.472   3.790
 9042SOL    HW228026   2.380   5.403   3.699
 9043SOL     OW28027   6.376   2.644   0.870
 9043SOL    HW128028   6.469   2.671   0.849
 9043SOL    HW228029   6.341   2.700   0.945
 9044SOL     OW28030   6.717   4.304   0.680
 9044SOL    HW128031   6.806   4.261   0.692
 9044SOL    HW228032   6.715   4.393   0.727
 9045SOL     OW28033   2.513   5.727   3.805
 9045SOL    HW128034   2.486   5.813   3.848
 9045SOL    HW228035   2.436   5.663   3.809
 9046SOL     OW28036   3.847   4.543   5.784
 9046SOL    HW128037   3.781   4.598   5.835
 9046SOL    HW228038   3.818   4.447   5.785
 9047SOL     OW28039   0.995   4.669   4.883
 9047SOL    HW128040   1.010   4.633   4.791
 9047SOL    HW228041   0.949   4.600   4.939
 9048SOL     OW28042   1.871   2.071   4.901
 9048SOL    HW128043   1.955   2.098   4.855
 9048SOL    HW228044   1.893   2.016   4.982
 9049SOL     OW28045   4.896   6.190   6.867
 9049SOL    HW128046   4.856   6.184   6.958
 9049SOL    HW228047   4.988   6.229   6.874
 9050SOL     OW28048   6.998   5.172   5.425
 9050SOL    HW128049   0.064   5.152   5.462
 9050SOL    HW228050   6.948   5.229   5.490
 9051SOL     OW28051   5.344   6.702   5.989
 9051SOL    HW128052   5.355   6.802   5.991
 9051SOL    HW228053   5.431   6.660   5.964
 9052SOL     OW28054   2.844   5.169   5.087
 9052SOL    HW128055   2.909   5.246   5.086
 9052SOL    HW228056   2.817   5.148   4.993
 9053SOL     OW28057   3.183   1.767   3.088
 9053SOL    HW128058   3.189   1.754   2.989
 9053SOL    HW228059   3.202   1.862   3.110
 9054SOL     OW28060   2.481   0.081   1.078
 9054SOL    HW128061   2.503   7.015   1.112
 9054SOL    HW228062   2.553   0.144   1.107
 9055SOL     OW28063   0.709   2.264   4.922
 9055SOL    HW128064   0.685   2.218   4.837
 9055SOL    HW228065   0.731   2.196   4.992
 9056SOL     OW28066   4.839   2.507   2.750
 9056SOL    HW128067   4.781   2.489   2.670
 9056SOL    HW228068   4.814   2.594   2.792
 9057SOL     OW28069   4.155   6.449   0.309
 9057SOL    HW128070   4.240   6.499   0.290
 9057SOL    HW228071   4.110   6.490   0.388
 9058SOL     OW28072   2.094   2.415   4.325
 9058SOL    HW128073   2.043   2.493   4.288
 9058SOL    HW228074   2.128   2.359   4.250
 9059SOL     OW28075   0.426   1.155   2.096
 9059SOL    HW128076   0.386   1.246   2.094
 9059SOL    HW228077   0.427   1.116   2.004
 9060SOL     OW28078   0.779   5.281   1.636
 9060SOL    HW128079   0.819   5.302   1.547
 9060SOL    HW228080   0.683   5.308   1.637
 9061SOL     OW28081   4.982   4.139   2.275
 9061SOL    HW128082   4.919   4.111   2.347
 9061SOL    HW228083   5.076   4.128   2.307
 9062SOL     OW28084   1.079   5.608   2.857
 9062SOL    HW128085   1.126   5.613   2.945
 9062SOL    HW228086   1.144   5.623   2.783
 9063SOL     OW28087   4.786   1.677   1.833
 9063SOL    HW128088   4.693   1.714   1.840
 9063SOL    HW228089   4.851   1.744   1.869
 9064SOL     OW28090   0.933   5.882   3.063
 9064SOL    HW128091   0.865   5.840   3.004
 9064SOL    HW228092   0.899   5.884   3.157
 9065SOL     OW28093   3.271   4.122   6.134
 9065SOL    HW128094   3.349   4.185   6.135
 9065SOL    HW228095   3.189   4.171   6.165
 9066SOL     OW28096   4.611   5.076   4.243
 9066SOL    HW128097   4.566   5.066   4.332
 9066SOL    HW228098   4.668   5.158   4.244
 9067SOL     OW28099   1.765   6.603   4.788
 9067SOL    HW128100   1.677   6.614   4.741
 9067SOL    HW228101   1.772   6.510   4.824
 9068SOL     OW28102   3.832   0.791   6.250
 9068SOL    HW128103   3.905   0.848   6.212
 9068SOL    HW228104   3.743   0.827   6.221
 9069SOL     OW28105   5.063   2.985   1.518
 9069SOL    HW128106   5.141   2.923   1.510
 9069SOL    HW228107   5.082   3.053   1.589
 9070SOL     OW28108   1.857   1.410   5.450
 9070SOL    HW128109   1.763   1.392   5.419
 9070SOL    HW228110   1.900   1.324   5.477
 9071SOL     OW28111   5.965   2.485   6.616
 9071SOL    HW128112   5.945   2.418   6.545
 9071SOL    HW228113   5.987   2.573   6.573
 9072SOL     OW28114   5.450   0.199   2.466
 9072SOL    HW128115   5.527   0.260   2.454
 9072SOL    HW228116   5.382   0.217   2.395
 9073SOL     OW28117   4.541   3.036   5.380
 9073SOL    HW128118   4.517   2.977   5.304
 9073SOL    HW228119   4.462   3.092   5.406
 9074SOL     OW28120   2.133   1.021   2.796
 9074SOL    HW128121   2.077   1.071   2.730
 9074SOL    HW228122   2.188   1.086   2.849
 9075SOL     OW28123   6.024   6.166   0.555
 9075SOL    HW128124   5.942   6.126   0.597
 9075SOL    HW228125   6.100   6.101   0.564
 9076SOL     OW28126   0.597   6.875   2.385
 9076SOL    HW128127   0.694   6.858   2.369
 9076SOL    HW228128   0.580   6.974   2.386
 9077SOL     OW28129   6.300   1.733   6.771
 9077SOL    HW128130   6.303   1.657   6.706
 9077SOL    HW228131   6.365   1.715   6.845
 9078SOL     OW28132   5.123   0.516   6.930
 9078SOL    HW128133   5.212   0.530   6.886
 9078SOL    HW228134   5.054   0.570   6.883
 9079SOL     OW28135   1.039   1.299   6.303
 9079SOL    HW128136   1.084   1.380   6.264
 9079SOL    HW228137   1.070   1.217   6.254
 9080SOL     OW28138   5.861   3.810   2.300
 9080SOL    HW128139   5.933   3.819   2.369
 9080SOL    HW228140   5.885   3.737   2.237
 9081SOL     OW28141   4.905   1.644   0.403
 9081SOL    HW128142   4.916   1.713   0.332
 9081SOL    HW228143   4.845   1.678   0.475
 9082SOL     OW28144   3.554   5.653   6.168
 9082SOL    HW128145   3.541   5.659   6.069
 9082SOL    HW228146   3.631   5.593   6.187
 9083SOL     OW28147   3.747   6.516   0.278
 9083SOL    HW128148   3.784   6.501   0.187
 9083SOL    HW228149   3.706   6.607   0.283
 9084SOL     OW28150   0.229   3.467   4.791
 9084SOL    HW128151   0.209   3.551   4.841
 9084SOL    HW228152   0.165   3.457   4.716
 9085SOL     OW28153   2.375   4.992   0.499
 9085SOL    HW128154   2.441   4.984   0.574
 9085SOL    HW228155   2.329   4.905   0.486
 9086SOL     OW28156   0.131   3.351   0.553
 9086SOL    HW128157   0.105   3.411   0.478
 9086SOL    HW228158   0.115   3.396   0.640
 9087SOL     OW28159   5.207   1.216   1.209
 9087SOL    HW128160   5.141   1.269   1.262
 9087SOL    HW228161   5.282   1.186   1.269
 9088SOL     OW28162   6.151   5.923   0.288
 9088SOL    HW128163   6.066   5.964   0.321
 9088SOL    HW228164   6.143   5.904   0.190
 9089SOL     OW28165   5.082   5.482   3.655
 9089SOL    HW128166   5.121   5.478   3.563
 9089SOL    HW228167   5.141   5.432   3.718
 9090SOL     OW28168   4.896   6.021   5.763
 9090SOL    HW128169   4.963   6.090   5.788
 9090SOL    HW228170   4.914   5.937   5.815
 9091SOL     OW28171   2.624   1.843   1.941
 9091SOL    HW128172   2.529   1.860   1.966
 9091SOL    HW228173   2.680   1.922   1.965
 9092SOL     OW28174   2.190   1.147   4.861
 9092SOL    HW128175   2.210   1.066   4.916
 9092SOL    HW228176   2.238   1.226   4.900
 9093SOL     OW28177   2.124   3.569   0.988
 9093SOL    HW128178   2.076   3.612   0.912
 9093SOL    HW228179   2.220   3.557   0.965
 9094SOL     OW28180   6.471   4.395   0.989
 9094SOL    HW128181   6.542   4.325   0.984
 9094SOL    HW228182   6.383   4.351   1.007
 9095SOL     OW28183   2.363   3.339   0.025
 9095SOL    HW128184   2.378   3.244   0.055
 9095SOL    HW228185   2.403   3.401   0.092
 9096SOL     OW28186   5.986   3.237   3.214
 9096SOL    HW128187   5.904   3.278   3.172
 9096SOL    HW228188   5.961   3.198   3.302
 9097SOL     OW28189   6.724   5.243   6.000
 9097SOL    HW128190   6.799   5.235   5.933
 9097SOL    HW228191   6.748   5.313   6.068
 9098SOL     OW28192   3.413   3.902   4.374
 9098SOL    HW128193   3.408   3.869   4.468
 9098SOL    HW228194   3.483   3.850   4.325
 9099SOL     OW28195   2.232   2.390   0.377
 9099SOL    HW128196   2.158   2.409   0.441
 9099SOL    HW228197   2.308   2.346   0.426
 9100SOL     OW28198   1.229   3.067   0.284
 9100SOL    HW128199   1.272   3.034   0.200
 9100SOL    HW228200   1.131   3.044   0.282
 9101SOL     OW28201   2.232   2.217   6.795
 9101SOL    HW128202   2.250   2.268   6.879
 9101SOL    HW228203   2.161   2.148   6.812
 9102SOL     OW28204   4.806   6.395   2.355
 9102SOL    HW128205   4.735   6.462   2.377
 9102SOL    HW228206   4.883   6.406   2.417
 9103SOL     OW28207   0.302   4.063   6.541
 9103SOL    HW128208   0.311   4.161   6.558
 9103SOL    HW228209   0.263   4.049   6.450
 9104SOL     OW28210   4.819   0.147   2.011
 9104SOL    HW128211   4.879   0.213   2.055
 9104SOL    HW228212   4.839   0.143   1.913
 9105SOL     OW28213   2.194   1.603   5.777
 9105SOL    HW128214   2.131   1.605   5.854
 9105SOL    HW228215   2.251   1.521   5.783
 9106SOL     OW28216   6.565   4.972   1.394
 9106SOL    HW128217   6.559   5.060   1.347
 9106SOL    HW228218   6.660   4.951   1.416
 9107SOL     OW28219   4.696   0.240   1.276
 9107SOL    HW128220   4.691   0.340   1.278
 9107SOL    HW228221   4.712   0.209   1.182
 9108SOL     OW28222   4.109   6.419   6.861
 9108SOL    HW128223   4.074   6.398   6.952
 9108SOL    HW228224   4.145   6.513   6.861
 9109SOL     OW28225   2.768   1.666   4.372
 9109SOL    HW128226   2.740   1.720   4.452
 9109SOL    HW228227   2.853   1.704   4.335
 9110SOL     OW28228   1.461   3.008   2.860
 9110SOL    HW128229   1.538   3.057   2.817
 9110SOL    HW228230   1.385   3.003   2.795
 9111SOL     OW28231   4.171   4.099   1.748
 9111SOL    HW128232   4.126   4.041   1.817
 9111SOL    HW228233   4.264   4.121   1.779
 9112SOL     OW28234   0.328   5.394   2.435
 9112SOL    HW128235   0.390   5.422   2.509
 9112SOL    HW228236   0.341   5.297   2.415
 9113SOL     OW28237   3.692   6.187   6.914
 9113SOL    HW128238   3.707   6.283   6.890
 9113SOL    HW228239   3.753   6.161   6.988
 9114SOL     OW28240   2.422   4.484   2.042
 9114SOL    HW128241   2.468   4.498   2.129
 9114SOL    HW228242   2.388   4.390   2.036
 9115SOL     OW28243   1.966   4.268   3.888
 9115SOL    HW128244   1.959   4.326   3.970
 9115SOL    HW228245   1.946   4.322   3.807
 9116SOL     OW28246   1.838   1.185   5.784
 9116SOL    HW128247   1.841   1.262   5.848
 9116SOL    HW228248   1.830   1.100   5.835
 9117SOL     OW28249   6.573   2.422   6.774
 9117SOL    HW128250   6.672   2.435   6.770
 9117SOL    HW228251   6.549   2.339   6.723
 9118SOL     OW28252   0.036   5.993   1.542
 9118SOL    HW128253   0.076   6.062   1.482
 9118SOL    HW228254   0.008   5.914   1.487
 9119SOL     OW28255   6.598   6.862   1.226
 9119SOL    HW128256   6.678   6.803   1.240
 9119SOL    HW228257   6.517   6.817   1.263
 9120SOL     OW28258   5.400   1.421   6.606
 9120SOL    HW128259   5.353   1.447   6.521
 9120SOL    HW228260   5.401   1.499   6.668
 9121SOL     OW28261   1.374   0.919   7.023
 9121SOL    HW128262   1.468   0.927   0.030
 9121SOL    HW228263   1.361   0.976   6.942
 9122SOL     OW28264   0.300   2.522   1.193
 9122SOL    HW128265   0.311   2.424   1.177
 9122SOL    HW228266   0.314   2.571   1.108
 9123SOL     OW28267   2.829   5.949   0.376
 9123SOL    HW128268   2.802   6.026   0.434
 9123SOL    HW228269   2.775   5.951   0.292
 9124SOL     OW28270   6.045   4.958   5.507
 9124SOL    HW128271   5.959   4.908   5.500
 9124SOL    HW228272   6.121   4.892   5.513
 9125SOL     OW28273   4.571   5.949   3.037
 9125SOL    HW128274   4.621   6.028   3.071
 9125SOL    HW228275   4.494   5.930   3.097
 9126SOL     OW28276   5.825   0.871   1.890
 9126SOL    HW128277   5.892   0.822   1.834
 9126SOL    HW228278   5.873   0.927   1.958
 9127SOL     OW28279   4.950   0.710   6.864
 9127SOL    HW128280   4.985   0.785   6.808
 9127SOL    HW228281   4.860   0.683   6.830
 9128SOL     OW28282   4.776   2.604   5.193
 9128SOL    HW128283   4.761   2.513   5.153
 9128SOL    HW228284   4.717   2.671   5.147
 9129SOL     OW28285   1.886   2.142   6.056
 9129SOL    HW128286   1.847   2.233   6.042
 9129SOL    HW228287   1.919   2.107   5.968
 9130SOL     OW28288   5.833   5.050   0.850
 9130SOL    HW128289   5.826   5.135   0.798
 9130SOL    HW228290   5.745   5.003   0.848
 9131SOL     OW28291   0.571   3.881   4.439
 9131SOL    HW128292   0.595   3.784   4.441
 9131SOL    HW228293   0.653   3.936   4.427
 9132SOL     OW28294   0.521   3.033   4.978
 9132SOL    HW128295   0.596   3.079   4.930
 9132SOL    HW228296   0.443   3.096   4.986
 9133SOL     OW28297   1.511   4.346   1.243
 9133SOL    HW128298   1.458   4.368   1.162
 9133SOL    HW228299   1.474   4.264   1.286
 9134SOL     OW28300   3.155   5.584   6.375
 9134SOL    HW128301   3.249   5.613   6.388
 9134SOL    HW228302   3.130   5.518   6.446
 9135SOL     OW28303   6.524   6.382   4.108
 9135SOL    HW128304   6.437   6.342   4.079
 9135SOL    HW228305   6.591   6.373   4.034
 9136SOL     OW28306   4.726   4.482   5.662
 9136SOL    HW128307   4.810   4.492   5.610
 9136SOL    HW228308   4.700   4.571   5.700
 9137SOL     OW28309   4.001   1.166   2.348
 9137SOL    HW128310   4.039   1.241   2.293
 9137SOL    HW228311   4.004   1.081   2.295
 9138SOL     OW28312   3.981   5.128   0.415
 9138SOL    HW128313   3.969   5.042   0.465
 9138SOL    HW228314   3.961   5.113   0.318
 9139SOL     OW28315   2.557   1.379   5.458
 9139SOL    HW128316   2.609   1.459   5.491
 9139SOL    HW228317   2.561   1.376   5.359
 9140SOL     OW28318   6.975   2.162   3.650
 9140SOL    HW128319   6.951   2.066   3.633
 9140SOL    HW228320   0.047   2.169   3.665
 9141SOL     OW28321   5.742   0.347   5.920
 9141SOL    HW128322   5.712   0.433   5.962
 9141SOL    HW228323   5.685   0.328   5.840
 9142SOL     OW28324   0.147   3.377   5.673
 9142SOL    HW128325   0.187   3.393   5.763
 9142SOL    HW228326   0.060   3.328   5.683
 9143SOL     OW28327   5.001   3.508   0.697
 9143SOL    HW128328   4.952   3.420   0.698
 9143SOL    HW228329   4.949   3.574   0.643
 9144SOL     OW28330   1.869   4.458   4.924
 9144SOL    HW128331   1.965   4.447   4.952
 9144SOL    HW228332   1.857   4.416   4.834
 9145SOL     OW28333   0.394   4.761   6.465
 9145SOL    HW128334   0.309   4.757   6.413
 9145SOL    HW228335   0.435   4.670   6.468
 9146SOL     OW28336   6.368   2.200   2.249
 9146SOL    HW128337   6.283   2.251   2.264
 9146SOL    HW228338   6.402   2.165   2.337
 9147SOL     OW28339   4.286   5.483   5.838
 9147SOL    HW128340   4.339   5.451   5.760
 9147SOL    HW228341   4.326   5.568   5.872
 9148SOL     OW28342   4.266   5.649   3.092
 9148SOL    HW128343   4.337   5.719   3.079
 9148SOL    HW228344   4.211   5.671   3.172
 9149SOL     OW28345   5.790   3.567   3.920
 9149SOL    HW128346   5.698   3.599   3.942
 9149SOL    HW228347   5.852   3.591   3.995
 9150SOL     OW28348   4.969   0.932   3.077
 9150SOL    HW128349   4.897   0.863   3.071
 9150SOL    HW228350   5.051   0.898   3.030
 9151SOL     OW28351   1.697   3.908   2.112
 9151SOL    HW128352   1.609   3.862   2.124
 9151SOL    HW228353   1.770   3.840   2.107
 9152SOL     OW28354   2.108   5.666   3.303
 9152SOL    HW128355   2.151   5.678   3.214
 9152SOL    HW228356   2.170   5.697   3.375
 9153SOL     OW28357   1.541   3.041   6.173
 9153SOL    HW128358   1.550   3.012   6.078
 9153SOL    HW228359   1.627   3.025   6.222
 9154SOL     OW28360   2.275   5.845   0.298
 9154SOL    HW128361   2.363   5.837   0.344
 9154SOL    HW228362   2.216   5.908   0.349
 9155SOL     OW28363   1.100   3.966   0.740
 9155SOL    HW128364   1.066   3.878   0.707
 9155SOL    HW228365   1.176   3.995   0.682
 9156SOL     OW28366   4.955   2.705   1.289
 9156SOL    HW128367   4.875   2.645   1.285
 9156SOL    HW228368   5.004   2.689   1.375
 9157SOL     OW28369   5.356   3.997   5.686
 9157SOL    HW128370   5.302   4.012   5.769
 9157SOL    HW228371   5.306   4.032   5.607
 9158SOL     OW28372   0.672   3.794   4.086
 9158SOL    HW128373   0.617   3.726   4.134
 9158SOL    HW228374   0.611   3.858   4.038
 9159SOL     OW28375   6.747   4.443   3.652
 9159SOL    HW128376   6.665   4.483   3.610
 9159SOL    HW228377   6.723   4.406   3.742
 9160SOL     OW28378   6.570   6.880   6.858
 9160SOL    HW128379   6.553   6.904   6.763
 9160SOL    HW228380   6.509   6.933   6.917
 9161SOL     OW28381   4.810   4.021   4.424
 9161SOL    HW128382   4.808   3.967   4.508
 9161SOL    HW228383   4.840   3.964   4.348
 9162SOL     OW28384   4.869   2.254   2.898
 9162SOL    HW128385   4.834   2.273   2.990
 9162SOL    HW228386   4.874   2.338   2.845
 9163SOL     OW28387   3.040   1.785   3.799
 9163SOL    HW128388   3.052   1.828   3.709
 9163SOL    HW228389   3.069   1.849   3.870
 9164SOL     OW28390   3.104   0.302   0.487
 9164SOL    HW128391   3.108   0.389   0.439
 9164SOL    HW228392   3.138   0.313   0.580
 9165SOL     OW28393   6.080   0.005   6.951
 9165SOL    HW128394   6.067   6.958   7.018
 9165SOL    HW228395   6.178   0.024   6.941
 9166SOL     OW28396   3.307   5.737   1.276
 9166SOL    HW128397   3.350   5.746   1.186
 9166SOL    HW228398   3.275   5.827   1.306
 9167SOL     OW28399   1.522   4.317   5.443
 9167SOL    HW128400   1.472   4.235   5.417
 9167SOL    HW228401   1.559   4.361   5.360
 9168SOL     OW28402   1.945   1.137   6.415
 9168SOL    HW128403   1.965   1.139   6.317
 9168SOL    HW228404   1.867   1.078   6.432
 9169SOL     OW28405   0.527   0.486   3.675
 9169SOL    HW128406   0.577   0.502   3.760
 9169SOL    HW228407   0.549   0.395   3.640
 9170SOL     OW28408   6.752   5.977   6.438
 9170SOL    HW128409   6.817   6.044   6.402
 9170SOL    HW228410   6.796   5.887   6.445
 9171SOL     OW28411   2.789   5.979   6.740
 9171SOL    HW128412   2.823   5.941   6.825
 9171SOL    HW228413   2.789   5.908   6.669
 9172SOL     OW28414   3.012   1.473   3.891
 9172SOL    HW128415   2.991   1.398   3.829
 9172SOL    HW228416   3.052   1.549   3.840
 9173SOL     OW28417   1.014   5.889   4.001
 9173SOL    HW128418   1.029   5.980   4.040
 9173SOL    HW228419   0.919   5.882   3.970
 9174SOL     OW28420   0.477   5.223   0.537
 9174SOL    HW128421   0.395   5.240   0.483
 9174SOL    HW228422   0.467   5.137   0.586
 9175SOL     OW28423   1.956   6.176   6.170
 9175SOL    HW128424   2.016   6.209   6.098
 9175SOL    HW228425   1.883   6.120   6.129
 9176SOL     OW28426   2.013   0.695   5.954
 9176SOL    HW128427   2.111   0.679   5.970
 9176SOL    HW228428   1.960   0.623   6.001
 9177SOL     OW28429   0.895   4.604   3.555
 9177SOL    HW128430   0.896   4.512   3.515
 9177SOL    HW228431   0.989   4.634   3.573
 9178SOL     OW28432   2.546   5.002   0.089
 9178SOL    HW128433   2.513   5.095   0.107
 9178SOL    HW228434   2.500   4.938   0.150
 9179SOL     OW28435   3.483   4.980   4.536
 9179SOL    HW128436   3.400   4.980   4.592
 9179SOL    HW228437   3.546   5.050   4.570
 9180SOL     OW28438   5.019   1.787   3.105
 9180SOL    HW128439   5.009   1.744   3.015
 9180SOL    HW228440   4.955   1.864   3.112
 9181SOL     OW28441   4.396   1.847   2.638
 9181SOL    HW128442   4.423   1.923   2.698
 9181SOL    HW228443   4.377   1.766   2.694
 9182SOL     OW28444   1.163   6.801   1.315
 9182SOL    HW128445   1.248   6.784   1.267
 9182SOL    HW228446   1.138   6.720   1.370
 9183SOL     OW28447   5.115   6.289   0.410
 9183SOL    HW128448   5.023   6.278   0.449
 9183SOL    HW228449   5.182   6.299   0.483
 9184SOL     OW28450   4.888   0.132   0.325
 9184SOL    HW128451   4.955   0.180   0.380
 9184SOL    HW228452   4.887   0.035   0.350
 9185SOL     OW28453   3.597   0.862   5.008
 9185SOL    HW128454   3.522   0.901   4.955
 9185SOL    HW228455   3.599   0.903   5.099
 9186SOL     OW28456   5.927   1.052   5.988
 9186SOL    HW128457   5.899   1.044   5.892
 9186SOL    HW228458   5.872   0.991   6.044
 9187SOL     OW28459   2.299   6.118   2.328
 9187SOL    HW128460   2.350   6.197   2.297
 9187SOL    HW228461   2.326   6.037   2.276
 9188SOL     OW28462   2.698   6.424   1.277
 9188SOL    HW128463   2.700   6.493   1.349
 9188SOL    HW228464   2.605   6.391   1.264
 9189SOL     OW28465   5.309   5.627   2.078
 9189SOL    HW128466   5.375   5.553   2.093
 9189SOL    HW228467   5.241   5.627   2.152
 9190SOL     OW28468   1.859   5.208   0.503
 9190SOL    HW128469   1.933   5.274   0.498
 9190SOL    HW228470   1.772   5.255   0.488
 9191SOL     OW28471   0.080   0.084   5.794
 9191SOL    HW128472   0.057   7.022   5.837
 9191SOL    HW228473   0.002   0.116   5.741
 9192SOL     OW28474   6.859   4.267   4.285
 9192SOL    HW128475   6.855   4.326   4.204
 9192SOL    HW228476   6.906   4.182   4.262
 9193SOL     OW28477   2.837   3.272   0.214
 9193SOL    HW128478   2.912   3.211   0.189
 9193SOL    HW228479   2.825   3.341   0.144
 9194SOL     OW28480   3.952   0.655   4.004
 9194SOL    HW128481   4.051   0.671   4.007
 9194SOL    HW228482   3.934   0.560   3.979
 9195SOL     OW28483   1.873   1.764   3.860
 9195SOL    HW128484   1.886   1.734   3.955
 9195SOL    HW228485   1.841   1.859   3.860
 9196SOL     OW28486   4.819   2.357   5.047
 9196SOL    HW128487   4.850   2.279   5.101
 9196SOL    HW228488   4.828   2.336   4.950
 9197SOL     OW28489   2.315   3.662   1.693
 9197SOL    HW128490   2.310   3.741   1.753
 9197SOL    HW228491   2.275   3.582   1.738
 9198SOL     OW28492   6.718   5.270   4.352
 9198SOL    HW128493   6.762   5.317   4.428
 9198SOL    HW228494   6.646   5.210   4.387
 9199SOL     OW28495   6.370   4.329   4.662
 9199SOL    HW128496   6.393   4.271   4.584
 9199SOL    HW228497   6.412   4.293   4.745
 9200SOL     OW28498   2.944   0.006   0.518
 9200SOL    HW128499   2.996   0.090   0.511
 9200SOL    HW228500   2.918   7.016   0.614
 9201SOL     OW28501   1.814   4.175   0.526
 9201SOL    HW128502   1.739   4.189   0.591
 9201SOL    HW228503   1.898   4.214   0.562
 9202SOL     OW28504   2.490   0.194   3.423
 9202SOL    HW128505   2.582   0.194   3.464
 9202SOL    HW228506   2.438   0.271   3.459
 9203SOL     OW28507   6.900   6.073   0.765
 9203SOL    HW128508   6.925   6.162   0.728
 9203SOL    HW228509   6.958   6.052   0.843
 9204SOL     OW28510   4.893   0.794   6.036
 9204SOL    HW128511   4.798   0.788   6.068
 9204SOL    HW228512   4.911   0.886   6.003
 9205SOL     OW28513   0.073   4.084   2.068
 9205SOL    HW128514   0.131   4.133   2.003
 9205SOL    HW228515   0.127   4.012   2.113
 9206SOL     OW28516   3.365   5.779   0.736
 9206SOL    HW128517   3.315   5.706   0.690
 9206SOL    HW228518   3.380   5.854   0.672
 9207SOL     OW28519   5.006   5.495   0.177
 9207SOL    HW128520   5.082   5.438   0.209
 9207SOL    HW228521   5.033   5.544   0.095
 9208SOL     OW28522   0.937   3.694   3.470
 9208SOL    HW128523   0.869   3.641   3.419
 9208SOL    HW228524   0.913   3.695   3.567
 9209SOL     OW28525   2.764   0.883   6.158
 9209SOL    HW128526   2.787   0.944   6.082
 9209SOL    HW228527   2.787   0.928   6.245
 9210SOL     OW28528   6.806   0.673   3.478
 9210SOL    HW128529   6.714   0.636   3.490
 9210SOL    HW228530   6.800   0.770   3.453
 9211SOL     OW28531   0.891   1.636   3.058
 9211SOL    HW128532   0.929   1.546   3.080
 9211SOL    HW228533   0.810   1.626   3.001
 9212SOL     OW28534   3.183   4.958   4.616
 9212SOL    HW128535   3.191   4.924   4.522
 9212SOL    HW228536   3.091   4.940   4.651
 9213SOL     OW28537   5.922   3.578   6.429
 9213SOL    HW128538   5.943   3.606   6.336
 9213SOL    HW228539   5.823   3.585   6.445
 9214SOL     OW28540   0.272   4.993   1.017
 9214SOL    HW128541   0.256   4.989   1.116
 9214SOL    HW228542   0.247   4.906   0.975
 9215SOL     OW28543   0.999   1.027   0.774
 9215SOL    HW128544   1.043   1.041   0.685
 9215SOL    HW228545   1.026   1.100   0.836
 9216SOL     OW28546   2.214   6.582   3.152
 9216SOL    HW128547   2.215   6.677   3.121
 9216SOL    HW228548   2.291   6.533   3.110
 9217SOL     OW28549   0.957   2.629   6.733
 9217SOL    HW128550   0.928   2.640   6.638
 9217SOL    HW228551   0.876   2.621   6.791
 9218SOL     OW28552   3.091   0.559   0.419
 9218SOL    HW128553   3.010   0.601   0.378
 9218SOL    HW228554   3.171   0.617   0.402
 9219SOL     OW28555   6.958   2.566   0.797
 9219SOL    HW128556   7.000   2.652   0.769
 9219SOL    HW228557   0.002   2.505   0.835
 9220SOL     OW28558   3.415   6.581   1.928
 9220SOL    HW128559   3.427   6.487   1.958
 9220SOL    HW228560   3.378   6.636   2.003
 9221SOL     OW28561   3.037   5.647   4.263
 9221SOL    HW128562   3.057   5.648   4.361
 9221SOL    HW228563   2.990   5.563   4.239
 9222SOL     OW28564   2.260   2.217   5.960
 9222SOL    HW128565   2.323   2.293   5.973
 9222SOL    HW228566   2.177   2.233   6.013
 9223SOL     OW28567   2.698   2.932   5.376
 9223SOL    HW128568   2.755   2.854   5.350
 9223SOL    HW228569   2.646   2.962   5.297
 9224SOL     OW28570   2.207   4.762   5.239
 9224SOL    HW128571   2.110   4.742   5.254
 9224SOL    HW228572   2.216   4.844   5.183
 9225SOL     OW28573   2.245   6.074   7.019
 9225SOL    HW128574   2.256   6.173   7.019
 9225SOL    HW228575   2.217   6.044   6.928
 9226SOL     OW28576   4.556   6.702   1.183
 9226SOL    HW128577   4.521   6.627   1.128
 9226SOL    HW228578   4.571   6.670   1.277
 9227SOL     OW28579   1.631   5.723   2.326
 9227SOL    HW128580   1.621   5.810   2.278
 9227SOL    HW228581   1.572   5.654   2.284
 9228SOL     OW28582   0.551   0.066   6.855
 9228SOL    HW128583   0.455   0.070   6.829
 9228SOL    HW228584   0.561   0.101   6.948
 9229SOL     OW28585   0.617   5.127   5.150
 9229SOL    HW128586   0.699   5.131   5.093
 9229SOL    HW228587   0.536   5.128   5.092
 9230SOL     OW28588   5.667   0.396   3.897
 9230SOL    HW128589   5.765   0.377   3.896
 9230SOL    HW228590   5.629   0.371   3.986
 9231SOL     OW28591   1.663   2.719   3.590
 9231SOL    HW128592   1.710   2.803   3.563
 9231SOL    HW228593   1.609   2.685   3.513
 9232SOL     OW28594   3.868   4.733   1.290
 9232SOL    HW128595   3.942   4.679   1.331
 9232SOL    HW228596   3.905   4.818   1.254
 9233SOL     OW28597   5.011   5.226   0.850
 9233SOL    HW128598   4.957   5.144   0.866
 9233SOL    HW228599   5.108   5.201   0.840
 9234SOL     OW28600   2.082   5.963   4.056
 9234SOL    HW128601   2.156   5.926   4.112
 9234SOL    HW228602   2.086   6.063   4.058
 9235SOL     OW28603   0.550   2.053   3.227
 9235SOL    HW128604   0.624   2.109   3.263
 9235SOL    HW228605   0.550   2.059   3.127
 9236SOL     OW28606   2.891   3.154   5.726
 9236SOL    HW128607   2.795   3.177   5.708
 9236SOL    HW228608   2.933   3.119   5.643
 9237SOL     OW28609   1.469   3.683   3.668
 9237SOL    HW128610   1.532   3.653   3.740
 9237SOL    HW228611   1.432   3.772   3.692
 9238SOL     OW28612   4.665   2.920   6.040
 9238SOL    HW128613   4.583   2.969   6.012
 9238SOL    HW228614   4.648   2.822   6.039
 9239SOL     OW28615   2.067   4.232   0.686
 9239SOL    HW128616   2.007   4.194   0.756
 9239SOL    HW228617   2.102   4.321   0.716
 9240SOL     OW28618   4.524   1.319   2.374
 9240SOL    HW128619   4.603   1.357   2.326
 9240SOL    HW228620   4.534   1.334   2.472
 9241SOL     OW28621   0.322   5.788   6.675
 9241SOL    HW128622   0.414   5.749   6.675
 9241SOL    HW228623   0.327   5.885   6.648
 9242SOL     OW28624   6.929   6.263   1.877
 9242SOL    HW128625   6.868   6.199   1.829
 9242SOL    HW228626   7.024   6.242   1.855
 9243SOL     OW28627   5.954   5.956   5.012
 9243SOL    HW128628   5.902   6.010   5.079
 9243SOL    HW228629   5.896   5.936   4.934
 9244SOL     OW28630   3.714   5.026   6.747
 9244SOL    HW128631   3.792   5.034   6.685
 9244SOL    HW228632   3.633   5.067   6.704
 9245SOL     OW28633   0.468   5.404   1.605
 9245SOL    HW128634   0.441   5.329   1.666
 9245SOL    HW228635   0.491   5.367   1.515
 9246SOL     OW28636   0.206   4.821   3.868
 9246SOL    HW128637   0.259   4.800   3.786
 9246SOL    HW228638   0.212   4.745   3.932
 9247SOL     OW28639   1.783   6.174   2.307
 9247SOL    HW128640   1.725   6.231   2.365
 9247SOL    HW228641   1.879   6.191   2.328
 9248SOL     OW28642   2.831   1.366   6.471
 9248SOL    HW128643   2.917   1.371   6.522
 9248SOL    HW228644   2.851   1.342   6.376
 9249SOL     OW28645   4.681   0.345   3.762
 9249SOL    HW128646   4.750   0.392   3.707
 9249SOL    HW228647   4.720   0.261   3.800
 9250SOL     OW28648   5.503   3.488   4.264
 9250SOL    HW128649   5.595   3.527   4.267
 9250SOL    HW228650   5.509   3.389   4.254
 9251SOL     OW28651   3.230   2.086   2.647
 9251SOL    HW128652   3.150   2.122   2.694
 9251SOL    HW228653   3.212   2.083   2.548
 9252SOL     OW28654   1.093   0.078   4.692
 9252SOL    HW128655   1.139   0.104   4.607
 9252SOL    HW228656   1.037   0.155   4.725
 9253SOL     OW28657   0.944   6.804   5.930
 9253SOL    HW128658   1.018   6.871   5.929
 9253SOL    HW228659   0.976   6.718   5.890
 9254SOL     OW28660   5.761   3.656   1.606
 9254SOL    HW128661   5.688   3.722   1.588
 9254SOL    HW228662   5.726   3.563   1.593
 9255SOL     OW28663   5.948   4.534   1.047
 9255SOL    HW128664   6.038   4.490   1.043
 9255SOL    HW228665   5.960   4.634   1.045
 9256SOL     OW28666   4.207   4.968   1.784
 9256SOL    HW128667   4.138   4.948   1.714
 9256SOL    HW228668   4.279   5.024   1.744
 9257SOL     OW28669   1.149   4.342   1.274
 9257SOL    HW128670   1.133   4.245   1.256
 9257SOL    HW228671   1.192   4.383   1.194
 9258SOL     OW28672   4.032   3.532   3.291
 9258SOL    HW128673   4.040   3.443   3.247
 9258SOL    HW228674   4.033   3.520   3.390
 9259SOL     OW28675   0.756   3.063   0.401
 9259SOL    HW128676   0.740   3.155   0.364
 9259SOL    HW228677   0.669   3.013   0.402
 9260SOL     OW28678   5.415   3.210   5.974
 9260SOL    HW128679   5.334   3.173   5.928
 9260SOL    HW228680   5.442   3.295   5.930
 9261SOL     OW28681   4.632   6.961   6.832
 9261SOL    HW128682   4.711   6.907   6.802
 9261SOL    HW228683   4.660   7.025   6.903
 9262SOL     OW28684   4.805   1.456   5.722
 9262SOL    HW128685   4.746   1.394   5.669
 9262SOL    HW228686   4.750   1.507   5.788
 9263SOL     OW28687   5.234   3.923   1.696
 9263SOL    HW128688   5.222   3.833   1.737
 9263SOL    HW228689   5.145   3.957   1.663
 9264SOL     OW28690   6.125   3.822   0.763
 9264SOL    HW128691   6.120   3.850   0.667
 9264SOL    HW228692   6.093   3.728   0.772
 9265SOL     OW28693   1.707   0.883   6.740
 9265SOL    HW128694   1.695   0.792   6.780
 9265SOL    HW228695   1.631   0.941   6.768
 9266SOL     OW28696   1.745   5.985   2.892
 9266SOL    HW128697   1.772   5.918   2.961
 9266SOL    HW228698   1.792   5.965   2.806
 9267SOL     OW28699   1.763   4.695   4.985
 9267SOL    HW128700   1.812   4.609   4.968
 9267SOL    HW228701   1.809   4.769   4.935
 9268SOL     OW28702   0.447   0.446   2.986
 9268SOL    HW128703   0.348   0.454   2.979
 9268SOL    HW228704   0.485   0.530   3.025
 9269SOL     OW28705   3.407   1.199   6.067
 9269SOL    HW128706   3.334   1.265   6.086
 9269SOL    HW228707   3.391   1.116   6.122
 9270SOL     OW28708   6.893   0.119   5.587
 9270SOL    HW128709   6.952   0.136   5.508
 9270SOL    HW228710   6.851   0.204   5.616
 9271SOL     OW28711   1.521   5.014   0.371
 9271SOL    HW128712   1.610   4.976   0.348
 9271SOL    HW228713   1.530   5.110   0.396
 9272SOL     OW28714   2.724   4.766   6.204
 9272SOL    HW128715   2.811   4.811   6.225
 9272SOL    HW228716   2.714   4.685   6.260
 9273SOL     OW28717   4.225   6.180   4.936
 9273SOL    HW128718   4.273   6.099   4.903
 9273SOL    HW228719   4.210   6.243   4.859
 9274SOL     OW28720   6.297   2.069   0.233
 9274SOL    HW128721   6.394   2.070   0.258
 9274SOL    HW228722   6.242   2.089   0.314
 9275SOL     OW28723   0.838   0.253   6.883
 9275SOL    HW128724   0.759   0.236   6.825
 9275SOL    HW228725   0.920   0.218   6.839
 9276SOL     OW28726   4.717   6.192   4.966
 9276SOL    HW128727   4.757   6.100   4.966
 9276SOL    HW228728   4.791   6.260   4.966
 9277SOL     OW28729   3.585   3.191   0.086
 9277SOL    HW128730   3.614   3.248   0.009
 9277SOL    HW228731   3.648   3.114   0.096
 9278SOL     OW28732   0.920   2.163   1.876
 9278SOL    HW128733   0.915   2.250   1.827
 9278SOL    HW228734   0.887   2.090   1.817
 9279SOL     OW28735   3.498   6.929   2.077
 9279SOL    HW128736   3.400   6.942   2.064
 9279SOL    HW228737   3.535   7.004   2.132
 9280SOL     OW28738   2.271   6.990   3.787
 9280SOL    HW128739   2.273   6.988   3.688
 9280SOL    HW228740   2.330   6.918   3.824
 9281SOL     OW28741   2.211   2.163   0.198
 9281SOL    HW128742   2.217   2.231   0.271
 9281SOL    HW228743   2.164   2.202   0.119
 9282SOL     OW28744   4.764   2.120   5.849
 9282SOL    HW128745   4.772   2.022   5.836
 9282SOL    HW228746   4.765   2.166   5.760
 9283SOL     OW28747   5.841   2.178   2.352
 9283SOL    HW128748   5.798   2.096   2.315
 9283SOL    HW228749   5.791   2.259   2.321
 9284SOL     OW28750   2.884   3.429   1.557
 9284SOL    HW128751   2.826   3.485   1.499
 9284SOL    HW228752   2.830   3.356   1.599
 9285SOL     OW28753   6.349   3.174   6.740
 9285SOL    HW128754   6.357   3.269   6.770
 9285SOL    HW228755   6.298   3.122   6.808
 9286SOL     OW28756   5.499   6.717   5.288
 9286SOL    HW128757   5.597   6.700   5.280
 9286SOL    HW228758   5.453   6.696   5.202
 9287SOL     OW28759   3.284   6.672   1.712
 9287SOL    HW128760   3.297   6.626   1.800
 9287SOL    HW228761   3.314   6.611   1.638
 9288SOL     OW28762   5.012   2.517   5.800
 9288SOL    HW128763   5.095   2.571   5.812
 9288SOL    HW228764   4.984   2.520   5.704
 9289SOL     OW28765   5.014   3.205   2.805
 9289SOL    HW128766   5.024   3.171   2.898
 9289SOL    HW228767   4.944   3.276   2.802
 9290SOL     OW28768   4.963   1.662   4.885
 9290SOL    HW128769   4.880   1.718   4.886
 9290SOL    HW228770   5.041   1.719   4.858
 9291SOL     OW28771   0.693   1.663   4.397
 9291SOL    HW128772   0.707   1.756   4.433
 9291SOL    HW228773   0.623   1.665   4.326
 9292SOL     OW28774   0.307   3.242   6.768
 9292SOL    HW128775   0.278   3.161   6.717
 9292SOL    HW228776   0.237   3.267   6.835
 9293SOL     OW28777   5.478   3.953   6.988
 9293SOL    HW128778   5.476   4.053   6.986
 9293SOL    HW228779   5.573   3.922   6.983
 9294SOL     OW28780   6.540   6.178   6.792
 9294SOL    HW128781   6.473   6.155   6.720
 9294SOL    HW228782   6.527   6.274   6.818
 9295SOL     OW28783   4.762   1.495   3.239
 9295SOL    HW128784   4.719   1.433   3.306
 9295SOL    HW228785   4.692   1.555   3.201
 9296SOL     OW28786   5.979   0.415   5.490
 9296SOL    HW128787   5.899   0.438   5.434
 9296SOL    HW228788   5.949   0.382   5.580
 9297SOL     OW28789   0.566   1.253   0.483
 9297SOL    HW128790   0.595   1.157   0.485
 9297SOL    HW228791   0.482   1.263   0.537
 9298SOL     OW28792   1.140   5.917   4.791
 9298SOL    HW128793   1.170   5.987   4.856
 9298SOL    HW228794   1.075   5.856   4.836
 9299SOL     OW28795   1.995   2.954   4.341
 9299SOL    HW128796   2.092   2.968   4.362
 9299SOL    HW228797   1.983   2.944   4.243
 9300SOL     OW28798   5.525   4.633   4.524
 9300SOL    HW128799   5.548   4.728   4.544
 9300SOL    HW228800   5.609   4.580   4.513
 9301SOL     OW28801   5.252   4.294   2.662
 9301SOL    HW128802   5.229   4.199   2.686
 9301SOL    HW228803   5.293   4.339   2.741
 9302SOL     OW28804   2.105   2.032   2.419
 9302SOL    HW128805   2.198   2.066   2.437
 9302SOL    HW228806   2.074   1.977   2.497
 9303SOL     OW28807   3.757   5.451   0.357
 9303SOL    HW128808   3.815   5.397   0.295
 9303SOL    HW228809   3.759   5.410   0.448
 9304SOL     OW28810   3.667   3.435   0.975
 9304SOL    HW128811   3.616   3.516   0.946
 9304SOL    HW228812   3.722   3.458   1.055
 9305SOL     OW28813   5.395   2.865   2.123
 9305SOL    HW128814   5.375   2.768   2.112
 9305SOL    HW228815   5.478   2.889   2.073
 9306SOL     OW28816   0.028   3.923   3.904
 9306SOL    HW128817   6.968   3.879   3.933
 9306SOL    HW228818   0.036   3.919   3.805
 9307SOL     OW28819   1.954   1.745   6.885
 9307SOL    HW128820   1.945   1.715   6.980
 9307SOL    HW228821   1.873   1.798   6.859
 9308SOL     OW28822   6.981   2.921   0.893
 9308SOL    HW128823   6.887   2.943   0.921
 9308SOL    HW228824   6.980   2.887   0.799
 9309SOL     OW28825   4.984   3.150   6.045
 9309SOL    HW128826   5.039   3.157   6.128
 9309SOL    HW228827   4.918   3.076   6.056
 9310SOL     OW28828   4.063   5.621   6.665
 9310SOL    HW128829   4.122   5.543   6.641
 9310SOL    HW228830   4.097   5.703   6.620
 9311SOL     OW28831   6.240   3.216   1.086
 9311SOL    HW128832   6.228   3.233   1.184
 9311SOL    HW228833   6.151   3.218   1.041
 9312SOL     OW28834   1.503   4.320   6.454
 9312SOL    HW128835   1.590   4.366   6.468
 9312SOL    HW228836   1.503   4.274   6.365
 9313SOL     OW28837   6.471   6.773   2.828
 9313SOL    HW128838   6.389   6.816   2.866
 9313SOL    HW228839   6.551   6.831   2.845
 9314SOL     OW28840   5.098   4.462   0.072
 9314SOL    HW128841   5.129   4.491   0.163
 9314SOL    HW228842   5.027   4.524   0.040
 9315SOL     OW28843   0.351   6.476   6.124
 9315SOL    HW128844   0.303   6.394   6.092
 9315SOL    HW228845   0.378   6.464   6.219
 9316SOL     OW28846   4.073   5.898   3.868
 9316SOL    HW128847   4.063   5.953   3.785
 9316SOL    HW228848   4.004   5.824   3.866
 9317SOL     OW28849   6.430   4.444   4.109
 9317SOL    HW128850   6.460   4.503   4.034
 9317SOL    HW228851   6.425   4.498   4.193
 9318SOL     OW28852   6.607   0.229   5.969
 9318SOL    HW128853   6.543   0.304   5.957
 9318SOL    HW228854   6.701   0.264   5.965
 9319SOL     OW28855   0.257   3.415   5.184
 9319SOL    HW128856   0.163   3.442   5.203
 9319SOL    HW228857   0.301   3.385   5.268
 9320SOL     OW28858   4.561   2.567   6.316
 9320SOL    HW128859   4.494   2.547   6.388
 9320SOL    HW228860   4.643   2.607   6.357
 9321SOL     OW28861   6.585   5.628   3.077
 9321SOL    HW128862   6.539   5.611   3.164
 9321SOL    HW228863   6.675   5.668   3.094
 9322SOL     OW28864   1.026   6.188   6.792
 9322SOL    HW128865   1.104   6.213   6.849
 9322SOL    HW228866   0.998   6.094   6.812
 9323SOL     OW28867   0.260   0.636   6.197
 9323SOL    HW128868   0.293   0.586   6.117
 9323SOL    HW228869   0.225   0.572   6.264
 9324SOL     OW28870   1.772   5.429   6.930
 9324SOL    HW128871   1.828   5.501   6.972
 9324SOL    HW228872   1.763   5.446   6.832
 9325SOL     OW28873   6.254   2.417   1.238
 9325SOL    HW128874   6.155   2.401   1.237
 9325SOL    HW228875   6.273   2.505   1.281
 9326SOL     OW28876   2.079   6.507   1.336
 9326SOL    HW128877   1.983   6.494   1.313
 9326SOL    HW228878   2.112   6.427   1.386
 9327SOL     OW28879   4.117   1.436   3.269
 9327SOL    HW128880   4.047   1.376   3.229
 9327SOL    HW228881   4.136   1.511   3.206
 9328SOL     OW28882   3.260   1.249   1.753
 9328SOL    HW128883   3.230   1.154   1.765
 9328SOL    HW228884   3.207   1.293   1.682
 9329SOL     OW28885   1.810   3.488   1.424
 9329SOL    HW128886   1.823   3.586   1.416
 9329SOL    HW228887   1.733   3.459   1.366
 9330SOL     OW28888   5.523   0.975   0.004
 9330SOL    HW128889   5.606   1.017   6.992
 9330SOL    HW228890   5.451   1.044   0.009
 9331SOL     OW28891   0.664   1.306   6.940
 9331SOL    HW128892   0.564   1.304   6.944
 9331SOL    HW228893   0.698   1.223   6.896
 9332SOL     OW28894   3.522   3.318   4.098
 9332SOL    HW128895   3.487   3.344   4.188
 9332SOL    HW228896   3.578   3.236   4.106
 9333SOL     OW28897   5.903   4.842   1.054
 9333SOL    HW128898   5.878   4.924   1.001
 9333SOL    HW228899   5.819   4.797   1.085
 9334SOL     OW28900   2.716   6.815   5.046
 9334SOL    HW128901   2.639   6.870   5.014
 9334SOL    HW228902   2.728   6.829   5.144
 9335SOL     OW28903   0.417   0.951   0.657
 9335SOL    HW128904   0.471   0.883   0.707
 9335SOL    HW228905   0.460   0.969   0.569
 9336SOL     OW28906   3.124   6.752   5.658
 9336SOL    HW128907   3.195   6.814   5.627
 9336SOL    HW228908   3.072   6.795   5.732
 9337SOL     OW28909   5.342   0.517   2.558
 9337SOL    HW128910   5.336   0.511   2.458
 9337SOL    HW228911   5.324   0.427   2.598
 9338SOL     OW28912   3.788   0.207   1.783
 9338SOL    HW128913   3.793   0.109   1.805
 9338SOL    HW228914   3.845   0.225   1.702
 9339SOL     OW28915   4.589   6.294   0.846
 9339SOL    HW128916   4.599   6.390   0.872
 9339SOL    HW228917   4.633   6.236   0.915
 9340SOL     OW28918   6.212   3.349   0.018
 9340SOL    HW128919   6.218   3.361   6.945
 9340SOL    HW228920   6.183   3.435   0.060
 9341SOL     OW28921   0.121   5.290   6.346
 9341SOL    HW128922   0.101   5.233   6.425
 9341SOL    HW228923   0.215   5.273   6.316
 9342SOL     OW28924   1.295   6.375   5.999
 9342SOL    HW128925   1.256   6.297   5.949
 9342SOL    HW228926   1.226   6.416   6.058
 9343SOL     OW28927   6.158   5.531   5.079
 9343SOL    HW128928   6.143   5.433   5.062
 9343SOL    HW228929   6.086   5.584   5.034
 9344SOL     OW28930   5.127   6.774   1.643
 9344SOL    HW128931   5.049   6.836   1.639
 9344SOL    HW228932   5.151   6.757   1.739
 9345SOL     OW28933   6.613   2.879   0.938
 9345SOL    HW128934   6.639   2.976   0.937
 9345SOL    HW228935   6.645   2.837   1.023
 9346SOL     OW28936   5.433   0.001   0.654
 9346SOL    HW128937   5.524   6.994   0.678
 9346SOL    HW228938   5.392   0.047   0.732
 9347SOL     OW28939   1.544   6.726   1.753
 9347SOL    HW128940   1.546   6.633   1.791
 9347SOL    HW228941   1.518   6.722   1.656
 9348SOL     OW28942   3.062   4.701   0.033
 9348SOL    HW128943   2.965   4.717   0.016
 9348SOL    HW228944   3.113   4.786   0.024
 9349SOL     OW28945   1.884   6.582   2.867
 9349SOL    HW128946   1.919   6.670   2.835
 9349SOL    HW228947   1.957   6.514   2.865
 9350SOL     OW28948   0.851   3.030   6.122
 9350SOL    HW128949   0.813   3.023   6.214
 9350SOL    HW228950   0.929   2.968   6.114
 9351SOL     OW28951   2.724   1.465   6.700
 9351SOL    HW128952   2.716   1.408   6.618
 9351SOL    HW228953   2.634   1.480   6.740
 9352SOL     OW28954   2.288   4.564   5.421
 9352SOL    HW128955   2.363   4.499   5.413
 9352SOL    HW228956   2.271   4.607   5.332
 9353SOL     OW28957   6.749   0.328   1.137
 9353SOL    HW128958   6.704   0.239   1.136
 9353SOL    HW228959   6.687   0.396   1.176
 9354SOL     OW28960   0.329   2.153   6.447
 9354SOL    HW128961   0.333   2.085   6.374
 9354SOL    HW228962   0.383   2.121   6.525
 9355SOL     OW28963   0.621   1.451   5.640
 9355SOL    HW128964   0.693   1.451   5.710
 9355SOL    HW228965   0.647   1.512   5.565
 9356SOL     OW28966   5.561   6.696   2.871
 9356SOL    HW128967   5.477   6.751   2.872
 9356SOL    HW228968   5.555   6.625   2.941
 9357SOL     OW28969   1.011   2.085   6.900
 9357SOL    HW128970   1.033   2.058   6.994
 9357SOL    HW228971   0.938   2.027   6.865
 9358SOL     OW28972   0.866   3.481   1.265
 9358SOL    HW128973   0.790   3.492   1.201
 9358SOL    HW228974   0.830   3.464   1.357
 9359SOL     OW28975   1.532   0.564   5.636
 9359SOL    HW128976   1.555   0.659   5.656
 9359SOL    HW228977   1.567   0.539   5.545
 9360SOL     OW28978   1.288   6.927   6.262
 9360SOL    HW128979   1.258   6.888   6.175
 9360SOL    HW228980   1.386   6.943   6.260
 9361SOL     OW28981   1.813   5.987   4.143
 9361SOL    HW128982   1.901   5.983   4.095
 9361SOL    HW228983   1.817   6.059   4.213
 9362SOL     OW28984   2.029   0.067   2.281
 9362SOL    HW128985   2.054   7.009   2.232
 9362SOL    HW228986   2.083   0.073   2.365
 9363SOL     OW28987   1.833   4.805   2.382
 9363SOL    HW128988   1.767   4.736   2.353
 9363SOL    HW228989   1.871   4.779   2.471
 9364SOL     OW28990   1.164   2.557   1.273
 9364SOL    HW128991   1.164   2.520   1.366
 9364SOL    HW228992   1.160   2.656   1.276
 9365SOL     OW28993   3.006   1.738   4.220
 9365SOL    HW128994   3.088   1.681   4.206
 9365SOL    HW228995   3.015   1.822   4.166
 9366SOL     OW28996   4.106   5.456   1.750
 9366SOL    HW128997   4.141   5.445   1.842
 9366SOL    HW228998   4.107   5.368   1.703
 9367SOL     OW28999   0.028   0.792   1.423
 9367SOL    HW129000   0.098   0.735   1.466
 9367SOL    HW229001   6.985   0.734   1.379
 9368SOL     OW29002   2.964   0.015   3.244
 9368SOL    HW129003   3.028   6.992   3.185
 9368SOL    HW229004   2.992   0.002   3.340
 9369SOL     OW29005   3.217   5.472   0.279
 9369SOL    HW129006   3.141   5.420   0.318
 9369SOL    HW229007   3.298   5.413   0.274
 9370SOL     OW29008   4.620   1.903   4.425
 9370SOL    HW129009   4.702   1.959   4.410
 9370SOL    HW229010   4.633   1.813   4.383
 9371SOL     OW29011   4.493   5.565   1.345
 9371SOL    HW129012   4.494   5.664   1.337
 9371SOL    HW229013   4.519   5.524   1.258
 9372SOL     OW29014   4.602   6.164   1.636
 9372SOL    HW129015   4.513   6.209   1.645
 9372SOL    HW229016   4.675   6.232   1.644
 9373SOL     OW29017   6.993   2.584   1.131
 9373SOL    HW129018   0.017   2.637   1.063
 9373SOL    HW229019   6.898   2.571   1.101
 9374SOL     OW29020   0.252   5.466   5.436
 9374SOL    HW129021   0.240   5.411   5.520
 9374SOL    HW229022   0.197   5.425   5.363
 9375SOL     OW29023   0.413   1.023   0.187
 9375SOL    HW129024   0.436   1.063   0.276
 9375SOL    HW229025   0.473   0.945   0.170
 9376SOL     OW29026   2.392   4.076   1.558
 9376SOL    HW129027   2.450   4.127   1.622
 9376SOL    HW229028   2.448   4.012   1.505
 9377SOL     OW29029   1.661   0.855   3.250
 9377SOL    HW129030   1.694   0.883   3.341
 9377SOL    HW229031   1.561   0.855   3.251
 9378SOL     OW29032   3.414   0.955   4.816
 9378SOL    HW129033   3.477   0.920   4.746
 9378SOL    HW229034   3.374   1.040   4.784
 9379SOL     OW29035   4.796   6.665   4.393
 9379SOL    HW129036   4.856   6.662   4.473
 9379SOL    HW229037   4.807   6.581   4.341
 9380SOL     OW29038   5.294   5.738   6.980
 9380SOL    HW129039   5.394   5.734   6.979
 9380SOL    HW229040   5.262   5.738   0.050
 9381SOL     OW29041   5.656   1.510   4.928
 9381SOL    HW129042   5.614   1.420   4.919
 9381SOL    HW229043   5.714   1.511   5.009
 9382SOL     OW29044   3.195   5.732   5.744
 9382SOL    HW129045   3.195   5.701   5.839
 9382SOL    HW229046   3.154   5.663   5.685
 9383SOL     OW29047   5.729   3.959   2.730
 9383SOL    HW129048   5.668   4.036   2.748
 9383SOL    HW229049   5.757   3.918   2.816
 9384SOL     OW29050   2.446   0.717   1.978
 9384SOL    HW129051   2.483   0.797   1.931
 9384SOL    HW229052   2.511   0.687   2.048
 9385SOL     OW29053   4.632   1.735   4.106
 9385SOL    HW129054   4.663   1.733   4.011
 9385SOL    HW229055   4.595   1.825   4.128
 9386SOL     OW29056   4.988   5.937   0.326
 9386SOL    HW129057   5.000   5.984   0.414
 9386SOL    HW229058   4.894   5.904   0.319
 9387SOL     OW29059   2.889   2.362   0.234
 9387SOL    HW129060   2.963   2.386   0.298
 9387SOL    HW229061   2.801   2.369   0.281
 9388SOL     OW29062   2.049   0.032   5.333
 9388SOL    HW129063   2.007   6.968   5.318
 9388SOL    HW229064   2.043   0.086   5.249
 9389SOL     OW29065   1.976   5.012   2.252
 9389SOL    HW129066   2.040   5.007   2.175
 9389SOL    HW229067   1.947   4.920   2.277
 9390SOL     OW29068   5.109   4.986   4.514
 9390SOL    HW129069   5.148   4.977   4.606
 9390SOL    HW229070   5.099   4.895   4.473
 9391SOL     OW29071   1.543   3.965   4.256
 9391SOL    HW129072   1.595   4.047   4.279
 9391SOL    HW229073   1.599   3.884   4.270
 9392SOL     OW29074   5.157   4.629   2.951
 9392SOL    HW129075   5.068   4.601   2.914
 9392SOL    HW229076   5.162   4.729   2.954
 9393SOL     OW29077   2.179   6.178   6.323
 9393SOL    HW129078   2.160   6.206   6.417
 9393SOL    HW229079   2.093   6.174   6.271
 9394SOL     OW29080   3.833   0.784   0.552
 9394SOL    HW129081   3.814   0.693   0.516
 9394SOL    HW229082   3.766   0.849   0.517
 9395SOL     OW29083   1.584   1.763   0.808
 9395SOL    HW129084   1.657   1.697   0.793
 9395SOL    HW229085   1.561   1.766   0.905
 9396SOL     OW29086   1.138   6.693   6.388
 9396SOL    HW129087   1.062   6.681   6.325
 9396SOL    HW229088   1.201   6.762   6.351
 9397SOL     OW29089   3.272   0.609   4.844
 9397SOL    HW129090   3.310   0.589   4.754
 9397SOL    HW229091   3.264   0.525   4.896
 9398SOL     OW29092   0.602   2.133   0.028
 9398SOL    HW129093   0.670   2.201   0.057
 9398SOL    HW229094   0.516   2.149   0.075
 9399SOL     OW29095   0.971   2.832   4.454
 9399SOL    HW129096   1.061   2.790   4.444
 9399SOL    HW229097   0.952   2.848   4.551
 9400SOL     OW29098   5.595   1.272   1.274
 9400SOL    HW129099   5.622   1.364   1.246
 9400SOL    HW229100   5.671   1.230   1.325
 9401SOL     OW29101   0.444   2.350   3.819
 9401SOL    HW129102   0.457   2.422   3.887
 9401SOL    HW229103   0.363   2.296   3.843
 9402SOL     OW29104   2.455   6.642   4.776
 9402SOL    HW129105   2.500   6.731   4.785
 9402SOL    HW229106   2.524   6.570   4.774
 9403SOL     OW29107   5.754   2.270   1.976
 9403SOL    HW129108   5.712   2.200   2.034
 9403SOL    HW229109   5.785   2.227   1.891
 9404SOL     OW29110   2.412   2.344   0.772
 9404SOL    HW129111   2.422   2.315   0.867
 9404SOL    HW229112   2.454   2.276   0.712
 9405SOL     OW29113   6.811   5.598   5.380
 9405SOL    HW129114   6.732   5.537   5.382
 9405SOL    HW229115   6.833   5.627   5.474
 9406SOL     OW29116   0.792   2.243   0.506
 9406SOL    HW129117   0.817   2.228   0.601
 9406SOL    HW229118   0.808   2.159   0.453
 9407SOL     OW29119   1.980   4.745   5.400
 9407SOL    HW129120   1.921   4.701   5.468
 9407SOL    HW229121   1.945   4.837   5.381
 9408SOL     OW29122   6.788   3.789   4.249
 9408SOL    HW129123   6.816   3.824   4.338
 9408SOL    HW229124   6.869   3.770   4.193
 9409SOL     OW29125   6.238   5.339   2.389
 9409SOL    HW129126   6.257   5.354   2.487
 9409SOL    HW229127   6.304   5.273   2.353
 9410SOL     OW29128   3.961   0.713   1.085
 9410SOL    HW129129   3.912   0.633   1.122
 9410SOL    HW229130   3.933   0.728   0.990
 9411SOL     OW29131   3.018   3.679   3.124
 9411SOL    HW129132   3.108   3.675   3.081
 9411SOL    HW229133   2.952   3.628   3.069
 9412SOL     OW29134   4.888   6.009   1.778
 9412SOL    HW129135   4.815   5.943   1.794
 9412SOL    HW229136   4.871   6.093   1.830
 9413SOL     OW29137   4.789   3.994   3.000
 9413SOL    HW129138   4.857   3.991   2.927
 9413SOL    HW229139   4.799   3.914   3.058
 9414SOL     OW29140   2.157   2.123   3.470
 9414SOL    HW129141   2.213   2.042   3.482
 9414SOL    HW229142   2.216   2.202   3.453
 9415SOL     OW29143   5.006   1.126   2.176
 9415SOL    HW129144   5.038   1.221   2.188
 9415SOL    HW229145   5.039   1.091   2.089
 9416SOL     OW29146   5.305   4.991   5.477
 9416SOL    HW129147   5.390   4.969   5.525
 9416SOL    HW229148   5.230   4.937   5.517
 9417SOL     OW29149   3.215   5.898   2.705
 9417SOL    HW129150   3.123   5.859   2.712
 9417SOL    HW229151   3.283   5.825   2.709
 9418SOL     OW29152   2.955   1.983   5.397
 9418SOL    HW129153   2.878   2.015   5.343
 9418SOL    HW229154   3.041   2.011   5.354
 9419SOL     OW29155   1.544   3.120   6.632
 9419SOL    HW129156   1.644   3.120   6.621
 9419SOL    HW229157   1.521   3.098   6.726
 9420SOL     OW29158   5.881   4.134   6.157
 9420SOL    HW129159   5.829   4.116   6.073
 9420SOL    HW229160   5.887   4.050   6.211
 9421SOL     OW29161   3.800   6.480   6.914
 9421SOL    HW129162   3.829   6.470   6.819
 9421SOL    HW229163   3.874   6.452   6.975
 9422SOL     OW29164   2.221   6.498   6.045
 9422SOL    HW129165   2.310   6.472   6.080
 9422SOL    HW229166   2.179   6.420   5.998
 9423SOL     OW29167   4.401   4.562   2.442
 9423SOL    HW129168   4.458   4.529   2.367
 9423SOL    HW229169   4.321   4.609   2.405
 9424SOL     OW29170   6.191   0.261   3.992
 9424SOL    HW129171   6.281   0.241   4.031
 9424SOL    HW229172   6.148   0.175   3.965
 9425SOL     OW29173   6.694   3.996   1.149
 9425SOL    HW129174   6.719   4.056   1.073
 9425SOL    HW229175   6.731   3.904   1.133
 9426SOL     OW29176   6.150   3.151   6.006
 9426SOL    HW129177   6.168   3.189   6.097
 9426SOL    HW229178   6.053   3.164   5.984
 9427SOL     OW29179   4.530   4.427   2.694
 9427SOL    HW129180   4.551   4.333   2.721
 9427SOL    HW229181   4.435   4.432   2.661
 9428SOL     OW29182   1.262   5.912   5.673
 9428SOL    HW129183   1.188   5.875   5.729
 9428SOL    HW229184   1.224   5.962   5.595
 9429SOL     OW29185   2.376   2.506   4.365
 9429SOL    HW129186   2.399   2.519   4.462
 9429SOL    HW229187   2.281   2.480   4.356
 9430SOL     OW29188   1.397   1.782   4.073
 9430SOL    HW129189   1.497   1.792   4.077
 9430SOL    HW229190   1.361   1.776   4.167
 9431SOL     OW29191   0.590   4.484   5.503
 9431SOL    HW129192   0.665   4.426   5.534
 9431SOL    HW229193   0.624   4.552   5.438
 9432SOL     OW29194   6.913   0.883   3.847
 9432SOL    HW129195   6.999   0.876   3.796
 9432SOL    HW229196   6.853   0.948   3.801
 9433SOL     OW29197   4.780   5.596   1.638
 9433SOL    HW129198   4.872   5.565   1.661
 9433SOL    HW229199   4.785   5.674   1.576
 9434SOL     OW29200   4.294   5.748   3.932
 9434SOL    HW129201   4.268   5.668   3.878
 9434SOL    HW229202   4.217   5.812   3.938
 9435SOL     OW29203   6.407   3.834   0.913
 9435SOL    HW129204   6.422   3.865   1.007
 9435SOL    HW229205   6.357   3.747   0.914
 9436SOL     OW29206   2.584   0.567   3.161
 9436SOL    HW129207   2.492   0.601   3.181
 9436SOL    HW229208   2.641   0.576   3.242
 9437SOL     OW29209   5.367   0.691   4.964
 9437SOL    HW129210   5.341   0.621   5.031
 9437SOL    HW229211   5.463   0.679   4.939
 9438SOL     OW29212   4.744   0.207   2.274
 9438SOL    HW129213   4.774   0.162   2.190
 9438SOL    HW229214   4.763   0.147   2.352
 9439SOL     OW29215   1.621   3.925   0.860
 9439SOL    HW129216   1.566   3.973   0.929
 9439SOL    HW229217   1.655   3.990   0.793
 9440SOL     OW29218   2.143   4.875   3.507
 9440SOL    HW129219   2.127   4.839   3.599
 9440SOL    HW229220   2.056   4.877   3.457
 9441SOL     OW29221   0.074   6.588   4.479
 9441SOL    HW129222   0.043   6.497   4.452
 9441SOL    HW229223   0.067   6.650   4.400
 9442SOL     OW29224   5.983   3.131   0.980
 9442SOL    HW129225   5.971   3.038   0.945
 9442SOL    HW229226   5.901   3.160   1.029
 9443SOL     OW29227   2.041   4.476   2.120
 9443SOL    HW129228   1.948   4.494   2.088
 9443SOL    HW229229   2.038   4.427   2.207
 9444SOL     OW29230   2.184   4.848   6.576
 9444SOL    HW129231   2.193   4.828   6.673
 9444SOL    HW229232   2.198   4.765   6.523
 9445SOL     OW29233   0.132   1.750   4.297
 9445SOL    HW129234   0.218   1.769   4.250
 9445SOL    HW229235   0.099   1.660   4.270
 9446SOL     OW29236   6.082   3.703   4.559
 9446SOL    HW129237   6.135   3.787   4.556
 9446SOL    HW229238   6.144   3.625   4.548
 9447SOL     OW29239   4.935   4.051   1.968
 9447SOL    HW129240   4.875   4.086   2.040
 9447SOL    HW229241   5.012   4.114   1.955
 9448SOL     OW29242   6.382   1.971   6.327
 9448SOL    HW129243   6.305   1.927   6.373
 9448SOL    HW229244   6.424   2.037   6.389
 9449SOL     OW29245   5.547   0.001   2.627
 9449SOL    HW129246   5.523   0.069   2.557
 9449SOL    HW229247   5.472   7.017   2.692
 9450SOL     OW29248   1.241   6.266   3.531
 9450SOL    HW129249   1.317   6.324   3.501
 9450SOL    HW229250   1.266   6.221   3.616
 9451SOL     OW29251   3.994   5.335   0.139
 9451SOL    HW129252   3.974   5.239   0.117
 9451SOL    HW229253   4.085   5.342   0.179
 9452SOL     OW29254   6.270   4.345   6.627
 9452SOL    HW129255   6.240   4.439   6.613
 9452SOL    HW229256   6.335   4.341   6.703
 9453SOL     OW29257   5.443   4.595   1.608
 9453SOL    HW129258   5.396   4.514   1.574
 9453SOL    HW229259   5.433   4.600   1.707
 9454SOL     OW29260   5.863   4.860   0.317
 9454SOL    HW129261   5.899   4.954   0.320
 9454SOL    HW229262   5.773   4.861   0.274
 9455SOL     OW29263   3.945   0.912   1.848
 9455SOL    HW129264   4.027   0.859   1.828
 9455SOL    HW229265   3.945   0.940   1.944
 9456SOL     OW29266   6.612   1.975   3.512
 9456SOL    HW129267   6.596   2.071   3.535
 9456SOL    HW229268   6.702   1.947   3.545
 9457SOL     OW29269   6.363   6.137   4.713
 9457SOL    HW129270   6.341   6.211   4.776
 9457SOL    HW229271   6.323   6.157   4.623
 9458SOL     OW29272   5.979   3.785   6.932
 9458SOL    HW129273   5.954   3.772   6.836
 9458SOL    HW229274   6.075   3.813   6.938
 9459SOL     OW29275   4.727   4.360   4.979
 9459SOL    HW129276   4.686   4.452   4.979
 9459SOL    HW229277   4.821   4.366   4.945
 9460SOL     OW29278   1.107   3.233   2.090
 9460SOL    HW129279   1.045   3.236   2.169
 9460SOL    HW229280   1.166   3.153   2.098
 9461SOL     OW29281   1.764   1.560   1.557
 9461SOL    HW129282   1.847   1.615   1.549
 9461SOL    HW229283   1.685   1.619   1.567
 9462SOL     OW29284   6.937   1.188   4.788
 9462SOL    HW129285   6.851   1.139   4.798
 9462SOL    HW229286   6.954   1.205   4.691
 9463SOL     OW29287   6.185   4.349   1.087
 9463SOL    HW129288   6.142   4.295   1.015
 9463SOL    HW229289   6.255   4.293   1.133
 9464SOL     OW29290   1.388   0.328   1.554
 9464SOL    HW129291   1.428   0.256   1.611
 9464SOL    HW229292   1.441   0.337   1.470
 9465SOL     OW29293   6.656   5.333   0.835
 9465SOL    HW129294   6.578   5.388   0.867
 9465SOL    HW229295   6.626   5.239   0.818
 9466SOL     OW29296   4.363   3.858   5.610
 9466SOL    HW129297   4.422   3.909   5.547
 9466SOL    HW229298   4.418   3.791   5.659
 9467SOL     OW29299   1.566   2.850   1.037
 9467SOL    HW129300   1.496   2.779   1.023
 9467SOL    HW229301   1.529   2.938   1.010
 9468SOL     OW29302   5.852   1.113   0.730
 9468SOL    HW129303   5.762   1.122   0.689
 9468SOL    HW229304   5.843   1.083   0.825
 9469SOL     OW29305   6.779   6.712   1.294
 9469SOL    HW129306   6.836   6.640   1.253
 9469SOL    HW229307   6.726   6.673   1.369
 9470SOL     OW29308   3.420   3.079   0.325
 9470SOL    HW129309   3.436   3.096   0.228
 9470SOL    HW229310   3.504   3.047   0.368
 9471SOL     OW29311   6.397   2.477   4.801
 9471SOL    HW129312   6.367   2.513   4.712
 9471SOL    HW229313   6.427   2.553   4.859
 9472SOL     OW29314   1.575   3.787   5.771
 9472SOL    HW129315   1.653   3.744   5.725
 9472SOL    HW229316   1.610   3.848   5.843
 9473SOL     OW29317   2.836   4.023   1.181
 9473SOL    HW129318   2.856   3.948   1.117
 9473SOL    HW229319   2.824   3.986   1.273
 9474SOL     OW29320   5.128   4.150   0.972
 9474SOL    HW129321   5.200   4.085   0.947
 9474SOL    HW229322   5.153   4.242   0.940
 9475SOL     OW29323   4.873   3.915   5.705
 9475SOL    HW129324   4.795   3.877   5.656
 9475SOL    HW229325   4.883   4.012   5.682
 9476SOL     OW29326   4.223   3.969   1.222
 9476SOL    HW129327   4.233   3.870   1.225
 9476SOL    HW229328   4.224   4.005   1.316
 9477SOL     OW29329   2.688   4.846   0.394
 9477SOL    HW129330   2.590   4.862   0.406
 9477SOL    HW229331   2.702   4.757   0.350
 9478SOL     OW29332   5.705   3.666   6.033
 9478SOL    HW129333   5.802   3.670   6.059
 9478SOL    HW229334   5.662   3.753   6.055
 9479SOL     OW29335   4.664   0.819   1.699
 9479SOL    HW129336   4.645   0.762   1.779
 9479SOL    HW229337   4.729   0.890   1.723
 9480SOL     OW29338   5.825   0.650   1.285
 9480SOL    HW129339   5.873   0.611   1.207
 9480SOL    HW229340   5.729   0.665   1.261
 9481SOL     OW29341   4.653   0.410   3.388
 9481SOL    HW129342   4.748   0.399   3.361
 9481SOL    HW229343   4.608   0.320   3.389
 9482SOL     OW29344   6.252   5.550   6.494
 9482SOL    HW129345   6.254   5.455   6.464
 9482SOL    HW229346   6.339   5.594   6.473
 9483SOL     OW29347   6.767   6.767   7.011
 9483SOL    HW129348   6.709   6.707   0.040
 9483SOL    HW229349   6.712   6.812   6.941
 9484SOL     OW29350   3.328   6.082   4.702
 9484SOL    HW129351   3.375   6.134   4.630
 9484SOL    HW229352   3.382   6.086   4.786
 9485SOL     OW29353   7.019   1.111   5.982
 9485SOL    HW129354   0.056   1.034   5.990
 9485SOL    HW229355   0.029   1.188   6.036
 9486SOL     OW29356   6.422   5.275   6.809
 9486SOL    HW129357   6.486   5.330   6.863
 9486SOL    HW229358   6.338   5.327   6.795
 9487SOL     OW29359   3.255   3.736   2.958
 9487SOL    HW129360   3.288   3.826   2.986
 9487SOL    HW229361   3.265   3.726   2.859
 9488SOL     OW29362   1.359   0.691   1.268
 9488SOL    HW129363   1.364   0.757   1.343
 9488SOL    HW229364   1.400   0.730   1.186
 9489SOL     OW29365   5.484   3.250   0.280
 9489SOL    HW129366   5.469   3.284   0.373
 9489SOL    HW229367   5.401   3.204   0.248
 9490SOL     OW29368   5.290   3.376   5.083
 9490SOL    HW129369   5.298   3.278   5.061
 9490SOL    HW229370   5.358   3.427   5.030
 9491SOL     OW29371   5.358   0.271   2.733
 9491SOL    HW129372   5.457   0.266   2.741
 9491SOL    HW229373   5.318   0.183   2.760
 9492SOL     OW29374   5.147   2.852   3.649
 9492SOL    HW129375   5.109   2.765   3.680
 9492SOL    HW229376   5.073   2.917   3.634
 9493SOL     OW29377   3.959   6.357   1.204
 9493SOL    HW129378   3.977   6.353   1.303
 9493SOL    HW229379   3.877   6.304   1.183
 9494SOL     OW29380   5.971   1.833   1.910
 9494SOL    HW129381   6.066   1.808   1.894
 9494SOL    HW229382   5.968   1.913   1.970
 9495SOL     OW29383   6.319   2.643   1.404
 9495SOL    HW129384   6.284   2.736   1.401
 9495SOL    HW229385   6.418   2.645   1.417
 9496SOL     OW29386   5.861   2.008   1.536
 9496SOL    HW129387   5.843   1.969   1.626
 9496SOL    HW229388   5.958   1.998   1.515
 9497SOL     OW29389   4.583   4.582   4.900
 9497SOL    HW129390   4.561   4.534   4.816
 9497SOL    HW229391   4.503   4.584   4.960
 9498SOL     OW29392   1.167   5.675   4.227
 9498SOL    HW129393   1.134   5.654   4.135
 9498SOL    HW229394   1.212   5.595   4.266
 9499SOL     OW29395   5.471   5.597   4.608
 9499SOL    HW129396   5.408   5.664   4.648
 9499SOL    HW229397   5.543   5.575   4.674
 9500SOL     OW29398   3.082   1.959   0.643
 9500SOL    HW129399   3.069   1.993   0.550
 9500SOL    HW229400   3.121   2.032   0.700
 9501SOL     OW29401   2.155   3.826   4.849
 9501SOL    HW129402   2.161   3.876   4.762
 9501SOL    HW229403   2.218   3.867   4.915
 9502SOL     OW29404   5.272   4.708   3.978
 9502SOL    HW129405   5.227   4.755   3.902
 9502SOL    HW229406   5.368   4.693   3.956
 9503SOL     OW29407   6.028   0.815   0.455
 9503SOL    HW129408   6.094   0.742   0.474
 9503SOL    HW229409   5.942   0.774   0.425
 9504SOL     OW29410   6.189   5.518   1.675
 9504SOL    HW129411   6.232   5.446   1.730
 9504SOL    HW229412   6.091   5.521   1.696
 9505SOL     OW29413   4.780   4.319   6.220
 9505SOL    HW129414   4.812   4.235   6.176
 9505SOL    HW229415   4.760   4.388   6.150
 9506SOL     OW29416   2.688   0.920   1.092
 9506SOL    HW129417   2.627   0.980   1.040
 9506SOL    HW229418   2.639   0.835   1.114
 9507SOL     OW29419   5.817   0.045   2.781
 9507SOL    HW129420   5.887   7.001   2.796
 9507SOL    HW229421   5.753   0.013   2.710
 9508SOL     OW29422   4.559   1.367   2.637
 9508SOL    HW129423   4.501   1.410   2.706
 9508SOL    HW229424   4.655   1.389   2.655
 9509SOL     OW29425   5.496   1.116   3.100
 9509SOL    HW129426   5.404   1.144   3.072
 9509SOL    HW229427   5.490   1.066   3.187
 9510SOL     OW29428   1.946   2.692   3.381
 9510SOL    HW129429   1.881   2.617   3.371
 9510SOL    HW229430   1.899   2.780   3.370
 9511SOL     OW29431   0.193   1.696   0.787
 9511SOL    HW129432   0.131   1.725   0.860
 9511SOL    HW229433   0.253   1.772   0.761
 9512SOL     OW29434   6.782   1.842   1.565
 9512SOL    HW129435   6.780   1.743   1.578
 9512SOL    HW229436   6.872   1.877   1.587
 9513SOL     OW29437   4.552   4.079   5.479
 9513SOL    HW129438   4.574   4.153   5.542
 9513SOL    HW229439   4.477   4.108   5.419
 9514SOL     OW29440   3.716   2.953   0.058
 9514SOL    HW129441   3.755   2.927   6.995
 9514SOL    HW229442   3.724   2.876   0.122
 9515SOL     OW29443   0.711   5.569   3.819
 9515SOL    HW129444   0.666   5.569   3.729
 9515SOL    HW229445   0.806   5.539   3.808
 9516SOL     OW29446   6.832   4.132   6.513
 9516SOL    HW129447   6.746   4.083   6.532
 9516SOL    HW229448   6.899   4.069   6.476
 9517SOL     OW29449   0.405   6.489   1.462
 9517SOL    HW129450   0.468   6.420   1.426
 9517SOL    HW229451   0.450   6.541   1.535
 9518SOL     OW29452   1.052   0.390   0.880
 9518SOL    HW129453   1.132   0.355   0.928
 9518SOL    HW229454   0.990   0.434   0.946
 9519SOL     OW29455   1.020   2.957   5.347
 9519SOL    HW129456   1.082   2.881   5.328
 9519SOL    HW229457   0.979   2.990   5.261
 9520SOL     OW29458   4.416   6.720   1.819
 9520SOL    HW129459   4.354   6.713   1.740
 9520SOL    HW229460   4.466   6.806   1.815
 9521SOL     OW29461   5.267   5.582   3.166
 9521SOL    HW129462   5.270   5.501   3.107
 9521SOL    HW229463   5.312   5.560   3.253
 9522SOL     OW29464   3.166   5.933   0.360
 9522SOL    HW129465   3.089   5.965   0.416
 9522SOL    HW229466   3.164   5.978   0.271
 9523SOL     OW29467   2.717   6.375   6.031
 9523SOL    HW129468   2.740   6.471   6.043
 9523SOL    HW229469   2.734   6.349   5.936
 9524SOL     OW29470   4.446   2.358   1.178
 9524SOL    HW129471   4.370   2.339   1.116
 9524SOL    HW229472   4.527   2.382   1.124
 9525SOL     OW29473   4.022   0.234   4.836
 9525SOL    HW129474   4.040   0.276   4.925
 9525SOL    HW229475   4.087   0.268   4.768
 9526SOL     OW29476   4.632   6.305   2.046
 9526SOL    HW129477   4.567   6.267   2.112
 9526SOL    HW229478   4.654   6.400   2.071
 9527SOL     OW29479   6.742   2.229   1.340
 9527SOL    HW129480   6.813   2.178   1.291
 9527SOL    HW229481   6.714   2.177   1.421
 9528SOL     OW29482   6.987   1.153   1.621
 9528SOL    HW129483   6.991   1.056   1.644
 9528SOL    HW229484   0.049   1.196   1.643
 9529SOL     OW29485   0.995   3.849   5.020
 9529SOL    HW129486   1.030   3.871   5.111
 9529SOL    HW229487   0.915   3.790   5.029
 9530SOL     OW29488   1.420   2.615   4.469
 9530SOL    HW129489   1.435   2.573   4.379
 9530SOL    HW229490   1.339   2.575   4.511
 9531SOL     OW29491   3.002   6.534   3.583
 9531SOL    HW129492   3.010   6.485   3.496
 9531SOL    HW229493   2.933   6.488   3.640
 9532SOL     OW29494   2.646   1.460   1.995
 9532SOL    HW129495   2.706   1.540   1.987
 9532SOL    HW229496   2.556   1.481   1.956
 9533SOL     OW29497   1.321   1.047   4.553
 9533SOL    HW129498   1.369   0.959   4.544
 9533SOL    HW229499   1.254   1.040   4.627
 9534SOL     OW29500   5.169   1.961   4.372
 9534SOL    HW129501   5.234   1.969   4.296
 9534SOL    HW229502   5.171   1.868   4.408
 9535SOL     OW29503   3.035   2.025   4.614
 9535SOL    HW129504   3.094   1.978   4.680
 9535SOL    HW229505   3.003   2.111   4.655
 9536SOL     OW29506   2.571   6.589   6.822
 9536SOL    HW129507   2.556   6.510   6.763
 9536SOL    HW229508   2.486   6.642   6.829
 9537SOL     OW29509   2.653   6.586   0.650
 9537SOL    HW129510   2.726   6.574   0.717
 9537SOL    HW229511   2.692   6.597   0.559
 9538SOL     OW29512   6.158   3.944   3.399
 9538SOL    HW129513   6.193   3.857   3.365
 9538SOL    HW229514   6.222   3.981   3.466
 9539SOL     OW29515   0.358   3.737   0.452
 9539SOL    HW129516   0.367   3.664   0.383
 9539SOL    HW229517   0.361   3.826   0.407
 9540SOL     OW29518   5.684   2.927   5.718
 9540SOL    HW129519   5.622   3.000   5.691
 9540SOL    HW229520   5.767   2.966   5.758
 9541SOL     OW29521   0.204   1.766   3.224
 9541SOL    HW129522   0.302   1.748   3.232
 9541SOL    HW229523   0.190   1.844   3.163
 9542SOL     OW29524   4.757   4.347   4.616
 9542SOL    HW129525   4.747   4.282   4.541
 9542SOL    HW229526   4.669   4.391   4.634
 9543SOL     OW29527   5.283   2.233   1.705
 9543SOL    HW129528   5.201   2.237   1.761
 9543SOL    HW229529   5.264   2.182   1.621
 9544SOL     OW29530   3.983   1.375   1.849
 9544SOL    HW129531   4.079   1.363   1.823
 9544SOL    HW229532   3.928   1.390   1.768
 9545SOL     OW29533   1.160   0.123   4.432
 9545SOL    HW129534   1.251   0.083   4.435
 9545SOL    HW229535   1.164   0.213   4.388
 9546SOL     OW29536   2.170   4.953   2.042
 9546SOL    HW129537   2.188   4.856   2.057
 9546SOL    HW229538   2.255   5.005   2.050
 9547SOL     OW29539   6.064   5.466   3.681
 9547SOL    HW129540   5.969   5.449   3.706
 9547SOL    HW229541   6.108   5.523   3.750
 9548SOL     OW29542   5.050   0.291   2.673
 9548SOL    HW129543   5.045   0.379   2.626
 9548SOL    HW229544   5.092   0.223   2.613
 9549SOL     OW29545   2.363   5.547   0.598
 9549SOL    HW129546   2.283   5.488   0.609
 9549SOL    HW229547   2.373   5.605   0.678
 9550SOL     OW29548   1.194   0.930   0.293
 9550SOL    HW129549   1.271   0.992   0.298
 9550SOL    HW229550   1.221   0.846   0.245
 9551SOL     OW29551   1.204   6.143   5.860
 9551SOL    HW129552   1.128   6.101   5.910
 9551SOL    HW229553   1.239   6.078   5.792
 9552SOL     OW29554   0.389   5.170   3.369
 9552SOL    HW129555   0.428   5.235   3.434
 9552SOL    HW229556   0.460   5.141   3.304
 9553SOL     OW29557   5.681   4.503   6.063
 9553SOL    HW129558   5.736   4.508   6.146
 9553SOL    HW229559   5.584   4.512   6.087
 9554SOL     OW29560   1.961   2.043   1.497
 9554SOL    HW129561   1.971   1.988   1.414
 9554SOL    HW229562   2.051   2.056   1.539
 9555SOL     OW29563   0.385   2.676   6.280
 9555SOL    HW129564   0.342   2.686   6.190
 9555SOL    HW229565   0.419   2.583   6.291
 9556SOL     OW29566   6.589   1.573   0.617
 9556SOL    HW129567   6.636   1.517   0.685
 9556SOL    HW229568   6.574   1.665   0.653
 9557SOL     OW29569   5.298   1.905   2.227
 9557SOL    HW129570   5.329   1.830   2.285
 9557SOL    HW229571   5.363   1.981   2.234
 9558SOL     OW29572   6.212   4.661   1.870
 9558SOL    HW129573   6.215   4.571   1.826
 9558SOL    HW229574   6.125   4.706   1.848
 9559SOL     OW29575   6.788   3.902   2.426
 9559SOL    HW129576   6.860   3.899   2.495
 9559SOL    HW229577   6.766   3.809   2.396
 9560SOL     OW29578   4.069   2.174   5.127
 9560SOL    HW129579   4.084   2.273   5.121
 9560SOL    HW229580   4.086   2.143   5.221
 9561SOL     OW29581   3.055   6.609   5.963
 9561SOL    HW129582   3.007   6.594   6.049
 9561SOL    HW229583   3.146   6.647   5.981
 9562SOL     OW29584   5.779   4.805   4.429
 9562SOL    HW129585   5.766   4.886   4.373
 9562SOL    HW229586   5.735   4.726   4.386
 9563SOL     OW29587   0.487   6.240   6.788
 9563SOL    HW129588   0.586   6.243   6.773
 9563SOL    HW229589   0.465   6.269   6.881
 9564SOL     OW29590   1.569   0.574   6.369
 9564SOL    HW129591   1.649   0.585   6.427
 9564SOL    HW229592   1.517   0.494   6.398
 9565SOL     OW29593   3.655   5.956   4.033
 9565SOL    HW129594   3.584   5.887   4.016
 9565SOL    HW229595   3.722   5.918   4.097
 9566SOL     OW29596   3.548   4.734   6.267
 9566SOL    HW129597   3.635   4.763   6.227
 9566SOL    HW229598   3.565   4.685   6.353
 9567SOL     OW29599   6.098   5.314   4.937
 9567SOL    HW129600   6.017   5.299   4.880
 9567SOL    HW229601   6.180   5.311   4.880
 9568SOL     OW29602   5.376   3.860   6.082
 9568SOL    HW129603   5.449   3.891   6.143
 9568SOL    HW229604   5.356   3.764   6.098
 9569SOL     OW29605   5.451   6.787   2.193
 9569SOL    HW129606   5.477   6.880   2.168
 9569SOL    HW229607   5.363   6.765   2.151
 9570SOL     OW29608   0.728   1.596   6.730
 9570SOL    HW129609   0.725   1.499   6.757
 9570SOL    HW229610   0.713   1.603   6.631
 9571SOL     OW29611   2.167   2.605   0.260
 9571SOL    HW129612   2.082   2.640   0.301
 9571SOL    HW229613   2.199   2.526   0.313
 9572SOL     OW29614   0.305   3.646   1.279
 9572SOL    HW129615   0.345   3.670   1.190
 9572SOL    HW229616   0.279   3.729   1.327
 9573SOL     OW29617   5.220   0.956   2.319
 9573SOL    HW129618   5.186   0.863   2.327
 9573SOL    HW229619   5.142   1.019   2.311
 9574SOL     OW29620   3.049   1.895   3.543
 9574SOL    HW129621   3.063   1.825   3.473
 9574SOL    HW229622   2.951   1.902   3.564
 9575SOL     OW29623   4.570   1.117   2.910
 9575SOL    HW129624   4.622   1.147   2.989
 9575SOL    HW229625   4.603   1.164   2.828
 9576SOL     OW29626   3.982   3.109   5.161
 9576SOL    HW129627   3.961   3.014   5.188
 9576SOL    HW229628   3.899   3.165   5.170
 9577SOL     OW29629   0.776   5.824   3.504
 9577SOL    HW129630   0.791   5.784   3.594
 9577SOL    HW229631   0.800   5.921   3.506
 9578SOL     OW29632   6.503   4.476   1.806
 9578SOL    HW129633   6.419   4.438   1.768
 9578SOL    HW229634   6.493   4.575   1.817
 9579SOL     OW29635   1.858   5.468   3.061
 9579SOL    HW129636   1.856   5.492   3.158
 9579SOL    HW229637   1.768   5.486   3.020
 9580SOL     OW29638   4.145   3.183   5.849
 9580SOL    HW129639   4.119   3.151   5.758
 9580SOL    HW229640   4.062   3.198   5.903
 9581SOL     OW29641   1.022   5.792   5.506
 9581SOL    HW129642   1.042   5.813   5.601
 9581SOL    HW229643   0.966   5.865   5.466
 9582SOL     OW29644   4.514   5.137   3.139
 9582SOL    HW129645   4.544   5.222   3.096
 9582SOL    HW229646   4.416   5.126   3.128
 9583SOL     OW29647   1.757   5.204   1.915
 9583SOL    HW129648   1.683   5.267   1.939
 9583SOL    HW229649   1.725   5.138   1.848
 9584SOL     OW29650   4.976   4.973   0.036
 9584SOL    HW129651   4.933   5.020   6.985
 9584SOL    HW229652   5.047   4.911   0.002
 9585SOL     OW29653   0.408   0.679   3.206
 9585SOL    HW129654   0.402   0.632   3.294
 9585SOL    HW229655   0.316   0.698   3.172
 9586SOL     OW29656   4.971   3.515   2.490
 9586SOL    HW129657   4.929   3.492   2.402
 9586SOL    HW229658   5.027   3.597   2.479
 9587SOL     OW29659   5.243   6.486   1.393
 9587SOL    HW129660   5.257   6.489   1.294
 9587SOL    HW229661   5.304   6.551   1.437
 9588SOL     OW29662   6.844   1.135   2.739
 9588SOL    HW129663   6.783   1.062   2.770
 9588SOL    HW229664   6.937   1.098   2.730
 9589SOL     OW29665   3.023   2.011   4.932
 9589SOL    HW129666   3.076   2.094   4.948
 9589SOL    HW229667   3.048   1.942   5.000
 9590SOL     OW29668   0.682   5.016   4.589
 9590SOL    HW129669   0.774   4.995   4.620
 9590SOL    HW229670   0.669   5.115   4.587
 9591SOL     OW29671   1.153   4.377   2.385
 9591SOL    HW129672   1.061   4.343   2.369
 9591SOL    HW229673   1.148   4.463   2.436
 9592SOL     OW29674   5.239   6.042   0.919
 9592SOL    HW129675   5.168   5.972   0.927
 9592SOL    HW229676   5.271   6.067   1.011
 9593SOL     OW29677   2.698   2.306   3.420
 9593SOL    HW129678   2.640   2.365   3.363
 9593SOL    HW229679   2.643   2.268   3.495
 9594SOL     OW29680   6.087   6.970   0.932
 9594SOL    HW129681   6.007   7.020   0.897
 9594SOL    HW229682   6.162   6.978   0.866
 9595SOL     OW29683   1.006   4.803   4.306
 9595SOL    HW129684   0.935   4.831   4.242
 9595SOL    HW229685   0.995   4.706   4.328
 9596SOL     OW29686   5.080   5.681   1.932
 9596SOL    HW129687   5.167   5.669   1.980
 9596SOL    HW229688   5.004   5.657   1.993
 9597SOL     OW29689   2.086   4.495   0.825
 9597SOL    HW129690   2.116   4.578   0.779
 9597SOL    HW229691   2.083   4.510   0.924
 9598SOL     OW29692   1.025   5.855   5.775
 9598SOL    HW129693   1.005   5.799   5.855
 9598SOL    HW229694   0.946   5.913   5.753
 9599SOL     OW29695   3.839   1.558   4.887
 9599SOL    HW129696   3.840   1.636   4.950
 9599SOL    HW229697   3.787   1.581   4.805
 9600SOL     OW29698   1.097   6.041   6.520
 9600SOL    HW129699   1.024   6.107   6.504
 9600SOL    HW229700   1.186   6.083   6.501
 9601SOL     OW29701   0.757   6.835   5.395
 9601SOL    HW129702   0.765   6.924   5.439
 9601SOL    HW229703   0.715   6.847   5.305
 9602SOL     OW29704   0.607   5.336   6.199
 9602SOL    HW129705   0.699   5.301   6.217
 9602SOL    HW229706   0.612   5.423   6.150
 9603SOL     OW29707   1.211   5.323   2.523
 9603SOL    HW129708   1.192   5.420   2.511
 9603SOL    HW229709   1.178   5.272   2.443
 9604SOL     OW29710   6.842   6.670   6.645
 9604SOL    HW129711   6.749   6.663   6.681
 9604SOL    HW229712   6.842   6.727   6.564
 9605SOL     OW29713   3.004   5.086   0.510
 9605SOL    HW129714   2.967   5.029   0.584
 9605SOL    HW229715   3.042   5.027   0.439
 9606SOL     OW29716   6.803   0.025   5.008
 9606SOL    HW129717   6.764   0.039   5.098
 9606SOL    HW229718   6.810   6.952   4.989
 9607SOL     OW29719   0.027   2.169   2.292
 9607SOL    HW129720   0.022   2.237   2.219
 9607SOL    HW229721   0.089   2.200   2.363
 9608SOL     OW29722   6.922   0.541   2.249
 9608SOL    HW129723   6.882   0.576   2.164
 9608SOL    HW229724   7.021   0.556   2.247
 9609SOL     OW29725   1.922   1.940   3.410
 9609SOL    HW129726   2.008   1.975   3.374
 9609SOL    HW229727   1.929   1.841   3.422
 9610SOL     OW29728   3.684   0.562   5.934
 9610SOL    HW129729   3.724   0.617   5.860
 9610SOL    HW229730   3.734   0.578   6.018
 9611SOL     OW29731   5.467   6.176   1.079
 9611SOL    HW129732   5.509   6.108   1.020
 9611SOL    HW229733   5.514   6.263   1.068
 9612SOL     OW29734   5.142   3.700   3.833
 9612SOL    HW129735   5.051   3.705   3.876
 9612SOL    HW229736   5.135   3.724   3.737
 9613SOL     OW29737   5.828   0.789   5.257
 9613SOL    HW129738   5.912   0.817   5.211
 9613SOL    HW229739   5.754   0.784   5.190
 9614SOL     OW29740   2.938   2.883   1.040
 9614SOL    HW129741   2.889   2.968   1.057
 9614SOL    HW229742   2.873   2.808   1.033
 9615SOL     OW29743   0.801   6.128   3.788
 9615SOL    HW129744   0.737   6.093   3.720
 9615SOL    HW229745   0.887   6.153   3.744
 9616SOL     OW29746   1.205   2.828   1.528
 9616SOL    HW129747   1.202   2.730   1.550
 9616SOL    HW229748   1.264   2.874   1.594
 9617SOL     OW29749   0.103   3.050   2.404
 9617SOL    HW129750   0.051   3.064   2.320
 9617SOL    HW229751   0.075   2.964   2.447
 9618SOL     OW29752   4.632   3.868   0.953
 9618SOL    HW129753   4.621   3.941   0.886
 9618SOL    HW229754   4.695   3.799   0.917
 9619SOL     OW29755   0.655   0.119   1.280
 9619SOL    HW129756   0.754   0.111   1.295
 9619SOL    HW229757   0.620   0.195   1.334
 9620SOL     OW29758   2.978   1.379   6.741
 9620SOL    HW129759   3.016   1.408   6.829
 9620SOL    HW229760   2.884   1.412   6.734
 9621SOL     OW29761   0.506   0.602   1.470
 9621SOL    HW129762   0.514   0.663   1.391
 9621SOL    HW229763   0.591   0.604   1.522
 9622SOL     OW29764   6.278   5.628   5.766
 9622SOL    HW129765   6.265   5.559   5.836
 9622SOL    HW229766   6.325   5.588   5.687
 9623SOL     OW29767   3.395   6.365   5.583
 9623SOL    HW129768   3.308   6.326   5.553
 9623SOL    HW229769   3.464   6.292   5.585
 9624SOL     OW29770   4.525   5.199   5.408
 9624SOL    HW129771   4.479   5.113   5.428
 9624SOL    HW229772   4.623   5.189   5.426
 9625SOL     OW29773   4.528   4.085   6.136
 9625SOL    HW129774   4.593   4.010   6.145
 9625SOL    HW229775   4.547   4.154   6.206
 9626SOL     OW29776   2.480   2.371   6.766
 9626SOL    HW129777   2.424   2.430   6.708
 9626SOL    HW229778   2.423   2.329   6.836
 9627SOL     OW29779   0.192   5.419   1.019
 9627SOL    HW129780   0.258   5.493   1.023
 9627SOL    HW229781   0.099   5.456   1.024
 9628SOL     OW29782   6.704   1.542   6.269
 9628SOL    HW129783   6.607   1.564   6.268
 9628SOL    HW229784   6.751   1.595   6.199
 9629SOL     OW29785   0.355   5.742   3.650
 9629SOL    HW129786   0.375   5.810   3.721
 9629SOL    HW229787   0.351   5.651   3.691
 9630SOL     OW29788   5.589   1.695   6.191
 9630SOL    HW129789   5.513   1.655   6.242
 9630SOL    HW229790   5.562   1.784   6.155
 9631SOL     OW29791   4.854   6.705   0.593
 9631SOL    HW129792   4.879   6.610   0.610
 9631SOL    HW229793   4.843   6.753   0.681
 9632SOL     OW29794   2.464   4.689   2.877
 9632SOL    HW129795   2.501   4.752   2.809
 9632SOL    HW229796   2.535   4.662   2.941
 9633SOL     OW29797   3.681   2.922   4.647
 9633SOL    HW129798   3.617   2.948   4.574
 9633SOL    HW229799   3.774   2.918   4.611
 9634SOL     OW29800   5.405   4.675   3.049
 9634SOL    HW129801   5.369   4.757   3.093
 9634SOL    HW229802   5.329   4.617   3.018
 9635SOL     OW29803   0.695   4.624   4.162
 9635SOL    HW129804   0.720   4.721   4.168
 9635SOL    HW229805   0.603   4.611   4.199
 9636SOL     OW29806   5.867   4.028   3.869
 9636SOL    HW129807   5.944   4.075   3.911
 9636SOL    HW229808   5.899   3.944   3.825
 9637SOL     OW29809   1.430   3.860   0.531
 9637SOL    HW129810   1.420   3.916   0.449
 9637SOL    HW229811   1.497   3.788   0.514
 9638SOL     OW29812   6.188   5.469   5.982
 9638SOL    HW129813   6.130   5.390   6.006
 9638SOL    HW229814   6.263   5.476   6.048
 9639SOL     OW29815   5.043   2.292   1.399
 9639SOL    HW129816   5.051   2.193   1.389
 9639SOL    HW229817   5.121   2.327   1.450
 9640SOL     OW29818   3.753   0.259   3.330
 9640SOL    HW129819   3.681   0.299   3.273
 9640SOL    HW229820   3.711   0.209   3.406
 9641SOL     OW29821   6.776   2.667   4.798
 9641SOL    HW129822   6.852   2.729   4.816
 9641SOL    HW229823   6.690   2.710   4.826
 9642SOL     OW29824   0.663   2.089   4.691
 9642SOL    HW129825   0.740   2.035   4.658
 9642SOL    HW229826   0.620   2.138   4.615
 9643SOL     OW29827   5.495   5.112   4.184
 9643SOL    HW129828   5.434   5.048   4.137
 9643SOL    HW229829   5.517   5.187   4.122
 9644SOL     OW29830   1.548   4.965   3.509
 9644SOL    HW129831   1.556   4.981   3.411
 9644SOL    HW229832   1.530   4.868   3.526
 9645SOL     OW29833   1.604   4.848   6.302
 9645SOL    HW129834   1.609   4.765   6.247
 9645SOL    HW229835   1.530   4.906   6.270
 9646SOL     OW29836   3.343   5.675   0.436
 9646SOL    HW129837   3.244   5.692   0.440
 9646SOL    HW229838   3.366   5.602   0.501
 9647SOL     OW29839   5.977   6.490   2.994
 9647SOL    HW129840   5.995   6.469   3.090
 9647SOL    HW229841   6.063   6.507   2.946
 9648SOL     OW29842   2.696   1.819   1.028
 9648SOL    HW129843   2.715   1.842   0.933
 9648SOL    HW229844   2.774   1.768   1.066
 9649SOL     OW29845   0.315   5.563   1.348
 9649SOL    HW129846   0.290   5.472   1.315
 9649SOL    HW229847   0.254   5.631   1.308
 9650SOL     OW29848   0.944   4.928   4.664
 9650SOL    HW129849   0.970   4.839   4.702
 9650SOL    HW229850   0.997   5.000   4.708
 9651SOL     OW29851   3.578   1.818   6.758
 9651SOL    HW129852   3.485   1.846   6.785
 9651SOL    HW229853   3.572   1.746   6.689
 9652SOL     OW29854   0.244   4.047   0.186
 9652SOL    HW129855   0.218   4.046   0.283
 9652SOL    HW229856   0.173   4.003   0.132
 9653SOL     OW29857   5.205   4.509   5.712
 9653SOL    HW129858   5.149   4.474   5.787
 9653SOL    HW229859   5.285   4.450   5.700
 9654SOL     OW29860   3.793   3.546   3.187
 9654SOL    HW129861   3.762   3.530   3.281
 9654SOL    HW229862   3.886   3.584   3.188
 9655SOL     OW29863   4.285   1.747   1.165
 9655SOL    HW129864   4.296   1.713   1.258
 9655SOL    HW229865   4.192   1.781   1.152
 9656SOL     OW29866   4.878   4.221   6.465
 9656SOL    HW129867   4.878   4.248   6.369
 9656SOL    HW229868   4.955   4.158   6.481
 9657SOL     OW29869   5.205   4.858   3.754
 9657SOL    HW129870   5.123   4.897   3.711
 9657SOL    HW229871   5.242   4.786   3.696
 9658SOL     OW29872   5.436   1.360   2.382
 9658SOL    HW129873   5.527   1.372   2.421
 9658SOL    HW229874   5.407   1.265   2.394
 9659SOL     OW29875   3.167   2.928   6.545
 9659SOL    HW129876   3.144   3.011   6.493
 9659SOL    HW229877   3.124   2.849   6.502
 9660SOL     OW29878   1.350   6.508   1.347
 9660SOL    HW129879   1.254   6.535   1.354
 9660SOL    HW229880   1.366   6.462   1.260
 9661SOL     OW29881   4.117   3.535   1.544
 9661SOL    HW129882   4.043   3.467   1.543
 9661SOL    HW229883   4.205   3.488   1.553
 9662SOL     OW29884   4.964   6.804   5.977
 9662SOL    HW129885   4.956   6.888   5.923
 9662SOL    HW229886   4.934   6.726   5.923
 9663SOL     OW29887   1.101   5.318   2.822
 9663SOL    HW129888   1.112   5.417   2.827
 9663SOL    HW229889   1.141   5.284   2.737
 9664SOL     OW29890   3.399   4.922   2.657
 9664SOL    HW129891   3.360   5.012   2.638
 9664SOL    HW229892   3.424   4.878   2.571
 9665SOL     OW29893   6.026   4.144   5.522
 9665SOL    HW129894   5.979   4.082   5.585
 9665SOL    HW229895   5.958   4.196   5.469
 9666SOL     OW29896   5.262   3.556   0.463
 9666SOL    HW129897   5.228   3.480   0.408
 9666SOL    HW229898   5.186   3.618   0.485
 9667SOL     OW29899   5.523   6.037   6.988
 9667SOL    HW129900   5.598   6.091   6.951
 9667SOL    HW229901   5.451   6.028   6.919
 9668SOL     OW29902   1.861   1.223   6.077
 9668SOL    HW129903   1.765   1.203   6.061
 9668SOL    HW229904   1.915   1.139   6.071
 9669SOL     OW29905   3.005   0.306   0.013
 9669SOL    HW129906   2.906   0.297   0.002
 9669SOL    HW229907   3.042   0.224   0.056
 9670SOL     OW29908   0.940   0.661   0.685
 9670SOL    HW129909   1.029   0.618   0.677
 9670SOL    HW229910   0.944   0.734   0.753
 9671SOL     OW29911   1.085   5.182   6.787
 9671SOL    HW129912   1.045   5.090   6.788
 9671SOL    HW229913   1.055   5.232   6.868
 9672SOL     OW29914   0.857   3.841   4.290
 9672SOL    HW129915   0.840   3.930   4.333
 9672SOL    HW229916   0.802   3.833   4.207
 9673SOL     OW29917   2.111   3.375   6.782
 9673SOL    HW129918   2.189   3.417   6.736
 9673SOL    HW229919   2.121   3.387   6.881
 9674SOL     OW29920   2.078   6.617   4.082
 9674SOL    HW129921   2.090   6.540   4.144
 9674SOL    HW229922   2.023   6.688   4.127
 9675SOL     OW29923   6.291   4.106   5.483
 9675SOL    HW129924   6.289   4.095   5.384
 9675SOL    HW229925   6.199   4.128   5.516
 9676SOL     OW29926   0.933   3.567   5.775
 9676SOL    HW129927   0.879   3.575   5.692
 9676SOL    HW229928   0.985   3.481   5.773
 9677SOL     OW29929   6.619   4.817   2.532
 9677SOL    HW129930   6.534   4.766   2.518
 9677SOL    HW229931   6.600   4.915   2.522
 9678SOL     OW29932   3.597   3.560   5.283
 9678SOL    HW129933   3.622   3.560   5.380
 9678SOL    HW229934   3.655   3.495   5.234
 9679SOL     OW29935   1.854   0.690   3.999
 9679SOL    HW129936   1.925   0.756   3.978
 9679SOL    HW229937   1.771   0.738   4.028
 9680SOL     OW29938   4.074   0.443   2.109
 9680SOL    HW129939   4.036   0.351   2.102
 9680SOL    HW229940   4.159   0.448   2.055
 9681SOL     OW29941   1.459   2.707   1.406
 9681SOL    HW129942   1.379   2.746   1.361
 9681SOL    HW229943   1.531   2.693   1.338
 9682SOL     OW29944   5.109   0.264   6.296
 9682SOL    HW129945   5.184   0.199   6.283
 9682SOL    HW229946   5.086   0.268   6.394
 9683SOL     OW29947   4.015   6.704   3.872
 9683SOL    HW129948   4.040   6.704   3.775
 9683SOL    HW229949   3.939   6.767   3.887
 9684SOL     OW29950   7.008   3.015   5.514
 9684SOL    HW129951   0.065   2.963   5.533
 9684SOL    HW229952   7.010   3.049   5.420
 9685SOL     OW29953   3.308   4.679   1.733
 9685SOL    HW129954   3.398   4.634   1.730
 9685SOL    HW229955   3.239   4.617   1.695
 9686SOL     OW29956   0.177   1.421   5.724
 9686SOL    HW129957   0.207   1.337   5.678
 9686SOL    HW229958   0.205   1.500   5.670
 9687SOL     OW29959   5.687   1.287   3.576
 9687SOL    HW129960   5.727   1.318   3.662
 9687SOL    HW229961   5.654   1.365   3.524
 9688SOL     OW29962   0.256   4.701   1.510
 9688SOL    HW129963   0.315   4.765   1.560
 9688SOL    HW229964   0.291   4.689   1.417
 9689SOL     OW29965   1.803   5.721   1.407
 9689SOL    HW129966   1.832   5.779   1.330
 9689SOL    HW229967   1.867   5.644   1.416
 9690SOL     OW29968   0.576   4.399   5.046
 9690SOL    HW129969   0.501   4.360   4.992
 9690SOL    HW229970   0.592   4.494   5.017
 9691SOL     OW29971   3.757   3.677   1.527
 9691SOL    HW129972   3.795   3.585   1.539
 9691SOL    HW229973   3.813   3.743   1.578
 9692SOL     OW29974   4.945   4.612   0.616
 9692SOL    HW129975   4.920   4.610   0.712
 9692SOL    HW229976   5.002   4.692   0.598
 9693SOL     OW29977   4.649   2.950   5.598
 9693SOL    HW129978   4.599   2.983   5.518
 9693SOL    HW229979   4.642   3.017   5.672
 9694SOL     OW29980   2.955   6.416   1.766
 9694SOL    HW129981   2.975   6.509   1.798
 9694SOL    HW229982   3.039   6.374   1.732
 9695SOL     OW29983   0.927   3.207   4.310
 9695SOL    HW129984   0.871   3.170   4.236
 9695SOL    HW229985   1.023   3.208   4.282
 9696SOL     OW29986   5.069   2.754   3.319
 9696SOL    HW129987   5.147   2.816   3.331
 9696SOL    HW229988   5.000   2.773   3.389
 9697SOL     OW29989   0.394   7.001   1.785
 9697SOL    HW129990   0.453   0.038   1.734
 9697SOL    HW229991   0.342   6.945   1.720
 9698SOL     OW29992   0.351   3.608   1.808
 9698SOL    HW129993   0.327   3.705   1.800
 9698SOL    HW229994   0.312   3.558   1.731
 9699SOL     OW29995   1.066   5.715   1.395
 9699SOL    HW129996   1.076   5.719   1.494
 9699SOL    HW229997   1.156   5.729   1.352
 9700SOL     OW29998   5.134   0.868   6.200
 9700SOL    HW129999   5.061   0.846   6.135
 9700SOL    HW230000   5.201   0.928   6.155
 9701SOL     OW30001   5.339   3.818   6.803
 9701SOL    HW130002   5.399   3.856   6.873
 9701SOL    HW230003   5.251   3.866   6.805
 9702SOL     OW30004   3.783   4.169   1.770
 9702SOL    HW130005   3.852   4.161   1.698
 9702SOL    HW230006   3.785   4.087   1.828
 9703SOL     OW30007   6.070   4.876   3.552
 9703SOL    HW130008   5.982   4.828   3.558
 9703SOL    HW230009   6.061   4.954   3.490
 9704SOL     OW30010   1.440   4.176   2.238
 9704SOL    HW130011   1.450   4.077   2.247
 9704SOL    HW230012   1.376   4.210   2.306
 9705SOL     OW30013   0.235   3.088   5.893
 9705SOL    HW130014   0.173   3.072   5.970
 9705SOL    HW230015   0.328   3.063   5.920
 9706SOL     OW30016   0.896   1.232   2.334
 9706SOL    HW130017   0.852   1.188   2.412
 9706SOL    HW230018   0.843   1.313   2.307
 9707SOL     OW30019   0.847   5.291   2.571
 9707SOL    HW130020   0.828   5.343   2.655
 9707SOL    HW230021   0.913   5.219   2.591
 9708SOL     OW30022   2.547   0.849   1.764
 9708SOL    HW130023   2.550   0.802   1.676
 9708SOL    HW230024   2.614   0.923   1.763
 9709SOL     OW30025   5.414   1.653   1.701
 9709SOL    HW130026   5.366   1.643   1.614
 9709SOL    HW230027   5.438   1.749   1.715
 9710SOL     OW30028   5.412   5.120   4.905
 9710SOL    HW130029   5.352   5.043   4.884
 9710SOL    HW230030   5.401   5.145   5.001
 9711SOL     OW30031   2.914   0.653   6.649
 9711SOL    HW130032   2.952   0.729   6.596
 9711SOL    HW230033   2.983   0.582   6.660
 9712SOL     OW30034   5.291   0.747   6.393
 9712SOL    HW130035   5.215   0.762   6.330
 9712SOL    HW230036   5.361   0.817   6.377
 9713SOL     OW30037   2.167   6.659   2.801
 9713SOL    HW130038   2.153   6.711   2.716
 9713SOL    HW230039   2.264   6.660   2.824
 9714SOL     OW30040   2.204   3.930   3.895
 9714SOL    HW130041   2.253   4.017   3.894
 9714SOL    HW230042   2.173   3.911   3.988
 9715SOL     OW30043   6.913   3.109   6.407
 9715SOL    HW130044   6.918   3.098   6.308
 9715SOL    HW230045   6.922   3.020   6.452
 9716SOL     OW30046   2.546   6.336   0.659
 9716SOL    HW130047   2.550   6.434   0.640
 9716SOL    HW230048   2.585   6.318   0.749
 9717SOL     OW30049   3.807   2.440   5.685
 9717SOL    HW130050   3.801   2.427   5.784
 9717SOL    HW230051   3.716   2.438   5.645
 9718SOL     OW30052   3.962   2.340   6.174
 9718SOL    HW130053   3.960   2.334   6.274
 9718SOL    HW230054   3.964   2.435   6.145
 9719SOL     OW30055   4.566   0.085   6.199
 9719SOL    HW130056   4.637   0.119   6.137
 9719SOL    HW230057   4.606   0.066   6.289
 9720SOL     OW30058   2.101   2.688   2.503
 9720SOL    HW130059   2.179   2.704   2.444
 9720SOL    HW230060   2.123   2.616   2.569
 9721SOL     OW30061   0.659   1.705   1.011
 9721SOL    HW130062   0.706   1.786   1.044
 9721SOL    HW230063   0.663   1.702   0.912
 9722SOL     OW30064   3.865   2.267   5.335
 9722SOL    HW130065   3.829   2.194   5.394
 9722SOL    HW230066   3.807   2.276   5.255
 9723SOL     OW30067   6.056   0.406   4.808
 9723SOL    HW130068   6.151   0.436   4.810
 9723SOL    HW230069   6.002   0.461   4.871
 9724SOL     OW30070   1.353   4.395   1.041
 9724SOL    HW130071   1.347   4.327   0.968
 9724SOL    HW230072   1.343   4.486   1.003
 9725SOL     OW30073   4.640   5.349   4.044
 9725SOL    HW130074   4.577   5.414   4.085
 9725SOL    HW230075   4.589   5.282   3.990
 9726SOL     OW30076   6.756   7.018   3.142
 9726SOL    HW130077   6.796   6.938   3.187
 9726SOL    HW230078   6.660   7.000   3.122
 9727SOL     OW30079   6.164   2.636   1.909
 9727SOL    HW130080   6.143   2.701   1.983
 9727SOL    HW230081   6.154   2.681   1.821
 9728SOL     OW30082   5.564   2.129   4.331
 9728SOL    HW130083   5.488   2.126   4.266
 9728SOL    HW230084   5.628   2.054   4.311
 9729SOL     OW30085   0.337   3.914   3.111
 9729SOL    HW130086   0.294   3.963   3.035
 9729SOL    HW230087   0.414   3.861   3.077
 9730SOL     OW30088   0.810   5.333   2.831
 9730SOL    HW130089   0.809   5.428   2.864
 9730SOL    HW230090   0.902   5.296   2.841
 9731SOL     OW30091   5.594   2.756   1.530
 9731SOL    HW130092   5.601   2.704   1.615
 9731SOL    HW230093   5.498   2.763   1.503
 9732SOL     OW30094   1.273   3.616   2.896
 9732SOL    HW130095   1.231   3.676   2.829
 9732SOL    HW230096   1.372   3.631   2.897
 9733SOL     OW30097   6.457   4.760   1.863
 9733SOL    HW130098   6.358   4.743   1.866
 9733SOL    HW230099   6.475   4.845   1.814
 9734SOL     OW30100   4.600   5.334   6.604
 9734SOL    HW130101   4.558   5.300   6.520
 9734SOL    HW230102   4.699   5.334   6.594
 9735SOL     OW30103   6.880   2.157   0.398
 9735SOL    HW130104   6.911   2.237   0.346
 9735SOL    HW230105   6.800   2.182   0.452
 9736SOL     OW30106   5.250   2.345   4.899
 9736SOL    HW130107   5.169   2.313   4.948
 9736SOL    HW230108   5.234   2.339   4.800
 9737SOL     OW30109   5.672   2.773   3.910
 9737SOL    HW130110   5.697   2.755   4.005
 9737SOL    HW230111   5.706   2.863   3.882
 9738SOL     OW30112   2.417   6.572   1.574
 9738SOL    HW130113   2.514   6.595   1.576
 9738SOL    HW230114   2.407   6.473   1.582
 9739SOL     OW30115   6.112   6.421   0.539
 9739SOL    HW130116   6.079   6.328   0.554
 9739SOL    HW230117   6.207   6.419   0.508
 9740SOL     OW30118   6.416   0.406   2.110
 9740SOL    HW130119   6.484   0.341   2.077
 9740SOL    HW230120   6.446   0.445   2.197
 9741SOL     OW30121   2.411   1.966   3.746
 9741SOL    HW130122   2.467   1.884   3.738
 9741SOL    HW230123   2.328   1.945   3.798
 9742SOL     OW30124   3.288   1.729   6.417
 9742SOL    HW130125   3.250   1.808   6.368
 9742SOL    HW230126   3.388   1.737   6.419
 9743SOL     OW30127   6.371   3.622   4.084
 9743SOL    HW130128   6.465   3.591   4.076
 9743SOL    HW230129   6.320   3.560   4.143
 9744SOL     OW30130   1.799   1.528   2.197
 9744SOL    HW130131   1.874   1.506   2.259
 9744SOL    HW230132   1.786   1.452   2.133
 9745SOL     OW30133   0.160   6.966   5.583
 9745SOL    HW130134   0.128   7.012   5.666
 9745SOL    HW230135   0.259   6.977   5.575
 9746SOL     OW30136   3.262   6.491   6.215
 9746SOL    HW130137   3.262   6.583   6.176
 9746SOL    HW230138   3.347   6.445   6.192
 9747SOL     OW30139   3.662   1.647   3.334
 9747SOL    HW130140   3.725   1.724   3.345
 9747SOL    HW230141   3.608   1.636   3.418
 9748SOL     OW30142   1.630   1.418   2.396
 9748SOL    HW130143   1.665   1.464   2.314
 9748SOL    HW230144   1.570   1.481   2.447
 9749SOL     OW30145   6.903   0.973   1.966
 9749SOL    HW130146   6.938   0.978   1.872
 9749SOL    HW230147   6.804   0.976   1.965
 9750SOL     OW30148   5.968   2.868   5.341
 9750SOL    HW130149   6.051   2.813   5.330
 9750SOL    HW230150   5.892   2.809   5.369
 9751SOL     OW30151   3.239   0.099   1.299
 9751SOL    HW130152   3.334   0.099   1.270
 9751SOL    HW230153   3.223   0.022   1.362
 9752SOL     OW30154   3.081   2.923   0.764
 9752SOL    HW130155   3.041   2.903   0.854
 9752SOL    HW230156   3.175   2.957   0.777
 9753SOL     OW30157   6.467   5.811   4.461
 9753SOL    HW130158   6.501   5.818   4.555
 9753SOL    HW230159   6.526   5.864   4.400
 9754SOL     OW30160   3.109   1.524   2.497
 9754SOL    HW130161   3.061   1.570   2.422
 9754SOL    HW230162   3.198   1.566   2.510
 9755SOL     OW30163   3.992   4.035   0.187
 9755SOL    HW130164   4.005   4.000   0.095
 9755SOL    HW230165   3.966   3.961   0.249
 9756SOL     OW30166   5.651   0.306   6.425
 9756SOL    HW130167   5.645   0.208   6.443
 9756SOL    HW230168   5.559   0.345   6.421
 9757SOL     OW30169   5.242   3.240   4.444
 9757SOL    HW130170   5.156   3.291   4.441
 9757SOL    HW230171   5.281   3.233   4.352
 9758SOL     OW30172   2.503   0.791   2.470
 9758SOL    HW130173   2.584   0.772   2.525
 9758SOL    HW230174   2.455   0.706   2.450
 9759SOL     OW30175   6.767   2.005   1.829
 9759SOL    HW130176   6.801   2.002   1.735
 9759SOL    HW230177   6.730   2.095   1.848
 9760SOL     OW30178   4.273   0.777   6.701
 9760SOL    HW130179   4.241   0.772   6.606
 9760SOL    HW230180   4.322   0.863   6.714
 9761SOL     OW30181   0.671   2.620   1.451
 9761SOL    HW130182   0.600   2.659   1.510
 9761SOL    HW230183   0.746   2.686   1.441
 9762SOL     OW30184   3.022   1.061   5.445
 9762SOL    HW130185   3.117   1.067   5.478
 9762SOL    HW230186   3.011   1.122   5.367
 9763SOL     OW30187   6.584   2.566   1.445
 9763SOL    HW130188   6.597   2.549   1.347
 9763SOL    HW230189   6.673   2.573   1.489
 9764SOL     OW30190   0.579   2.416   2.542
 9764SOL    HW130191   0.519   2.442   2.618
 9764SOL    HW230192   0.532   2.348   2.485
 9765SOL     OW30193   6.919   0.851   1.654
 9765SOL    HW130194   6.876   0.767   1.687
 9765SOL    HW230195   6.985   0.829   1.582
 9766SOL     OW30196   0.830   2.476   3.087
 9766SOL    HW130197   0.739   2.514   3.078
 9766SOL    HW230198   0.896   2.536   3.042
 9767SOL     OW30199   2.404   1.686   5.110
 9767SOL    HW130200   2.408   1.679   5.011
 9767SOL    HW230201   2.434   1.600   5.152
 9768SOL     OW30202   5.556   2.998   0.362
 9768SOL    HW130203   5.536   3.094   0.342
 9768SOL    HW230204   5.497   2.939   0.307
 9769SOL     OW30205   2.657   1.889   5.432
 9769SOL    HW130206   2.698   1.971   5.392
 9769SOL    HW230207   2.701   1.808   5.395
 9770SOL     OW30208   2.096   3.105   5.602
 9770SOL    HW130209   2.075   3.070   5.510
 9770SOL    HW230210   2.134   3.197   5.594
 9771SOL     OW30211   2.932   0.870   1.254
 9771SOL    HW130212   2.858   0.874   1.186
 9771SOL    HW230213   2.938   0.778   1.291
 9772SOL     OW30214   0.700   0.592   0.977
 9772SOL    HW130215   0.774   0.553   1.031
 9772SOL    HW230216   0.616   0.592   1.032
 9773SOL     OW30217   5.935   5.870   2.358
 9773SOL    HW130218   5.954   5.942   2.291
 9773SOL    HW230219   5.838   5.846   2.355
 9774SOL     OW30220   2.137   4.654   4.133
 9774SOL    HW130221   2.196   4.700   4.066
 9774SOL    HW230222   2.193   4.616   4.207
 9775SOL     OW30223   2.340   1.322   2.639
 9775SOL    HW130224   2.250   1.327   2.595
 9775SOL    HW230225   2.334   1.263   2.719
 9776SOL     OW30226   2.351   5.479   1.439
 9776SOL    HW130227   2.296   5.551   1.397
 9776SOL    HW230228   2.393   5.424   1.367
 9777SOL     OW30229   4.526   1.696   5.547
 9777SOL    HW130230   4.478   1.617   5.510
 9777SOL    HW230231   4.504   1.708   5.644
 9778SOL     OW30232   0.865   3.929   3.390
 9778SOL    HW130233   0.902   3.836   3.395
 9778SOL    HW230234   0.918   3.990   3.450
 9779SOL     OW30235   3.029   0.781   3.591
 9779SOL    HW130236   2.962   0.854   3.581
 9779SOL    HW230237   2.990   0.706   3.645
 9780SOL     OW30238   0.454   1.882   0.758
 9780SOL    HW130239   0.490   1.927   0.676
 9780SOL    HW230240   0.510   1.803   0.780
 9781SOL     OW30241   1.430   0.896   1.963
 9781SOL    HW130242   1.478   0.809   1.968
 9781SOL    HW230243   1.493   0.968   1.933
 9782SOL     OW30244   0.050   2.449   0.464
 9782SOL    HW130245   0.112   2.527   0.474
 9782SOL    HW230246   6.984   2.475   0.494
 9783SOL     OW30247   4.378   1.656   2.823
 9783SOL    HW130248   4.442   1.658   2.900
 9783SOL    HW230249   4.285   1.654   2.857
 9784SOL     OW30250   2.019   1.452   5.983
 9784SOL    HW130251   1.952   1.402   6.039
 9784SOL    HW230252   2.057   1.527   6.037
 9785SOL     OW30253   0.442   4.012   4.790
 9785SOL    HW130254   0.409   3.923   4.824
 9785SOL    HW230255   0.410   4.024   4.696
 9786SOL     OW30256   2.756   4.301   6.657
 9786SOL    HW130257   2.662   4.288   6.688
 9786SOL    HW230258   2.783   4.396   6.672
 9787SOL     OW30259   2.897   3.604   2.334
 9787SOL    HW130260   2.814   3.551   2.318
 9787SOL    HW230261   2.966   3.578   2.267
 9788SOL     OW30262   3.971   7.025   2.285
 9788SOL    HW130263   3.957   6.927   2.294
 9788SOL    HW230264   3.914   0.047   2.352
 9789SOL     OW30265   3.030   1.226   0.242
 9789SOL    HW130266   3.040   1.213   0.143
 9789SOL    HW230267   3.115   1.262   0.280
 9790SOL     OW30268   4.827   5.942   4.915
 9790SOL    HW130269   4.788   5.907   4.829
 9790SOL    HW230270   4.866   5.866   4.967
 9791SOL     OW30271   0.828   0.119   1.554
 9791SOL    HW130272   0.911   0.172   1.569
 9791SOL    HW230273   0.853   0.024   1.533
 9792SOL     OW30274   3.755   4.789   1.023
 9792SOL    HW130275   3.668   4.744   1.002
 9792SOL    HW230276   3.810   4.729   1.082
 9793SOL     OW30277   6.341   1.061   3.077
 9793SOL    HW130278   6.361   1.147   3.124
 9793SOL    HW230279   6.273   1.077   3.006
 9794SOL     OW30280   4.499   4.487   4.672
 9794SOL    HW130281   4.492   4.483   4.572
 9794SOL    HW230282   4.407   4.500   4.711
 9795SOL     OW30283   0.855   3.274   3.107
 9795SOL    HW130284   0.943   3.318   3.127
 9795SOL    HW230285   0.805   3.258   3.192
 9796SOL     OW30286   2.954   3.799   3.824
 9796SOL    HW130287   2.862   3.800   3.787
 9796SOL    HW230288   2.951   3.772   3.920
 9797SOL     OW30289   2.960   5.532   0.120
 9797SOL    HW130290   2.995   5.597   0.053
 9797SOL    HW230291   3.035   5.499   0.177
 9798SOL     OW30292   0.177   4.343   6.367
 9798SOL    HW130293   0.084   4.372   6.387
 9798SOL    HW230294   0.230   4.341   6.452
 9799SOL     OW30295   3.277   0.237   0.172
 9799SOL    HW130296   3.217   0.186   0.232
 9799SOL    HW230297   3.261   0.210   0.077
 9800SOL     OW30298   6.681   3.300   4.358
 9800SOL    HW130299   6.599   3.243   4.360
 9800SOL    HW230300   6.656   3.394   4.333
 9801SOL     OW30301   5.321   6.183   0.546
 9801SOL    HW130302   5.336   6.217   0.639
 9801SOL    HW230303   5.320   6.083   0.547
 9802SOL     OW30304   4.244   3.769   7.018
 9802SOL    HW130305   4.260   3.687   6.964
 9802SOL    HW230306   4.269   3.752   0.088
 9803SOL     OW30307   1.105   3.317   6.354
 9803SOL    HW130308   1.182   3.361   6.400
 9803SOL    HW230309   1.035   3.294   6.421
 9804SOL     OW30310   0.620   4.565   2.710
 9804SOL    HW130311   0.637   4.570   2.808
 9804SOL    HW230312   0.576   4.649   2.678
 9805SOL     OW30313   1.213   5.413   3.845
 9805SOL    HW130314   1.222   5.328   3.792
 9805SOL    HW230315   1.304   5.445   3.871
 9806SOL     OW30316   3.817   1.898   0.358
 9806SOL    HW130317   3.886   1.931   0.423
 9806SOL    HW230318   3.863   1.863   0.276
 9807SOL     OW30319   4.059   3.276   3.209
 9807SOL    HW130320   4.097   3.313   3.125
 9807SOL    HW230321   4.030   3.182   3.194
 9808SOL     OW30322   3.951   5.367   1.995
 9808SOL    HW130323   3.950   5.267   1.990
 9808SOL    HW230324   4.001   5.396   2.076
 9809SOL     OW30325   6.388   2.911   0.631
 9809SOL    HW130326   6.415   3.004   0.654
 9809SOL    HW230327   6.295   2.911   0.593
 9810SOL     OW30328   2.260   1.925   0.858
 9810SOL    HW130329   2.349   1.945   0.817
 9810SOL    HW230330   2.188   1.970   0.805
 9811SOL     OW30331   5.832   3.748   4.486
 9811SOL    HW130332   5.757   3.772   4.547
 9811SOL    HW230333   5.915   3.733   4.540
 9812SOL     OW30334   3.129   6.217   5.639
 9812SOL    HW130335   3.088   6.290   5.693
 9812SOL    HW230336   3.118   6.130   5.688
 9813SOL     OW30337   5.025   0.525   2.566
 9813SOL    HW130338   4.945   0.519   2.507
 9813SOL    HW230339   5.086   0.596   2.532
 9814SOL     OW30340   0.348   1.032   6.296
 9814SOL    HW130341   0.311   1.119   6.330
 9814SOL    HW230342   0.448   1.037   6.294
 9815SOL     OW30343   4.521   2.484   4.212
 9815SOL    HW130344   4.532   2.542   4.131
 9815SOL    HW230345   4.536   2.539   4.295
 9816SOL     OW30346   2.802   1.281   0.894
 9816SOL    HW130347   2.872   1.247   0.956
 9816SOL    HW230348   2.740   1.343   0.943
 9817SOL     OW30349   6.781   0.027   2.165
 9817SOL    HW130350   6.742   0.048   2.255
 9817SOL    HW230351   6.880   0.016   2.173
 9818SOL     OW30352   5.209   2.786   5.092
 9818SOL    HW130353   5.276   2.859   5.102
 9818SOL    HW230354   5.154   2.780   5.175
 9819SOL     OW30355   3.934   0.937   2.202
 9819SOL    HW130356   3.914   0.873   2.277
 9819SOL    HW230357   3.849   0.963   2.157
 9820SOL     OW30358   4.280   3.074   6.381
 9820SOL    HW130359   4.238   2.984   6.377
 9820SOL    HW230360   4.368   3.073   6.333
 9821SOL     OW30361   6.713   5.401   0.369
 9821SOL    HW130362   6.714   5.323   0.433
 9821SOL    HW230363   6.803   5.444   0.368
 9822SOL     OW30364   1.143   6.760   3.067
 9822SOL    HW130365   1.159   6.727   2.974
 9822SOL    HW230366   1.217   6.822   3.094
 9823SOL     OW30367   3.764   6.976   1.911
 9823SOL    HW130368   3.700   7.000   1.984
 9823SOL    HW230369   3.824   6.902   1.943
 9824SOL     OW30370   1.300   3.738   5.639
 9824SOL    HW130371   1.242   3.814   5.667
 9824SOL    HW230372   1.396   3.767   5.641
 9825SOL     OW30373   4.087   4.891   5.338
 9825SOL    HW130374   4.049   4.903   5.430
 9825SOL    HW230375   4.039   4.950   5.274
 9826SOL     OW30376   5.139   0.360   6.569
 9826SOL    HW130377   5.165   0.452   6.598
 9826SOL    HW230378   5.106   0.309   6.648
 9827SOL     OW30379   0.810   3.753   4.647
 9827SOL    HW130380   0.762   3.815   4.709
 9827SOL    HW230381   0.906   3.745   4.675
 9828SOL     OW30382   3.062   2.662   6.362
 9828SOL    HW130383   3.139   2.616   6.319
 9828SOL    HW230384   3.008   2.709   6.292
 9829SOL     OW30385   3.076   4.924   1.185
 9829SOL    HW130386   3.174   4.937   1.202
 9829SOL    HW230387   3.038   4.861   1.253
 9830SOL     OW30388   6.466   0.758   0.275
 9830SOL    HW130389   6.530   0.696   0.229
 9830SOL    HW230390   6.378   0.755   0.229
 9831SOL     OW30391   5.732   6.664   0.887
 9831SOL    HW130392   5.752   6.597   0.816
 9831SOL    HW230393   5.818   6.694   0.929
 9832SOL     OW30394   4.012   4.946   0.878
 9832SOL    HW130395   4.108   4.970   0.886
 9832SOL    HW230396   3.979   4.906   0.964
 9833SOL     OW30397   3.924   4.002   5.696
 9833SOL    HW130398   3.836   3.966   5.727
 9833SOL    HW230399   3.993   3.987   5.767
 9834SOL     OW30400   1.436   3.045   4.804
 9834SOL    HW130401   1.526   3.076   4.774
 9834SOL    HW230402   1.398   3.112   4.868
 9835SOL     OW30403   4.581   1.459   4.394
 9835SOL    HW130404   4.567   1.478   4.491
 9835SOL    HW230405   4.679   1.463   4.373
 9836SOL     OW30406   4.788   4.959   2.435
 9836SOL    HW130407   4.844   4.905   2.497
 9836SOL    HW230408   4.711   4.904   2.403
 9837SOL     OW30409   1.199   6.406   4.292
 9837SOL    HW130410   1.153   6.374   4.209
 9837SOL    HW230411   1.297   6.385   4.286
 9838SOL     OW30412   7.019   5.632   5.211
 9838SOL    HW130413   6.943   5.612   5.272
 9838SOL    HW230414   0.056   5.554   5.210
 9839SOL     OW30415   6.790   2.007   2.326
 9839SOL    HW130416   6.863   2.048   2.271
 9839SOL    HW230417   6.711   1.987   2.268
 9840SOL     OW30418   6.535   0.464   1.216
 9840SOL    HW130419   6.458   0.411   1.179
 9840SOL    HW230420   6.527   0.469   1.315
 9841SOL     OW30421   1.704   3.725   4.249
 9841SOL    HW130422   1.765   3.659   4.294
 9841SOL    HW230423   1.638   3.676   4.193
 9842SOL     OW30424   3.345   2.968   2.915
 9842SOL    HW130425   3.346   2.934   2.821
 9842SOL    HW230426   3.352   3.067   2.914
 9843SOL     OW30427   5.507   3.304   2.398
 9843SOL    HW130428   5.471   3.269   2.311
 9843SOL    HW230429   5.505   3.404   2.397
 9844SOL     OW30430   4.804   0.460   2.401
 9844SOL    HW130431   4.773   0.379   2.351
 9844SOL    HW230432   4.727   0.499   2.452
 9845SOL     OW30433   1.019   1.948   3.667
 9845SOL    HW130434   1.032   1.856   3.705
 9845SOL    HW230435   0.999   1.941   3.569
 9846SOL     OW30436   3.041   3.131   3.003
 9846SOL    HW130437   3.099   3.052   3.022
 9846SOL    HW230438   3.019   3.134   2.905
 9847SOL     OW30439   2.101   4.427   5.111
 9847SOL    HW130440   2.104   4.331   5.083
 9847SOL    HW230441   2.193   4.458   5.136
 9848SOL     OW30442   4.569   3.689   0.304
 9848SOL    HW130443   4.623   3.745   0.242
 9848SOL    HW230444   4.570   3.730   0.396
 9849SOL     OW30445   0.228   6.916   5.278
 9849SOL    HW130446   0.217   6.848   5.351
 9849SOL    HW230447   0.154   6.906   5.212
 9850SOL     OW30448   4.158   6.749   2.673
 9850SOL    HW130449   4.159   6.671   2.611
 9850SOL    HW230450   4.174   6.718   2.766
 9851SOL     OW30451   5.615   2.531   4.871
 9851SOL    HW130452   5.533   2.529   4.928
 9851SOL    HW230453   5.675   2.455   4.896
 9852SOL     OW30454   5.022   2.089   3.842
 9852SOL    HW130455   4.973   2.113   3.759
 9852SOL    HW230456   5.090   2.159   3.863
 9853SOL     OW30457   6.514   4.129   1.904
 9853SOL    HW130458   6.443   4.172   1.961
 9853SOL    HW230459   6.594   4.111   1.961
 9854SOL     OW30460   4.698   6.047   3.418
 9854SOL    HW130461   4.790   6.022   3.446
 9854SOL    HW230462   4.642   5.965   3.408
 9855SOL     OW30463   1.383   3.235   1.124
 9855SOL    HW130464   1.476   3.203   1.140
 9855SOL    HW230465   1.370   3.324   1.169
 9856SOL     OW30466   4.376   3.031   1.197
 9856SOL    HW130467   4.297   2.970   1.203
 9856SOL    HW230468   4.459   2.981   1.222
 9857SOL     OW30469   5.349   4.137   3.341
 9857SOL    HW130470   5.351   4.044   3.377
 9857SOL    HW230471   5.302   4.196   3.407
 9858SOL     OW30472   4.434   1.358   1.317
 9858SOL    HW130473   4.402   1.276   1.270
 9858SOL    HW230474   4.534   1.361   1.315
 9859SOL     OW30475   6.460   0.596   1.901
 9859SOL    HW130476   6.453   0.572   1.804
 9859SOL    HW230477   6.411   0.528   1.955
 9860SOL     OW30478   0.635   1.105   2.519
 9860SOL    HW130479   0.563   1.174   2.512
 9860SOL    HW230480   0.659   1.092   2.616
 9861SOL     OW30481   4.147   6.813   4.442
 9861SOL    HW130482   4.226   6.846   4.390
 9861SOL    HW230483   4.065   6.859   4.411
 9862SOL     OW30484   0.541   2.474   0.541
 9862SOL    HW130485   0.569   2.384   0.509
 9862SOL    HW230486   0.609   2.510   0.604
 9863SOL     OW30487   2.946   6.904   0.772
 9863SOL    HW130488   3.037   6.910   0.815
 9863SOL    HW230489   2.880   6.870   0.839
 9864SOL     OW30490   4.567   5.922   2.020
 9864SOL    HW130491   4.489   5.977   2.049
 9864SOL    HW230492   4.591   5.945   1.926
 9865SOL     OW30493   0.371   2.110   4.987
 9865SOL    HW130494   0.400   2.065   4.903
 9865SOL    HW230495   0.271   2.114   4.990
 9866SOL     OW30496   4.324   4.640   3.506
 9866SOL    HW130497   4.347   4.706   3.434
 9866SOL    HW230498   4.226   4.642   3.523
 9867SOL     OW30499   3.941   0.665   6.472
 9867SOL    HW130500   3.884   0.586   6.491
 9867SOL    HW230501   3.889   0.733   6.420
 9868SOL     OW30502   6.920   5.103   0.045
 9868SOL    HW130503   6.862   5.022   0.035
 9868SOL    HW230504   6.932   5.124   0.142
 9869SOL     OW30505   1.336   3.573   3.452
 9869SOL    HW130506   1.392   3.600   3.530
 9869SOL    HW230507   1.299   3.655   3.408
 9870SOL     OW30508   4.811   4.634   2.675
 9870SOL    HW130509   4.874   4.688   2.620
 9870SOL    HW230510   4.739   4.693   2.711
 9871SOL     OW30511   1.671   1.179   5.023
 9871SOL    HW130512   1.731   1.188   4.944
 9871SOL    HW230513   1.603   1.108   5.005
 9872SOL     OW30514   1.886   4.912   3.398
 9872SOL    HW130515   1.877   4.852   3.318
 9872SOL    HW230516   1.825   4.879   3.471
 9873SOL     OW30517   0.641   2.828   0.858
 9873SOL    HW130518   0.572   2.897   0.884
 9873SOL    HW230519   0.728   2.874   0.838
 9874SOL     OW30520   0.710   2.446   3.536
 9874SOL    HW130521   0.725   2.539   3.503
 9874SOL    HW230522   0.706   2.446   3.636
 9875SOL     OW30523   1.020   0.774   3.225
 9875SOL    HW130524   0.956   0.838   3.185
 9875SOL    HW230525   1.059   0.717   3.153
 9876SOL     OW30526   0.114   6.329   2.678
 9876SOL    HW130527   0.148   6.325   2.772
 9876SOL    HW230528   0.074   6.240   2.654
 9877SOL     OW30529   3.408   0.117   2.336
 9877SOL    HW130530   3.378   0.090   2.244
 9877SOL    HW230531   3.330   0.111   2.398
 9878SOL     OW30532   0.610   6.776   5.125
 9878SOL    HW130533   0.671   6.769   5.046
 9878SOL    HW230534   0.518   6.747   5.097
 9879SOL     OW30535   5.104   6.226   5.964
 9879SOL    HW130536   5.072   6.313   6.004
 9879SOL    HW230537   5.166   6.181   6.028
 9880SOL     OW30538   1.602   1.813   5.166
 9880SOL    HW130539   1.619   1.724   5.124
 9880SOL    HW230540   1.601   1.883   5.095
 9881SOL     OW30541   0.417   2.408   6.379
 9881SOL    HW130542   0.394   2.332   6.439
 9881SOL    HW230543   0.509   2.395   6.343
 9882SOL     OW30544   0.843   1.410   3.337
 9882SOL    HW130545   0.760   1.447   3.294
 9882SOL    HW230546   0.878   1.475   3.404
 9883SOL     OW30547   2.014   0.300   1.575
 9883SOL    HW130548   2.027   0.310   1.674
 9883SOL    HW230549   2.087   0.349   1.527
 9884SOL     OW30550   3.737   0.583   4.160
 9884SOL    HW130551   3.713   0.538   4.074
 9884SOL    HW230552   3.833   0.610   4.157
 9885SOL     OW30553   6.105   5.107   4.035
 9885SOL    HW130554   6.162   5.127   4.114
 9885SOL    HW230555   6.153   5.133   3.951
 9886SOL     OW30556   1.171   3.805   2.342
 9886SOL    HW130557   1.083   3.819   2.296
 9886SOL    HW230558   1.192   3.708   2.346
 9887SOL     OW30559   4.182   0.734   6.295
 9887SOL    HW130560   4.115   0.681   6.347
 9887SOL    HW230561   4.190   0.696   6.203
 9888SOL     OW30562   6.904   4.121   0.137
 9888SOL    HW130563   6.903   4.024   0.160
 9888SOL    HW230564   6.872   4.134   0.043
 9889SOL     OW30565   0.140   4.822   0.201
 9889SOL    HW130566   0.131   4.802   0.104
 9889SOL    HW230567   0.105   4.914   0.220
 9890SOL     OW30568   1.122   2.831   1.268
 9890SOL    HW130569   1.076   2.901   1.214
 9890SOL    HW230570   1.169   2.873   1.346
 9891SOL     OW30571   5.190   1.886   1.572
 9891SOL    HW130572   5.157   1.930   1.656
 9891SOL    HW230573   5.256   1.946   1.527
 9892SOL     OW30574   0.025   5.534   6.405
 9892SOL    HW130575   0.068   5.453   6.365
 9892SOL    HW230576   0.089   5.577   6.469
 9893SOL     OW30577   1.797   1.007   0.901
 9893SOL    HW130578   1.857   0.933   0.931
 9893SOL    HW230579   1.852   1.087   0.877
 9894SOL     OW30580   1.663   2.068   0.326
 9894SOL    HW130581   1.696   1.983   0.366
 9894SOL    HW230582   1.579   2.096   0.371
 9895SOL     OW30583   5.508   3.123   5.627
 9895SOL    HW130584   5.466   3.176   5.701
 9895SOL    HW230585   5.437   3.078   5.573
 9896SOL     OW30586   5.957   0.195   0.073
 9896SOL    HW130587   6.023   0.141   0.022
 9896SOL    HW230588   5.865   0.178   0.039
 9897SOL     OW30589   5.135   5.183   3.602
 9897SOL    HW130590   5.089   5.230   3.677
 9897SOL    HW230591   5.113   5.085   3.606
 9898SOL     OW30592   3.542   6.228   5.289
 9898SOL    HW130593   3.609   6.187   5.227
 9898SOL    HW230594   3.522   6.164   5.363
 9899SOL     OW30595   0.208   5.564   0.036
 9899SOL    HW130596   0.169   5.656   0.043
 9899SOL    HW230597   0.194   5.529   6.969
 9900SOL     OW30598   1.970   3.907   3.352
 9900SOL    HW130599   2.009   3.898   3.444
 9900SOL    HW230600   2.008   3.988   3.308
 9901SOL     OW30601   1.959   2.166   5.370
 9901SOL    HW130602   1.861   2.167   5.390
 9901SOL    HW230603   2.003   2.094   5.424
 9902SOL     OW30604   2.743   4.497   0.083
 9902SOL    HW130605   2.779   4.462   7.022
 9902SOL    HW230606   2.770   4.593   0.094
 9903SOL     OW30607   5.697   1.255   3.215
 9903SOL    HW130608   5.635   1.201   3.158
 9903SOL    HW230609   5.772   1.291   3.160
 9904SOL     OW30610   6.904   3.034   6.123
 9904SOL    HW130611   7.002   3.019   6.121
 9904SOL    HW230612   6.857   2.963   6.071
 9905SOL     OW30613   4.196   1.370   0.436
 9905SOL    HW130614   4.155   1.438   0.376
 9905SOL    HW230615   4.140   1.360   0.518
 9906SOL     OW30616   3.983   3.980   4.346
 9906SOL    HW130617   4.040   4.048   4.393
 9906SOL    HW230618   4.038   3.932   4.278
 9907SOL     OW30619   0.967   6.910   1.473
 9907SOL    HW130620   0.911   6.827   1.480
 9907SOL    HW230621   1.053   6.888   1.427
 9908SOL     OW30622   5.004   3.450   3.164
 9908SOL    HW130623   5.027   3.381   3.095
 9908SOL    HW230624   4.958   3.406   3.241
 9909SOL     OW30625   2.072   0.164   5.081
 9909SOL    HW130626   1.979   0.201   5.077
 9909SOL    HW230627   2.138   0.238   5.073
 9910SOL     OW30628   1.036   4.010   3.032
 9910SOL    HW130629   1.115   4.071   3.028
 9910SOL    HW230630   0.958   4.058   3.071
 9911SOL     OW30631   3.002   6.299   2.196
 9911SOL    HW130632   2.988   6.332   2.290
 9911SOL    HW230633   3.066   6.222   2.197
 9912SOL     OW30634   4.381   1.100   0.070
 9912SOL    HW130635   4.404   1.147   7.011
 9912SOL    HW230636   4.464   1.088   0.125
 9913SOL     OW30637   5.906   3.251   7.015
 9913SOL    HW130638   5.870   3.324   6.957
 9913SOL    HW230639   6.004   3.267   0.005
 9914SOL     OW30640   0.714   2.959   5.222
 9914SOL    HW130641   0.716   2.953   5.122
 9914SOL    HW230642   0.764   2.882   5.261
 9915SOL     OW30643   5.753   1.033   3.448
 9915SOL    HW130644   5.718   1.119   3.486
 9915SOL    HW230645   5.696   1.005   3.370
 9916SOL     OW30646   2.261   2.371   2.291
 9916SOL    HW130647   2.187   2.397   2.229
 9916SOL    HW230648   2.315   2.452   2.314
 9917SOL     OW30649   6.661   4.038   5.061
 9917SOL    HW130650   6.669   4.033   4.962
 9917SOL    HW230651   6.693   3.952   5.102
 9918SOL     OW30652   4.211   2.241   2.670
 9918SOL    HW130653   4.284   2.287   2.619
 9918SOL    HW230654   4.127   2.242   2.616
 9919SOL     OW30655   6.581   6.015   0.488
 9919SOL    HW130656   6.528   6.013   0.403
 9919SOL    HW230657   6.523   6.049   0.562
 9920SOL     OW30658   4.739   1.418   2.255
 9920SOL    HW130659   4.714   1.372   2.170
 9920SOL    HW230660   4.796   1.357   2.310
 9921SOL     OW30661   4.003   5.520   5.826
 9921SOL    HW130662   4.102   5.518   5.823
 9921SOL    HW230663   3.968   5.437   5.869
 9922SOL     OW30664   0.089   5.605   0.594
 9922SOL    HW130665   0.025   5.595   0.671
 9922SOL    HW230666   0.181   5.620   0.630
 9923SOL     OW30667   5.204   4.589   0.273
 9923SOL    HW130668   5.299   4.567   0.252
 9923SOL    HW230669   5.199   4.677   0.320
 9924SOL     OW30670   0.584   3.604   4.726
 9924SOL    HW130671   0.621   3.565   4.811
 9924SOL    HW230672   0.657   3.651   4.677
 9925SOL     OW30673   5.360   2.027   4.143
 9925SOL    HW130674   5.297   1.974   4.087
 9925SOL    HW230675   5.388   2.109   4.092
 9926SOL     OW30676   2.165   4.896   0.165
 9926SOL    HW130677   2.207   4.947   0.090
 9926SOL    HW230678   2.138   4.959   0.237
 9927SOL     OW30679   6.259   6.889   2.957
 9927SOL    HW130680   6.235   6.868   3.052
 9927SOL    HW230681   6.175   6.890   2.902
 9928SOL     OW30682   4.950   4.592   1.398
 9928SOL    HW130683   4.997   4.641   1.471
 9928SOL    HW230684   4.909   4.509   1.434
 9929SOL     OW30685   2.666   4.693   3.757
 9929SOL    HW130686   2.636   4.598   3.757
 9929SOL    HW230687   2.595   4.750   3.715
 9930SOL     OW30688   6.609   0.313   3.825
 9930SOL    HW130689   6.654   0.295   3.737
 9930SOL    HW230690   6.652   0.392   3.869
 9931SOL     OW30691   1.085   4.822   5.450
 9931SOL    HW130692   1.115   4.751   5.386
 9931SOL    HW230693   0.985   4.816   5.461
 9932SOL     OW30694   0.840   6.087   5.168
 9932SOL    HW130695   0.830   6.082   5.068
 9932SOL    HW230696   0.900   6.164   5.191
 9933SOL     OW30697   0.528   5.735   2.427
 9933SOL    HW130698   0.448   5.773   2.473
 9933SOL    HW230699   0.546   5.786   2.342
 9934SOL     OW30700   6.615   1.990   6.202
 9934SOL    HW130701   6.521   1.975   6.234
 9934SOL    HW230702   6.623   1.961   6.107
 9935SOL     OW30703   3.096   1.176   6.271
 9935SOL    HW130704   3.008   1.147   6.233
 9935SOL    HW230705   3.129   1.256   6.220
 9936SOL     OW30706   0.881   4.307   4.512
 9936SOL    HW130707   0.979   4.323   4.527
 9936SOL    HW230708   0.838   4.283   4.599
 9937SOL     OW30709   6.547   2.483   6.064
 9937SOL    HW130710   6.570   2.385   6.062
 9937SOL    HW230711   6.540   2.513   6.160
 9938SOL     OW30712   6.588   6.238   3.283
 9938SOL    HW130713   6.557   6.328   3.252
 9938SOL    HW230714   6.588   6.174   3.207
 9939SOL     OW30715   3.127   3.111   2.442
 9939SOL    HW130716   3.151   3.052   2.365
 9939SOL    HW230717   3.061   3.180   2.413
 9940SOL     OW30718   6.917   1.397   0.723
 9940SOL    HW130719   6.955   1.478   0.678
 9940SOL    HW230720   6.817   1.395   0.709
 9941SOL     OW30721   3.517   4.882   5.665
 9941SOL    HW130722   3.479   4.972   5.685
 9941SOL    HW230723   3.463   4.839   5.592
 9942SOL     OW30724   2.857   5.502   3.330
 9942SOL    HW130725   2.884   5.410   3.360
 9942SOL    HW230726   2.832   5.499   3.233
 9943SOL     OW30727   0.926   6.631   5.294
 9943SOL    HW130728   0.892   6.544   5.330
 9943SOL    HW230729   0.859   6.703   5.311
 9944SOL     OW30730   0.712   3.945   0.204
 9944SOL    HW130731   0.768   3.865   0.226
 9944SOL    HW230732   0.678   3.985   0.289
 9945SOL     OW30733   6.631   5.412   0.117
 9945SOL    HW130734   6.609   5.317   0.096
 9945SOL    HW230735   6.685   5.417   0.200
 9946SOL     OW30736   4.778   0.507   5.002
 9946SOL    HW130737   4.818   0.595   5.031
 9946SOL    HW230738   4.833   0.432   5.039
 9947SOL     OW30739   6.299   4.719   4.012
 9947SOL    HW130740   6.312   4.626   3.980
 9947SOL    HW230741   6.231   4.766   3.956
 9948SOL     OW30742   4.790   4.732   4.822
 9948SOL    HW130743   4.756   4.826   4.813
 9948SOL    HW230744   4.714   4.671   4.842
 9949SOL     OW30745   5.329   5.272   3.184
 9949SOL    HW130746   5.412   5.325   3.201
 9949SOL    HW230747   5.316   5.205   3.257
 9950SOL     OW30748   4.179   6.048   5.487
 9950SOL    HW130749   4.091   6.026   5.446
 9950SOL    HW230750   4.200   5.982   5.559
 9951SOL     OW30751   5.945   1.863   3.247
 9951SOL    HW130752   5.882   1.806   3.301
 9951SOL    HW230753   5.899   1.895   3.165
 9952SOL     OW30754   6.964   5.079   0.342
 9952SOL    HW130755   6.868   5.054   0.332
 9952SOL    HW230756   6.977   5.130   0.427
 9953SOL     OW30757   0.148   1.400   4.378
 9953SOL    HW130758   0.144   1.354   4.466
 9953SOL    HW230759   0.104   1.343   4.308
 9954SOL     OW30760   4.749   0.411   5.395
 9954SOL    HW130761   4.842   0.412   5.357
 9954SOL    HW230762   4.694   0.344   5.344
 9955SOL     OW30763   0.757   4.198   5.136
 9955SOL    HW130764   0.692   4.122   5.130
 9955SOL    HW230765   0.717   4.279   5.093
 9956SOL     OW30766   1.907   6.121   1.314
 9956SOL    HW130767   1.815   6.156   1.301
 9956SOL    HW230768   1.941   6.148   1.404
 9957SOL     OW30769   6.204   3.986   3.140
 9957SOL    HW130770   6.146   3.991   3.222
 9957SOL    HW230771   6.154   3.938   3.067
 9958SOL     OW30772   2.398   4.337   1.469
 9958SOL    HW130773   2.409   4.242   1.497
 9958SOL    HW230774   2.316   4.375   1.514
 9959SOL     OW30775   3.820   3.659   0.542
 9959SOL    HW130776   3.724   3.687   0.529
 9959SOL    HW230777   3.849   3.683   0.634
 9960SOL     OW30778   0.683   1.420   2.484
 9960SOL    HW130779   0.602   1.385   2.532
 9960SOL    HW230780   0.757   1.435   2.550
 9961SOL     OW30781   2.191   4.504   4.816
 9961SOL    HW130782   2.236   4.419   4.789
 9961SOL    HW230783   2.235   4.541   4.897
 9962SOL     OW30784   5.466   6.149   5.309
 9962SOL    HW130785   5.446   6.056   5.341
 9962SOL    HW230786   5.381   6.202   5.307
 9963SOL     OW30787   3.151   0.885   0.527
 9963SOL    HW130788   3.085   0.905   0.455
 9963SOL    HW230789   3.104   0.850   0.608
 9964SOL     OW30790   4.541   5.753   5.556
 9964SOL    HW130791   4.554   5.849   5.580
 9964SOL    HW230792   4.513   5.747   5.460
 9965SOL     OW30793   4.246   0.372   0.263
 9965SOL    HW130794   4.277   0.467   0.261
 9965SOL    HW230795   4.225   0.346   0.357
 9966SOL     OW30796   0.889   0.205   2.874
 9966SOL    HW130797   0.814   0.217   2.940
 9966SOL    HW230798   0.930   0.115   2.886
 9967SOL     OW30799   1.103   5.362   0.483
 9967SOL    HW130800   1.134   5.269   0.499
 9967SOL    HW230801   1.026   5.383   0.545
 9968SOL     OW30802   3.716   2.871   2.755
 9968SOL    HW130803   3.775   2.791   2.749
 9968SOL    HW230804   3.636   2.858   2.697
 9969SOL     OW30805   0.694   3.698   1.485
 9969SOL    HW130806   0.755   3.652   1.549
 9969SOL    HW230807   0.631   3.631   1.445
 9970SOL     OW30808   5.475   4.354   1.432
 9970SOL    HW130809   5.554   4.309   1.474
 9970SOL    HW230810   5.402   4.287   1.420
 9971SOL     OW30811   2.299   5.446   0.200
 9971SOL    HW130812   2.285   5.388   0.280
 9971SOL    HW230813   2.259   5.401   0.120
 9972SOL     OW30814   6.773   4.581   1.768
 9972SOL    HW130815   6.693   4.527   1.793
 9972SOL    HW230816   6.850   4.555   1.827
 9973SOL     OW30817   5.519   6.922   4.679
 9973SOL    HW130818   5.565   6.834   4.691
 9973SOL    HW230819   5.557   6.968   4.599
 9974SOL     OW30820   1.958   0.538   4.204
 9974SOL    HW130821   1.905   0.585   4.134
 9974SOL    HW230822   2.036   0.491   4.163
 9975SOL     OW30823   7.012   3.108   0.506
 9975SOL    HW130824   0.050   3.184   0.516
 9975SOL    HW230825   6.936   3.119   0.569
 9976SOL     OW30826   1.826   0.209   4.981
 9976SOL    HW130827   1.741   0.182   5.027
 9976SOL    HW230828   1.810   0.293   4.929
 9977SOL     OW30829   6.651   4.609   4.387
 9977SOL    HW130830   6.642   4.675   4.462
 9977SOL    HW230831   6.705   4.530   4.418
 9978SOL     OW30832   6.920   2.200   4.131
 9978SOL    HW130833   6.957   2.109   4.113
 9978SOL    HW230834   6.823   2.192   4.154
 9979SOL     OW30835   0.267   3.789   5.223
 9979SOL    HW130836   0.345   3.730   5.245
 9979SOL    HW230837   0.275   3.875   5.272
 9980SOL     OW30838   3.792   0.066   5.099
 9980SOL    HW130839   3.721   0.002   5.127
 9980SOL    HW230840   3.776   0.156   5.141
 9981SOL     OW30841   3.550   2.132   4.227
 9981SOL    HW130842   3.451   2.113   4.227
 9981SOL    HW230843   3.584   2.132   4.321
 9982SOL     OW30844   6.193   5.980   3.638
 9982SOL    HW130845   6.097   6.004   3.650
 9982SOL    HW230846   6.207   5.940   3.548
 9983SOL     OW30847   0.359   1.139   1.255
 9983SOL    HW130848   0.381   1.057   1.201
 9983SOL    HW230849   0.402   1.219   1.213
 9984SOL     OW30850   2.723   0.899   0.172
 9984SOL    HW130851   2.664   0.980   0.172
 9984SOL    HW230852   2.719   0.855   0.082
 9985SOL     OW30853   1.397   0.603   1.846
 9985SOL    HW130854   1.298   0.610   1.833
 9985SOL    HW230855   1.425   0.507   1.837
 9986SOL     OW30856   5.456   4.379   4.804
 9986SOL    HW130857   5.467   4.301   4.866
 9986SOL    HW230858   5.369   4.371   4.756
 9987SOL     OW30859   6.837   3.972   6.212
 9987SOL    HW130860   6.738   3.963   6.216
 9987SOL    HW230861   6.877   3.933   6.295
 9988SOL     OW30862   6.546   6.843   4.545
 9988SOL    HW130863   6.618   6.779   4.516
 9988SOL    HW230864   6.542   6.920   4.482
 9989SOL     OW30865   0.806   3.676   5.069
 9989SOL    HW130866   0.748   3.628   5.004
 9989SOL    HW230867   0.883   3.617   5.095
 9990SOL     OW30868   1.060   5.241   2.303
 9990SOL    HW130869   0.987   5.285   2.356
 9990SOL    HW230870   1.019   5.189   2.228
 9991SOL     OW30871   4.104   2.204   3.595
 9991SOL    HW130872   4.042   2.127   3.610
 9991SOL    HW230873   4.135   2.204   3.500
 9992SOL     OW30874   6.387   5.405   6.187
 9992SOL    HW130875   6.434   5.328   6.144
 9992SOL    HW230876   6.449   5.484   6.190
 9993SOL     OW30877   0.699   0.656   1.692
 9993SOL    HW130878   0.690   0.754   1.712
 9993SOL    HW230879   0.796   0.631   1.697
 9994SOL     OW30880   5.927   4.785   2.998
 9994SOL    HW130881   6.019   4.760   3.029
 9994SOL    HW230882   5.889   4.710   2.943
 9995SOL     OW30883   4.823   0.886   5.181
 9995SOL    HW130884   4.826   0.835   5.095
 9995SOL    HW230885   4.901   0.948   5.185
 9996SOL     OW30886   2.627   3.711   0.041
 9996SOL    HW130887   2.555   3.775   0.067
 9996SOL    HW230888   2.700   3.760   7.019
 9997SOL     OW30889   2.832   0.139   4.983
 9997SOL    HW130890   2.886   0.223   4.983
 9997SOL    HW230891   2.765   0.143   5.057
 9998SOL     OW30892   5.720   6.279   5.378
 9998SOL    HW130893   5.627   6.251   5.352
 9998SOL    HW230894   5.718   6.372   5.416
 9999SOL     OW30895   0.406   2.924   4.565
 9999SOL    HW130896   0.499   2.958   4.583
 9999SOL    HW230897   0.339   2.991   4.598
10000SOL     OW30898   6.892   3.643   0.079
10000SOL    HW130899   6.825   3.586   0.032
10000SOL    HW230900   6.970   3.588   0.106
10001SOL     OW30901   4.079   0.193   2.832
10001SOL    HW130902   4.052   0.210   2.927
10001SOL    HW230903   4.127   0.105   2.827
10002SOL     OW30904   0.815   1.840   1.933
10002SOL    HW130905   0.808   1.752   1.887
10002SOL    HW230906   0.745   1.845   2.005
10003SOL     OW30907   4.618   1.767   3.610
10003SOL    HW130908   4.579   1.857   3.632
10003SOL    HW230909   4.577   1.733   3.525
10004SOL     OW30910   0.647   2.074   2.950
10004SOL    HW130911   0.689   2.161   2.923
10004SOL    HW230912   0.599   2.034   2.871
10005SOL     OW30913   5.192   6.649   4.403
10005SOL    HW130914   5.211   6.629   4.499
10005SOL    HW230915   5.097   6.628   4.382
10006SOL     OW30916   4.543   0.919   4.801
10006SOL    HW130917   4.517   0.936   4.895
10006SOL    HW230918   4.528   0.823   4.778
10007SOL     OW30919   6.507   3.256   4.046
10007SOL    HW130920   6.607   3.259   4.052
10007SOL    HW230921   6.469   3.267   4.138
10008SOL     OW30922   3.694   0.057   3.961
10008SOL    HW130923   3.595   0.069   3.948
10008SOL    HW230924   3.739   0.057   3.871
10009SOL     OW30925   0.924   4.118   1.927
10009SOL    HW130926   0.837   4.132   1.973
10009SOL    HW230927   0.910   4.061   1.846
10010SOL     OW30928   0.049   1.535   6.364
10010SOL    HW130929   0.036   1.565   6.458
10010SOL    HW230930   0.011   1.444   6.352
10011SOL     OW30931   6.972   6.728   4.774
10011SOL    HW130932   6.971   6.661   4.700
10011SOL    HW230933   0.017   6.797   4.756
10012SOL     OW30934   5.718   0.803   3.920
10012SOL    HW130935   5.665   0.855   3.853
10012SOL    HW230936   5.671   0.717   3.940
10013SOL     OW30937   1.221   0.679   2.461
10013SOL    HW130938   1.264   0.762   2.496
10013SOL    HW230939   1.286   0.629   2.404
10014SOL     OW30940   1.873   5.313   6.064
10014SOL    HW130941   1.899   5.222   6.031
10014SOL    HW230942   1.886   5.318   6.163
10015SOL     OW30943   2.424   4.781   0.191
10015SOL    HW130944   2.326   4.799   0.181
10015SOL    HW230945   2.445   4.762   0.287
10016SOL     OW30946   2.416   0.641   5.548
10016SOL    HW130947   2.407   0.636   5.648
10016SOL    HW230948   2.415   0.548   5.511
10017SOL     OW30949   0.938   1.724   4.088
10017SOL    HW130950   0.841   1.740   4.070
10017SOL    HW230951   0.975   1.797   4.144
10018SOL     OW30952   4.566   6.608   6.594
10018SOL    HW130953   4.568   6.583   6.497
10018SOL    HW230954   4.564   6.707   6.603
10019SOL     OW30955   1.773   1.243   2.145
10019SOL    HW130956   1.675   1.239   2.167
10019SOL    HW230957   1.823   1.181   2.204
10020SOL     OW30958   6.754   3.054   0.616
10020SOL    HW130959   6.674   3.073   0.560
10020SOL    HW230960   6.762   3.123   0.688
10021SOL     OW30961   6.054   3.557   0.913
10021SOL    HW130962   6.112   3.612   0.973
10021SOL    HW230963   5.984   3.511   0.968
10022SOL     OW30964   1.780   0.637   6.537
10022SOL    HW130965   1.764   0.726   6.579
10022SOL    HW230966   1.820   0.574   6.604
10023SOL     OW30967   7.004   3.516   1.415
10023SOL    HW130968   6.906   3.503   1.428
10023SOL    HW230969   0.010   3.459   1.339
10024SOL     OW30970   1.295   4.745   3.193
10024SOL    HW130971   1.344   4.674   3.242
10024SOL    HW230972   1.225   4.703   3.134
10025SOL     OW30973   0.972   1.673   0.400
10025SOL    HW130974   1.018   1.644   0.317
10025SOL    HW230975   0.873   1.673   0.385
10026SOL     OW30976   0.125   0.750   3.686
10026SOL    HW130977   0.086   0.798   3.608
10026SOL    HW230978   0.071   0.668   3.705
10027SOL     OW30979   4.874   2.350   5.976
10027SOL    HW130980   4.936   2.392   5.910
10027SOL    HW230981   4.838   2.264   5.939
10028SOL     OW30982   2.077   0.800   0.891
10028SOL    HW130983   2.153   0.863   0.907
10028SOL    HW230984   2.094   0.714   0.938
10029SOL     OW30985   5.097   2.052   3.567
10029SOL    HW130986   5.093   2.051   3.467
10029SOL    HW230987   5.192   2.053   3.597
10030SOL     OW30988   2.020   0.831   3.195
10030SOL    HW130989   1.935   0.849   3.146
10030SOL    HW230990   2.035   0.902   3.264
10031SOL     OW30991   6.394   4.580   4.374
10031SOL    HW130992   6.492   4.572   4.391
10031SOL    HW230993   6.345   4.571   4.461
10032SOL     OW30994   2.762   1.633   5.376
10032SOL    HW130995   2.698   1.642   5.453
10032SOL    HW230996   2.847   1.591   5.409
10033SOL     OW30997   5.895   2.692   4.683
10033SOL    HW130998   5.863   2.722   4.773
10033SOL    HW230999   5.909   2.593   4.684
10034SOL     OW31000   4.829   0.293   6.249
10034SOL    HW131001   4.918   0.248   6.242
10034SOL    HW231002   4.768   0.256   6.179
10035SOL     OW31003   0.338   6.492   3.148
10035SOL    HW131004   0.415   6.434   3.120
10035SOL    HW231005   0.308   6.547   3.070
10036SOL     OW31006   6.726   0.913   0.052
10036SOL    HW131007   6.821   0.893   0.029
10036SOL    HW231008   6.721   1.000   0.099
10037SOL     OW31009   0.398   6.785   1.153
10037SOL    HW131010   0.446   6.869   1.178
10037SOL    HW231011   0.347   6.751   1.232
10038SOL     OW31012   6.394   0.580   0.997
10038SOL    HW131013   6.439   0.549   1.080
10038SOL    HW231014   6.436   0.665   0.966
10039SOL     OW31015   3.328   0.473   3.259
10039SOL    HW131016   3.279   0.386   3.272
10039SOL    HW231017   3.279   0.546   3.307
10040SOL     OW31018   0.073   2.316   1.052
10040SOL    HW131019   0.171   2.319   1.070
10040SOL    HW231020   0.030   2.399   1.089
10041SOL     OW31021   1.836   5.886   0.821
10041SOL    HW131022   1.929   5.858   0.843
10041SOL    HW231023   1.771   5.835   0.877
10042SOL     OW31024   6.064   2.624   2.928
10042SOL    HW131025   6.130   2.637   2.855
10042SOL    HW231026   5.972   2.649   2.896
10043SOL     OW31027   0.838   2.520   5.306
10043SOL    HW131028   0.870   2.516   5.212
10043SOL    HW231029   0.834   2.616   5.336
10044SOL     OW31030   4.150   1.514   6.131
10044SOL    HW131031   4.050   1.520   6.137
10044SOL    HW231032   4.181   1.431   6.177
10045SOL     OW31033   2.354   0.794   0.526
10045SOL    HW131034   2.256   0.795   0.544
10045SOL    HW231035   2.391   0.704   0.550
10046SOL     OW31036   1.110   5.191   1.208
10046SOL    HW131037   1.081   5.284   1.187
10046SOL    HW231038   1.078   5.165   1.299
10047SOL     OW31039   0.914   4.178   0.860
10047SOL    HW131040   0.904   4.235   0.941
10047SOL    HW231041   1.001   4.129   0.864
10048SOL     OW31042   5.531   5.088   2.809
10048SOL    HW131043   5.536   5.132   2.719
10048SOL    HW231044   5.621   5.050   2.832
10049SOL     OW31045   5.902   1.097   5.096
10049SOL    HW131046   5.970   1.030   5.067
10049SOL    HW231047   5.944   1.188   5.097
10050SOL     OW31048   0.486   2.808   6.490
10050SOL    HW131049   0.454   2.753   6.568
10050SOL    HW231050   0.460   2.762   6.405
10051SOL     OW31051   2.412   2.219   3.929
10051SOL    HW131052   2.368   2.166   3.856
10051SOL    HW231053   2.506   2.188   3.941
10052SOL     OW31054   1.661   0.368   3.433
10052SOL    HW131055   1.676   0.435   3.360
10052SOL    HW231056   1.721   0.389   3.510
10053SOL     OW31057   5.670   5.181   3.405
10053SOL    HW131058   5.634   5.274   3.394
10053SOL    HW231059   5.751   5.184   3.463
10054SOL     OW31060   6.889   4.414   4.520
10054SOL    HW131061   6.872   4.349   4.445
10054SOL    HW231062   6.907   4.363   4.604
10055SOL     OW31063   1.653   2.831   6.741
10055SOL    HW131064   1.626   2.913   6.792
10055SOL    HW231065   1.574   2.795   6.692
10056SOL     OW31066   6.332   2.074   4.259
10056SOL    HW131067   6.253   2.068   4.198
10056SOL    HW231068   6.301   2.065   4.354
10057SOL     OW31069   5.088   4.687   5.402
10057SOL    HW131070   5.186   4.686   5.423
10057SOL    HW231071   5.070   4.749   5.326
10058SOL     OW31072   0.108   4.112   4.737
10058SOL    HW131073   0.090   4.018   4.766
10058SOL    HW231074   0.086   4.122   4.640
10059SOL     OW31075   5.473   0.081   6.793
10059SOL    HW131076   5.544   0.011   6.809
10059SOL    HW231077   5.517   0.168   6.771
10060SOL     OW31078   2.970   1.887   1.819
10060SOL    HW131079   3.044   1.951   1.794
10060SOL    HW231080   2.940   1.838   1.738
10061SOL     OW31081   3.138   6.896   2.227
10061SOL    HW131082   3.097   6.843   2.153
10061SOL    HW231083   3.128   6.994   2.207
10062SOL     OW31084   0.790   6.779   4.942
10062SOL    HW131085   0.836   6.690   4.943
10062SOL    HW231086   0.811   6.826   4.856
10063SOL     OW31087   2.781   2.359   4.970
10063SOL    HW131088   2.696   2.312   4.992
10063SOL    HW231089   2.847   2.344   5.044
10064SOL     OW31090   2.705   6.887   1.432
10064SOL    HW131091   2.736   6.946   1.357
10064SOL    HW231092   2.673   6.943   1.508
10065SOL     OW31093   0.242   1.705   1.615
10065SOL    HW131094   0.213   1.629   1.557
10065SOL    HW231095   0.274   1.780   1.557
10066SOL     OW31096   6.346   5.087   3.496
10066SOL    HW131097   6.272   5.056   3.437
10066SOL    HW231098   6.353   5.187   3.493
10067SOL     OW31099   6.981   3.087   5.255
10067SOL    HW131100   6.912   3.096   5.183
10067SOL    HW231101   0.045   3.071   5.213
10068SOL     OW31102   1.405   3.559   2.389
10068SOL    HW131103   1.493   3.585   2.348
10068SOL    HW231104   1.417   3.547   2.488
10069SOL     OW31105   3.508   4.673   0.958
10069SOL    HW131106   3.475   4.579   0.958
10069SOL    HW231107   3.500   4.711   0.866
10070SOL     OW31108   5.263   0.063   6.983
10070SOL    HW131109   5.339   0.073   6.919
10070SOL    HW231110   5.240   6.991   6.992
10071SOL     OW31111   5.628   0.990   5.849
10071SOL    HW131112   5.551   0.941   5.810
10071SOL    HW231113   5.677   1.039   5.777
10072SOL     OW31114   5.827   3.152   1.635
10072SOL    HW131115   5.745   3.207   1.649
10072SOL    HW231116   5.849   3.103   1.719
10073SOL     OW31117   5.650   5.236   4.961
10073SOL    HW131118   5.724   5.229   4.895
10073SOL    HW231119   5.566   5.198   4.921
10074SOL     OW31120   2.221   4.487   0.244
10074SOL    HW131121   2.227   4.587   0.234
10074SOL    HW231122   2.135   4.464   0.290
10075SOL     OW31123   1.212   3.404   1.722
10075SOL    HW131124   1.160   3.487   1.738
10075SOL    HW231125   1.305   3.415   1.756
10076SOL     OW31126   5.352   4.851   4.348
10076SOL    HW131127   5.273   4.790   4.353
10076SOL    HW231128   5.421   4.822   4.414
10077SOL     OW31129   4.632   3.705   6.362
10077SOL    HW131130   4.590   3.628   6.313
10077SOL    HW231131   4.575   3.729   6.440
10078SOL     OW31132   6.373   5.418   4.378
10078SOL    HW131133   6.466   5.406   4.414
10078SOL    HW231134   6.306   5.397   4.450
10079SOL     OW31135   5.072   4.437   3.870
10079SOL    HW131136   5.153   4.450   3.927
10079SOL    HW231137   5.035   4.525   3.842
10080SOL     OW31138   5.058   1.719   5.439
10080SOL    HW131139   5.078   1.705   5.536
10080SOL    HW231140   5.079   1.636   5.388
10081SOL     OW31141   1.133   4.979   1.052
10081SOL    HW131142   1.116   4.889   1.090
10081SOL    HW231143   1.137   5.047   1.126
10082SOL     OW31144   1.046   4.522   1.083
10082SOL    HW131145   0.987   4.445   1.108
10082SOL    HW231146   1.037   4.540   0.985
10083SOL     OW31147   2.811   6.093   2.556
10083SOL    HW131148   2.820   6.017   2.491
10083SOL    HW231149   2.766   6.061   2.639
10084SOL     OW31150   0.958   2.248   4.624
10084SOL    HW131151   0.886   2.276   4.562
10084SOL    HW231152   0.968   2.316   4.697
10085SOL     OW31153   4.969   0.060   1.261
10085SOL    HW131154   5.040   7.017   1.276
10085SOL    HW231155   4.879   0.016   1.260
10086SOL     OW31156   4.678   6.428   3.066
10086SOL    HW131157   4.582   6.426   3.038
10086SOL    HW231158   4.736   6.444   2.987
10087SOL     OW31159   2.095   5.870   5.606
10087SOL    HW131160   2.023   5.899   5.669
10087SOL    HW231161   2.066   5.789   5.557
10088SOL     OW31162   6.474   2.451   1.672
10088SOL    HW131163   6.375   2.455   1.683
10088SOL    HW231164   6.498   2.467   1.576
10089SOL     OW31165   3.769   0.685   1.899
10089SOL    HW131166   3.834   0.753   1.866
10089SOL    HW231167   3.791   0.596   1.858
10090SOL     OW31168   1.482   6.338   3.347
10090SOL    HW131169   1.525   6.313   3.260
10090SOL    HW231170   1.552   6.346   3.418
10091SOL     OW31171   5.478   4.922   4.619
10091SOL    HW131172   5.424   4.903   4.701
10091SOL    HW231173   5.446   5.007   4.577
10092SOL     OW31174   1.348   1.911   3.396
10092SOL    HW131175   1.324   1.816   3.415
10092SOL    HW231176   1.416   1.942   3.462
10093SOL     OW31177   4.184   3.808   6.373
10093SOL    HW131178   4.149   3.900   6.393
10093SOL    HW231179   4.259   3.787   6.436
10094SOL     OW31180   3.292   2.213   0.258
10094SOL    HW131181   3.301   2.118   0.288
10094SOL    HW231182   3.348   2.228   0.177
10095SOL     OW31183   4.253   3.524   5.158
10095SOL    HW131184   4.185   3.498   5.227
10095SOL    HW231185   4.209   3.525   5.068
10096SOL     OW31186   6.282   3.635   2.370
10096SOL    HW131187   6.345   3.667   2.300
10096SOL    HW231188   6.217   3.707   2.393
10097SOL     OW31189   0.746   1.339   0.968
10097SOL    HW131190   0.819   1.321   0.902
10097SOL    HW231191   0.678   1.400   0.926
10098SOL     OW31192   3.583   5.611   4.670
10098SOL    HW131193   3.493   5.577   4.644
10098SOL    HW231194   3.581   5.711   4.673
10099SOL     OW31195   6.869   4.558   3.430
10099SOL    HW131196   6.832   4.535   3.520
10099SOL    HW231197   6.847   4.653   3.408
10100SOL     OW31198   5.472   4.953   3.804
10100SOL    HW131199   5.514   4.920   3.720
10100SOL    HW231200   5.376   4.978   3.786
10101SOL     OW31201   6.364   3.106   0.362
10101SOL    HW131202   6.422   3.114   0.280
10101SOL    HW231203   6.405   3.158   0.437
10102SOL     OW31204   6.070   4.794   3.872
10102SOL    HW131205   6.021   4.861   3.928
10102SOL    HW231206   6.012   4.767   3.795
10103SOL     OW31207   0.282   6.402   6.652
10103SOL    HW131208   0.239   6.361   6.732
10103SOL    HW231209   0.360   6.346   6.624
10104SOL     OW31210   2.694   1.195   4.475
10104SOL    HW131211   2.610   1.190   4.422
10104SOL    HW231212   2.752   1.269   4.440
10105SOL     OW31213   3.038   1.348   3.422
10105SOL    HW131214   3.013   1.421   3.485
10105SOL    HW231215   3.137   1.350   3.406
10106SOL     OW31216   5.665   4.150   1.540
10106SOL    HW131217   5.748   4.095   1.535
10106SOL    HW231218   5.585   4.090   1.529
10107SOL     OW31219   5.686   5.734   6.577
10107SOL    HW131220   5.751   5.675   6.626
10107SOL    HW231221   5.725   5.825   6.565
10108SOL     OW31222   2.092   2.568   4.798
10108SOL    HW131223   2.123   2.477   4.770
10108SOL    HW231224   2.170   2.630   4.801
10109SOL     OW31225   1.032   2.471   1.061
10109SOL    HW131226   1.066   2.518   1.142
10109SOL    HW231227   1.091   2.392   1.042
10110SOL     OW31228   6.405   5.872   1.794
10110SOL    HW131229   6.413   5.927   1.711
10110SOL    HW231230   6.312   5.881   1.831
10111SOL     OW31231   6.698   2.295   2.006
10111SOL    HW131232   6.706   2.350   2.089
10111SOL    HW231233   6.614   2.321   1.957
10112SOL     OW31234   6.126   2.877   3.944
10112SOL    HW131235   6.070   2.948   3.901
10112SOL    HW231236   6.217   2.876   3.902
10113SOL     OW31237   6.571   6.617   5.671
10113SOL    HW131238   6.541   6.524   5.695
10113SOL    HW231239   6.550   6.679   5.747
10114SOL     OW31240   5.074   3.423   1.893
10114SOL    HW131241   5.085   3.356   1.967
10114SOL    HW231242   5.007   3.389   1.827
10115SOL     OW31243   3.252   3.041   5.956
10115SOL    HW131244   3.206   2.965   5.911
10115SOL    HW231245   3.215   3.127   5.922
10116SOL     OW31246   0.319   0.126   5.924
10116SOL    HW131247   0.223   0.118   5.898
10116SOL    HW231248   0.369   0.172   5.851
10117SOL     OW31249   6.661   4.392   2.039
10117SOL    HW131250   6.705   4.308   2.007
10117SOL    HW231251   6.615   4.437   1.963
10118SOL     OW31252   3.873   5.261   3.646
10118SOL    HW131253   3.797   5.224   3.592
10118SOL    HW231254   3.867   5.361   3.649
10119SOL     OW31255   6.372   6.130   6.575
10119SOL    HW131256   6.348   6.214   6.527
10119SOL    HW231257   6.417   6.067   6.512
10120SOL     OW31258   2.488   2.524   3.015
10120SOL    HW131259   2.550   2.473   2.956
10120SOL    HW231260   2.420   2.571   2.959
10121SOL     OW31261   6.794   5.125   1.204
10121SOL    HW131262   6.828   5.033   1.224
10121SOL    HW231263   6.842   5.161   1.125
10122SOL     OW31264   2.069   7.007   3.385
10122SOL    HW131265   1.985   0.021   3.423
10122SOL    HW231266   2.099   0.036   3.307
10123SOL     OW31267   6.566   5.626   6.144
10123SOL    HW131268   6.561   5.704   6.082
10123SOL    HW231269   6.659   5.590   6.145
10124SOL     OW31270   2.308   5.090   2.637
10124SOL    HW131271   2.387   5.029   2.639
10124SOL    HW231272   2.228   5.040   2.602
10125SOL     OW31273   1.178   0.810   5.002
10125SOL    HW131274   1.086   0.800   4.966
10125SOL    HW231275   1.188   0.756   5.085
10126SOL     OW31276   6.424   6.143   5.122
10126SOL    HW131277   6.424   6.169   5.218
10126SOL    HW231278   6.518   6.135   5.089
10127SOL     OW31279   2.385   0.026   5.761
10127SOL    HW131280   2.351   6.970   5.808
10127SOL    HW231281   2.451   7.025   5.691
10128SOL     OW31282   2.343   2.374   7.005
10128SOL    HW131283   2.421   2.377   0.043
10128SOL    HW231284   2.262   2.411   0.024
10129SOL     OW31285   5.937   2.012   4.699
10129SOL    HW131286   5.860   1.966   4.653
10129SOL    HW231287   6.017   1.953   4.695
10130SOL     OW31288   1.113   2.034   3.349
10130SOL    HW131289   1.070   1.999   3.265
10130SOL    HW231290   1.203   1.993   3.360
10131SOL     OW31291   1.948   6.839   5.157
10131SOL    HW131292   1.880   6.883   5.098
10131SOL    HW231293   1.999   6.771   5.105
10132SOL     OW31294   5.686   0.390   2.393
10132SOL    HW131295   5.777   0.352   2.411
10132SOL    HW231296   5.672   0.470   2.451
10133SOL     OW31297   4.957   6.496   1.176
10133SOL    HW131298   4.976   6.567   1.243
10133SOL    HW231299   4.878   6.443   1.206
10134SOL     OW31300   0.357   6.582   3.411
10134SOL    HW131301   0.333   6.510   3.476
10134SOL    HW231302   0.344   6.549   3.317
10135SOL     OW31303   6.199   6.587   3.213
10135SOL    HW131304   6.173   6.683   3.226
10135SOL    HW231305   6.298   6.581   3.197
10136SOL     OW31306   4.730   1.303   3.647
10136SOL    HW131307   4.753   1.207   3.663
10136SOL    HW231308   4.795   1.361   3.695
10137SOL     OW31309   6.921   6.078   4.316
10137SOL    HW131310   6.853   6.114   4.380
10137SOL    HW231311   6.945   5.984   4.341
10138SOL     OW31312   0.058   2.318   2.048
10138SOL    HW131313   7.009   2.310   1.982
10138SOL    HW231314   0.052   2.407   2.093
10139SOL     OW31315   3.699   2.787   6.428
10139SOL    HW131316   3.634   2.753   6.361
10139SOL    HW231317   3.666   2.768   6.521
10140SOL     OW31318   0.090   5.851   5.121
10140SOL    HW131319   0.042   5.768   5.148
10140SOL    HW231320   0.039   5.898   5.049
10141SOL     OW31321   1.660   2.853   4.437
10141SOL    HW131322   1.735   2.916   4.459
10141SOL    HW231323   1.632   2.805   4.520
10142SOL     OW31324   4.837   5.688   2.082
10142SOL    HW131325   4.753   5.639   2.103
10142SOL    HW231326   4.836   5.777   2.128
10143SOL     OW31327   5.804   2.810   5.994
10143SOL    HW131328   5.859   2.799   5.911
10143SOL    HW231329   5.715   2.767   5.981
10144SOL     OW31330   3.568   0.439   0.460
10144SOL    HW131331   3.557   0.481   0.370
10144SOL    HW231332   3.518   0.492   0.528
10145SOL     OW31333   6.618   6.628   5.409
10145SOL    HW131334   6.577   6.607   5.498
10145SOL    HW231335   6.665   6.716   5.414
10146SOL     OW31336   1.816   2.808   5.368
10146SOL    HW131337   1.793   2.717   5.333
10146SOL    HW231338   1.747   2.837   5.434
10147SOL     OW31339   3.835   5.738   6.776
10147SOL    HW131340   3.929   5.718   6.750
10147SOL    HW231341   3.813   5.689   6.860
10148SOL     OW31342   0.754   5.138   6.919
10148SOL    HW131343   0.832   5.200   6.924
10148SOL    HW231344   0.673   5.184   6.956
10149SOL     OW31345   3.942   3.162   1.936
10149SOL    HW131346   3.959   3.260   1.928
10149SOL    HW231347   3.924   3.123   1.846
10150SOL     OW31348   4.807   3.953   1.255
10150SOL    HW131349   4.848   3.933   1.166
10150SOL    HW231350   4.851   4.033   1.296
10151SOL     OW31351   6.769   0.850   5.964
10151SOL    HW131352   6.755   0.948   5.952
10151SOL    HW231353   6.781   0.830   6.061
10152SOL     OW31354   4.137   6.865   3.089
10152SOL    HW131355   4.174   6.790   3.035
10152SOL    HW231356   4.038   6.870   3.075
10153SOL     OW31357   4.660   3.677   1.665
10153SOL    HW131358   4.700   3.722   1.745
10153SOL    HW231359   4.598   3.741   1.619
10154SOL     OW31360   4.377   5.230   5.168
10154SOL    HW131361   4.286   5.256   5.201
10154SOL    HW231362   4.444   5.241   5.241
10155SOL     OW31363   4.811   2.276   4.298
10155SOL    HW131364   4.719   2.237   4.293
10155SOL    HW231365   4.824   2.340   4.223
10156SOL     OW31366   3.872   1.810   6.169
10156SOL    HW131367   3.896   1.715   6.148
10156SOL    HW231368   3.873   1.824   6.267
10157SOL     OW31369   0.484   4.674   1.006
10157SOL    HW131370   0.561   4.738   1.006
10157SOL    HW231371   0.513   4.586   0.969
10158SOL     OW31372   5.601   4.965   0.210
10158SOL    HW131373   5.623   5.004   0.120
10158SOL    HW231374   5.540   5.028   0.259
10159SOL     OW31375   3.490   2.864   2.579
10159SOL    HW131376   3.495   2.859   2.479
10159SOL    HW231377   3.395   2.862   2.608
10160SOL     OW31378   0.129   4.093   2.664
10160SOL    HW131379   0.182   4.111   2.581
10160SOL    HW231380   0.061   4.165   2.677
10161SOL     OW31381   5.797   3.501   5.815
10161SOL    HW131382   5.761   3.573   5.875
10161SOL    HW231383   5.861   3.542   5.750
10162SOL     OW31384   1.783   2.438   2.379
10162SOL    HW131385   1.867   2.392   2.408
10162SOL    HW231386   1.772   2.523   2.431
10163SOL     OW31387   3.278   4.990   4.861
10163SOL    HW131388   3.233   4.955   4.779
10163SOL    HW231389   3.224   4.968   4.942
10164SOL     OW31390   0.198   1.299   3.968
10164SOL    HW131391   0.264   1.244   4.020
10164SOL    HW231392   0.231   1.394   3.963
10165SOL     OW31393   1.680   3.414   4.248
10165SOL    HW131394   1.762   3.466   4.271
10165SOL    HW231395   1.688   3.377   4.156
10166SOL     OW31396   2.861   6.059   2.923
10166SOL    HW131397   2.916   6.140   2.901
10166SOL    HW231398   2.900   6.014   3.003
10167SOL     OW31399   2.984   2.160   6.427
10167SOL    HW131400   2.922   2.156   6.506
10167SOL    HW231401   3.008   2.067   6.398
10168SOL     OW31402   0.134   0.629   6.602
10168SOL    HW131403   0.034   0.631   6.607
10168SOL    HW231404   0.169   0.723   6.594
10169SOL     OW31405   4.469   5.742   2.875
10169SOL    HW131406   4.539   5.713   2.809
10169SOL    HW231407   4.513   5.789   2.951
10170SOL     OW31408   5.130   6.719   0.418
10170SOL    HW131409   5.211   6.773   0.441
10170SOL    HW231410   5.048   6.768   0.448
10171SOL     OW31411   2.121   4.166   4.156
10171SOL    HW131412   2.046   4.215   4.199
10171SOL    HW231413   2.101   4.068   4.157
10172SOL     OW31414   0.471   0.726   2.636
10172SOL    HW131415   0.420   0.642   2.619
10172SOL    HW231416   0.515   0.721   2.726
10173SOL     OW31417   3.702   3.845   4.962
10173SOL    HW131418   3.633   3.852   5.034
10173SOL    HW231419   3.764   3.770   4.983
10174SOL     OW31420   5.065   4.532   1.161
10174SOL    HW131421   4.994   4.573   1.218
10174SOL    HW231422   5.023   4.495   1.078
10175SOL     OW31423   6.655   0.114   4.083
10175SOL    HW131424   6.724   0.164   4.031
10175SOL    HW231425   6.627   0.033   4.032
10176SOL     OW31426   0.174   0.989   4.557
10176SOL    HW131427   0.093   0.950   4.601
10176SOL    HW231428   0.151   1.017   4.464
10177SOL     OW31429   2.663   1.630   4.081
10177SOL    HW131430   2.746   1.584   4.113
10177SOL    HW231431   2.651   1.613   3.983
10178SOL     OW31432   0.464   1.544   1.330
10178SOL    HW131433   0.396   1.491   1.380
10178SOL    HW231434   0.513   1.604   1.393
10179SOL     OW31435   0.049   6.047   1.073
10179SOL    HW131436   0.110   5.986   1.023
10179SOL    HW231437   0.076   6.142   1.057
10180SOL     OW31438   3.248   6.662   6.554
10180SOL    HW131439   3.208   6.644   6.644
10180SOL    HW231440   3.306   6.585   6.528
10181SOL     OW31441   0.276   3.783   3.339
10181SOL    HW131442   0.208   3.843   3.380
10181SOL    HW231443   0.309   3.824   3.254
10182SOL     OW31444   4.195   0.278   0.507
10182SOL    HW131445   4.289   0.249   0.523
10182SOL    HW231446   4.135   0.240   0.578
10183SOL     OW31447   4.476   6.414   5.780
10183SOL    HW131448   4.393   6.373   5.743
10183SOL    HW231449   4.509   6.485   5.718
10184SOL     OW31450   5.621   2.496   5.551
10184SOL    HW131451   5.607   2.547   5.466
10184SOL    HW231452   5.672   2.412   5.532
10185SOL     OW31453   3.051   4.821   2.361
10185SOL    HW131454   3.123   4.848   2.297
10185SOL    HW231455   3.077   4.848   2.454
10186SOL     OW31456   3.444   2.757   0.018
10186SOL    HW131457   3.515   2.812   0.062
10186SOL    HW231458   3.415   2.684   0.080
10187SOL     OW31459   2.214   3.940   5.479
10187SOL    HW131460   2.241   3.867   5.415
10187SOL    HW231461   2.203   4.026   5.429
10188SOL     OW31462   2.170   7.017   6.772
10188SOL    HW131463   2.110   7.002   6.694
10188SOL    HW231464   2.263   0.009   6.740
10189SOL     OW31465   2.082   1.865   4.767
10189SOL    HW131466   2.158   1.909   4.815
10189SOL    HW231467   2.040   1.931   4.705
10190SOL     OW31468   4.274   4.139   1.003
10190SOL    HW131469   4.312   4.205   1.067
10190SOL    HW231470   4.211   4.078   1.051
10191SOL     OW31471   5.698   0.381   0.251
10191SOL    HW131472   5.762   0.412   0.321
10191SOL    HW231473   5.618   0.442   0.250
10192SOL     OW31474   2.052   0.863   3.905
10192SOL    HW131475   2.096   0.937   3.956
10192SOL    HW231476   2.096   0.853   3.816
10193SOL     OW31477   3.252   4.106   4.082
10193SOL    HW131478   3.334   4.056   4.110
10193SOL    HW231479   3.200   4.132   4.163
10194SOL     OW31480   3.030   6.314   2.942
10194SOL    HW131481   3.057   6.407   2.918
10194SOL    HW231482   3.107   6.252   2.926
10195SOL     OW31483   5.097   0.475   3.068
10195SOL    HW131484   5.075   0.555   3.013
10195SOL    HW231485   5.180   0.431   3.031
10196SOL     OW31486   5.062   4.101   4.401
10196SOL    HW131487   5.102   4.101   4.492
10196SOL    HW231488   4.962   4.093   4.409
10197SOL     OW31489   5.324   1.411   3.231
10197SOL    HW131490   5.367   1.386   3.318
10197SOL    HW231491   5.246   1.472   3.248
10198SOL     OW31492   3.097   0.983   1.672
10198SOL    HW131493   3.118   1.034   1.588
10198SOL    HW231494   3.021   0.920   1.655
10199SOL     OW31495   1.145   2.094   0.407
10199SOL    HW131496   1.100   2.028   0.468
10199SOL    HW231497   1.078   2.161   0.375
10200SOL     OW31498   5.663   6.249   4.913
10200SOL    HW131499   5.667   6.243   4.813
10200SOL    HW231500   5.617   6.167   4.949
10201SOL     OW31501   1.625   4.656   2.948
10201SOL    HW131502   1.588   4.605   3.026
10201SOL    HW231503   1.549   4.691   2.892
10202SOL     OW31504   0.483   1.788   3.246
10202SOL    HW131505   0.491   1.884   3.219
10202SOL    HW231506   0.542   1.771   3.325
10203SOL     OW31507   0.460   2.894   1.361
10203SOL    HW131508   0.540   2.838   1.341
10203SOL    HW231509   0.377   2.840   1.345
10204SOL     OW31510   2.784   5.423   4.622
10204SOL    HW131511   2.765   5.326   4.638
10204SOL    HW231512   2.862   5.451   4.677
10205SOL     OW31513   4.235   0.717   1.142
10205SOL    HW131514   4.263   0.709   1.237
10205SOL    HW231515   4.137   0.735   1.137
10206SOL     OW31516   4.816   6.747   6.717
10206SOL    HW131517   4.804   6.724   6.620
10206SOL    HW231518   4.812   6.664   6.772
10207SOL     OW31519   4.095   1.667   2.820
10207SOL    HW131520   4.062   1.751   2.777
10207SOL    HW231521   4.080   1.590   2.759
10208SOL     OW31522   6.839   3.662   5.719
10208SOL    HW131523   6.820   3.756   5.745
10208SOL    HW231524   6.928   3.656   5.675
10209SOL     OW31525   4.486   6.117   6.932
10209SOL    HW131526   4.536   6.143   6.850
10209SOL    HW231527   4.532   6.040   6.976
10210SOL     OW31528   5.695   5.653   0.160
10210SOL    HW131529   5.636   5.578   0.191
10210SOL    HW231530   5.791   5.625   0.168
10211SOL     OW31531   3.887   5.736   5.502
10211SOL    HW131532   3.983   5.745   5.476
10211SOL    HW231533   3.842   5.671   5.440
10212SOL     OW31534   6.177   6.106   5.847
10212SOL    HW131535   6.127   6.088   5.932
10212SOL    HW231536   6.132   6.060   5.771
10213SOL     OW31537   4.780   0.715   4.615
10213SOL    HW131538   4.789   0.734   4.517
10213SOL    HW231539   4.823   0.627   4.635
10214SOL     OW31540   0.609   0.994   0.451
10214SOL    HW131541   0.654   0.981   0.363
10214SOL    HW231542   0.670   0.965   0.525
10215SOL     OW31543   4.122   2.589   7.020
10215SOL    HW131544   4.035   2.618   0.035
10215SOL    HW231545   4.142   2.495   0.022
10216SOL     OW31546   4.811   0.056   2.473
10216SOL    HW131547   4.786   0.053   2.570
10216SOL    HW231548   4.885   7.018   2.456
10217SOL     OW31549   3.239   2.401   5.873
10217SOL    HW131550   3.273   2.495   5.884
10217SOL    HW231551   3.288   2.357   5.797
10218SOL     OW31552   2.905   2.412   6.826
10218SOL    HW131553   2.937   2.460   6.744
10218SOL    HW231554   2.956   2.444   6.906
10219SOL     OW31555   0.804   4.726   6.890
10219SOL    HW131556   0.814   4.699   6.985
10219SOL    HW231557   0.839   4.654   6.830
10220SOL     OW31558   4.267   2.227   0.246
10220SOL    HW131559   4.254   2.133   0.278
10220SOL    HW231560   4.213   2.289   0.303
10221SOL     OW31561   2.986   0.942   4.461
10221SOL    HW131562   2.914   0.876   4.483
10221SOL    HW231563   2.992   1.010   4.534
10222SOL     OW31564   1.982   4.936   5.714
10222SOL    HW131565   2.069   4.903   5.678
10222SOL    HW231566   1.927   4.976   5.640
10223SOL     OW31567   0.187   4.062   0.468
10223SOL    HW131568   0.090   4.084   0.478
10223SOL    HW231569   0.240   4.109   0.539
10224SOL     OW31570   2.736   0.303   4.486
10224SOL    HW131571   2.752   0.248   4.568
10224SOL    HW231572   2.814   0.364   4.472
10225SOL     OW31573   4.776   5.696   4.426
10225SOL    HW131574   4.850   5.640   4.388
10225SOL    HW231575   4.701   5.636   4.457
10226SOL     OW31576   0.001   3.070   6.772
10226SOL    HW131577   6.938   3.027   6.757
10226SOL    HW231578   0.067   3.001   6.803
10227SOL     OW31579   5.020   4.931   5.559
10227SOL    HW131580   5.017   4.838   5.596
10227SOL    HW231581   5.067   4.991   5.625
10228SOL     OW31582   1.472   3.301   2.287
10228SOL    HW131583   1.403   3.333   2.352
10228SOL    HW231584   1.477   3.201   2.289
10229SOL     OW31585   1.770   1.060   1.388
10229SOL    HW131586   1.809   0.981   1.435
10229SOL    HW231587   1.747   1.035   1.294
10230SOL     OW31588   6.141   6.716   3.588
10230SOL    HW131589   6.223   6.687   3.637
10230SOL    HW231590   6.155   6.807   3.550
10231SOL     OW31591   4.976   6.948   4.204
10231SOL    HW131592   5.015   6.928   4.294
10231SOL    HW231593   4.976   0.021   4.188
10232SOL     OW31594   3.942   1.922   3.869
10232SOL    HW131595   3.886   1.840   3.883
10232SOL    HW231596   3.918   1.990   3.938
10233SOL     OW31597   4.896   0.552   5.669
10233SOL    HW131598   4.813   0.604   5.649
10233SOL    HW231599   4.871   0.459   5.697
10234SOL     OW31600   4.830   5.610   1.252
10234SOL    HW131601   4.776   5.614   1.336
10234SOL    HW231602   4.804   5.686   1.192
10235SOL     OW31603   4.727   1.249   0.155
10235SOL    HW131604   4.673   1.167   0.176
10235SOL    HW231605   4.807   1.223   0.101
10236SOL     OW31606   1.925   6.196   1.595
10236SOL    HW131607   1.859   6.269   1.612
10236SOL    HW231608   2.018   6.233   1.594
10237SOL     OW31609   5.840   2.648   3.706
10237SOL    HW131610   5.780   2.626   3.630
10237SOL    HW231611   5.785   2.671   3.786
10238SOL     OW31612   4.534   6.010   4.537
10238SOL    HW131613   4.575   6.101   4.535
10238SOL    HW231614   4.522   5.976   4.443
10239SOL     OW31615   6.293   3.524   4.540
10239SOL    HW131616   6.356   3.580   4.594
10239SOL    HW231617   6.308   3.428   4.559
10240SOL     OW31618   4.981   3.978   3.684
10240SOL    HW131619   4.889   4.015   3.693
10240SOL    HW231620   5.048   4.045   3.716
10241SOL     OW31621   1.780   1.837   2.870
10241SOL    HW131622   1.816   1.769   2.934
10241SOL    HW231623   1.841   1.916   2.866
10242SOL     OW31624   0.869   5.402   6.020
10242SOL    HW131625   0.918   5.339   5.959
10242SOL    HW231626   0.771   5.398   6.000
10243SOL     OW31627   1.033   6.283   2.577
10243SOL    HW131628   1.087   6.313   2.656
10243SOL    HW231629   0.961   6.221   2.607
10244SOL     OW31630   1.627   5.518   0.362
10244SOL    HW131631   1.630   5.575   0.280
10244SOL    HW231632   1.616   5.576   0.442
10245SOL     OW31633   2.105   2.525   0.020
10245SOL    HW131634   2.007   2.527   0.002
10245SOL    HW231635   2.122   2.561   0.112
10246SOL     OW31636   3.328   3.757   3.929
10246SOL    HW131637   3.381   3.806   3.861
10246SOL    HW231638   3.231   3.756   3.901
10247SOL     OW31639   0.504   6.062   4.925
10247SOL    HW131640   0.514   5.979   4.871
10247SOL    HW231641   0.479   6.039   5.019
10248SOL     OW31642   5.225   1.179   3.129
10248SOL    HW131643   5.267   1.265   3.158
10248SOL    HW231644   5.129   1.196   3.105
10249SOL     OW31645   4.750   1.332   6.506
10249SOL    HW131646   4.847   1.310   6.519
10249SOL    HW231647   4.709   1.353   6.595
10250SOL     OW31648   5.385   6.826   0.471
10250SOL    HW131649   5.369   6.870   0.382
10250SOL    HW231650   5.412   6.896   0.538
10251SOL     OW31651   4.010   4.658   0.862
10251SOL    HW131652   3.998   4.757   0.857
10251SOL    HW231653   4.094   4.632   0.815
10252SOL     OW31654   6.972   4.486   1.279
10252SOL    HW131655   6.896   4.456   1.222
10252SOL    HW231656   6.949   4.475   1.375
10253SOL     OW31657   3.961   4.876   0.482
10253SOL    HW131658   3.955   4.782   0.448
10253SOL    HW231659   3.893   4.890   0.554
10254SOL     OW31660   2.354   1.496   4.710
10254SOL    HW131661   2.359   1.403   4.746
10254SOL    HW231662   2.260   1.528   4.713
10255SOL     OW31663   3.060   5.331   2.602
10255SOL    HW131664   3.080   5.384   2.519
10255SOL    HW231665   3.019   5.243   2.575
10256SOL     OW31666   6.192   6.349   6.750
10256SOL    HW131667   6.222   6.390   6.664
10256SOL    HW231668   6.093   6.336   6.748
10257SOL     OW31669   1.572   5.978   5.671
10257SOL    HW131670   1.642   5.925   5.719
10257SOL    HW231671   1.484   5.931   5.678
10258SOL     OW31672   4.147   0.809   3.485
10258SOL    HW131673   4.170   0.906   3.476
10258SOL    HW231674   4.052   0.800   3.517
10259SOL     OW31675   0.639   3.374   4.102
10259SOL    HW131676   0.643   3.278   4.072
10259SOL    HW231677   0.724   3.420   4.078
10260SOL     OW31678   6.886   6.244   2.132
10260SOL    HW131679   6.978   6.248   2.171
10260SOL    HW231680   6.891   6.252   2.032
10261SOL     OW31681   2.027   0.356   1.878
10261SOL    HW131682   2.019   0.456   1.876
10261SOL    HW231683   2.049   0.326   1.971
10262SOL     OW31684   1.178   5.872   4.403
10262SOL    HW131685   1.199   5.799   4.338
10262SOL    HW231686   1.242   5.868   4.479
10263SOL     OW31687   6.870   2.719   5.526
10263SOL    HW131688   6.854   2.817   5.541
10263SOL    HW231689   6.959   2.706   5.481
10264SOL     OW31690   0.404   6.948   0.152
10264SOL    HW131691   0.328   6.885   0.169
10264SOL    HW231692   0.490   6.899   0.159
10265SOL     OW31693   4.497   2.336   2.211
10265SOL    HW131694   4.494   2.367   2.306
10265SOL    HW231695   4.404   2.329   2.176
10266SOL     OW31696   4.074   3.367   6.642
10266SOL    HW131697   4.069   3.385   6.740
10266SOL    HW231698   3.985   3.335   6.610
10267SOL     OW31699   6.811   1.680   6.486
10267SOL    HW131700   6.828   1.756   6.423
10267SOL    HW231701   6.785   1.599   6.434
10268SOL     OW31702   6.316   4.402   1.463
10268SOL    HW131703   6.251   4.442   1.529
10268SOL    HW231704   6.385   4.470   1.440
10269SOL     OW31705   3.266   1.667   6.076
10269SOL    HW131706   3.248   1.752   6.126
10269SOL    HW231707   3.216   1.669   5.989
10270SOL     OW31708   2.897   6.696   2.126
10270SOL    HW131709   2.886   6.702   2.225
10270SOL    HW231710   2.807   6.705   2.083
10271SOL     OW31711   2.871   5.552   1.079
10271SOL    HW131712   2.815   5.585   1.155
10271SOL    HW231713   2.929   5.477   1.111
10272SOL     OW31714   1.706   2.150   4.171
10272SOL    HW131715   1.716   2.237   4.122
10272SOL    HW231716   1.609   2.131   4.185
10273SOL     OW31717   4.066   0.121   4.204
10273SOL    HW131718   4.068   0.080   4.113
10273SOL    HW231719   4.015   0.061   4.266
10274SOL     OW31720   2.882   5.002   6.469
10274SOL    HW131721   2.964   5.014   6.525
10274SOL    HW231722   2.802   5.030   6.523
10275SOL     OW31723   0.967   6.685   1.717
10275SOL    HW131724   1.060   6.707   1.687
10275SOL    HW231725   0.967   6.664   1.815
10276SOL     OW31726   0.081   6.104   6.854
10276SOL    HW131727   0.117   6.176   6.913
10276SOL    HW231728   7.019   6.072   6.890
10277SOL     OW31729   0.526   5.891   2.195
10277SOL    HW131730   0.603   5.834   2.166
10277SOL    HW231731   0.485   5.935   2.116
10278SOL     OW31732   6.452   0.096   5.693
10278SOL    HW131733   6.499   0.053   5.771
10278SOL    HW231734   6.375   0.039   5.665
10279SOL     OW31735   4.030   6.178   4.633
10279SOL    HW131736   3.984   6.203   4.548
10279SOL    HW231737   4.128   6.198   4.624
10280SOL     OW31738   3.449   2.745   6.761
10280SOL    HW131739   3.439   2.837   6.723
10280SOL    HW231740   3.467   2.751   6.859
10281SOL     OW31741   4.331   0.396   4.121
10281SOL    HW131742   4.284   0.381   4.208
10281SOL    HW231743   4.414   0.340   4.118
10282SOL     OW31744   1.277   3.098   4.543
10282SOL    HW131745   1.229   3.015   4.518
10282SOL    HW231746   1.353   3.075   4.605
10283SOL     OW31747   1.857   4.191   6.310
10283SOL    HW131748   1.852   4.259   6.384
10283SOL    HW231749   1.783   4.208   6.245
10284SOL     OW31750   4.939   2.859   7.013
10284SOL    HW131751   4.942   2.817   0.078
10284SOL    HW231752   5.012   2.926   7.004
10285SOL     OW31753   5.532   0.531   0.709
10285SOL    HW131754   5.434   0.532   0.727
10285SOL    HW231755   5.548   0.548   0.612
10286SOL     OW31756   4.439   1.073   3.693
10286SOL    HW131757   4.527   1.061   3.647
10286SOL    HW231758   4.436   1.163   3.736
10287SOL     OW31759   1.218   4.491   2.167
10287SOL    HW131760   1.248   4.419   2.104
10287SOL    HW231761   1.182   4.449   2.250
10288SOL     OW31762   4.677   6.506   4.630
10288SOL    HW131763   4.773   6.532   4.622
10288SOL    HW231764   4.626   6.546   4.553
10289SOL     OW31765   2.429   1.433   1.175
10289SOL    HW131766   2.358   1.379   1.219
10289SOL    HW231767   2.411   1.531   1.191
10290SOL     OW31768   2.943   3.468   2.063
10290SOL    HW131769   3.031   3.511   2.084
10290SOL    HW231770   2.902   3.513   1.984
10291SOL     OW31771   4.074   0.362   5.599
10291SOL    HW131772   4.005   0.428   5.570
10291SOL    HW231773   4.153   0.366   5.537
10292SOL     OW31774   0.521   1.682   4.741
10292SOL    HW131775   0.505   1.634   4.827
10292SOL    HW231776   0.556   1.618   4.673
10293SOL     OW31777   3.067   5.687   3.204
10293SOL    HW131778   3.138   5.735   3.256
10293SOL    HW231779   3.013   5.630   3.266
10294SOL     OW31780   6.746   1.595   2.780
10294SOL    HW131781   6.737   1.511   2.727
10294SOL    HW231782   6.700   1.585   2.868
10295SOL     OW31783   1.904   4.301   4.254
10295SOL    HW131784   1.940   4.334   4.341
10295SOL    HW231785   1.888   4.379   4.193
10296SOL     OW31786   6.640   3.085   1.786
10296SOL    HW131787   6.565   3.150   1.772
10296SOL    HW231788   6.607   3.007   1.839
10297SOL     OW31789   2.995   5.385   4.781
10297SOL    HW131790   2.995   5.388   4.881
10297SOL    HW231791   3.082   5.419   4.747
10298SOL     OW31792   5.681   3.246   3.214
10298SOL    HW131793   5.697   3.247   3.313
10298SOL    HW231794   5.656   3.338   3.183
10299SOL     OW31795   4.814   3.830   1.844
10299SOL    HW131796   4.827   3.742   1.889
10299SOL    HW231797   4.857   3.902   1.898
10300SOL     OW31798   1.558   5.660   1.531
10300SOL    HW131799   1.616   5.701   1.461
10300SOL    HW231800   1.602   5.578   1.567
10301SOL     OW31801   4.656   1.248   1.636
10301SOL    HW131802   4.686   1.276   1.727
10301SOL    HW231803   4.620   1.327   1.586
10302SOL     OW31804   1.913   4.516   4.098
10302SOL    HW131805   1.989   4.579   4.110
10302SOL    HW231806   1.827   4.566   4.100
10303SOL     OW31807   3.990   2.997   1.264
10303SOL    HW131808   4.036   2.951   1.339
10303SOL    HW231809   3.924   3.063   1.301
10304SOL     OW31810   6.086   6.422   4.029
10304SOL    HW131811   6.166   6.476   4.053
10304SOL    HW231812   6.038   6.395   4.113
10305SOL     OW31813   1.610   5.451   0.826
10305SOL    HW131814   1.703   5.423   0.801
10305SOL    HW231815   1.551   5.370   0.832
10306SOL     OW31816   3.997   4.126   0.621
10306SOL    HW131817   4.048   4.041   0.633
10306SOL    HW231818   4.036   4.197   0.681
10307SOL     OW31819   2.137   1.478   5.191
10307SOL    HW131820   2.160   1.434   5.278
10307SOL    HW231821   2.042   1.511   5.195
10308SOL     OW31822   3.091   5.663   3.599
10308SOL    HW131823   3.130   5.575   3.570
10308SOL    HW231824   3.004   5.647   3.647
10309SOL     OW31825   0.139   5.980   3.536
10309SOL    HW131826   0.105   5.965   3.443
10309SOL    HW231827   0.238   5.998   3.533
10310SOL     OW31828   3.551   2.976   4.400
10310SOL    HW131829   3.623   2.999   4.334
10310SOL    HW231830   3.510   3.060   4.435
10311SOL     OW31831   0.531   6.615   0.847
10311SOL    HW131832   0.574   6.685   0.904
10311SOL    HW231833   0.574   6.526   0.864
10312SOL     OW31834   2.300   4.778   0.967
10312SOL    HW131835   2.220   4.783   0.907
10312SOL    HW231836   2.270   4.753   1.059
10313SOL     OW31837   6.567   5.562   4.029
10313SOL    HW131838   6.512   5.642   4.003
10313SOL    HW231839   6.656   5.593   4.064
10314SOL     OW31840   6.145   5.465   5.340
10314SOL    HW131841   6.142   5.490   5.243
10314SOL    HW231842   6.167   5.367   5.348
10315SOL     OW31843   4.746   7.008   5.469
10315SOL    HW131844   4.725   6.919   5.509
10315SOL    HW231845   4.661   0.035   5.460
10316SOL     OW31846   0.191   3.459   2.774
10316SOL    HW131847   0.200   3.389   2.845
10316SOL    HW231848   0.278   3.507   2.764
10317SOL     OW31849   4.957   4.750   0.322
10317SOL    HW131850   4.979   4.674   0.262
10317SOL    HW231851   4.924   4.714   0.410
10318SOL     OW31852   6.267   5.358   2.674
10318SOL    HW131853   6.218   5.291   2.730
10318SOL    HW231854   6.332   5.408   2.730
10319SOL     OW31855   5.428   6.384   5.005
10319SOL    HW131856   5.525   6.384   4.981
10319SOL    HW231857   5.374   6.362   4.923
10320SOL     OW31858   4.114   5.747   1.945
10320SOL    HW131859   4.106   5.791   1.855
10320SOL    HW231860   4.050   5.671   1.951
10321SOL     OW31861   3.984   0.319   3.983
10321SOL    HW131862   4.056   0.370   3.935
10321SOL    HW231863   4.012   0.303   4.077
10322SOL     OW31864   0.704   2.564   6.848
10322SOL    HW131865   0.722   2.499   6.922
10322SOL    HW231866   0.611   2.550   6.813
10323SOL     OW31867   0.539   2.407   5.655
10323SOL    HW131868   0.573   2.413   5.561
10323SOL    HW231869   0.483   2.325   5.666
10324SOL     OW31870   3.741   3.051   4.217
10324SOL    HW131871   3.715   3.029   4.123
10324SOL    HW231872   3.837   3.079   4.219
10325SOL     OW31873   0.263   4.067   2.907
10325SOL    HW131874   0.226   4.139   2.966
10325SOL    HW231875   0.224   4.076   2.815
10326SOL     OW31876   5.581   1.820   1.430
10326SOL    HW131877   5.586   1.920   1.425
10326SOL    HW231878   5.506   1.788   1.372
10327SOL     OW31879   6.657   0.989   2.923
10327SOL    HW131880   6.617   1.061   2.979
10327SOL    HW231881   6.680   0.911   2.981
10328SOL     OW31882   6.180   3.645   2.759
10328SOL    HW131883   6.271   3.671   2.791
10328SOL    HW231884   6.181   3.548   2.733
10329SOL     OW31885   3.508   6.286   2.928
10329SOL    HW131886   3.516   6.303   2.830
10329SOL    HW231887   3.590   6.238   2.961
10330SOL     OW31888   3.210   4.054   1.209
10330SOL    HW131889   3.169   4.056   1.117
10330SOL    HW231890   3.214   3.959   1.241
10331SOL     OW31891   5.124   0.876   4.491
10331SOL    HW131892   5.193   0.821   4.538
10331SOL    HW231893   5.102   0.834   4.403
10332SOL     OW31894   0.452   1.225   6.664
10332SOL    HW131895   0.422   1.302   6.720
10332SOL    HW231896   0.386   1.208   6.592
10333SOL     OW31897   5.929   4.568   5.396
10333SOL    HW131898   5.972   4.515   5.469
10333SOL    HW231899   5.991   4.574   5.318
10334SOL     OW31900   0.996   4.904   5.020
10334SOL    HW131901   1.075   4.944   5.067
10334SOL    HW231902   1.022   4.815   4.982
10335SOL     OW31903   2.943   5.129   2.055
10335SOL    HW131904   2.937   5.030   2.048
10335SOL    HW231905   2.873   5.170   1.996
10336SOL     OW31906   5.052   6.631   2.715
10336SOL    HW131907   4.974   6.620   2.776
10336SOL    HW231908   5.064   6.728   2.694
10337SOL     OW31909   0.141   4.707   5.704
10337SOL    HW131910   0.081   4.730   5.628
10337SOL    HW231911   0.164   4.791   5.754
10338SOL     OW31912   2.822   5.058   2.750
10338SOL    HW131913   2.790   5.136   2.696
10338SOL    HW231914   2.899   5.014   2.703
10339SOL     OW31915   3.090   5.948   0.965
10339SOL    HW131916   3.044   5.939   1.053
10339SOL    HW231917   3.026   5.927   0.891
10340SOL     OW31918   1.703   6.365   0.047
10340SOL    HW131919   1.647   6.445   0.067
10340SOL    HW231920   1.798   6.394   0.029
10341SOL     OW31921   0.888   2.691   2.186
10341SOL    HW131922   0.887   2.595   2.159
10341SOL    HW231923   0.808   2.711   2.243
10342SOL     OW31924   3.576   6.643   3.809
10342SOL    HW131925   3.634   6.567   3.781
10342SOL    HW231926   3.499   6.652   3.745
10343SOL     OW31927   2.451   2.632   4.099
10343SOL    HW131928   2.542   2.618   4.060
10343SOL    HW231929   2.451   2.606   4.195
10344SOL     OW31930   4.246   3.681   1.766
10344SOL    HW131931   4.199   3.627   1.696
10344SOL    HW231932   4.327   3.631   1.798
10345SOL     OW31933   2.571   2.419   5.813
10345SOL    HW131934   2.632   2.340   5.805
10345SOL    HW231935   2.599   2.475   5.891
10346SOL     OW31936   5.838   5.277   0.716
10346SOL    HW131937   5.905   5.325   0.773
10346SOL    HW231938   5.835   5.320   0.626
10347SOL     OW31939   4.518   0.634   1.548
10347SOL    HW131940   4.463   0.602   1.625
10347SOL    HW231941   4.565   0.718   1.573
10348SOL     OW31942   6.820   4.998   5.740
10348SOL    HW131943   6.839   5.096   5.741
10348SOL    HW231944   6.814   4.964   5.834
10349SOL     OW31945   6.687   2.198   0.539
10349SOL    HW131946   6.689   2.189   0.639
10349SOL    HW231947   6.592   2.206   0.508
10350SOL     OW31948   2.288   4.922   5.058
10350SOL    HW131949   2.362   4.989   5.063
10350SOL    HW231950   2.241   4.931   4.971
10351SOL     OW31951   4.054   4.833   4.741
10351SOL    HW131952   4.131   4.778   4.711
10351SOL    HW231953   4.062   4.850   4.840
10352SOL     OW31954   6.613   1.205   6.895
10352SOL    HW131955   6.556   1.123   6.889
10352SOL    HW231956   6.658   1.220   6.807
10353SOL     OW31957   6.512   2.405   3.887
10353SOL    HW131958   6.560   2.489   3.913
10353SOL    HW231959   6.578   2.340   3.850
10354SOL     OW31960   6.124   2.731   1.646
10354SOL    HW131961   6.167   2.815   1.681
10354SOL    HW231962   6.041   2.754   1.595
10355SOL     OW31963   0.586   1.990   0.516
10355SOL    HW131964   0.672   2.009   0.564
10355SOL    HW231965   0.536   2.076   0.503
10356SOL     OW31966   5.334   2.457   6.384
10356SOL    HW131967   5.236   2.474   6.381
10356SOL    HW231968   5.381   2.541   6.412
10357SOL     OW31969   1.043   0.174   6.102
10357SOL    HW131970   0.970   0.131   6.156
10357SOL    HW231971   1.108   0.219   6.164
10358SOL     OW31972   0.297   2.668   3.039
10358SOL    HW131973   0.276   2.698   3.132
10358SOL    HW231974   0.268   2.573   3.027
10359SOL     OW31975   0.723   2.163   2.072
10359SOL    HW131976   0.662   2.099   2.027
10359SOL    HW231977   0.815   2.155   2.033
10360SOL     OW31978   5.939   3.830   1.324
10360SOL    HW131979   6.009   3.847   1.254
10360SOL    HW231980   5.853   3.807   1.280
10361SOL     OW31981   6.387   2.139   1.986
10361SOL    HW131982   6.382   2.159   2.083
10361SOL    HW231983   6.302   2.095   1.956
10362SOL     OW31984   1.352   5.709   1.688
10362SOL    HW131985   1.335   5.613   1.707
10362SOL    HW231986   1.430   5.719   1.626
10363SOL     OW31987   5.515   5.165   6.708
10363SOL    HW131988   5.552   5.248   6.749
10363SOL    HW231989   5.432   5.138   6.756
10364SOL     OW31990   5.468   5.672   2.648
10364SOL    HW131991   5.491   5.769   2.654
10364SOL    HW231992   5.531   5.620   2.706
10365SOL     OW31993   6.216   5.702   0.455
10365SOL    HW131994   6.301   5.697   0.508
10365SOL    HW231995   6.232   5.753   0.371
10366SOL     OW31996   3.096   6.495   3.923
10366SOL    HW131997   3.120   6.590   3.902
10366SOL    HW231998   3.163   6.457   3.987
10367SOL     OW31999   5.322   6.465   1.774
10367SOL    HW132000   5.410   6.510   1.792
10367SOL    HW232001   5.333   6.400   1.699
10368SOL     OW32002   1.448   5.276   1.741
10368SOL    HW132003   1.375   5.209   1.734
10368SOL    HW232004   1.412   5.361   1.781
10369SOL     OW32005   2.575   0.243   5.867
10369SOL    HW132006   2.536   0.185   5.938
10369SOL    HW232007   2.502   0.274   5.806
10370SOL     OW32008   1.874   1.676   5.571
10370SOL    HW132009   1.915   1.590   5.541
10370SOL    HW232010   1.880   1.683   5.671
10371SOL     OW32011   4.198   5.753   2.833
10371SOL    HW132012   4.146   5.721   2.913
10371SOL    HW232013   4.292   5.774   2.860
10372SOL     OW32014   2.382   6.768   1.403
10372SOL    HW132015   2.390   6.688   1.463
10372SOL    HW232016   2.439   6.842   1.439
10373SOL     OW32017   5.850   0.907   6.778
10373SOL    HW132018   5.866   0.834   6.844
10373SOL    HW232019   5.937   0.936   6.738
10374SOL     OW32020   3.294   5.043   3.356
10374SOL    HW132021   3.250   5.133   3.360
10374SOL    HW232022   3.246   4.985   3.290
10375SOL     OW32023   2.292   5.606   1.003
10375SOL    HW132024   2.237   5.526   0.977
10375SOL    HW232025   2.367   5.617   0.937
10376SOL     OW32026   2.569   4.837   3.558
10376SOL    HW132027   2.566   4.936   3.575
10376SOL    HW232028   2.517   4.816   3.475
10377SOL     OW32029   2.014   0.990   2.064
10377SOL    HW132030   1.944   0.954   2.125
10377SOL    HW232031   2.059   0.914   2.016
10378SOL     OW32032   0.291   6.167   4.680
10378SOL    HW132033   0.368   6.200   4.625
10378SOL    HW232034   0.306   6.071   4.704
10379SOL     OW32035   2.330   0.330   3.890
10379SOL    HW132036   2.298   0.237   3.908
10379SOL    HW232037   2.418   0.344   3.936
10380SOL     OW32038   3.070   1.938   4.018
10380SOL    HW132039   3.169   1.924   4.019
10380SOL    HW232040   3.051   2.036   4.015
10381SOL     OW32041   3.918   6.532   2.652
10381SOL    HW132042   3.937   6.436   2.672
10381SOL    HW232043   3.871   6.574   2.729
10382SOL     OW32044   4.346   5.220   1.699
10382SOL    HW132045   4.319   5.283   1.772
10382SOL    HW232046   4.380   5.272   1.621
10383SOL     OW32047   0.816   4.724   0.176
10383SOL    HW132048   0.879   4.665   0.228
10383SOL    HW232049   0.728   4.678   0.166
10384SOL     OW32050   5.421   5.738   1.384
10384SOL    HW132051   5.484   5.678   1.434
10384SOL    HW232052   5.455   5.753   1.292
10385SOL     OW32053   4.523   4.483   0.644
10385SOL    HW132054   4.467   4.422   0.587
10385SOL    HW232055   4.484   4.486   0.736
10386SOL     OW32056   0.462   0.609   1.092
10386SOL    HW132057   0.402   0.536   1.128
10386SOL    HW232058   0.420   0.698   1.111
10387SOL     OW32059   4.910   3.072   2.219
10387SOL    HW132060   4.825   3.085   2.168
10387SOL    HW232061   4.896   3.098   2.315
10388SOL     OW32062   1.658   6.678   5.179
10388SOL    HW132063   1.615   6.725   5.256
10388SOL    HW232064   1.647   6.733   5.096
10389SOL     OW32065   0.836   4.125   6.922
10389SOL    HW132066   0.872   4.068   6.848
10389SOL    HW232067   0.753   4.171   6.891
10390SOL     OW32068   2.272   2.600   2.049
10390SOL    HW132069   2.283   2.641   1.958
10390SOL    HW232070   2.215   2.518   2.041
10391SOL     OW32071   5.587   6.443   4.191
10391SOL    HW132072   5.553   6.349   4.193
10391SOL    HW232073   5.512   6.505   4.213
10392SOL     OW32074   6.447   3.886   4.656
10392SOL    HW132075   6.447   3.787   4.673
10392SOL    HW232076   6.365   3.911   4.605
10393SOL     OW32077   1.587   3.022   3.111
10393SOL    HW132078   1.541   3.012   3.023
10393SOL    HW232079   1.535   2.974   3.182
10394SOL     OW32080   3.068   0.287   4.391
10394SOL    HW132081   3.167   0.287   4.406
10394SOL    HW232082   3.038   0.379   4.368
10395SOL     OW32083   1.125   0.079   0.666
10395SOL    HW132084   1.056   0.074   0.739
10395SOL    HW232085   1.091   0.138   0.592
10396SOL     OW32086   3.371   2.147   4.901
10396SOL    HW132087   3.281   2.190   4.909
10396SOL    HW232088   3.401   2.153   4.806
10397SOL     OW32089   4.991   1.868   4.023
10397SOL    HW132090   4.941   1.798   3.973
10397SOL    HW232091   4.984   1.955   3.975
10398SOL     OW32092   5.825   2.933   2.356
10398SOL    HW132093   5.730   2.914   2.333
10398SOL    HW232094   5.836   2.932   2.455
10399SOL     OW32095   1.122   3.849   1.599
10399SOL    HW132096   1.180   3.931   1.598
10399SOL    HW232097   1.132   3.800   1.513
10400SOL     OW32098   2.174   6.541   0.990
10400SOL    HW132099   2.256   6.486   1.006
10400SOL    HW232100   2.200   6.627   0.946
10401SOL     OW32101   0.648   0.966   5.798
10401SOL    HW132102   0.734   1.017   5.790
10401SOL    HW232103   0.666   0.876   5.837
10402SOL     OW32104   0.221   3.009   5.133
10402SOL    HW132105   0.255   3.066   5.058
10402SOL    HW232106   0.250   2.914   5.118
10403SOL     OW32107   3.261   0.283   0.758
10403SOL    HW132108   3.226   0.250   0.845
10403SOL    HW232109   3.245   0.381   0.750
10404SOL     OW32110   6.767   6.453   6.169
10404SOL    HW132111   6.846   6.513   6.157
10404SOL    HW232112   6.735   6.461   6.264
10405SOL     OW32113   0.699   2.386   6.326
10405SOL    HW132114   0.738   2.444   6.397
10405SOL    HW232115   0.726   2.291   6.342
10406SOL     OW32116   1.990   4.841   1.720
10406SOL    HW132117   2.042   4.913   1.674
10406SOL    HW232118   2.048   4.761   1.733
10407SOL     OW32119   2.086   6.239   5.922
10407SOL    HW132120   2.042   6.306   5.862
10407SOL    HW232121   2.100   6.154   5.872
10408SOL     OW32122   4.023   1.561   0.197
10408SOL    HW132123   4.037   1.515   0.109
10408SOL    HW232124   3.997   1.656   0.181
10409SOL     OW32125   5.627   5.013   1.208
10409SOL    HW132126   5.640   4.933   1.150
10409SOL    HW232127   5.682   5.089   1.173
10410SOL     OW32128   4.874   0.620   0.842
10410SOL    HW132129   4.895   0.697   0.782
10410SOL    HW232130   4.869   0.652   0.937
10411SOL     OW32131   2.781   5.303   3.680
10411SOL    HW132132   2.800   5.293   3.582
10411SOL    HW232133   2.842   5.373   3.719
10412SOL     OW32134   6.080   0.540   0.547
10412SOL    HW132135   6.078   0.499   0.638
10412SOL    HW232136   6.174   0.549   0.517
10413SOL     OW32137   0.125   2.907   2.006
10413SOL    HW132138   0.217   2.869   2.017
10413SOL    HW232139   0.110   2.932   1.910
10414SOL     OW32140   5.338   2.929   4.023
10414SOL    HW132141   5.418   2.946   3.966
10414SOL    HW232142   5.345   2.838   4.065
10415SOL     OW32143   0.120   0.145   6.256
10415SOL    HW132144   0.069   0.127   6.171
10415SOL    HW232145   0.069   0.210   6.312
10416SOL     OW32146   5.384   3.087   4.928
10416SOL    HW132147   5.479   3.112   4.948
10416SOL    HW232148   5.377   3.055   4.834
10417SOL     OW32149   2.784   4.705   3.334
10417SOL    HW132150   2.869   4.654   3.345
10417SOL    HW232151   2.706   4.646   3.357
10418SOL     OW32152   1.415   5.036   6.190
10418SOL    HW132153   1.369   5.076   6.269
10418SOL    HW232154   1.463   5.107   6.139
10419SOL     OW32155   1.094   1.487   1.025
10419SOL    HW132156   1.002   1.520   1.049
10419SOL    HW232157   1.147   1.562   0.986
10420SOL     OW32158   0.370   3.519   3.452
10420SOL    HW132159   0.305   3.458   3.407
10420SOL    HW232160   0.366   3.609   3.409
10421SOL     OW32161   0.502   1.248   3.512
10421SOL    HW132162   0.476   1.227   3.606
10421SOL    HW232163   0.422   1.281   3.462
10422SOL     OW32164   5.736   3.227   5.857
10422SOL    HW132165   5.711   3.313   5.814
10422SOL    HW232166   5.680   3.211   5.938
10423SOL     OW32167   5.085   4.309   2.943
10423SOL    HW132168   5.108   4.219   2.980
10423SOL    HW232169   5.053   4.299   2.848
10424SOL     OW32170   4.858   1.848   6.182
10424SOL    HW132171   4.803   1.771   6.151
10424SOL    HW232172   4.816   1.934   6.153
10425SOL     OW32173   1.787   6.484   1.999
10425SOL    HW132174   1.776   6.511   2.095
10425SOL    HW232175   1.773   6.386   1.990
10426SOL     OW32176   6.536   3.635   6.915
10426SOL    HW132177   6.578   3.616   7.004
10426SOL    HW232178   6.579   3.577   6.845
10427SOL     OW32179   4.662   1.575   0.583
10427SOL    HW132180   4.621   1.500   0.531
10427SOL    HW232181   4.727   1.537   0.649
10428SOL     OW32182   4.420   1.275   5.018
10428SOL    HW132183   4.514   1.293   5.045
10428SOL    HW232184   4.416   1.260   4.919
10429SOL     OW32185   6.274   6.670   2.361
10429SOL    HW132186   6.198   6.701   2.303
10429SOL    HW232187   6.348   6.636   2.304
10430SOL     OW32188   3.927   6.453   3.155
10430SOL    HW132189   3.896   6.376   3.210
10430SOL    HW232190   3.986   6.512   3.211
10431SOL     OW32191   2.284   1.355   4.982
10431SOL    HW132192   2.264   1.417   5.057
10431SOL    HW232193   2.379   1.325   4.987
10432SOL     OW32194   5.645   1.068   5.021
10432SOL    HW132195   5.601   1.155   5.001
10432SOL    HW232196   5.742   1.083   5.041
10433SOL     OW32197   2.629   6.613   1.055
10433SOL    HW132198   2.585   6.559   0.983
10433SOL    HW232199   2.652   6.553   1.132
10434SOL     OW32200   2.579   1.729   3.790
10434SOL    HW132201   2.578   1.636   3.827
10434SOL    HW232202   2.660   1.777   3.824
10435SOL     OW32203   5.238   6.211   0.186
10435SOL    HW132204   5.299   6.135   0.204
10435SOL    HW232205   5.189   6.236   0.270
10436SOL     OW32206   1.366   6.618   2.698
10436SOL    HW132207   1.458   6.628   2.736
10436SOL    HW232208   1.358   6.677   2.617
10437SOL     OW32209   6.328   4.887   5.911
10437SOL    HW132210   6.359   4.948   5.838
10437SOL    HW232211   6.314   4.796   5.874
10438SOL     OW32212   3.545   6.039   6.302
10438SOL    HW132213   3.452   6.072   6.289
10438SOL    HW232214   3.553   5.996   6.392
10439SOL     OW32215   3.946   0.264   5.812
10439SOL    HW132216   3.994   0.311   5.738
10439SOL    HW232217   3.941   0.167   5.791
10440SOL     OW32218   2.488   5.766   0.476
10440SOL    HW132219   2.457   5.672   0.493
10440SOL    HW232220   2.586   5.772   0.493
10441SOL     OW32221   3.734   0.799   6.739
10441SOL    HW132222   3.831   0.775   6.745
10441SOL    HW232223   3.683   0.722   6.702
10442SOL     OW32224   4.371   5.450   6.089
10442SOL    HW132225   4.313   5.416   6.015
10442SOL    HW232226   4.316   5.506   6.151
10443SOL     OW32227   6.299   2.808   5.111
10443SOL    HW132228   6.263   2.761   5.030
10443SOL    HW232229   6.272   2.905   5.107
10444SOL     OW32230   3.809   4.872   4.079
10444SOL    HW132231   3.781   4.901   4.170
10444SOL    HW232232   3.751   4.796   4.049
10445SOL     OW32233   5.989   6.148   4.406
10445SOL    HW132234   5.928   6.079   4.445
10445SOL    HW232235   6.072   6.103   4.373
10446SOL     OW32236   1.119   5.724   6.327
10446SOL    HW132237   1.075   5.647   6.282
10446SOL    HW232238   1.057   5.761   6.397
10447SOL     OW32239   6.003   2.301   1.484
10447SOL    HW132240   6.059   2.250   1.418
10447SOL    HW232241   5.947   2.236   1.536
10448SOL     OW32242   3.054   4.001   2.133
10448SOL    HW132243   3.096   4.090   2.119
10448SOL    HW232244   3.012   3.970   2.047
10449SOL     OW32245   1.727   4.750   4.338
10449SOL    HW132246   1.741   4.709   4.428
10449SOL    HW232247   1.736   4.850   4.345
10450SOL     OW32248   0.067   3.342   1.223
10450SOL    HW132249   0.109   3.280   1.289
10450SOL    HW232250   0.021   3.289   1.152
10451SOL     OW32251   2.289   4.188   2.672
10451SOL    HW132252   2.208   4.240   2.700
10451SOL    HW232253   2.336   4.236   2.598
10452SOL     OW32254   1.224   3.971   5.210
10452SOL    HW132255   1.274   3.888   5.186
10452SOL    HW232256   1.230   4.036   5.134
10453SOL     OW32257   5.408   0.188   1.906
10453SOL    HW132258   5.480   0.132   1.865
10453SOL    HW232259   5.434   0.284   1.902
10454SOL     OW32260   4.855   3.251   2.463
10454SOL    HW132261   4.948   3.255   2.499
10454SOL    HW232262   4.797   3.317   2.511
10455SOL     OW32263   6.390   4.359   2.802
10455SOL    HW132264   6.417   4.263   2.805
10455SOL    HW232265   6.417   4.404   2.886
10456SOL     OW32266   3.860   6.597   1.057
10456SOL    HW132267   3.884   6.537   1.134
10456SOL    HW232268   3.782   6.557   1.007
10457SOL     OW32269   3.603   3.763   4.240
10457SOL    HW132270   3.661   3.793   4.164
10457SOL    HW232271   3.658   3.711   4.306
10458SOL     OW32272   6.979   6.861   1.899
10458SOL    HW132273   7.016   6.902   1.982
10458SOL    HW232274   6.930   6.931   1.846
10459SOL     OW32275   6.831   5.032   2.305
10459SOL    HW132276   6.756   5.054   2.242
10459SOL    HW232277   6.879   5.116   2.330
10460SOL     OW32278   2.199   5.439   2.076
10460SOL    HW132279   2.149   5.357   2.047
10460SOL    HW232280   2.140   5.493   2.137
10461SOL     OW32281   2.171   1.628   6.108
10461SOL    HW132282   2.169   1.725   6.086
10461SOL    HW232283   2.250   1.608   6.166
10462SOL     OW32284   5.924   6.789   1.058
10462SOL    HW132285   5.963   6.870   1.015
10462SOL    HW232286   5.900   6.810   1.153
10463SOL     OW32287   2.837   3.934   1.448
10463SOL    HW132288   2.838   4.018   1.502
10463SOL    HW232289   2.911   3.874   1.479
10464SOL     OW32290   5.174   0.483   1.501
10464SOL    HW132291   5.135   0.391   1.496
10464SOL    HW232292   5.104   0.550   1.477
10465SOL     OW32293   6.446   5.505   5.103
10465SOL    HW132294   6.420   5.413   5.134
10465SOL    HW232295   6.373   5.569   5.123
10466SOL     OW32296   5.334   6.109   6.125
10466SOL    HW132297   5.360   6.186   6.184
10466SOL    HW232298   5.345   6.024   6.176
10467SOL     OW32299   4.308   0.949   4.113
10467SOL    HW132300   4.279   0.859   4.083
10467SOL    HW232301   4.394   0.940   4.165
10468SOL     OW32302   3.424   5.686   2.648
10468SOL    HW132303   3.484   5.642   2.714
10468SOL    HW232304   3.397   5.619   2.578
10469SOL     OW32305   1.715   4.957   0.149
10469SOL    HW132306   1.654   5.022   0.104
10469SOL    HW232307   1.712   4.870   0.101
10470SOL     OW32308   2.448   1.777   4.152
10470SOL    HW132309   2.529   1.728   4.122
10470SOL    HW232310   2.442   1.773   4.252
10471SOL     OW32311   4.518   3.784   0.562
10471SOL    HW132312   4.514   3.741   0.652
10471SOL    HW232313   4.496   3.881   0.570
10472SOL     OW32314   4.819   1.491   2.949
10472SOL    HW132315   4.855   1.583   2.929
10472SOL    HW232316   4.794   1.486   3.046
10473SOL     OW32317   4.978   5.593   0.505
10473SOL    HW132318   4.988   5.501   0.542
10473SOL    HW232319   4.985   5.591   0.405
10474SOL     OW32320   4.524   0.100   4.379
10474SOL    HW132321   4.592   0.029   4.359
10474SOL    HW232322   4.542   0.139   4.470
10475SOL     OW32323   4.647   5.917   1.764
10475SOL    HW132324   4.581   5.842   1.756
10475SOL    HW232325   4.629   5.986   1.694
10476SOL     OW32326   7.013   4.324   0.303
10476SOL    HW132327   0.076   4.348   0.263
10476SOL    HW232328   6.982   4.237   0.265
10477SOL     OW32329   4.652   4.782   5.162
10477SOL    HW132330   4.565   4.827   5.138
10477SOL    HW232331   4.636   4.684   5.173
10478SOL     OW32332   0.377   6.276   2.320
10478SOL    HW132333   0.371   6.368   2.359
10478SOL    HW232334   0.446   6.224   2.369
10479SOL     OW32335   1.395   4.705   2.842
10479SOL    HW132336   1.360   4.799   2.844
10479SOL    HW232337   1.319   4.642   2.827
10480SOL     OW32338   6.150   0.345   2.529
10480SOL    HW132339   6.087   0.308   2.598
10480SOL    HW232340   6.241   0.308   2.545
10481SOL     OW32341   2.370   0.574   4.801
10481SOL    HW132342   2.320   0.628   4.734
10481SOL    HW232343   2.338   0.479   4.798
10482SOL     OW32344   1.060   5.278   5.808
10482SOL    HW132345   1.034   5.282   5.711
10482SOL    HW232346   1.151   5.315   5.820
10483SOL     OW32347   6.870   5.232   0.964
10483SOL    HW132348   6.778   5.257   0.931
10483SOL    HW232349   6.926   5.314   0.970
10484SOL     OW32350   6.137   2.017   1.511
10484SOL    HW132351   6.165   2.068   1.430
10484SOL    HW232352   6.203   1.945   1.531
10485SOL     OW32353   3.238   4.059   3.338
10485SOL    HW132354   3.159   4.015   3.297
10485SOL    HW232355   3.223   4.068   3.437
10486SOL     OW32356   5.767   5.563   5.269
10486SOL    HW132357   5.857   5.606   5.260
10486SOL    HW232358   5.740   5.565   5.365
10487SOL     OW32359   5.103   2.521   3.002
10487SOL    HW132360   5.100   2.440   2.944
10487SOL    HW232361   5.077   2.602   2.949
10488SOL     OW32362   0.128   1.964   5.532
10488SOL    HW132363   0.128   2.035   5.462
10488SOL    HW232364   0.048   1.905   5.519
10489SOL     OW32365   6.205   3.974   4.531
10489SOL    HW132366   6.266   4.028   4.473
10489SOL    HW232367   6.117   4.021   4.540
10490SOL     OW32368   5.655   6.940   6.906
10490SOL    HW132369   5.650   6.929   7.005
10490SOL    HW232370   5.715   6.870   6.868
10491SOL     OW32371   2.116   2.873   5.747
10491SOL    HW132372   2.112   2.963   5.704
10491SOL    HW232373   2.205   2.831   5.728
10492SOL     OW32374   3.667   5.976   0.411
10492SOL    HW132375   3.591   5.934   0.460
10492SOL    HW232376   3.752   5.926   0.431
10493SOL     OW32377   3.750   5.403   1.612
10493SOL    HW132378   3.709   5.424   1.701
10493SOL    HW232379   3.836   5.354   1.626
10494SOL     OW32380   0.767   4.085   4.385
10494SOL    HW132381   0.805   4.167   4.428
10494SOL    HW232382   0.700   4.112   4.317
10495SOL     OW32383   0.067   6.493   0.838
10495SOL    HW132384   0.025   6.429   0.774
10495SOL    HW232385   0.143   6.541   0.793
10496SOL     OW32386   0.577   4.552   6.835
10496SOL    HW132387   0.631   4.629   6.872
10496SOL    HW232388   0.480   4.573   6.844
10497SOL     OW32389   2.903   0.774   1.681
10497SOL    HW132390   2.911   0.706   1.754
10497SOL    HW232391   2.843   0.848   1.711
10498SOL     OW32392   4.665   4.074   6.539
10498SOL    HW132393   4.743   4.123   6.502
10498SOL    HW232394   4.581   4.112   6.502
10499SOL     OW32395   5.509   3.628   2.639
10499SOL    HW132396   5.583   3.676   2.592
10499SOL    HW232397   5.542   3.539   2.670
10500SOL     OW32398   1.062   3.493   5.078
10500SOL    HW132399   1.085   3.452   5.166
10500SOL    HW232400   1.144   3.499   5.021
10501SOL     OW32401   3.622   4.939   3.054
10501SOL    HW132402   3.674   4.997   2.991
10501SOL    HW232403   3.542   4.902   3.007
10502SOL     OW32404   3.638   3.565   2.649
10502SOL    HW132405   3.725   3.518   2.636
10502SOL    HW232406   3.655   3.659   2.679
10503SOL     OW32407   0.046   1.348   6.106
10503SOL    HW132408   0.142   1.348   6.079
10503SOL    HW232409   7.022   1.416   6.052
10504SOL     OW32410   0.779   3.914   5.801
10504SOL    HW132411   0.716   3.897   5.725
10504SOL    HW232412   0.771   4.009   5.831
10505SOL     OW32413   6.063   0.356   0.745
10505SOL    HW132414   5.983   0.399   0.787
10505SOL    HW232415   6.036   0.268   0.706
10506SOL     OW32416   1.044   4.343   6.511
10506SOL    HW132417   1.079   4.428   6.471
10506SOL    HW232418   0.989   4.295   6.444
10507SOL     OW32419   1.224   5.619   5.683
10507SOL    HW132420   1.275   5.697   5.717
10507SOL    HW232421   1.170   5.579   5.757
10508SOL     OW32422   1.832   5.251   6.379
10508SOL    HW132423   1.898   5.295   6.439
10508SOL    HW232424   1.764   5.203   6.434
10509SOL     OW32425   4.817   2.323   3.168
10509SOL    HW132426   4.740   2.387   3.176
10509SOL    HW232427   4.896   2.359   3.217
10510SOL     OW32428   5.362   5.555   3.672
10510SOL    HW132429   5.341   5.459   3.652
10510SOL    HW232430   5.281   5.600   3.711
10511SOL     OW32431   3.988   1.623   0.907
10511SOL    HW132432   3.910   1.579   0.951
10511SOL    HW232433   3.958   1.668   0.822
10512SOL     OW32434   4.152   1.714   5.350
10512SOL    HW132435   4.147   1.780   5.424
10512SOL    HW232436   4.061   1.702   5.310
10513SOL     OW32437   3.658   3.021   0.464
10513SOL    HW132438   3.749   2.984   0.482
10513SOL    HW232439   3.637   3.091   0.532
10514SOL     OW32440   1.729   4.591   1.798
10514SOL    HW132441   1.790   4.636   1.865
10514SOL    HW232442   1.676   4.661   1.750
10515SOL     OW32443   2.164   3.053   4.861
10515SOL    HW132444   2.136   3.134   4.808
10515SOL    HW232445   2.243   3.076   4.918
10516SOL     OW32446   4.843   2.344   1.589
10516SOL    HW132447   4.824   2.436   1.556
10516SOL    HW232448   4.887   2.290   1.517
10517SOL     OW32449   1.104   2.848   2.279
10517SOL    HW132450   1.161   2.801   2.346
10517SOL    HW232451   1.020   2.795   2.263
10518SOL     OW32452   1.194   5.511   2.070
10518SOL    HW132453   1.111   5.534   2.120
10518SOL    HW232454   1.211   5.413   2.076
10519SOL     OW32455   3.854   0.120   1.386
10519SOL    HW132456   3.907   0.045   1.346
10519SOL    HW232457   3.914   0.175   1.445
10520SOL     OW32458   1.199   2.547   6.382
10520SOL    HW132459   1.185   2.646   6.384
10520SOL    HW232460   1.295   2.527   6.361
10521SOL     OW32461   6.470   2.432   3.120
10521SOL    HW132462   6.427   2.347   3.089
10521SOL    HW232463   6.538   2.411   3.190
10522SOL     OW32464   5.556   1.471   3.957
10522SOL    HW132465   5.574   1.375   3.938
10522SOL    HW232466   5.475   1.479   4.015
10523SOL     OW32467   1.113   4.629   2.587
10523SOL    HW132468   1.161   4.576   2.656
10523SOL    HW232469   1.015   4.610   2.592
10524SOL     OW32470   6.762   6.115   4.745
10524SOL    HW132471   6.732   6.208   4.725
10524SOL    HW232472   6.857   6.103   4.718
10525SOL     OW32473   5.151   1.817   3.761
10525SOL    HW132474   5.099   1.879   3.820
10525SOL    HW232475   5.205   1.870   3.696
10526SOL     OW32476   0.815   5.310   6.427
10526SOL    HW132477   0.859   5.238   6.373
10526SOL    HW232478   0.773   5.270   6.508
10527SOL     OW32479   0.180   6.673   5.413
10527SOL    HW132480   0.192   6.621   5.328
10527SOL    HW232481   0.266   6.673   5.465
10528SOL     OW32482   1.519   4.987   5.405
10528SOL    HW132483   1.559   4.914   5.350
10528SOL    HW232484   1.511   4.958   5.500
10529SOL     OW32485   6.946   5.448   1.111
10529SOL    HW132486   6.932   5.380   1.183
10529SOL    HW232487   6.879   5.521   1.120
10530SOL     OW32488   0.158   6.210   1.774
10530SOL    HW132489   0.186   6.120   1.741
10530SOL    HW232490   0.140   6.270   1.695
10531SOL     OW32491   3.211   2.924   5.528
10531SOL    HW132492   3.117   2.956   5.512
10531SOL    HW232493   3.243   2.874   5.447
10532SOL     OW32494   4.794   6.129   5.995
10532SOL    HW132495   4.881   6.134   6.044
10532SOL    HW232496   4.806   6.079   5.910
10533SOL     OW32497   3.807   0.371   2.948
10533SOL    HW132498   3.844   0.433   2.878
10533SOL    HW232499   3.707   0.373   2.945
10534SOL     OW32500   1.467   5.603   3.684
10534SOL    HW132501   1.408   5.683   3.675
10534SOL    HW232502   1.498   5.594   3.778
10535SOL     OW32503   3.484   2.051   2.698
10535SOL    HW132504   3.386   2.056   2.680
10535SOL    HW232505   3.523   2.144   2.694
10536SOL     OW32506   5.817   3.299   5.307
10536SOL    HW132507   5.821   3.211   5.259
10536SOL    HW232508   5.752   3.359   5.261
10537SOL     OW32509   4.094   0.771   4.284
10537SOL    HW132510   4.145   0.729   4.209
10537SOL    HW232511   4.108   0.718   4.368
10538SOL     OW32512   7.009   2.862   3.350
10538SOL    HW132513   6.973   2.769   3.346
10538SOL    HW232514   6.938   2.924   3.384
10539SOL     OW32515   6.880   6.652   2.847
10539SOL    HW132516   6.923   6.602   2.771
10539SOL    HW232517   6.924   6.741   2.857
10540SOL     OW32518   1.837   4.474   0.023
10540SOL    HW132519   1.777   4.394   0.031
10540SOL    HW232520   1.926   4.445   7.012
10541SOL     OW32521   2.943   2.971   5.483
10541SOL    HW132522   2.867   2.955   5.419
10541SOL    HW232523   2.944   2.897   5.551
10542SOL     OW32524   5.127   6.282   3.159
10542SOL    HW132525   5.174   6.196   3.140
10542SOL    HW232526   5.078   6.275   3.246
10543SOL     OW32527   1.955   2.937   4.077
10543SOL    HW132528   2.023   2.963   4.008
10543SOL    HW232529   1.927   2.843   4.063
10544SOL     OW32530   3.475   1.343   3.211
10544SOL    HW132531   3.465   1.281   3.132
10544SOL    HW232532   3.419   1.424   3.196
10545SOL     OW32533   2.337   2.759   2.353
10545SOL    HW132534   2.400   2.685   2.328
10545SOL    HW232535   2.304   2.804   2.270
10546SOL     OW32536   2.083   0.229   6.863
10546SOL    HW132537   2.090   0.146   6.808
10546SOL    HW232538   2.086   0.309   6.803
10547SOL     OW32539   4.239   6.290   5.619
10547SOL    HW132540   4.155   6.317   5.667
10547SOL    HW232541   4.223   6.205   5.570
10548SOL     OW32542   0.617   5.849   3.256
10548SOL    HW132543   0.684   5.846   3.330
10548SOL    HW232544   0.652   5.799   3.177
10549SOL     OW32545   6.117   0.489   2.178
10549SOL    HW132546   6.207   0.446   2.177
10549SOL    HW232547   6.117   0.570   2.120
10550SOL     OW32548   5.188   5.563   2.700
10550SOL    HW132549   5.146   5.578   2.790
10550SOL    HW232550   5.266   5.624   2.689
10551SOL     OW32551   3.616   0.573   5.531
10551SOL    HW132552   3.548   0.513   5.573
10551SOL    HW232553   3.572   0.657   5.500
10552SOL     OW32554   2.884   0.071   3.726
10552SOL    HW132555   2.811   0.087   3.792
10552SOL    HW232556   2.863   7.017   3.670
10553SOL     OW32557   6.359   5.778   0.979
10553SOL    HW132558   6.354   5.746   1.074
10553SOL    HW232559   6.350   5.878   0.978
10554SOL     OW32560   6.160   6.319   2.735
10554SOL    HW132561   6.175   6.275   2.824
10554SOL    HW232562   6.188   6.256   2.662
10555SOL     OW32563   3.287   3.441   1.092
10555SOL    HW132564   3.310   3.385   1.172
10555SOL    HW232565   3.244   3.384   1.022
10556SOL     OW32566   2.654   1.805   2.298
10556SOL    HW132567   2.748   1.772   2.292
10556SOL    HW232568   2.591   1.729   2.282
10557SOL     OW32569   1.838   4.380   2.908
10557SOL    HW132570   1.810   4.339   2.995
10557SOL    HW232571   1.832   4.480   2.914
10558SOL     OW32572   3.666   5.191   4.846
10558SOL    HW132573   3.660   5.189   4.746
10558SOL    HW232574   3.629   5.106   4.883
10559SOL     OW32575   4.318   6.515   1.565
10559SOL    HW132576   4.263   6.482   1.642
10559SOL    HW232577   4.283   6.476   1.480
10560SOL     OW32578   5.528   6.585   3.125
10560SOL    HW132579   5.593   6.509   3.126
10560SOL    HW232580   5.445   6.559   3.174
10561SOL     OW32581   0.128   5.092   6.552
10561SOL    HW132582   0.035   5.090   6.588
10561SOL    HW232583   0.193   5.076   6.626
10562SOL     OW32584   4.162   5.746   2.336
10562SOL    HW132585   4.170   5.724   2.433
10562SOL    HW232586   4.253   5.748   2.294
10563SOL     OW32587   0.534   0.125   2.404
10563SOL    HW132588   0.439   0.139   2.377
10563SOL    HW232589   0.593   0.183   2.347
10564SOL     OW32590   4.809   4.744   3.256
10564SOL    HW132591   4.854   4.699   3.179
10564SOL    HW232592   4.731   4.797   3.222
10565SOL     OW32593   0.257   0.616   5.893
10565SOL    HW132594   0.348   0.578   5.874
10565SOL    HW232595   0.210   0.634   5.807
10566SOL     OW32596   3.603   2.397   0.181
10566SOL    HW132597   3.509   2.430   0.184
10566SOL    HW232598   3.604   2.298   0.194
10567SOL     OW32599   1.659   2.484   6.102
10567SOL    HW132600   1.578   2.514   6.051
10567SOL    HW232601   1.731   2.457   6.038
10568SOL     OW32602   5.033   2.069   5.997
10568SOL    HW132603   5.089   1.989   6.020
10568SOL    HW232604   5.019   2.124   6.080
10569SOL     OW32605   5.834   0.536   0.430
10569SOL    HW132606   5.921   0.530   0.479
10569SOL    HW232607   5.797   0.628   0.440
10570SOL     OW32608   1.509   3.579   3.179
10570SOL    HW132609   1.561   3.519   3.240
10570SOL    HW232610   1.412   3.555   3.184
10571SOL     OW32611   6.697   4.268   5.246
10571SOL    HW132612   6.695   4.335   5.172
10571SOL    HW232613   6.660   4.181   5.213
10572SOL     OW32614   6.256   4.082   1.081
10572SOL    HW132615   6.186   4.011   1.092
10572SOL    HW232616   6.316   4.082   1.162
10573SOL     OW32617   6.588   2.617   2.909
10573SOL    HW132618   6.542   2.529   2.923
10573SOL    HW232619   6.673   2.620   2.961
10574SOL     OW32620   5.894   2.324   2.874
10574SOL    HW132621   5.892   2.270   2.789
10574SOL    HW232622   5.879   2.420   2.853
10575SOL     OW32623   5.837   6.713   2.953
10575SOL    HW132624   5.750   6.699   2.906
10575SOL    HW232625   5.878   6.624   2.973
10576SOL     OW32626   1.306   4.096   4.321
10576SOL    HW132627   1.380   4.034   4.294
10576SOL    HW232628   1.304   4.105   4.421
10577SOL     OW32629   4.502   4.073   0.830
10577SOL    HW132630   4.441   4.074   0.910
10577SOL    HW232631   4.449   4.052   0.748
10578SOL     OW32632   0.493   3.282   3.513
10578SOL    HW132633   0.421   3.213   3.510
10578SOL    HW232634   0.452   3.373   3.514
10579SOL     OW32635   0.811   3.675   0.289
10579SOL    HW132636   0.861   3.594   0.321
10579SOL    HW232637   0.771   3.656   0.199
10580SOL     OW32638   5.439   6.681   6.674
10580SOL    HW132639   5.523   6.729   6.645
10580SOL    HW232640   5.425   6.695   6.772
10581SOL     OW32641   4.561   0.646   3.249
10581SOL    HW132642   4.607   0.720   3.298
10581SOL    HW232643   4.578   0.559   3.295
10582SOL     OW32644   6.816   3.646   6.137
10582SOL    HW132645   6.897   3.666   6.081
10582SOL    HW232646   6.829   3.684   6.228
10583SOL     OW32647   3.365   2.131   5.522
10583SOL    HW132648   3.433   2.071   5.481
10583SOL    HW232649   3.331   2.090   5.606
10584SOL     OW32650   0.960   6.417   3.551
10584SOL    HW132651   0.985   6.414   3.648
10584SOL    HW232652   1.039   6.444   3.497
10585SOL     OW32653   1.706   0.927   5.200
10585SOL    HW132654   1.737   0.932   5.295
10585SOL    HW232655   1.703   1.019   5.161
10586SOL     OW32656   4.378   4.199   5.327
10586SOL    HW132657   4.290   4.151   5.329
10586SOL    HW232658   4.367   4.285   5.278
10587SOL     OW32659   2.503   4.915   5.321
10587SOL    HW132660   2.446   4.871   5.251
10587SOL    HW232661   2.532   4.848   5.388
10588SOL     OW32662   1.295   3.204   3.571
10588SOL    HW132663   1.353   3.266   3.625
10588SOL    HW232664   1.245   3.257   3.502
10589SOL     OW32665   5.959   6.367   3.786
10589SOL    HW132666   6.000   6.366   3.878
10589SOL    HW232667   6.031   6.355   3.718
10590SOL     OW32668   0.613   4.874   2.299
10590SOL    HW132669   0.520   4.875   2.263
10590SOL    HW232670   0.622   4.801   2.368
10591SOL     OW32671   0.269   3.861   2.094
10591SOL    HW132672   0.228   3.770   2.097
10591SOL    HW232673   0.330   3.873   2.172
10592SOL     OW32674   0.448   1.950   4.774
10592SOL    HW132675   0.472   1.854   4.762
10592SOL    HW232676   0.518   2.007   4.730
10593SOL     OW32677   3.367   4.907   3.605
10593SOL    HW132678   3.376   4.929   3.508
10593SOL    HW232679   3.451   4.864   3.637
10594SOL     OW32680   3.497   5.339   3.606
10594SOL    HW132681   3.554   5.417   3.581
10594SOL    HW232682   3.532   5.298   3.691
10595SOL     OW32683   5.134   6.875   0.784
10595SOL    HW132684   5.064   6.890   0.714
10595SOL    HW232685   5.139   6.778   0.805
10596SOL     OW32686   5.167   3.093   6.995
10596SOL    HW132687   5.228   3.062   6.922
10596SOL    HW232688   5.211   3.080   0.058
10597SOL     OW32689   2.180   6.576   4.806
10597SOL    HW132690   2.277   6.600   4.804
10597SOL    HW232691   2.170   6.477   4.817
10598SOL     OW32692   3.068   0.428   6.715
10598SOL    HW132693   3.153   0.441   6.767
10598SOL    HW232694   3.021   0.346   6.748
10599SOL     OW32695   0.816   2.333   0.798
10599SOL    HW132696   0.856   2.423   0.779
10599SOL    HW232697   0.732   2.345   0.851
10600SOL     OW32698   3.529   1.463   1.970
10600SOL    HW132699   3.531   1.367   1.942
10600SOL    HW232700   3.615   1.487   2.016
10601SOL     OW32701   2.257   1.022   4.575
10601SOL    HW132702   2.164   0.992   4.553
10601SOL    HW232703   2.253   1.087   4.651
10602SOL     OW32704   6.645   0.262   2.004
10602SOL    HW132705   6.612   0.207   1.928
10602SOL    HW232706   6.704   0.206   2.063
10603SOL     OW32707   5.591   0.233   2.804
10603SOL    HW132708   5.654   0.156   2.790
10603SOL    HW232709   5.595   0.261   2.900
10604SOL     OW32710   4.907   0.917   4.833
10604SOL    HW132711   4.887   1.014   4.850
10604SOL    HW232712   4.856   0.886   4.753
10605SOL     OW32713   3.191   2.158   0.805
10605SOL    HW132714   3.196   2.161   0.905
10605SOL    HW232715   3.184   2.251   0.769
10606SOL     OW32716   6.764   0.530   6.877
10606SOL    HW132717   6.816   0.485   6.804
10606SOL    HW232718   6.672   0.549   6.844
10607SOL     OW32719   3.367   4.225   0.412
10607SOL    HW132720   3.409   4.171   0.339
10607SOL    HW232721   3.358   4.169   0.494
10608SOL     OW32722   5.359   4.423   3.976
10608SOL    HW132723   5.359   4.455   3.882
10608SOL    HW232724   5.378   4.325   3.978
10609SOL     OW32725   6.007   0.732   6.969
10609SOL    HW132726   6.057   0.707   6.886
10609SOL    HW232727   5.996   0.651   0.001
10610SOL     OW32728   0.584   1.312   3.260
10610SOL    HW132729   0.564   1.319   3.358
10610SOL    HW232730   0.503   1.340   3.209
10611SOL     OW32731   3.911   5.128   4.989
10611SOL    HW132732   3.986   5.186   4.957
10611SOL    HW232733   3.843   5.120   4.916
10612SOL     OW32734   6.779   2.506   3.572
10612SOL    HW132735   6.792   2.537   3.666
10612SOL    HW232736   6.762   2.407   3.571
10613SOL     OW32737   4.338   6.154   4.089
10613SOL    HW132738   4.317   6.180   4.183
10613SOL    HW232739   4.393   6.071   4.089
10614SOL     OW32740   3.536   2.117   5.916
10614SOL    HW132741   3.438   2.132   5.919
10614SOL    HW232742   3.558   2.030   5.958
10615SOL     OW32743   2.209   2.580   5.158
10615SOL    HW132744   2.157   2.664   5.147
10615SOL    HW232745   2.301   2.601   5.192
10616SOL     OW32746   1.616   6.033   6.893
10616SOL    HW132747   1.683   6.088   6.944
10616SOL    HW232748   1.634   5.936   6.910
10617SOL     OW32749   1.720   2.651   1.305
10617SOL    HW132750   1.738   2.739   1.349
10617SOL    HW232751   1.743   2.658   1.208
10618SOL     OW32752   0.947   4.700   3.921
10618SOL    HW132753   0.864   4.664   3.877
10618SOL    HW232754   0.925   4.726   4.015
10619SOL     OW32755   1.177   2.735   1.987
10619SOL    HW132756   1.239   2.786   1.927
10619SOL    HW232757   1.167   2.783   2.074
10620SOL     OW32758   3.165   0.377   5.427
10620SOL    HW132759   3.128   0.392   5.335
10620SOL    HW232760   3.109   0.425   5.494
10621SOL     OW32761   0.348   3.548   3.101
10621SOL    HW132762   0.257   3.589   3.104
10621SOL    HW232763   0.414   3.616   3.069
10622SOL     OW32764   4.733   2.105   0.179
10622SOL    HW132765   4.762   2.187   0.228
10622SOL    HW232766   4.636   2.113   0.156
10623SOL     OW32767   4.807   5.947   5.506
10623SOL    HW132768   4.811   5.964   5.605
10623SOL    HW232769   4.715   5.966   5.473
10624SOL     OW32770   0.473   2.142   6.768
10624SOL    HW132771   0.515   2.134   6.858
10624SOL    HW232772   0.500   2.229   6.726
10625SOL     OW32773   6.439   5.649   0.588
10625SOL    HW132774   6.452   5.625   0.491
10625SOL    HW232775   6.508   5.601   0.643
10626SOL     OW32776   5.720   2.709   1.245
10626SOL    HW132777   5.768   2.629   1.281
10626SOL    HW232778   5.658   2.745   1.315
10627SOL     OW32779   5.652   5.091   5.218
10627SOL    HW132780   5.747   5.094   5.248
10627SOL    HW232781   5.645   5.123   5.124
10628SOL     OW32782   2.904   6.356   0.407
10628SOL    HW132783   2.865   6.294   0.339
10628SOL    HW232784   2.940   6.303   0.484
10629SOL     OW32785   4.387   5.429   4.717
10629SOL    HW132786   4.469   5.450   4.663
10629SOL    HW232787   4.319   5.386   4.659
10630SOL     OW32788   3.831   1.072   1.623
10630SOL    HW132789   3.879   1.015   1.690
10630SOL    HW232790   3.829   1.166   1.656
10631SOL     OW32791   3.783   6.038   1.840
10631SOL    HW132792   3.689   6.011   1.864
10631SOL    HW232793   3.816   5.978   1.767
10632SOL     OW32794   5.577   6.166   4.436
10632SOL    HW132795   5.630   6.091   4.395
10632SOL    HW232796   5.505   6.194   4.373
10633SOL     OW32797   2.049   3.650   0.682
10633SOL    HW132798   2.102   3.570   0.653
10633SOL    HW232799   2.098   3.734   0.657
10634SOL     OW32800   0.036   4.521   6.729
10634SOL    HW132801   0.019   4.567   6.642
10634SOL    HW232802   0.017   4.423   6.718
10635SOL     OW32803   3.120   5.961   6.573
10635SOL    HW132804   3.127   5.938   6.476
10635SOL    HW232805   3.059   6.039   6.585
10636SOL     OW32806   6.501   2.770   0.121
10636SOL    HW132807   6.417   2.766   0.176
10636SOL    HW232808   6.486   2.828   0.041
10637SOL     OW32809   2.426   0.886   6.922
10637SOL    HW132810   2.494   0.813   6.925
10637SOL    HW232811   2.338   0.851   6.954
10638SOL     OW32812   5.575   5.382   0.833
10638SOL    HW132813   5.599   5.479   0.827
10638SOL    HW232814   5.636   5.328   0.776
10639SOL     OW32815   0.425   5.161   1.702
10639SOL    HW132816   0.329   5.169   1.673
10639SOL    HW232817   0.456   5.067   1.687
10640SOL     OW32818   4.428   6.247   3.599
10640SOL    HW132819   4.442   6.278   3.693
10640SOL    HW232820   4.517   6.234   3.555
10641SOL     OW32821   1.311   1.924   2.997
10641SOL    HW132822   1.402   1.917   3.036
10641SOL    HW232823   1.265   1.836   3.001
10642SOL     OW32824   6.664   3.391   6.056
10642SOL    HW132825   6.690   3.477   6.099
10642SOL    HW232826   6.573   3.363   6.089
10643SOL     OW32827   2.374   5.248   5.908
10643SOL    HW132828   2.302   5.249   5.977
10643SOL    HW232829   2.336   5.221   5.820
10644SOL     OW32830   6.233   2.881   2.935
10644SOL    HW132831   6.232   2.858   3.032
10644SOL    HW232832   6.310   2.833   2.891
10645SOL     OW32833   2.088   2.025   3.146
10645SOL    HW132834   2.000   2.072   3.136
10645SOL    HW232835   2.072   1.935   3.187
10646SOL     OW32836   5.435   0.222   3.576
10646SOL    HW132837   5.422   0.234   3.477
10646SOL    HW232838   5.532   0.217   3.596
10647SOL     OW32839   3.507   5.412   5.343
10647SOL    HW132840   3.569   5.350   5.391
10647SOL    HW232841   3.491   5.377   5.250
10648SOL     OW32842   4.872   4.186   5.561
10648SOL    HW132843   4.902   4.281   5.560
10648SOL    HW232844   4.780   4.180   5.598
10649SOL     OW32845   5.617   3.522   3.268
10649SOL    HW132846   5.628   3.614   3.231
10649SOL    HW232847   5.697   3.499   3.323
10650SOL     OW32848   0.681   0.040   3.232
10650SOL    HW132849   0.763   7.013   3.210
10650SOL    HW232850   0.658   0.100   3.156
10651SOL     OW32851   3.079   5.533   6.120
10651SOL    HW132852   3.103   5.544   6.217
10651SOL    HW232853   3.120   5.607   6.067
10652SOL     OW32854   1.746   0.170   0.230
10652SOL    HW132855   1.802   0.169   0.147
10652SOL    HW232856   1.681   0.094   0.227
10653SOL     OW32857   5.073   6.013   4.465
10653SOL    HW132858   5.072   6.065   4.380
10653SOL    HW232859   5.009   6.056   4.530
10654SOL     OW32860   6.621   2.179   4.241
10654SOL    HW132861   6.525   2.156   4.229
10654SOL    HW232862   6.657   2.130   4.321
10655SOL     OW32863   0.009   4.204   1.296
10655SOL    HW132864   6.956   4.144   1.309
10655SOL    HW232865   7.004   4.299   1.288
10656SOL     OW32866   5.712   1.921   4.563
10656SOL    HW132867   5.696   1.834   4.609
10656SOL    HW232868   5.640   1.986   4.590
10657SOL     OW32869   5.073   6.774   4.818
10657SOL    HW132870   5.103   6.757   4.912
10657SOL    HW232871   4.986   6.823   4.819
10658SOL     OW32872   1.041   1.682   5.294
10658SOL    HW132873   1.118   1.675   5.231
10658SOL    HW232874   1.000   1.591   5.308
10659SOL     OW32875   0.485   5.647   0.688
10659SOL    HW132876   0.510   5.553   0.715
10659SOL    HW232877   0.484   5.705   0.769
10660SOL     OW32878   5.513   2.494   5.800
10660SOL    HW132879   5.522   2.584   5.842
10660SOL    HW232880   5.528   2.501   5.701
10661SOL     OW32881   3.153   5.208   5.381
10661SOL    HW132882   3.187   5.301   5.364
10661SOL    HW232883   3.210   5.143   5.331
10662SOL     OW32884   2.161   1.328   1.291
10662SOL    HW132885   2.106   1.412   1.293
10662SOL    HW232886   2.164   1.288   1.382
10663SOL     OW32887   0.927   1.672   3.761
10663SOL    HW132888   0.841   1.624   3.745
10663SOL    HW232889   0.927   1.710   3.854
10664SOL     OW32890   1.052   5.138   4.810
10664SOL    HW132891   1.111   5.203   4.762
10664SOL    HW232892   1.105   5.092   4.882
10665SOL     OW32893   3.221   3.142   6.814
10665SOL    HW132894   3.220   3.129   6.913
10665SOL    HW232895   3.130   3.168   6.782
10666SOL     OW32896   3.532   3.869   1.479
10666SOL    HW132897   3.580   3.784   1.458
10666SOL    HW232898   3.598   3.940   1.504
10667SOL     OW32899   5.503   3.035   3.639
10667SOL    HW132900   5.500   2.935   3.650
10667SOL    HW232901   5.422   3.065   3.588
10668SOL     OW32902   3.165   2.835   5.798
10668SOL    HW132903   3.065   2.844   5.799
10668SOL    HW232904   3.196   2.826   5.704
10669SOL     OW32905   6.125   1.561   1.442
10669SOL    HW132906   6.052   1.630   1.437
10669SOL    HW232907   6.115   1.497   1.366
10670SOL     OW32908   4.949   3.653   4.404
10670SOL    HW132909   4.890   3.733   4.397
10670SOL    HW232910   5.025   3.673   4.466
10671SOL     OW32911   1.273   3.558   5.433
10671SOL    HW132912   1.250   3.462   5.448
10671SOL    HW232913   1.260   3.610   5.517
10672SOL     OW32914   5.760   3.468   2.147
10672SOL    HW132915   5.842   3.511   2.109
10672SOL    HW232916   5.785   3.380   2.188
10673SOL     OW32917   2.045   1.689   0.633
10673SOL    HW132918   2.002   1.627   0.567
10673SOL    HW232919   1.980   1.760   0.659
10674SOL     OW32920   3.370   3.853   3.487
10674SOL    HW132921   3.335   3.915   3.417
10674SOL    HW232922   3.295   3.795   3.520
10675SOL     OW32923   4.009   6.830   5.139
10675SOL    HW132924   4.079   6.849   5.208
10675SOL    HW232925   3.977   6.736   5.149
10676SOL     OW32926   1.353   0.093   5.781
10676SOL    HW132927   1.415   0.170   5.797
10676SOL    HW232928   1.357   0.066   5.685
10677SOL     OW32929   0.060   1.440   6.900
10677SOL    HW132930   0.086   1.494   6.981
10677SOL    HW232931   0.072   1.343   6.919
10678SOL     OW32932   3.806   5.667   2.018
10678SOL    HW132933   3.799   5.568   2.002
10678SOL    HW232934   3.763   5.716   1.943
10679SOL     OW32935   3.903   3.624   6.581
10679SOL    HW132936   3.937   3.712   6.616
10679SOL    HW232937   3.974   3.555   6.591
10680SOL     OW32938   3.803   1.127   4.972
10680SOL    HW132939   3.767   1.035   4.955
10680SOL    HW232940   3.894   1.120   5.014
10681SOL     OW32941   2.009   3.609   5.543
10681SOL    HW132942   1.913   3.592   5.521
10681SOL    HW232943   2.029   3.706   5.530
10682SOL     OW32944   5.110   3.183   6.296
10682SOL    HW132945   5.120   3.117   6.371
10682SOL    HW232946   5.102   3.275   6.334
10683SOL     OW32947   2.642   0.455   3.613
10683SOL    HW132948   2.604   0.365   3.596
10683SOL    HW232949   2.637   0.476   3.711
10684SOL     OW32950   4.583   4.720   2.001
10684SOL    HW132951   4.678   4.740   2.025
10684SOL    HW232952   4.542   4.801   1.960
10685SOL     OW32953   1.112   6.580   1.443
10685SOL    HW132954   1.014   6.570   1.458
10685SOL    HW232955   1.162   6.523   1.508
10686SOL     OW32956   2.584   0.954   6.703
10686SOL    HW132957   2.528   0.915   6.776
10686SOL    HW232958   2.563   0.907   6.617
10687SOL     OW32959   0.627   4.153   4.164
10687SOL    HW132960   0.669   4.166   4.074
10687SOL    HW232961   0.529   4.171   4.158
10688SOL     OW32962   5.062   1.531   2.441
10688SOL    HW132963   5.121   1.479   2.503
10688SOL    HW232964   4.980   1.560   2.489
10689SOL     OW32965   0.631   0.502   2.523
10689SOL    HW132966   0.588   0.534   2.439
10689SOL    HW232967   0.564   0.450   2.577
10690SOL     OW32968   0.018   6.754   4.254
10690SOL    HW132969   0.067   6.812   4.188
10690SOL    HW232970   6.960   6.719   4.212
10691SOL     OW32971   3.608   0.290   2.350
10691SOL    HW132972   3.657   0.262   2.432
10691SOL    HW232973   3.518   0.245   2.348
10692SOL     OW32974   2.287   1.251   4.017
10692SOL    HW132975   2.226   1.327   4.037
10692SOL    HW232976   2.274   1.221   3.923
10693SOL     OW32977   1.940   5.228   0.006
10693SOL    HW132978   1.904   5.146   0.050
10693SOL    HW232979   1.864   5.289   7.008
10694SOL     OW32980   4.438   0.529   5.059
10694SOL    HW132981   4.510   0.587   5.096
10694SOL    HW232982   4.478   0.458   5.000
10695SOL     OW32983   5.578   4.365   2.399
10695SOL    HW132984   5.652   4.415   2.354
10695SOL    HW232985   5.540   4.420   2.474
10696SOL     OW32986   6.437   4.551   3.851
10696SOL    HW132987   6.432   4.519   3.756
10696SOL    HW232988   6.467   4.646   3.853
10697SOL     OW32989   2.135   5.232   5.265
10697SOL    HW132990   2.227   5.258   5.235
10697SOL    HW232991   2.132   5.231   5.365
10698SOL     OW32992   4.064   2.886   0.022
10698SOL    HW132993   3.994   2.845   6.990
10698SOL    HW232994   4.139   2.822   0.035
10699SOL     OW32995   3.329   3.026   0.819
10699SOL    HW132996   3.385   3.094   0.771
10699SOL    HW232997   3.389   2.957   0.859
10700SOL     OW32998   4.917   0.880   1.308
10700SOL    HW132999   4.854   0.958   1.305
10700SOL    HW233000   5.004   0.909   1.347
10701SOL     OW33001   3.108   0.178   6.462
10701SOL    HW133002   3.056   0.094   6.447
10701SOL    HW233003   3.047   0.249   6.496
10702SOL     OW33004   5.884   2.257   1.735
10702SOL    HW133005   5.982   2.237   1.742
10702SOL    HW233006   5.868   2.355   1.747
10703SOL     OW33007   1.162   3.136   6.140
10703SOL    HW133008   1.137   3.178   6.227
10703SOL    HW233009   1.198   3.044   6.156
10704SOL     OW33010   5.471   0.077   1.568
10704SOL    HW133011   5.532   0.086   1.646
10704SOL    HW233012   5.482   7.012   1.527
10705SOL     OW33013   5.636   3.700   1.209
10705SOL    HW133014   5.579   3.618   1.211
10705SOL    HW233015   5.587   3.776   1.253
10706SOL     OW33016   4.322   0.088   0.777
10706SOL    HW133017   4.228   0.096   0.744
10706SOL    HW233018   4.331   0.139   0.862
10707SOL     OW33019   5.936   0.312   3.879
10707SOL    HW133020   5.973   0.402   3.854
10707SOL    HW233021   5.934   0.303   3.978
10708SOL     OW33022   4.069   1.549   2.031
10708SOL    HW133023   4.102   1.627   1.978
10708SOL    HW233024   4.024   1.484   1.971
10709SOL     OW33025   5.854   4.748   3.682
10709SOL    HW133026   5.814   4.664   3.718
10709SOL    HW233027   5.802   4.827   3.715
10710SOL     OW33028   5.417   1.203   3.539
10710SOL    HW133029   5.396   1.142   3.463
10710SOL    HW233030   5.516   1.205   3.554
10711SOL     OW33031   4.233   0.098   1.926
10711SOL    HW133032   4.270   0.030   1.989
10711SOL    HW233033   4.242   0.065   1.832
10712SOL     OW33034   5.280   6.817   2.888
10712SOL    HW133035   5.180   6.814   2.889
10712SOL    HW233036   5.314   6.836   2.980
10713SOL     OW33037   1.356   4.092   1.371
10713SOL    HW133038   1.270   4.073   1.324
10713SOL    HW233039   1.341   4.089   1.470
10714SOL     OW33040   2.936   3.826   4.582
10714SOL    HW133041   2.839   3.802   4.572
10714SOL    HW233042   2.993   3.752   4.545
10715SOL     OW33043   6.371   0.836   1.974
10715SOL    HW133044   6.405   0.748   1.939
10715SOL    HW233045   6.448   0.897   1.992
10716SOL     OW33046   5.790   1.851   3.476
10716SOL    HW133047   5.803   1.949   3.465
10716SOL    HW233048   5.719   1.834   3.545
10717SOL     OW33049   1.334   2.515   0.208
10717SOL    HW133050   1.386   2.432   0.187
10717SOL    HW233051   1.263   2.493   0.275
10718SOL     OW33052   1.855   5.292   5.627
10718SOL    HW133053   1.788   5.274   5.556
10718SOL    HW233054   1.808   5.297   5.716
10719SOL     OW33055   6.041   5.808   4.640
10719SOL    HW133056   6.086   5.883   4.688
10719SOL    HW233057   6.106   5.734   4.624
10720SOL     OW33058   6.866   5.233   3.696
10720SOL    HW133059   6.797   5.302   3.674
10720SOL    HW233060   6.820   5.147   3.719
10721SOL     OW33061   5.397   3.865   5.303
10721SOL    HW133062   5.489   3.829   5.318
10721SOL    HW233063   5.400   3.941   5.239
10722SOL     OW33064   6.721   4.287   5.511
10722SOL    HW133065   6.720   4.288   5.411
10722SOL    HW233066   6.631   4.258   5.545
10723SOL     OW33067   5.707   0.113   0.545
10723SOL    HW133068   5.643   0.047   0.584
10723SOL    HW233069   5.673   0.146   0.457
10724SOL     OW33070   6.764   6.549   0.512
10724SOL    HW133071   6.758   6.451   0.497
10724SOL    HW233072   6.728   6.572   0.602
10725SOL     OW33073   2.839   5.423   5.478
10725SOL    HW133074   2.799   5.368   5.405
10725SOL    HW233075   2.854   5.365   5.558
10726SOL     OW33076   4.878   1.337   4.621
10726SOL    HW133077   4.794   1.292   4.653
10726SOL    HW233078   4.945   1.267   4.595
10727SOL     OW33079   1.875   5.944   5.746
10727SOL    HW133080   1.864   5.875   5.817
10727SOL    HW233081   1.862   6.035   5.785
10728SOL     OW33082   6.177   6.020   0.906
10728SOL    HW133083   6.173   6.007   0.807
10728SOL    HW233084   6.137   5.940   0.951
10729SOL     OW33085   6.767   2.868   1.589
10729SOL    HW133086   6.709   2.891   1.667
10729SOL    HW233087   6.772   2.769   1.579
10730SOL     OW33088   4.297   0.365   1.961
10730SOL    HW133089   4.365   0.381   2.033
10730SOL    HW233090   4.297   0.267   1.938
10731SOL     OW33091   4.151   0.973   1.440
10731SOL    HW133092   4.195   1.044   1.495
10731SOL    HW233093   4.147   1.003   1.345
10732SOL     OW33094   0.932   5.083   5.327
10732SOL    HW133095   0.974   5.000   5.290
10732SOL    HW233096   0.886   5.132   5.253
10733SOL     OW33097   6.177   2.760   6.828
10733SOL    HW133098   6.120   2.802   6.757
10733SOL    HW233099   6.254   2.714   6.785
10734SOL     OW33100   6.968   2.076   1.618
10734SOL    HW133101   7.018   2.082   1.532
10734SOL    HW233102   0.005   2.047   1.691
10735SOL     OW33103   6.976   3.877   2.619
10735SOL    HW133104   0.008   3.796   2.613
10735SOL    HW233105   0.008   3.958   2.625
10736SOL     OW33106   3.146   0.196   3.802
10736SOL    HW133107   3.060   0.145   3.797
10736SOL    HW233108   3.147   0.268   3.734
10737SOL     OW33109   6.903   2.061   1.198
10737SOL    HW133110   6.997   2.071   1.231
10737SOL    HW233111   6.863   1.977   1.236
10738SOL     OW33112   4.352   1.047   3.081
10738SOL    HW133113   4.419   1.077   3.012
10738SOL    HW233114   4.328   0.952   3.064
10739SOL     OW33115   1.950   2.552   1.859
10739SOL    HW133116   2.006   2.553   1.777
10739SOL    HW233117   1.858   2.585   1.839
10740SOL     OW33118   4.970   4.949   3.637
10740SOL    HW133119   4.937   4.939   3.543
10740SOL    HW233120   4.892   4.948   3.700
10741SOL     OW33121   3.866   0.652   2.430
10741SOL    HW133122   3.949   0.625   2.478
10741SOL    HW233123   3.871   0.621   2.335
10742SOL     OW33124   6.016   5.429   0.872
10742SOL    HW133125   6.020   5.403   0.969
10742SOL    HW233126   6.070   5.512   0.858
10743SOL     OW33127   1.911   1.914   4.191
10743SOL    HW133128   1.859   1.994   4.160
10743SOL    HW233129   1.882   1.889   4.283
10744SOL     OW33130   3.839   2.145   0.852
10744SOL    HW133131   3.768   2.214   0.838
10744SOL    HW233132   3.799   2.054   0.842
10745SOL     OW33133   0.221   5.712   5.738
10745SOL    HW133134   0.291   5.642   5.722
10745SOL    HW233135   0.260   5.802   5.723
10746SOL     OW33136   0.199   4.217   5.432
10746SOL    HW133137   0.145   4.140   5.397
10746SOL    HW233138   0.263   4.247   5.361
10747SOL     OW33139   3.238   1.223   4.419
10747SOL    HW133140   3.335   1.247   4.423
10747SOL    HW233141   3.191   1.260   4.499
10748SOL     OW33142   5.067   1.386   2.184
10748SOL    HW133143   5.070   1.413   2.280
10748SOL    HW233144   5.016   1.455   2.132
10749SOL     OW33145   1.840   6.925   5.648
10749SOL    HW133146   1.881   6.857   5.587
10749SOL    HW233147   1.894   6.932   5.732
10750SOL     OW33148   3.454   0.803   5.893
10750SOL    HW133149   3.473   0.710   5.924
10750SOL    HW233150   3.513   0.826   5.816
10751SOL     OW33151   2.291   4.679   3.913
10751SOL    HW133152   2.279   4.636   3.823
10751SOL    HW233153   2.343   4.764   3.903
10752SOL     OW33154   4.934   4.973   4.222
10752SOL    HW133155   4.912   5.060   4.179
10752SOL    HW233156   4.862   4.950   4.288
10753SOL     OW33157   0.328   3.259   4.168
10753SOL    HW133158   0.247   3.301   4.210
10753SOL    HW233159   0.401   3.326   4.160
10754SOL     OW33160   1.462   0.505   2.527
10754SOL    HW133161   1.379   0.475   2.479
10754SOL    HW233162   1.437   0.547   2.614
10755SOL     OW33163   6.550   6.023   1.987
10755SOL    HW133164   6.496   5.956   1.936
10755SOL    HW233165   6.623   5.977   2.037
10756SOL     OW33166   6.793   6.783   4.968
10756SOL    HW133167   6.729   6.726   5.020
10756SOL    HW233168   6.842   6.726   4.902
10757SOL     OW33169   2.493   2.967   0.986
10757SOL    HW133170   2.468   3.000   0.895
10757SOL    HW233171   2.410   2.944   1.037
10758SOL     OW33172   0.726   5.328   3.938
10758SOL    HW133173   0.658   5.279   3.883
10758SOL    HW233174   0.727   5.424   3.914
10759SOL     OW33175   6.883   2.806   0.236
10759SOL    HW133176   6.795   2.851   0.252
10759SOL    HW233177   6.894   2.788   0.139
10760SOL     OW33178   6.416   0.682   3.333
10760SOL    HW133179   6.486   0.642   3.274
10760SOL    HW233180   6.399   0.776   3.306
10761SOL     OW33181   2.662   5.126   5.489
10761SOL    HW133182   2.623   5.045   5.443
10761SOL    HW233183   2.752   5.146   5.451
10762SOL     OW33184   3.574   0.609   4.405
10762SOL    HW133185   3.650   0.618   4.341
10762SOL    HW233186   3.515   0.533   4.377
10763SOL     OW33187   4.190   0.249   3.508
10763SOL    HW133188   4.189   0.301   3.422
10763SOL    HW233189   4.160   0.307   3.583
10764SOL     OW33190   5.720   0.218   3.600
10764SOL    HW133191   5.706   0.278   3.679
10764SOL    HW233192   5.758   0.131   3.631
10765SOL     OW33193   5.457   3.372   0.903
10765SOL    HW133194   5.524   3.431   0.858
10765SOL    HW233195   5.369   3.379   0.855
10766SOL     OW33196   3.932   3.042   1.679
10766SOL    HW133197   3.984   3.113   1.631
10766SOL    HW233198   3.947   2.954   1.635
10767SOL     OW33199   2.605   1.249   1.798
10767SOL    HW133200   2.607   1.294   1.708
10767SOL    HW233201   2.649   1.307   1.866
10768SOL     OW33202   6.670   5.089   0.299
10768SOL    HW133203   6.651   5.084   0.201
10768SOL    HW233204   6.592   5.052   0.350
10769SOL     OW33205   1.702   3.929   5.979
10769SOL    HW133206   1.688   4.022   6.013
10769SOL    HW233207   1.723   3.869   6.056
10770SOL     OW33208   4.681   6.175   3.150
10770SOL    HW133209   4.685   6.149   3.246
10770SOL    HW233210   4.686   6.275   3.142
10771SOL     OW33211   2.796   0.893   3.497
10771SOL    HW133212   2.854   0.959   3.450
10771SOL    HW233213   2.700   0.919   3.485
10772SOL     OW33214   5.533   5.315   3.606
10772SOL    HW133215   5.586   5.260   3.670
10772SOL    HW233216   5.571   5.407   3.602
10773SOL     OW33217   4.964   5.263   3.817
10773SOL    HW133218   4.959   5.361   3.799
10773SOL    HW233219   4.952   5.246   3.915
10774SOL     OW33220   1.279   1.115   3.878
10774SOL    HW133221   1.200   1.172   3.901
10774SOL    HW233222   1.312   1.140   3.787
10775SOL     OW33223   0.708   4.104   2.130
10775SOL    HW133224   0.658   4.030   2.086
10775SOL    HW233225   0.673   4.118   2.223
10776SOL     OW33226   1.882   0.138   0.010
10776SOL    HW133227   1.974   0.159   7.002
10776SOL    HW233228   1.838   0.074   6.973
10777SOL     OW33229   3.413   6.246   1.792
10777SOL    HW133230   3.490   6.240   1.729
10777SOL    HW233231   3.446   6.276   1.882
10778SOL     OW33232   5.751   6.115   3.392
10778SOL    HW133233   5.719   6.021   3.375
10778SOL    HW233234   5.840   6.128   3.349
10779SOL     OW33235   5.524   2.167   3.293
10779SOL    HW133236   5.596   2.221   3.250
10779SOL    HW233237   5.545   2.152   3.389
10780SOL     OW33238   0.800   1.173   3.152
10780SOL    HW133239   0.862   1.247   3.179
10780SOL    HW233240   0.705   1.203   3.166
10781SOL     OW33241   3.217   0.023   4.068
10781SOL    HW133242   3.214   0.087   3.992
10781SOL    HW233243   3.298   0.041   4.124
10782SOL     OW33244   6.786   5.641   4.210
10782SOL    HW133245   6.737   5.576   4.269
10782SOL    HW233246   6.762   5.734   4.236
10783SOL     OW33247   6.950   2.054   2.911
10783SOL    HW133248   6.924   2.010   2.826
10783SOL    HW233249   6.894   2.020   2.986
10784SOL     OW33250   2.550   1.310   4.049
10784SOL    HW133251   2.458   1.273   4.039
10784SOL    HW233252   2.613   1.238   4.079
10785SOL     OW33253   0.615   4.288   6.850
10785SOL    HW133254   0.613   4.386   6.829
10785SOL    HW233255   0.530   4.264   6.898
10786SOL     OW33256   0.156   5.261   3.121
10786SOL    HW133257   0.099   5.179   3.125
10786SOL    HW233258   0.129   5.316   3.042
10787SOL     OW33259   1.681   2.843   5.666
10787SOL    HW133260   1.774   2.848   5.703
10787SOL    HW233261   1.635   2.762   5.701
10788SOL     OW33262   6.021   3.931   6.284
10788SOL    HW133263   6.108   3.980   6.276
10788SOL    HW233264   6.000   3.917   6.381
10789SOL     OW33265   6.425   1.685   7.019
10789SOL    HW133266   6.347   1.690   0.056
10789SOL    HW233267   6.490   1.616   0.025
10790SOL     OW33268   6.691   6.936   2.831
10790SOL    HW133269   6.688   6.915   2.733
10790SOL    HW233270   6.779   6.978   2.854
10791SOL     OW33271   6.777   6.214   2.522
10791SOL    HW133272   6.792   6.200   2.424
10791SOL    HW233273   6.765   6.312   2.540
10792SOL     OW33274   3.704   4.132   5.176
10792SOL    HW133275   3.717   4.045   5.223
10792SOL    HW233276   3.609   4.163   5.188
10793SOL     OW33277   5.674   3.122   4.936
10793SOL    HW133278   5.760   3.120   4.989
10793SOL    HW233279   5.694   3.151   4.843
10794SOL     OW33280   3.652   3.434   3.611
10794SOL    HW133281   3.697   3.394   3.531
10794SOL    HW233282   3.579   3.373   3.642
10795SOL     OW33283   0.891   4.388   3.398
10795SOL    HW133284   0.829   4.312   3.380
10795SOL    HW233285   0.956   4.398   3.323
10796SOL     OW33286   1.555   5.855   4.864
10796SOL    HW133287   1.610   5.849   4.781
10796SOL    HW233288   1.601   5.912   4.931
10797SOL     OW33289   3.859   2.471   0.461
10797SOL    HW133290   3.852   2.374   0.436
10797SOL    HW233291   3.767   2.512   0.460
10798SOL     OW33292   0.267   1.984   0.412
10798SOL    HW133293   0.309   1.895   0.396
10798SOL    HW233294   0.190   1.974   0.475
10799SOL     OW33295   4.160   1.378   2.220
10799SOL    HW133296   4.115   1.436   2.151
10799SOL    HW233297   4.178   1.432   2.302
10800SOL     OW33298   1.464   6.788   0.863
10800SOL    HW133299   1.541   6.850   0.878
10800SOL    HW233300   1.410   6.780   0.947
10801SOL     OW33301   1.336   0.847   0.888
10801SOL    HW133302   1.243   0.821   0.914
10801SOL    HW233303   1.352   0.824   0.792
10802SOL     OW33304   6.238   0.067   3.716
10802SOL    HW133305   6.162   0.077   3.779
10802SOL    HW233306   6.323   0.058   3.767
10803SOL     OW33307   2.388   5.298   6.491
10803SOL    HW133308   2.359   5.213   6.446
10803SOL    HW233309   2.412   5.366   6.422
10804SOL     OW33310   7.024   3.260   4.027
10804SOL    HW133311   6.934   3.287   4.063
10804SOL    HW233312   0.049   3.342   3.999
10805SOL     OW33313   6.135   0.912   5.117
10805SOL    HW133314   6.210   0.956   5.066
10805SOL    HW233315   6.148   0.813   5.115
10806SOL     OW33316   2.014   4.373   6.460
10806SOL    HW133317   2.028   4.405   6.553
10806SOL    HW233318   2.071   4.292   6.444
10807SOL     OW33319   3.358   6.451   4.419
10807SOL    HW133320   3.294   6.515   4.461
10807SOL    HW233321   3.337   6.441   4.322
10808SOL     OW33322   0.640   2.146   6.071
10808SOL    HW133323   0.700   2.216   6.034
10808SOL    HW233324   0.608   2.174   6.162
10809SOL     OW33325   2.401   5.744   4.425
10809SOL    HW133326   2.407   5.729   4.524
10809SOL    HW233327   2.337   5.819   4.407
10810SOL     OW33328   0.350   0.414   4.271
10810SOL    HW133329   0.325   0.445   4.363
10810SOL    HW233330   0.335   0.489   4.206
10811SOL     OW33331   4.849   4.966   5.116
10811SOL    HW133332   4.794   4.887   5.143
10811SOL    HW233333   4.790   5.046   5.107
10812SOL     OW33334   6.472   2.366   0.002
10812SOL    HW133335   6.479   2.401   6.934
10812SOL    HW233336   6.526   2.424   0.063
10813SOL     OW33337   0.832   4.255   6.186
10813SOL    HW133338   0.782   4.340   6.167
10813SOL    HW233339   0.919   4.256   6.137
10814SOL     OW33340   2.539   0.714   1.225
10814SOL    HW133341   2.607   0.666   1.281
10814SOL    HW233342   2.448   0.698   1.262
10815SOL     OW33343   5.118   1.201   4.685
10815SOL    HW133344   5.205   1.251   4.682
10815SOL    HW233345   5.133   1.108   4.654
10816SOL     OW33346   3.956   3.226   3.724
10816SOL    HW133347   3.888   3.185   3.785
10816SOL    HW233348   3.960   3.173   3.639
10817SOL     OW33349   2.463   6.593   3.558
10817SOL    HW133350   2.391   6.611   3.626
10817SOL    HW233351   2.463   6.495   3.536
10818SOL     OW33352   4.300   4.905   6.203
10818SOL    HW133353   4.277   5.000   6.186
10818SOL    HW233354   4.295   4.886   6.301
10819SOL     OW33355   6.814   5.819   6.108
10819SOL    HW133356   6.821   5.782   6.200
10819SOL    HW233357   6.886   5.779   6.051
10820SOL     OW33358   2.566   4.469   6.029
10820SOL    HW133359   2.665   4.461   6.025
10820SOL    HW233360   2.524   4.388   5.986
10821SOL     OW33361   4.719   5.603   2.814
10821SOL    HW133362   4.783   5.617   2.738
10821SOL    HW233363   4.767   5.561   2.891
10822SOL     OW33364   5.178   2.371   1.989
10822SOL    HW133365   5.156   2.448   2.049
10822SOL    HW233366   5.278   2.358   1.987
10823SOL     OW33367   6.210   6.567   2.841
10823SOL    HW133368   6.206   6.486   2.783
10823SOL    HW233369   6.304   6.579   2.875
10824SOL     OW33370   0.876   2.356   4.017
10824SOL    HW133371   0.921   2.335   3.930
10824SOL    HW233372   0.923   2.433   4.061
10825SOL     OW33373   0.859   2.038   0.336
10825SOL    HW133374   0.789   1.983   0.289
10825SOL    HW233375   0.929   1.978   0.374
10826SOL     OW33376   0.549   2.553   3.237
10826SOL    HW133377   0.483   2.604   3.291
10826SOL    HW233378   0.619   2.514   3.298
10827SOL     OW33379   7.021   3.387   4.963
10827SOL    HW133380   6.965   3.304   4.957
10827SOL    HW233381   0.090   3.364   4.944
10828SOL     OW33382   6.422   5.080   5.507
10828SOL    HW133383   6.497   5.020   5.479
10828SOL    HW233384   6.419   5.160   5.447
10829SOL     OW33385   4.157   3.645   5.501
10829SOL    HW133386   4.254   3.667   5.486
10829SOL    HW233387   4.117   3.711   5.564
10830SOL     OW33388   4.768   1.762   3.865
10830SOL    HW133389   4.728   1.791   3.777
10830SOL    HW233390   4.808   1.671   3.855
10831SOL     OW33391   3.828   0.999   3.094
10831SOL    HW133392   3.751   1.030   3.038
10831SOL    HW233393   3.804   1.006   3.190
10832SOL     OW33394   6.723   3.404   0.734
10832SOL    HW133395   6.650   3.462   0.698
10832SOL    HW233396   6.786   3.380   0.661
10833SOL     OW33397   0.335   1.217   0.001
10833SOL    HW133398   0.360   1.162   0.080
10833SOL    HW233399   0.310   1.309   0.030
10834SOL     OW33400   6.885   6.654   0.950
10834SOL    HW133401   6.969   6.607   0.923
10834SOL    HW233402   6.908   6.736   1.004
10835SOL     OW33403   0.078   2.538   5.891
10835SOL    HW133404   7.008   2.522   5.914
10835SOL    HW233405   0.125   2.450   5.879
10836SOL     OW33406   6.996   1.305   4.170
10836SOL    HW133407   6.914   1.248   4.159
10836SOL    HW233408   0.042   1.272   4.108
10837SOL     OW33409   0.557   3.744   2.995
10837SOL    HW133410   0.650   3.749   3.032
10837SOL    HW233411   0.544   3.819   2.930
10838SOL     OW33412   0.119   5.743   2.861
10838SOL    HW133413   0.043   5.704   2.810
10838SOL    HW233414   0.206   5.708   2.825
10839SOL     OW33415   5.044   2.939   1.129
10839SOL    HW133416   4.994   2.859   1.161
10839SOL    HW233417   5.142   2.925   1.145
10840SOL     OW33418   3.210   0.689   1.258
10840SOL    HW133419   3.262   0.765   1.219
10840SOL    HW233420   3.159   0.721   1.337
10841SOL     OW33421   1.701   5.192   5.436
10841SOL    HW133422   1.656   5.103   5.432
10841SOL    HW233423   1.646   5.259   5.387
10842SOL     OW33424   5.268   4.812   0.456
10842SOL    HW133425   5.310   4.722   0.471
10842SOL    HW233426   5.194   4.825   0.522
10843SOL     OW33427   2.548   2.140   1.599
10843SOL    HW133428   2.553   2.172   1.504
10843SOL    HW233429   2.634   2.160   1.646
10844SOL     OW33430   1.621   5.555   5.215
10844SOL    HW133431   1.552   5.612   5.260
10844SOL    HW233432   1.712   5.591   5.235
10845SOL     OW33433   4.337   6.738   4.628
10845SOL    HW133434   4.299   6.703   4.713
10845SOL    HW233435   4.263   6.752   4.562
10846SOL     OW33436   5.105   0.719   0.113
10846SOL    HW133437   5.114   0.736   0.015
10846SOL    HW233438   5.129   0.624   0.133
10847SOL     OW33439   1.981   0.975   6.767
10847SOL    HW133440   1.888   0.940   6.769
10847SOL    HW233441   1.986   1.062   6.816
10848SOL     OW33442   1.749   5.019   2.113
10848SOL    HW133443   1.732   5.098   2.054
10848SOL    HW233444   1.833   5.033   2.164
10849SOL     OW33445   2.342   6.581   4.467
10849SOL    HW133446   2.255   6.543   4.501
10849SOL    HW233447   2.390   6.627   4.542
10850SOL     OW33448   3.515   5.402   0.237
10850SOL    HW133449   3.511   5.443   0.146
10850SOL    HW233450   3.603   5.423   0.280
10851SOL     OW33451   2.043   5.533   0.854
10851SOL    HW133452   1.993   5.448   0.838
10851SOL    HW233453   2.036   5.591   0.773
10852SOL     OW33454   2.206   1.604   1.668
10852SOL    HW133455   2.117   1.647   1.684
10852SOL    HW233456   2.200   1.507   1.691
10853SOL     OW33457   2.778   2.036   6.140
10853SOL    HW133458   2.703   1.995   6.192
10853SOL    HW233459   2.773   2.136   6.149
10854SOL     OW33460   3.785   6.388   5.702
10854SOL    HW133461   3.774   6.289   5.701
10854SOL    HW233462   3.713   6.429   5.758
10855SOL     OW33463   3.435   1.550   7.004
10855SOL    HW133464   3.421   1.458   6.966
10855SOL    HW233465   3.360   1.609   6.977
10856SOL     OW33466   0.149   1.154   0.379
10856SOL    HW133467   0.155   1.164   0.478
10856SOL    HW233468   0.090   1.077   0.356
10857SOL     OW33469   6.717   2.188   2.518
10857SOL    HW133470   6.684   2.109   2.569
10857SOL    HW233471   6.758   2.158   2.432
10858SOL     OW33472   2.241   6.189   1.952
10858SOL    HW133473   2.319   6.186   1.889
10858SOL    HW233474   2.161   6.150   1.908
10859SOL     OW33475   1.730   5.474   3.703
10859SOL    HW133476   1.779   5.548   3.750
10859SOL    HW233477   1.642   5.507   3.671
10860SOL     OW33478   0.089   2.675   3.604
10860SOL    HW133479   0.017   2.638   3.662
10860SOL    HW233480   0.110   2.610   3.531
10861SOL     OW33481   3.890   3.412   4.694
10861SOL    HW133482   3.853   3.457   4.775
10861SOL    HW233483   3.915   3.318   4.716
10862SOL     OW33484   1.455   0.796   4.572
10862SOL    HW133485   1.386   0.771   4.639
10862SOL    HW233486   1.435   0.751   4.485
10863SOL     OW33487   3.252   5.880   4.357
10863SOL    HW133488   3.267   5.957   4.296
10863SOL    HW233489   3.191   5.908   4.431
10864SOL     OW33490   3.473   5.754   3.050
10864SOL    HW133491   3.541   5.736   2.978
10864SOL    HW233492   3.382   5.733   3.015
10865SOL     OW33493   6.052   1.998   6.088
10865SOL    HW133494   5.995   1.933   6.139
10865SOL    HW233495   6.052   2.086   6.135
10866SOL     OW33496   5.397   5.097   0.896
10866SOL    HW133497   5.470   5.140   0.949
10866SOL    HW233498   5.365   5.160   0.826
10867SOL     OW33499   3.311   1.928   0.399
10867SOL    HW133500   3.244   1.882   0.342
10867SOL    HW233501   3.402   1.891   0.380
10868SOL     OW33502   2.808   2.348   2.580
10868SOL    HW133503   2.877   2.332   2.651
10868SOL    HW233504   2.853   2.355   2.491
10869NA      NA33505   6.360   2.142   5.813
10870NA      NA33506   4.349   4.598   5.275
10871NA      NA33507   2.491   3.629   1.555
10872NA      NA33508   4.797   3.777   5.239
10873NA      NA33509   4.035   2.457   5.343
10874NA      NA33510   3.680   4.835   1.733
10875NA      NA33511   6.497   5.908   5.116
10876NA      NA33512   3.790   4.074   4.951
10877NA      NA33513   4.505   6.799   0.120
10878NA      NA33514   3.997   7.020   4.982
10879NA      NA33515   6.938   5.053   2.797
10880NA      NA33516   2.673   0.260   2.843
10881NA      NA33517   3.594   4.115   1.065
10882NA      NA33518   3.365   3.530   3.002
   7.02570   7.02570   7.02570
