Generated by trjconv : CNT in water t= 476.00000
33518
    1C        C    1   2.841   2.763   4.748
    1C        C    2   2.899   2.714   4.867
    1C        C    3   2.845   2.769   4.983
    1C        C    4   2.847   2.770   4.260
    1C        C    5   2.903   2.729   4.382
    1C        C    6   2.847   2.770   4.505
    1C        C    7   3.016   2.640   4.625
    1C        C    8   2.899   2.719   4.627
    1C        C    9   3.077   2.596   4.744
    1C        C   10   3.008   2.624   4.864
    1C        C   11   3.181   2.488   4.979
    1C        C   12   3.058   2.554   4.975
    1C        C   13   2.848   2.770   3.772
    1C        C   14   2.898   2.721   3.895
    1C        C   15   2.845   2.770   4.016
    1C        C   16   3.018   2.645   4.135
    1C        C   17   2.902   2.724   4.138
    1C        C   18   3.081   2.615   4.258
    1C        C   19   3.022   2.653   4.381
    1C        C   20   3.212   2.558   4.503
    1C        C   21   3.081   2.612   4.503
    1C        C   22   3.277   2.526   4.624
    1C        C   23   3.206   2.536   4.746
    1C        C   24   3.412   2.478   4.865
    1C        C   25   3.270   2.496   4.867
    1C        C   26   3.488   2.479   4.982
    1C        C   27   2.849   2.765   3.280
    1C        C   28   2.902   2.720   3.403
    1C        C   29   2.852   2.768   3.527
    1C        C   30   3.017   2.640   3.649
    1C        C   31   2.902   2.722   3.651
    1C        C   32   3.076   2.603   3.772
    1C        C   33   3.011   2.636   3.893
    1C        C   34   3.206   2.547   4.016
    1C        C   35   3.076   2.602   4.014
    1C        C   36   3.276   2.532   4.137
    1C        C   37   3.213   2.564   4.259
    1C        C   38   3.419   2.510   4.381
    1C        C   39   3.281   2.542   4.381
    1C        C   40   3.487   2.502   4.504
    1C        C   41   3.415   2.498   4.626
    1C        C   42   3.630   2.479   4.742
    1C        C   43   3.488   2.477   4.745
    1C        C   44   3.703   2.483   4.863
    1C        C   45   3.627   2.474   4.981
    1C        C   46   2.839   2.755   2.790
    1C        C   47   2.898   2.716   2.913
    1C        C   48   2.850   2.764   3.036
    1C        C   49   3.018   2.638   3.161
    1C        C   50   2.900   2.714   3.159
    1C        C   51   3.081   2.605   3.283
    1C        C   52   3.019   2.641   3.405
    1C        C   53   3.210   2.551   3.529
    1C        C   54   3.079   2.604   3.527
    1C        C   55   3.277   2.528   3.651
    1C        C   56   3.206   2.548   3.772
    1C        C   57   3.415   2.511   3.894
    1C        C   58   3.275   2.531   3.894
    1C        C   59   3.486   2.505   4.016
    1C        C   60   3.416   2.508   4.138
    1C        C   61   3.630   2.494   4.259
    1C        C   62   3.489   2.500   4.259
    1C        C   63   3.703   2.499   4.380
    1C        C   64   3.628   2.500   4.500
    1C        C   65   3.834   2.543   4.622
    1C        C   66   3.700   2.498   4.621
    1C        C   67   3.903   2.563   4.743
    1C        C   68   3.838   2.524   4.862
    1C        C   69   4.048   2.589   4.979
    1C        C   70   3.924   2.524   4.973
    1C        C   71   2.829   2.740   2.306
    1C        C   72   2.884   2.693   2.427
    1C        C   73   2.834   2.747   2.548
    1C        C   74   3.009   2.625   2.671
    1C        C   75   2.893   2.706   2.669
    1C        C   76   3.072   2.594   2.794
    1C        C   77   3.011   2.631   2.916
    1C        C   78   3.209   2.550   3.037
    1C        C   79   3.078   2.604   3.037
    1C        C   80   3.274   2.525   3.160
    1C        C   81   3.210   2.548   3.283
    1C        C   82   3.415   2.500   3.403
    1C        C   83   3.277   2.529   3.406
    1C        C   84   3.485   2.491   3.525
    1C        C   85   3.416   2.501   3.648
    1C        C   86   3.626   2.498   3.771
    1C        C   87   3.484   2.497   3.771
    1C        C   88   3.697   2.510   3.892
    1C        C   89   3.627   2.504   4.015
    1C        C   90   3.836   2.547   4.135
    1C        C   91   3.699   2.511   4.137
    1C        C   92   3.902   2.569   4.257
    1C        C   93   3.837   2.544   4.380
    1C        C   94   4.027   2.639   4.500
    1C        C   95   3.904   2.570   4.502
    1C        C   96   4.088   2.676   4.622
    1C        C   97   4.028   2.631   4.742
    1C        C   98   4.190   2.767   4.864
    1C        C   99   4.096   2.658   4.863
    1C        C  100   4.216   2.844   4.978
    1C        C  101   2.826   2.735   2.066
    1C        C  102   2.992   2.597   2.189
    1C        C  103   2.877   2.683   2.185
    1C        C  104   3.063   2.575   2.310
    1C        C  105   3.005   2.620   2.430
    1C        C  106   3.201   2.532   2.549
    1C        C  107   3.073   2.590   2.550
    1C        C  108   3.271   2.520   2.672
    1C        C  109   3.204   2.543   2.794
    1C        C  110   3.412   2.495   2.912
    1C        C  111   3.274   2.524   2.915
    1C        C  112   3.482   2.492   3.035
    1C        C  113   3.413   2.501   3.158
    1C        C  114   3.627   2.496   3.280
    1C        C  115   3.485   2.495   3.280
    1C        C  116   3.695   2.508   3.403
    1C        C  117   3.626   2.498   3.526
    1C        C  118   3.833   2.536   3.646
    1C        C  119   3.696   2.503   3.649
    1C        C  120   3.899   2.568   3.767
    1C        C  121   3.832   2.552   3.890
    1C        C  122   4.027   2.634   4.013
    1C        C  123   3.901   2.570   4.012
    1C        C  124   4.087   2.674   4.134
    1C        C  125   4.028   2.632   4.256
    1C        C  126   4.197   2.764   4.376
    1C        C  127   4.088   2.674   4.377
    1C        C  128   4.245   2.816   4.498
    1C        C  129   4.197   2.765   4.620
    1C        C  130   4.325   2.934   4.740
    1C        C  131   4.243   2.818   4.743
    1C        C  132   4.352   3.005   4.859
    1C        C  133   4.286   2.964   4.976
    1C        C  134   3.173   2.466   2.082
    1C        C  135   3.043   2.518   2.081
    1C        C  136   3.259   2.477   2.192
    1C        C  137   3.194   2.519   2.310
    1C        C  138   3.407   2.480   2.427
    1C        C  139   3.268   2.500   2.429
    1C        C  140   3.481   2.480   2.547
    1C        C  141   3.410   2.493   2.668
    1C        C  142   3.623   2.487   2.790
    1C        C  143   3.482   2.484   2.790
    1C        C  144   3.694   2.499   2.912
    1C        C  145   3.623   2.492   3.034
    1C        C  146   3.829   2.541   3.156
    1C        C  147   3.694   2.501   3.156
    1C        C  148   3.898   2.565   3.278
    1C        C  149   3.832   2.542   3.401
    1C        C  150   4.027   2.624   3.523
    1C        C  151   3.898   2.564   3.524
    1C        C  152   4.085   2.665   3.645
    1C        C  153   4.027   2.628   3.769
    1C        C  154   4.193   2.763   3.887
    1C        C  155   4.088   2.668   3.890
    1C        C  156   4.246   2.810   4.009
    1C        C  157   4.201   2.758   4.132
    1C        C  158   4.339   2.920   4.253
    1C        C  159   4.253   2.807   4.254
    1C        C  160   4.368   2.986   4.375
    1C        C  161   4.328   2.931   4.499
    1C        C  162   4.438   3.116   4.615
    1C        C  163   4.371   2.991   4.619
    1C        C  164   4.466   3.185   4.734
    1C        C  165   4.431   3.122   4.855
    1C        C  166   4.512   3.318   4.971
    1C        C  167   4.483   3.181   4.970
    1C        C  168   3.475   2.432   2.070
    1C        C  169   3.398   2.451   2.186
    1C        C  170   3.616   2.469   2.304
    1C        C  171   3.474   2.458   2.304
    1C        C  172   3.691   2.489   2.422
    1C        C  173   3.622   2.485   2.546
    1C        C  174   3.828   2.535   2.666
    1C        C  175   3.692   2.497   2.668
    1C        C  176   3.895   2.557   2.789
    1C        C  177   3.831   2.533   2.913
    1C        C  178   4.025   2.623   3.033
    1C        C  179   3.897   2.563   3.035
    1C        C  180   4.085   2.659   3.155
    1C        C  181   4.025   2.627   3.279
    1C        C  182   4.198   2.748   3.398
    1C        C  183   4.088   2.660   3.401
    1C        C  184   4.248   2.799   3.520
    1C        C  185   4.194   2.754   3.643
    1C        C  186   4.334   2.917   3.765
    1C        C  187   4.242   2.810   3.764
    1C        C  188   4.376   2.975   3.887
    1C        C  189   4.338   2.918   4.010
    1C        C  190   4.443   3.104   4.127
    1C        C  191   4.378   2.978   4.131
    1C        C  192   4.466   3.171   4.249
    1C        C  193   4.432   3.112   4.372
    1C        C  194   4.505   3.315   4.492
    1C        C  195   4.462   3.181   4.492
    1C        C  196   4.521   3.390   4.611
    1C        C  197   4.509   3.321   4.734
    1C        C  198   4.549   3.535   4.852
    1C        C  199   4.526   3.394   4.854
    1C        C  200   4.583   3.619   4.963
    1C        C  201   3.614   2.418   2.069
    1C        C  202   3.825   2.507   2.181
    1C        C  203   3.690   2.460   2.183
    1C        C  204   3.899   2.533   2.300
    1C        C  205   3.831   2.512   2.422
    1C        C  206   4.020   2.613   2.542
    1C        C  207   3.896   2.546   2.543
    1C        C  208   4.079   2.655   2.664
    1C        C  209   4.021   2.621   2.788
    1C        C  210   4.198   2.741   2.907
    1C        C  211   4.083   2.660   2.909
    1C        C  212   4.251   2.787   3.030
    1C        C  213   4.199   2.743   3.153
    1C        C  214   4.331   2.910   3.272
    1C        C  215   4.248   2.795   3.275
    1C        C  216   4.369   2.969   3.395
    1C        C  217   4.333   2.911   3.519
    1C        C  218   4.431   3.100   3.638
    1C        C  219   4.374   2.971   3.641
    1C        C  220   4.456   3.169   3.759
    1C        C  221   4.434   3.104   3.883
    1C        C  222   4.498   3.308   4.004
    1C        C  223   4.464   3.171   4.004
    1C        C  224   4.510   3.380   4.125
    1C        C  225   4.496   3.309   4.246
    1C        C  226   4.514   3.522   4.364
    1C        C  227   4.506   3.381   4.367
    1C        C  228   4.513   3.597   4.483
    1C        C  229   4.525   3.531   4.608
    1C        C  230   4.495   3.742   4.727
    1C        C  231   4.528   3.604   4.729
    1C        C  232   4.494   3.818   4.846
    1C        C  233   4.540   3.753   4.961
    1C        C  234   4.013   2.614   2.062
    1C        C  235   3.893   2.543   2.064
    1C        C  236   4.082   2.645   2.180
    1C        C  237   4.026   2.596   2.300
    1C        C  238   4.197   2.730   2.419
    1C        C  239   4.084   2.643   2.420
    1C        C  240   4.250   2.780   2.540
    1C        C  241   4.191   2.741   2.662
    1C        C  242   4.331   2.903   2.783
    1C        C  243   4.244   2.792   2.783
    1C        C  244   4.369   2.962   2.905
    1C        C  245   4.335   2.900   3.028
    1C        C  246   4.428   3.094   3.147
    1C        C  247   4.372   2.964   3.148
    1C        C  248   4.448   3.161   3.269
    1C        C  249   4.425   3.098   3.394
    1C        C  250   4.489   3.303   3.513
    1C        C  251   4.452   3.167   3.515
    1C        C  252   4.501   3.374   3.635
    1C        C  253   4.493   3.305   3.758
    1C        C  254   4.521   3.516   3.877
    1C        C  255   4.507   3.375   3.880
    1C        C  256   4.513   3.590   3.997
    1C        C  257   4.513   3.521   4.120
    1C        C  258   4.492   3.733   4.240
    1C        C  259   4.510   3.593   4.242
    1C        C  260   4.473   3.804   4.360
    1C        C  261   4.490   3.736   4.483
    1C        C  262   4.426   3.940   4.605
    1C        C  263   4.475   3.808   4.604
    1C        C  264   4.399   4.010   4.724
    1C        C  265   4.435   3.946   4.845
    1C        C  266   4.324   4.133   4.955
    1C        C  267   4.390   4.011   4.961
    1C        C  268   4.257   2.775   2.059
    1C        C  269   4.197   2.728   2.177
    1C        C  270   4.339   2.889   2.296
    1C        C  271   4.250   2.778   2.297
    1C        C  272   4.376   2.951   2.418
    1C        C  273   4.341   2.888   2.539
    1C        C  274   4.441   3.080   2.659
    1C        C  275   4.376   2.954   2.659
    1C        C  276   4.468   3.150   2.778
    1C        C  277   4.434   3.087   2.901
    1C        C  278   4.495   3.291   3.024
    1C        C  279   4.457   3.155   3.023
    1C        C  280   4.506   3.363   3.145
    1C        C  281   4.489   3.296   3.268
    1C        C  282   4.512   3.510   3.386
    1C        C  283   4.503   3.369   3.389
    1C        C  284   4.511   3.582   3.508
    1C        C  285   4.510   3.515   3.632
    1C        C  286   4.488   3.724   3.754
    1C        C  287   4.516   3.586   3.754
    1C        C  288   4.474   3.797   3.874
    1C        C  289   4.493   3.729   3.997
    1C        C  290   4.427   3.934   4.115
    1C        C  291   4.477   3.802   4.117
    1C        C  292   4.400   4.000   4.237
    1C        C  293   4.423   3.936   4.361
    1C        C  294   4.326   4.127   4.479
    1C        C  295   4.393   4.003   4.482
    1C        C  296   4.292   4.195   4.597
    1C        C  297   4.331   4.135   4.719
    1C        C  298   4.205   4.317   4.838
    1C        C  299   4.286   4.199   4.838
    1C        C  300   4.170   4.403   4.947
    1C        C  301   4.350   2.879   2.059
    1C        C  302   4.468   3.064   2.175
    1C        C  303   4.393   2.942   2.176
    1C        C  304   4.480   3.138   2.296
    1C        C  305   4.444   3.075   2.417
    1C        C  306   4.499   3.284   2.534
    1C        C  307   4.467   3.146   2.537
    1C        C  308   4.508   3.356   2.655
    1C        C  309   4.496   3.288   2.778
    1C        C  310   4.518   3.499   2.897
    1C        C  311   4.505   3.358   2.900
    1C        C  312   4.514   3.572   3.017
    1C        C  313   4.511   3.504   3.141
    1C        C  314   4.488   3.717   3.263
    1C        C  315   4.508   3.577   3.262
    1C        C  316   4.474   3.788   3.385
    1C        C  317   4.496   3.722   3.508
    1C        C  318   4.427   3.924   3.627
    1C        C  319   4.476   3.791   3.630
    1C        C  320   4.396   3.992   3.747
    1C        C  321   4.427   3.930   3.871
    1C        C  322   4.328   4.119   3.990
    1C        C  323   4.398   3.997   3.992
    1C        C  324   4.286   4.177   4.112
    1C        C  325   4.326   4.120   4.235
    1C        C  326   4.192   4.289   4.352
    1C        C  327   4.286   4.183   4.355
    1C        C  328   4.140   4.340   4.473
    1C        C  329   4.194   4.297   4.596
    1C        C  330   4.028   4.436   4.714
    1C        C  331   4.143   4.353   4.715
    1C        C  332   3.971   4.492   4.831
    1C        C  333   4.050   4.476   4.945
    1C        C  334   4.548   3.267   2.062
    1C        C  335   4.529   3.128   2.063
    1C        C  336   4.531   3.348   2.175
    1C        C  337   4.509   3.277   2.294
    1C        C  338   4.518   3.495   2.411
    1C        C  339   4.514   3.354   2.412
    1C        C  340   4.515   3.568   2.532
    1C        C  341   4.516   3.497   2.654
    1C        C  342   4.499   3.710   2.773
    1C        C  343   4.517   3.570   2.775
    1C        C  344   4.482   3.781   2.894
    1C        C  345   4.492   3.712   3.016
    1C        C  346   4.428   3.915   3.138
    1C        C  347   4.474   3.781   3.138
    1C        C  348   4.400   3.982   3.259
    1C        C  349   4.429   3.921   3.383
    1C        C  350   4.323   4.106   3.501
    1C        C  351   4.400   3.988   3.505
    1C        C  352   4.277   4.164   3.621
    1C        C  353   4.322   4.112   3.744
    1C        C  354   4.184   4.272   3.866
    1C        C  355   4.282   4.171   3.866
    1C        C  356   4.129   4.318   3.988
    1C        C  357   4.185   4.276   4.110
    1C        C  358   4.014   4.406   4.229
    1C        C  359   4.132   4.328   4.231
    1C        C  360   3.955   4.447   4.350
    1C        C  361   4.023   4.419   4.471
    1C        C  362   3.829   4.509   4.592
    1C        C  363   3.960   4.457   4.592
    1C        C  364   3.763   4.546   4.711
    1C        C  365   3.840   4.543   4.829
    1C        C  366   3.629   4.582   4.950
    1C        C  367   3.768   4.580   4.944
    1C        C  368   4.514   3.563   2.051
    1C        C  369   4.520   3.489   2.169
    1C        C  370   4.502   3.706   2.286
    1C        C  371   4.515   3.565   2.288
    1C        C  372   4.485   3.777   2.407
    1C        C  373   4.498   3.708   2.530
    1C        C  374   4.435   3.913   2.648
    1C        C  375   4.482   3.779   2.651
    1C        C  376   4.400   3.975   2.770
    1C        C  377   4.428   3.912   2.893
    1C        C  378   4.327   4.099   3.009
    1C        C  379   4.399   3.978   3.015
    1C        C  380   4.280   4.154   3.131
    1C        C  381   4.324   4.102   3.254
    1C        C  382   4.181   4.258   3.373
    1C        C  383   4.283   4.160   3.376
    1C        C  384   4.125   4.302   3.495
    1C        C  385   4.178   4.265   3.620
    1C        C  386   4.012   4.394   3.740
    1C        C  387   4.130   4.316   3.743
    1C        C  388   3.948   4.427   3.862
    1C        C  389   4.010   4.394   3.984
    1C        C  390   3.818   4.483   4.106
    1C        C  391   3.951   4.436   4.106
    1C        C  392   3.752   4.505   4.229
    1C        C  393   3.823   4.496   4.351
    1C        C  394   3.616   4.547   4.473
    1C        C  395   3.755   4.522   4.472
    1C        C  396   3.546   4.563   4.595
    1C        C  397   3.622   4.561   4.714
    1C        C  398   3.411   4.548   4.838
    1C        C  399   3.550   4.571   4.835
    1C        C  400   3.340   4.515   4.955
    1C        C  401   4.503   3.702   2.048
    1C        C  402   4.455   3.915   2.165
    1C        C  403   4.492   3.778   2.165
    1C        C  404   4.416   3.978   2.285
    1C        C  405   4.441   3.911   2.407
    1C        C  406   4.335   4.100   2.523
    1C        C  407   4.407   3.978   2.527
    1C        C  408   4.288   4.155   2.645
    1C        C  409   4.325   4.095   2.767
    1C        C  410   4.178   4.250   2.885
    1C        C  411   4.284   4.156   2.888
    1C        C  412   4.125   4.295   3.007
    1C        C  413   4.180   4.254   3.130
    1C        C  414   4.002   4.373   3.251
    1C        C  415   4.124   4.302   3.251
    1C        C  416   3.943   4.408   3.374
    1C        C  417   4.005   4.377   3.497
    1C        C  418   3.812   4.467   3.617
    1C        C  419   3.945   4.417   3.618
    1C        C  420   3.748   4.493   3.740
    1C        C  421   3.816   4.478   3.863
    1C        C  422   3.610   4.529   3.986
    1C        C  423   3.748   4.502   3.984
    1C        C  424   3.542   4.537   4.110
    1C        C  425   3.614   4.534   4.231
    1C        C  426   3.402   4.542   4.354
    1C        C  427   3.543   4.546   4.353
    1C        C  428   3.333   4.541   4.478
    1C        C  429   3.405   4.558   4.598
    1C        C  430   3.195   4.519   4.722
    1C        C  431   3.334   4.546   4.720
    1C        C  432   3.128   4.493   4.845
    1C        C  433   3.204   4.493   4.963
    1C        C  434   4.389   4.123   2.049
    1C        C  435   4.447   3.996   2.051
    1C        C  436   4.305   4.160   2.159
    1C        C  437   4.340   4.098   2.282
    1C        C  438   4.187   4.252   2.400
    1C        C  439   4.289   4.154   2.401
    1C        C  440   4.128   4.293   2.521
    1C        C  441   4.182   4.248   2.643
    1C        C  442   4.002   4.369   2.762
    1C        C  443   4.122   4.294   2.763
    1C        C  444   3.942   4.405   2.885
    1C        C  445   4.008   4.374   3.006
    1C        C  446   3.811   4.459   3.130
    1C        C  447   3.941   4.405   3.127
    1C        C  448   3.744   4.478   3.253
    1C        C  449   3.812   4.460   3.376
    1C        C  450   3.605   4.520   3.496
    1C        C  451   3.743   4.489   3.496
    1C        C  452   3.539   4.536   3.620
    1C        C  453   3.611   4.527   3.741
    1C        C  454   3.399   4.538   3.865
    1C        C  455   3.541   4.537   3.863
    1C        C  456   3.330   4.533   3.988
    1C        C  457   3.400   4.534   4.110
    1C        C  458   3.193   4.504   4.234
    1C        C  459   3.330   4.535   4.233
    1C        C  460   3.127   4.485   4.358
    1C        C  461   3.195   4.512   4.479
    1C        C  462   2.998   4.434   4.600
    1C        C  463   3.127   4.491   4.601
    1C        C  464   2.930   4.407   4.722
    1C        C  465   2.992   4.446   4.843
    1C        C  466   2.800   4.337   4.956
    1C        C  467   2.906   4.429   4.956
    1C        C  468   4.121   4.279   2.041
    1C        C  469   4.187   4.242   2.159
    1C        C  470   4.006   4.366   2.278
    1C        C  471   4.129   4.294   2.278
    1C        C  472   3.939   4.398   2.398
    1C        C  473   4.006   4.365   2.518
    1C        C  474   3.812   4.455   2.643
    1C        C  475   3.943   4.404   2.639
    1C        C  476   3.743   4.480   2.764
    1C        C  477   3.810   4.456   2.885
    1C        C  478   3.605   4.508   3.009
    1C        C  479   3.743   4.479   3.007
    1C        C  480   3.535   4.518   3.132
    1C        C  481   3.607   4.511   3.253
    1C        C  482   3.394   4.526   3.375
    1C        C  483   3.535   4.525   3.374
    1C        C  484   3.326   4.524   3.499
    1C        C  485   3.397   4.537   3.621
    1C        C  486   3.189   4.502   3.743
    1C        C  487   3.328   4.530   3.743
    1C        C  488   3.127   4.476   3.867
    1C        C  489   3.192   4.502   3.990
    1C        C  490   2.999   4.418   4.115
    1C        C  491   3.126   4.479   4.112
    1C        C  492   2.939   4.386   4.239
    1C        C  493   2.998   4.428   4.360
    1C        C  494   2.825   4.304   4.481
    1C        C  495   2.934   4.394   4.481
    1C        C  496   2.777   4.256   4.605
    1C        C  497   2.820   4.318   4.724
    1C        C  498   2.663   4.166   4.843
    1C        C  499   2.750   4.277   4.840
    1C        C  500   2.595   4.116   4.955
    1C        C  501   4.004   4.354   2.039
    1C        C  502   3.811   4.451   2.156
    1C        C  503   3.941   4.397   2.157
    1C        C  504   3.742   4.475   2.276
    1C        C  505   3.809   4.454   2.399
    1C        C  506   3.603   4.497   2.520
    1C        C  507   3.742   4.470   2.521
    1C        C  508   3.533   4.508   2.642
    1C        C  509   3.604   4.505   2.765
    1C        C  510   3.393   4.520   2.887
    1C        C  511   3.534   4.516   2.887
    1C        C  512   3.321   4.518   3.009
    1C        C  513   3.394   4.524   3.130
    1C        C  514   3.186   4.490   3.255
    1C        C  515   3.323   4.522   3.252
    1C        C  516   3.119   4.470   3.378
    1C        C  517   3.188   4.497   3.498
    1C        C  518   2.996   4.414   3.622
    1C        C  519   3.121   4.481   3.621
    1C        C  520   2.941   4.374   3.746
    1C        C  521   3.002   4.411   3.868
    1C        C  522   2.833   4.288   3.994
    1C        C  523   2.942   4.378   3.991
    1C        C  524   2.783   4.241   4.118
    1C        C  525   2.830   4.296   4.239
    1C        C  526   2.692   4.135   4.362
    1C        C  527   2.775   4.250   4.361
    1C        C  528   2.652   4.082   4.486
    1C        C  529   2.685   4.148   4.607
    1C        C  530   2.586   3.959   4.732
    1C        C  531   2.635   4.092   4.726
    1C        C  532   2.546   3.898   4.854
    1C        C  533   2.528   3.993   4.960
    1C        C  534   3.617   4.559   2.045
    1C        C  535   3.747   4.509   2.045
    1C        C  536   3.533   4.535   2.159
    1C        C  537   3.603   4.507   2.279
    1C        C  538   3.389   4.513   2.401
    1C        C  539   3.531   4.511   2.400
    1C        C  540   3.319   4.506   2.523
    1C        C  541   3.392   4.511   2.644
    1C        C  542   3.182   4.483   2.765
    1C        C  543   3.321   4.510   2.766
    1C        C  544   3.115   4.466   2.888
    1C        C  545   3.183   4.489   3.010
    1C        C  546   2.992   4.402   3.135
    1C        C  547   3.118   4.466   3.133
    1C        C  548   2.933   4.365   3.258
    1C        C  549   2.993   4.406   3.379
    1C        C  550   2.826   4.282   3.506
    1C        C  551   2.933   4.374   3.503
    1C        C  552   2.777   4.234   3.630
    1C        C  553   2.827   4.291   3.749
    1C        C  554   2.702   4.123   3.875
    1C        C  555   2.780   4.241   3.872
    1C        C  556   2.666   4.062   3.997
    1C        C  557   2.701   4.126   4.118
    1C        C  558   2.601   3.942   4.245
    1C        C  559   2.658   4.071   4.241
    1C        C  560   2.574   3.880   4.369
    1C        C  561   2.595   3.953   4.489
    1C        C  562   2.533   3.751   4.614
    1C        C  563   2.567   3.889   4.611
    1C        C  564   2.519   3.681   4.736
    1C        C  565   2.524   3.756   4.857
    1C        C  566   2.527   3.545   4.975
    1C        C  567   2.516   3.684   4.976
    1C        C  568   3.325   4.480   2.041
    1C        C  569   3.392   4.515   2.159
    1C        C  570   3.178   4.482   2.279
    1C        C  571   3.317   4.515   2.280
    1C        C  572   3.111   4.461   2.402
    1C        C  573   3.180   4.481   2.523
    1C        C  574   2.984   4.400   2.648
    1C        C  575   3.112   4.460   2.645
    1C        C  576   2.926   4.362   2.771
    1C        C  577   2.990   4.400   2.891
    1C        C  578   2.819   4.278   3.017
    1C        C  579   2.931   4.364   3.014
    1C        C  580   2.772   4.224   3.139
    1C        C  581   2.824   4.275   3.260
    1C        C  582   2.691   4.116   3.383
    1C        C  583   2.776   4.228   3.385
    1C        C  584   2.662   4.056   3.507
    1C        C  585   2.698   4.117   3.630
    1C        C  586   2.601   3.933   3.754
    1C        C  587   2.664   4.060   3.754
    1C        C  588   2.573   3.871   3.878
    1C        C  589   2.602   3.936   4.000
    1C        C  590   2.543   3.736   4.127
    1C        C  591   2.580   3.872   4.124
    1C        C  592   2.528   3.672   4.252
    1C        C  593   2.536   3.744   4.373
    1C        C  594   2.515   3.535   4.497
    1C        C  595   2.523   3.676   4.495
    1C        C  596   2.517   3.464   4.619
    1C        C  597   2.516   3.539   4.739
    1C        C  598   2.533   3.325   4.858
    1C        C  599   2.525   3.466   4.859
    1C        C  600   2.536   3.246   4.974
    1C        C  601   3.192   4.445   2.042
    1C        C  602   2.980   4.395   2.160
    1C        C  603   3.113   4.445   2.158
    1C        C  604   2.918   4.362   2.285
    1C        C  605   2.984   4.399   2.404
    1C        C  606   2.814   4.272   2.530
    1C        C  607   2.922   4.364   2.526
    1C        C  608   2.765   4.222   2.652
    1C        C  609   2.816   4.274   2.773
    1C        C  610   2.688   4.109   2.896
    1C        C  611   2.766   4.227   2.897
    1C        C  612   2.650   4.050   3.018
    1C        C  613   2.690   4.109   3.140
    1C        C  614   2.587   3.926   3.266
    1C        C  615   2.649   4.053   3.263
    1C        C  616   2.567   3.862   3.390
    1C        C  617   2.602   3.928   3.511
    1C        C  618   2.536   3.728   3.637
    1C        C  619   2.576   3.864   3.634
    1C        C  620   2.517   3.663   3.761
    1C        C  621   2.535   3.735   3.881
    1C        C  622   2.516   3.527   4.010
    1C        C  623   2.522   3.668   4.005
    1C        C  624   2.519   3.457   4.132
    1C        C  625   2.522   3.531   4.253
    1C        C  626   2.540   3.322   4.378
    1C        C  627   2.522   3.462   4.376
    1C        C  628   2.556   3.252   4.500
    1C        C  629   2.533   3.324   4.619
    1C        C  630   2.596   3.117   4.742
    1C        C  631   2.550   3.251   4.739
    1C        C  632   2.617   3.043   4.862
    1C        C  633   2.563   3.109   4.977
    1C        C  634   2.782   4.298   2.049
    1C        C  635   2.889   4.388   2.049
    1C        C  636   2.746   4.230   2.165
    1C        C  637   2.805   4.276   2.285
    1C        C  638   2.675   4.112   2.408
    1C        C  639   2.759   4.225   2.408
    1C        C  640   2.642   4.050   2.530
    1C        C  641   2.683   4.107   2.652
    1C        C  642   2.589   3.919   2.776
    1C        C  643   2.647   4.048   2.775
    1C        C  644   2.568   3.853   2.899
    1C        C  645   2.590   3.922   3.020
    1C        C  646   2.525   3.724   3.146
    1C        C  647   2.560   3.861   3.143
    1C        C  648   2.518   3.657   3.270
    1C        C  649   2.531   3.726   3.392
    1C        C  650   2.514   3.517   3.518
    1C        C  651   2.522   3.658   3.516
    1C        C  652   2.514   3.448   3.641
    1C        C  653   2.511   3.521   3.762
    1C        C  654   2.537   3.316   3.891
    1C        C  655   2.516   3.456   3.887
    1C        C  656   2.556   3.247   4.012
    1C        C  657   2.537   3.317   4.134
    1C        C  658   2.603   3.118   4.256
    1C        C  659   2.550   3.249   4.257
    1C        C  660   2.636   3.056   4.378
    1C        C  661   2.605   3.119   4.501
    1C        C  662   2.710   2.934   4.622
    1C        C  663   2.631   3.051   4.622
    1C        C  664   2.754   2.875   4.743
    1C        C  665   2.701   2.927   4.864
    1C        C  666   2.746   2.867   4.983
    1C        C  667   2.688   4.021   2.054
    1C        C  668   2.691   4.100   2.169
    1C        C  669   2.590   3.911   2.291
    1C        C  670   2.643   4.042   2.289
    1C        C  671   2.561   3.846   2.414
    1C        C  672   2.587   3.919   2.532
    1C        C  673   2.524   3.716   2.657
    1C        C  674   2.564   3.852   2.654
    1C        C  675   2.509   3.649   2.780
    1C        C  676   2.529   3.717   2.902
    1C        C  677   2.506   3.510   3.029
    1C        C  678   2.514   3.651   3.026
    1C        C  679   2.512   3.442   3.153
    1C        C  680   2.507   3.516   3.274
    1C        C  681   2.525   3.304   3.400
    1C        C  682   2.509   3.445   3.396
    1C        C  683   2.546   3.238   3.523
    1C        C  684   2.531   3.308   3.645
    1C        C  685   2.600   3.113   3.770
    1C        C  686   2.547   3.244   3.770
    1C        C  687   2.636   3.053   3.893
    1C        C  688   2.602   3.114   4.016
    1C        C  689   2.706   2.928   4.138
    1C        C  690   2.632   3.048   4.137
    1C        C  691   2.752   2.874   4.261
    1C        C  692   2.711   2.936   4.382
    1C        C  693   2.752   2.874   4.502
    1C        C  694   2.631   3.893   2.056
    1C        C  695   2.532   3.702   2.175
    1C        C  696   2.582   3.834   2.173
    1C        C  697   2.506   3.636   2.297
    1C        C  698   2.517   3.712   2.415
    1C        C  699   2.486   3.503   2.543
    1C        C  700   2.504   3.644   2.538
    1C        C  701   2.496   3.434   2.666
    1C        C  702   2.494   3.508   2.785
    1C        C  703   2.520   3.298   2.909
    1C        C  704   2.501   3.438   2.908
    1C        C  705   2.544   3.233   3.033
    1C        C  706   2.534   3.303   3.155
    1C        C  707   2.602   3.105   3.279
    1C        C  708   2.547   3.235   3.278
    1C        C  709   2.635   3.046   3.402
    1C        C  710   2.602   3.108   3.525
    1C        C  711   2.711   2.930   3.648
    1C        C  712   2.632   3.048   3.649
    1C        C  713   2.754   2.876   3.771
    1C        C  714   2.708   2.932   3.893
    1C        C  715   2.750   2.875   4.015
    1C        C  716   2.449   3.499   2.064
    1C        C  717   2.490   3.632   2.061
    1C        C  718   2.472   3.421   2.181
    1C        C  719   2.485   3.495   2.302
    1C        C  720   2.513   3.288   2.424
    1C        C  721   2.483   3.426   2.425
    1C        C  722   2.536   3.222   2.547
    1C        C  723   2.524   3.295   2.667
    1C        C  724   2.590   3.094   2.792
    1C        C  725   2.538   3.225   2.789
    1C        C  726   2.622   3.032   2.915
    1C        C  727   2.594   3.101   3.035
    1C        C  728   2.710   2.923   3.160
    1C        C  729   2.633   3.041   3.157
    1C        C  730   2.759   2.874   3.283
    1C        C  731   2.714   2.929   3.405
    1C        C  732   2.759   2.875   3.528
    1C        C  733   2.493   3.197   2.066
    1C        C  734   2.489   3.279   2.180
    1C        C  735   2.582   3.086   2.306
    1C        C  736   2.523   3.216   2.303
    1C        C  737   2.616   3.022   2.427
    1C        C  738   2.586   3.090   2.548
    1C        C  739   2.697   2.911   2.669
    1C        C  740   2.621   3.030   2.670
    1C        C  741   2.740   2.855   2.792
    1C        C  742   2.701   2.915   2.914
    1C        C  743   2.754   2.868   3.037
    1C        C  744   2.549   3.070   2.070
    1C        C  745   2.683   2.899   2.183
    1C        C  746   2.608   3.018   2.186
    1C        C  747   2.730   2.842   2.304
    1C        C  748   2.692   2.903   2.425
    1C        C  749   2.739   2.852   2.548
    1C        C  750   2.739   2.844   2.067
    1C        C  751   3.660   2.316   1.972
    1C        O  752   3.650   2.198   2.015
    1C        O  753   3.698   2.348   1.841
    1C        C  754   4.626   3.063   1.971
    1C        O  755   4.588   3.015   1.861
    1C        O  756   4.758   3.037   2.009
    1C        C  757   4.473   4.224   1.980
    1C        O  758   4.549   4.299   2.046
    1C        O  759   4.489   4.212   1.841
    1C        C  760   3.601   4.674   1.954
    1C        O  761   3.638   4.794   1.970
    1C        O  762   3.580   4.651   1.817
    1C        C  763   2.873   4.514   1.973
    1C        O  764   2.886   4.514   1.847
    1C        O  765   2.802   4.621   2.029
    1C        C  766   2.324   3.476   1.987
    1C        O  767   2.322   3.417   1.875
    1C        O  768   2.200   3.528   2.025
    1C        C  769   4.689   3.599   5.064
    1C        O  770   4.676   3.525   5.165
    1C        O  771   4.784   3.695   5.101
    1C        C  772   4.283   4.459   5.024
    1C        O  773   4.303   4.451   5.148
    1C        O  774   4.332   4.586   4.991
    1C        C  775   4.136   2.552   5.093
    1C        O  776   4.221   2.462   5.072
    1C        O  777   4.082   2.535   5.221
    1C        C  778   2.882   4.541   5.050
    1C        O  779   2.775   4.607   5.054
    1C        O  780   2.973   4.560   5.155
    1C        C  781   2.488   3.033   5.080
    1C        O  782   2.362   3.035   5.076
    1C        O  783   2.532   3.037   5.212
    1C        C  784   2.409   3.998   5.047
    1C        O  785   2.293   3.997   4.996
    1C        O  786   2.413   3.994   5.186
    1C        C  787   2.948   2.460   1.983
    1C        O  788   2.982   2.435   1.864
    1C        O  789   2.847   2.372   2.022
    1C        C  790   3.193   2.401   5.099
    1C        O  791   3.159   2.280   5.096
    1C        O  792   3.252   2.445   5.218
    1C        H  793   4.232   3.043   5.024
    1C        H  794   4.227   2.792   5.071
    1C        H  795   4.542   3.117   5.033
    1C        H  796   4.498   3.369   5.063
    1C        H  797   4.587   3.818   5.032
    1C        H  798   4.392   3.958   5.054
    1C        H  799   4.316   4.190   5.045
    1C        H  800   4.008   4.508   5.038
    1C        H  801   3.821   4.637   5.017
    1C        H  802   3.587   4.597   5.048
    1C        H  803   3.385   4.536   5.050
    1C        H  804   3.172   4.432   5.045
    1C        H  805   3.888   2.478   5.063
    1C        H  806   3.674   2.467   5.077
    1C        H  807   2.987   2.522   5.048
    1C        H  808   3.435   2.481   5.075
    1C        H  809   2.850   2.710   5.072
    1C        H  810   2.679   2.862   5.066
    1C        H  811   2.493   3.287   5.063
    1C        H  812   2.584   3.510   5.059
    1C        H  813   2.501   3.732   5.071
    1C        H  814   2.598   4.176   5.043
    1C        H  815   2.770   4.296   5.050
    1C        H  816   2.720   2.893   1.974
    1C        H  817   2.818   2.669   1.982
    1C        H  818   3.209   2.427   1.989
    1C        H  819   3.431   2.466   1.978
    1C        H  820   3.847   2.535   1.968
    1C        H  821   4.074   2.574   1.984
    1C        H  822   4.278   2.700   1.986
    1C        H  823   4.388   2.909   1.964
    1C        H  824   4.578   3.317   1.972
    1C        H  825   4.477   3.509   1.965
    1C        H  826   4.530   3.752   1.958
    1C        H  827   3.806   4.523   1.956
    1C        H  828   4.003   4.422   1.956
    1C        H  829   4.183   4.291   1.956
    1C        H  830   4.452   3.955   1.952
    1C        H  831   2.588   3.861   1.964
    1C        H  832   2.682   4.074   1.961
    1C        H  833   2.721   4.292   1.961
    1C        H  834   3.383   4.470   1.951
    1C        H  835   3.144   4.446   1.946
    1C        H  836   2.510   2.996   2.003
    1C        H  837   2.432   3.220   1.981
    1C        H  838   2.495   3.677   1.964
    2V3OU   H29  839   2.801   3.544   5.259
    2V3OU   C27  840   2.777   3.502   5.360
    2V3OU   H27  841   2.722   3.573   5.427
    2V3OU   H28  842   2.721   3.406   5.353
    2V3OU   O11  843   2.904   3.472   5.418
    2V3OU   C15  844   2.916   3.396   5.533
    2V3OU   C13  845   3.050   3.371   5.569
    2V3OU   C14  846   3.074   3.267   5.660
    2V3OU   C16  847   2.971   3.187   5.707
    2V3OU    H6  848   2.993   3.100   5.770
    2V3OU   C12  849   3.215   3.232   5.691
    2V3OU    O2  850   3.243   3.127   5.754
    2V3OU   C10  851   3.324   3.310   5.632
    2V3OU    C8  852   3.456   3.269   5.650
    2V3OU   O10  853   3.485   3.155   5.719
    2V3OU   H26  854   3.399   3.115   5.737
    2V3OU    C6  855   3.565   3.351   5.607
    2V3OU    C5  856   3.533   3.467   5.538
    2V3OU    C4  857   3.702   3.297   5.622
    2V3OU    H4  858   3.724   3.236   5.714
    2V3OU    H5  859   3.715   3.224   5.536
    2V3OU    C2  860   3.818   3.397   5.620
    2V3OU    O6  861   3.811   3.473   5.741
    2V3OU   H21  862   3.765   3.556   5.721
    2V3OU    C3  863   3.786   3.497   5.508
    2V3OU    H2  864   3.869   3.572   5.501
    2V3OU    H3  865   3.792   3.441   5.412
    2V3OU   C25  866   3.951   3.322   5.613
    2V3OU    O7  867   4.006   3.295   5.507
    2V3OU   C26  868   4.029   3.291   5.740
    2V3OU   H22  869   4.069   3.384   5.789
    2V3OU   H23  870   4.117   3.226   5.714
    2V3OU    O8  871   3.960   3.209   5.832
    2V3OU   H24  872   3.923   3.269   5.898
    2V3OU    C1  873   3.648   3.561   5.514
    2V3OU    H1  874   3.627   3.613   5.416
    2V3OU    O3  875   3.653   3.656   5.621
    2V3OU   C19  876   3.619   3.793   5.602
    2V3OU    H9  877   3.526   3.802   5.538
    2V3OU    O4  878   3.715   3.849   5.515
    2V3OU   C20  879   3.846   3.872   5.569
    2V3OU   H10  880   3.898   3.772   5.571
    2V3OU   C24  881   3.608   3.861   5.739
    2V3OU   H16  882   3.549   3.793   5.806
    2V3OU   H17  883   3.562   3.962   5.728
    2V3OU   C23  884   3.748   3.874   5.800
    2V3OU   H15  885   3.788   3.770   5.822
    2V3OU    N1  886   3.735   3.951   5.921
    2V3OU   H19  887   3.806   3.919   5.983
    2V3OU   H20  888   3.645   3.925   5.957
    2V3OU   C21  889   3.846   3.946   5.703
    2V3OU   H11  890   3.952   3.932   5.742
    2V3OU    O5  891   3.824   4.086   5.693
    2V3OU   H18  892   3.778   4.108   5.775
    2V3OU   C22  893   3.912   3.948   5.456
    2V3OU   H12  894   3.858   4.045   5.438
    2V3OU   H13  895   3.905   3.890   5.361
    2V3OU   H14  896   4.021   3.961   5.478
    2V3OU   C11  897   3.156   3.464   5.526
    2V3OU    O1  898   3.126   3.579   5.486
    2V3OU    C9  899   3.296   3.426   5.556
    2V3OU    C7  900   3.399   3.508   5.511
    2V3OU    O9  901   3.384   3.620   5.431
    2V3OU   H25  902   3.289   3.634   5.418
    2V3OU   C17  903   2.816   3.315   5.588
    2V3OU    H7  904   2.711   3.344   5.579
    2V3OU   C18  905   2.837   3.207   5.673
    2V3OU    H8  906   2.749   3.144   5.694
    3SOL     OW  907   3.973   3.108   4.143
    3SOL    HW1  908   3.975   3.068   4.052
    3SOL    HW2  909   3.965   3.207   4.136
    4SOL     OW  910   6.648   6.072   0.599
    4SOL    HW1  911   6.567   6.069   0.658
    4SOL    HW2  912   6.722   6.120   0.646
    5SOL     OW  913   4.880   2.018   0.421
    5SOL    HW1  914   4.892   2.069   0.335
    5SOL    HW2  915   4.958   2.036   0.481
    6SOL     OW  916   5.192   1.145   3.191
    6SOL    HW1  917   5.126   1.088   3.240
    6SOL    HW2  918   5.247   1.086   3.131
    7SOL     OW  919   1.568   4.033   4.053
    7SOL    HW1  920   1.470   4.015   4.040
    7SOL    HW2  921   1.601   4.091   3.978
    8SOL     OW  922   1.137   3.536   5.027
    8SOL    HW1  923   1.158   3.627   4.991
    8SOL    HW2  924   1.114   3.475   4.951
    9SOL     OW  925   7.022   1.014   6.561
    9SOL    HW1  926   0.086   0.968   6.582
    9SOL    HW2  927   6.946   0.951   6.576
   10SOL     OW  928   5.284   4.716   1.908
   10SOL    HW1  929   5.337   4.672   1.836
   10SOL    HW2  930   5.257   4.808   1.879
   11SOL     OW  931   2.397   2.574   0.465
   11SOL    HW1  932   2.435   2.488   0.499
   11SOL    HW2  933   2.447   2.604   0.385
   12SOL     OW  934   3.392   4.906   2.805
   12SOL    HW1  935   3.317   4.848   2.773
   12SOL    HW2  936   3.477   4.878   2.762
   13SOL     OW  937   5.873   5.824   0.909
   13SOL    HW1  938   5.897   5.738   0.866
   13SOL    HW2  939   5.852   5.809   1.006
   14SOL     OW  940   4.149   6.193   5.321
   14SOL    HW1  941   4.165   6.114   5.380
   14SOL    HW2  942   4.050   6.205   5.307
   15SOL     OW  943   0.556   6.598   6.085
   15SOL    HW1  944   0.469   6.636   6.116
   15SOL    HW2  945   0.580   6.520   6.143
   16SOL     OW  946   2.029   4.447   4.803
   16SOL    HW1  947   2.087   4.527   4.792
   16SOL    HW2  948   2.086   4.365   4.811
   17SOL     OW  949   6.124   1.297   5.890
   17SOL    HW1  950   6.078   1.234   5.827
   17SOL    HW2  951   6.221   1.272   5.897
   18SOL     OW  952   2.418   0.585   5.977
   18SOL    HW1  953   2.345   0.645   5.944
   18SOL    HW2  954   2.380   0.499   6.009
   19SOL     OW  955   2.968   6.700   3.092
   19SOL    HW1  956   3.039   6.757   3.053
   19SOL    HW2  957   2.992   6.603   3.080
   20SOL     OW  958   6.457   1.496   5.345
   20SOL    HW1  959   6.526   1.429   5.319
   20SOL    HW2  960   6.368   1.469   5.308
   21SOL     OW  961   2.607   4.542   2.851
   21SOL    HW1  962   2.657   4.469   2.805
   21SOL    HW2  963   2.605   4.623   2.793
   22SOL     OW  964   1.644   0.666   6.889
   22SOL    HW1  965   1.577   0.725   6.845
   22SOL    HW2  966   1.635   0.573   6.853
   23SOL     OW  967   5.719   4.952   1.689
   23SOL    HW1  968   5.753   5.030   1.637
   23SOL    HW2  969   5.708   4.874   1.627
   24SOL     OW  970   4.192   1.094   0.681
   24SOL    HW1  971   4.109   1.101   0.736
   24SOL    HW2  972   4.261   1.042   0.732
   25SOL     OW  973   1.574   0.929   4.525
   25SOL    HW1  974   1.489   0.917   4.576
   25SOL    HW2  975   1.569   1.012   4.470
   26SOL     OW  976   0.553   2.790   6.266
   26SOL    HW1  977   0.482   2.746   6.210
   26SOL    HW2  978   0.635   2.732   6.267
   27SOL     OW  979   5.914   0.315   1.507
   27SOL    HW1  980   5.998   0.308   1.452
   27SOL    HW2  981   5.871   0.403   1.490
   28SOL     OW  982   2.574   0.896   5.444
   28SOL    HW1  983   2.593   0.911   5.541
   28SOL    HW2  984   2.475   0.887   5.430
   29SOL     OW  985   0.473   6.704   1.086
   29SOL    HW1  986   0.373   6.712   1.082
   29SOL    HW2  987   0.503   6.706   1.181
   30SOL     OW  988   5.141   0.312   5.376
   30SOL    HW1  989   5.148   0.412   5.377
   30SOL    HW2  990   5.154   0.279   5.283
   31SOL     OW  991   0.831   3.448   5.134
   31SOL    HW1  992   0.916   3.500   5.136
   31SOL    HW2  993   0.836   3.373   5.200
   32SOL     OW  994   3.546   0.305   1.186
   32SOL    HW1  995   3.511   0.259   1.268
   32SOL    HW2  996   3.621   0.251   1.147
   33SOL     OW  997   1.635   5.809   6.086
   33SOL    HW1  998   1.542   5.840   6.066
   33SOL    HW2  999   1.636   5.763   6.175
   34SOL     OW 1000   2.974   5.334   5.130
   34SOL    HW1 1001   3.035   5.380   5.194
   34SOL    HW2 1002   3.027   5.272   5.072
   35SOL     OW 1003   2.210   3.481   6.859
   35SOL    HW1 1004   2.299   3.521   6.881
   35SOL    HW2 1005   2.223   3.404   6.797
   36SOL     OW 1006   4.012   1.124   4.046
   36SOL    HW1 1007   4.052   1.059   3.981
   36SOL    HW2 1008   3.917   1.142   4.020
   37SOL     OW 1009   2.826   0.164   4.177
   37SOL    HW1 1010   2.832   0.146   4.079
   37SOL    HW2 1011   2.853   0.082   4.228
   38SOL     OW 1012   1.108   3.621   3.154
   38SOL    HW1 1013   1.105   3.556   3.078
   38SOL    HW2 1014   1.016   3.648   3.179
   39SOL     OW 1015   6.962   4.439   0.466
   39SOL    HW1 1016   6.907   4.497   0.525
   39SOL    HW2 1017   0.004   4.497   0.413
   40SOL     OW 1018   4.484   1.581   0.926
   40SOL    HW1 1019   4.475   1.679   0.908
   40SOL    HW2 1020   4.546   1.540   0.859
   41SOL     OW 1021   5.377   3.877   1.948
   41SOL    HW1 1022   5.349   3.972   1.957
   41SOL    HW2 1023   5.295   3.819   1.940
   42SOL     OW 1024   2.578   4.697   6.523
   42SOL    HW1 1025   2.489   4.741   6.523
   42SOL    HW2 1026   2.633   4.733   6.448
   43SOL     OW 1027   4.231   7.007   5.020
   43SOL    HW1 1028   4.181   0.063   5.059
   43SOL    HW2 1029   4.296   6.972   5.087
   44SOL     OW 1030   6.468   1.307   5.579
   44SOL    HW1 1031   6.534   1.368   5.535
   44SOL    HW2 1032   6.378   1.349   5.577
   45SOL     OW 1033   2.386   4.990   5.755
   45SOL    HW1 1034   2.395   5.088   5.773
   45SOL    HW2 1035   2.298   4.972   5.711
   46SOL     OW 1036   0.647   3.536   4.160
   46SOL    HW1 1037   0.657   3.514   4.062
   46SOL    HW2 1038   0.704   3.615   4.182
   47SOL     OW 1039   6.764   3.767   0.583
   47SOL    HW1 1040   6.849   3.815   0.564
   47SOL    HW2 1041   6.687   3.827   0.565
   48SOL     OW 1042   6.100   3.647   0.958
   48SOL    HW1 1043   6.033   3.676   0.890
   48SOL    HW2 1044   6.174   3.714   0.962
   49SOL     OW 1045   3.164   3.834   6.536
   49SOL    HW1 1046   3.144   3.900   6.609
   49SOL    HW2 1047   3.139   3.873   6.448
   50SOL     OW 1048   6.387   2.306   0.674
   50SOL    HW1 1049   6.307   2.298   0.734
   50SOL    HW2 1050   6.442   2.223   0.680
   51SOL     OW 1051   1.923   5.821   3.078
   51SOL    HW1 1052   1.942   5.728   3.047
   51SOL    HW2 1053   1.836   5.852   3.039
   52SOL     OW 1054   6.130   3.090   2.196
   52SOL    HW1 1055   6.115   2.991   2.186
   52SOL    HW2 1056   6.173   3.108   2.285
   53SOL     OW 1057   3.971   0.581   2.071
   53SOL    HW1 1058   3.966   0.546   1.978
   53SOL    HW2 1059   3.883   0.570   2.116
   54SOL     OW 1060   5.219   0.543   6.647
   54SOL    HW1 1061   5.296   0.520   6.707
   54SOL    HW2 1062   5.208   0.642   6.644
   55SOL     OW 1063   1.354   3.967   6.136
   55SOL    HW1 1064   1.313   4.025   6.207
   55SOL    HW2 1065   1.352   3.872   6.167
   56SOL     OW 1066   0.664   2.474   6.726
   56SOL    HW1 1067   0.586   2.482   6.789
   56SOL    HW2 1068   0.749   2.469   6.779
   57SOL     OW 1069   4.711   6.137   0.278
   57SOL    HW1 1070   4.779   6.124   0.205
   57SOL    HW2 1071   4.637   6.071   0.266
   58SOL     OW 1072   0.624   0.086   0.565
   58SOL    HW1 1073   0.590   0.003   0.609
   58SOL    HW2 1074   0.711   0.066   0.518
   59SOL     OW 1075   4.986   3.132   5.283
   59SOL    HW1 1076   5.073   3.112   5.327
   59SOL    HW2 1077   4.976   3.231   5.272
   60SOL     OW 1078   5.119   1.824   2.173
   60SOL    HW1 1079   5.123   1.922   2.192
   60SOL    HW2 1080   5.167   1.775   2.246
   61SOL     OW 1081   1.159   5.964   4.502
   61SOL    HW1 1082   1.183   6.060   4.514
   61SOL    HW2 1083   1.213   5.925   4.427
   62SOL     OW 1084   5.920   3.175   2.894
   62SOL    HW1 1085   5.955   3.099   2.839
   62SOL    HW2 1086   5.995   3.236   2.919
   63SOL     OW 1087   4.258   0.241   5.839
   63SOL    HW1 1088   4.284   0.281   5.927
   63SOL    HW2 1089   4.179   0.289   5.802
   64SOL     OW 1090   0.737   3.859   5.032
   64SOL    HW1 1091   0.714   3.765   5.007
   64SOL    HW2 1092   0.835   3.873   5.024
   65SOL     OW 1093   0.589   6.104   5.050
   65SOL    HW1 1094   0.528   6.175   5.014
   65SOL    HW2 1095   0.670   6.098   4.990
   66SOL     OW 1096   3.657   1.202   2.619
   66SOL    HW1 1097   3.601   1.119   2.612
   66SOL    HW2 1098   3.605   1.281   2.587
   67SOL     OW 1099   0.109   3.185   1.242
   67SOL    HW1 1100   0.069   3.271   1.213
   67SOL    HW2 1101   0.184   3.160   1.180
   68SOL     OW 1102   6.525   1.530   6.354
   68SOL    HW1 1103   6.568   1.521   6.264
   68SOL    HW2 1104   6.555   1.615   6.397
   69SOL     OW 1105   1.300   5.865   6.261
   69SOL    HW1 1106   1.365   5.874   6.337
   69SOL    HW2 1107   1.246   5.782   6.273
   70SOL     OW 1108   5.205   3.865   3.611
   70SOL    HW1 1109   5.222   3.895   3.705
   70SOL    HW2 1110   5.242   3.932   3.547
   71SOL     OW 1111   5.128   2.192   4.114
   71SOL    HW1 1112   5.131   2.109   4.058
   71SOL    HW2 1113   5.068   2.259   4.071
   72SOL     OW 1114   0.469   0.703   2.971
   72SOL    HW1 1115   0.536   0.762   3.017
   72SOL    HW2 1116   0.480   0.609   3.003
   73SOL     OW 1117   3.321   0.685   0.982
   73SOL    HW1 1118   3.280   0.600   0.950
   73SOL    HW2 1119   3.413   0.694   0.944
   74SOL     OW 1120   2.256   3.019   1.207
   74SOL    HW1 1121   2.297   3.042   1.295
   74SOL    HW2 1122   2.162   3.053   1.204
   75SOL     OW 1123   3.056   3.413   0.904
   75SOL    HW1 1124   2.994   3.484   0.870
   75SOL    HW2 1125   3.068   3.343   0.834
   76SOL     OW 1126   3.650   4.496   5.433
   76SOL    HW1 1127   3.638   4.420   5.497
   76SOL    HW2 1128   3.699   4.464   5.352
   77SOL     OW 1129   0.707   5.723   4.529
   77SOL    HW1 1130   0.637   5.788   4.558
   77SOL    HW2 1131   0.683   5.632   4.562
   78SOL     OW 1132   4.920   1.755   1.431
   78SOL    HW1 1133   4.925   1.782   1.527
   78SOL    HW2 1134   4.853   1.812   1.384
   79SOL     OW 1135   0.785   4.786   3.409
   79SOL    HW1 1136   0.847   4.761   3.335
   79SOL    HW2 1137   0.745   4.703   3.449
   80SOL     OW 1138   3.581   1.439   5.527
   80SOL    HW1 1139   3.622   1.529   5.515
   80SOL    HW2 1140   3.496   1.433   5.474
   81SOL     OW 1141   4.380   5.351   1.676
   81SOL    HW1 1142   4.369   5.282   1.747
   81SOL    HW2 1143   4.476   5.374   1.666
   82SOL     OW 1144   2.797   6.121   2.117
   82SOL    HW1 1145   2.853   6.141   2.037
   82SOL    HW2 1146   2.768   6.207   2.159
   83SOL     OW 1147   5.422   1.360   4.391
   83SOL    HW1 1148   5.416   1.433   4.459
   83SOL    HW2 1149   5.465   1.280   4.432
   84SOL     OW 1150   5.584   2.621   2.122
   84SOL    HW1 1151   5.657   2.685   2.096
   84SOL    HW2 1152   5.562   2.633   2.219
   85SOL     OW 1153   2.670   6.638   4.150
   85SOL    HW1 1154   2.688   6.721   4.097
   85SOL    HW2 1155   2.749   6.576   4.141
   86SOL     OW 1156   5.622   6.804   0.126
   86SOL    HW1 1157   5.684   6.838   0.055
   86SOL    HW2 1158   5.555   6.874   0.148
   87SOL     OW 1159   2.125   4.065   6.235
   87SOL    HW1 1160   2.208   4.075   6.291
   87SOL    HW2 1161   2.095   4.154   6.203
   88SOL     OW 1162   3.133   3.372   1.311
   88SOL    HW1 1163   3.063   3.323   1.259
   88SOL    HW2 1164   3.186   3.307   1.365
   89SOL     OW 1165   3.004   3.883   3.587
   89SOL    HW1 1166   2.957   3.870   3.675
   89SOL    HW2 1167   3.079   3.947   3.599
   90SOL     OW 1168   4.968   3.479   1.989
   90SOL    HW1 1169   4.901   3.457   1.918
   90SOL    HW2 1170   4.978   3.400   2.050
   91SOL     OW 1171   4.199   4.994   5.647
   91SOL    HW1 1172   4.279   5.041   5.609
   91SOL    HW2 1173   4.116   5.043   5.619
   92SOL     OW 1174   4.966   4.046   0.098
   92SOL    HW1 1175   5.006   4.110   0.032
   92SOL    HW2 1176   4.870   4.071   0.114
   93SOL     OW 1177   2.929   3.661   2.060
   93SOL    HW1 1178   2.898   3.700   1.973
   93SOL    HW2 1179   2.908   3.725   2.134
   94SOL     OW 1180   3.247   2.120   4.337
   94SOL    HW1 1181   3.169   2.074   4.379
   94SOL    HW2 1182   3.318   2.136   4.407
   95SOL     OW 1183   0.572   0.249   3.955
   95SOL    HW1 1184   0.526   0.314   3.895
   95SOL    HW2 1185   0.531   0.159   3.944
   96SOL     OW 1186   6.547   4.934   0.202
   96SOL    HW1 1187   6.535   5.021   0.154
   96SOL    HW2 1188   6.630   4.889   0.169
   97SOL     OW 1189   2.179   4.243   5.610
   97SOL    HW1 1190   2.154   4.336   5.638
   97SOL    HW2 1191   2.265   4.217   5.655
   98SOL     OW 1192   1.881   2.254   3.433
   98SOL    HW1 1193   1.815   2.180   3.443
   98SOL    HW2 1194   1.923   2.249   3.343
   99SOL     OW 1195   3.562   4.137   5.236
   99SOL    HW1 1196   3.625   4.062   5.219
   99SOL    HW2 1197   3.508   4.154   5.153
  100SOL     OW 1198   6.868   0.760   4.775
  100SOL    HW1 1199   6.960   0.777   4.809
  100SOL    HW2 1200   6.811   0.724   4.849
  101SOL     OW 1201   5.689   4.073   2.421
  101SOL    HW1 1202   5.620   4.077   2.349
  101SOL    HW2 1203   5.765   4.016   2.392
  102SOL     OW 1204   4.332   0.031   0.305
  102SOL    HW1 1205   4.375   0.002   0.220
  102SOL    HW2 1206   4.359   0.124   0.326
  103SOL     OW 1207   2.060   0.949   2.550
  103SOL    HW1 1208   2.021   1.038   2.575
  103SOL    HW2 1209   2.159   0.957   2.545
  104SOL     OW 1210   6.448   5.061   1.873
  104SOL    HW1 1211   6.439   4.964   1.848
  104SOL    HW2 1212   6.488   5.111   1.796
  105SOL     OW 1213   6.765   0.869   5.963
  105SOL    HW1 1214   6.825   0.860   6.042
  105SOL    HW2 1215   6.770   0.786   5.908
  106SOL     OW 1216   4.439   3.761   1.305
  106SOL    HW1 1217   4.467   3.823   1.379
  106SOL    HW2 1218   4.483   3.789   1.220
  107SOL     OW 1219   5.726   0.361   1.733
  107SOL    HW1 1220   5.797   0.347   1.663
  107SOL    HW2 1221   5.636   0.355   1.690
  108SOL     OW 1222   2.656   1.364   4.155
  108SOL    HW1 1223   2.574   1.309   4.171
  108SOL    HW2 1224   2.698   1.387   4.243
  109SOL     OW 1225   1.519   1.503   4.354
  109SOL    HW1 1226   1.576   1.497   4.273
  109SOL    HW2 1227   1.576   1.519   4.435
  110SOL     OW 1228   3.499   4.225   5.911
  110SOL    HW1 1229   3.448   4.152   5.866
  110SOL    HW2 1230   3.499   4.209   6.010
  111SOL     OW 1231   6.249   2.945   1.160
  111SOL    HW1 1232   6.243   2.872   1.228
  111SOL    HW2 1233   6.189   3.021   1.186
  112SOL     OW 1234   5.140   6.505   6.328
  112SOL    HW1 1235   5.201   6.541   6.398
  112SOL    HW2 1236   5.167   6.540   6.238
  113SOL     OW 1237   0.353   5.470   2.863
  113SOL    HW1 1238   0.411   5.516   2.795
  113SOL    HW2 1239   0.404   5.396   2.906
  114SOL     OW 1240   6.717   2.598   2.039
  114SOL    HW1 1241   6.666   2.587   1.953
  114SOL    HW2 1242   6.815   2.586   2.021
  115SOL     OW 1243   5.588   6.930   3.531
  115SOL    HW1 1244   5.508   6.873   3.512
  115SOL    HW2 1245   5.575   7.020   3.490
  116SOL     OW 1246   0.454   4.993   0.110
  116SOL    HW1 1247   0.430   4.897   0.124
  116SOL    HW2 1248   0.463   5.038   0.199
  117SOL     OW 1249   2.308   2.729   0.192
  117SOL    HW1 1250   2.244   2.654   0.176
  117SOL    HW2 1251   2.400   2.692   0.205
  118SOL     OW 1252   0.378   1.901   2.803
  118SOL    HW1 1253   0.373   1.804   2.825
  118SOL    HW2 1254   0.424   1.950   2.878
  119SOL     OW 1255   6.226   6.761   5.600
  119SOL    HW1 1256   6.227   6.853   5.561
  119SOL    HW2 1257   6.132   6.731   5.614
  120SOL     OW 1258   5.126   2.299   4.579
  120SOL    HW1 1259   5.178   2.214   4.584
  120SOL    HW2 1260   5.092   2.312   4.486
  121SOL     OW 1261   0.730   5.010   6.786
  121SOL    HW1 1262   0.781   5.055   6.712
  121SOL    HW2 1263   0.779   4.928   6.815
  122SOL     OW 1264   6.477   4.635   6.418
  122SOL    HW1 1265   6.407   4.643   6.347
  122SOL    HW2 1266   6.565   4.612   6.376
  123SOL     OW 1267   0.600   2.299   1.688
  123SOL    HW1 1268   0.501   2.306   1.696
  123SOL    HW2 1269   0.638   2.267   1.775
  124SOL     OW 1270   1.810   2.586   6.926
  124SOL    HW1 1271   1.759   2.665   6.958
  124SOL    HW2 1272   1.779   2.561   6.834
  125SOL     OW 1273   4.485   3.228   0.432
  125SOL    HW1 1274   4.507   3.170   0.511
  125SOL    HW2 1275   4.451   3.171   0.358
  126SOL     OW 1276   3.639   2.865   4.676
  126SOL    HW1 1277   3.554   2.839   4.630
  126SOL    HW2 1278   3.678   2.946   4.631
  127SOL     OW 1279   0.390   5.550   5.766
  127SOL    HW1 1280   0.345   5.630   5.806
  127SOL    HW2 1281   0.401   5.479   5.836
  128SOL     OW 1282   4.507   4.078   0.030
  128SOL    HW1 1283   4.407   4.083   0.027
  128SOL    HW2 1284   4.536   4.021   0.106
  129SOL     OW 1285   1.350   5.969   2.300
  129SOL    HW1 1286   1.426   6.001   2.355
  129SOL    HW2 1287   1.385   5.914   2.224
  130SOL     OW 1288   6.411   3.256   4.016
  130SOL    HW1 1289   6.430   3.344   4.059
  130SOL    HW2 1290   6.497   3.204   4.008
  131SOL     OW 1291   0.196   2.809   3.470
  131SOL    HW1 1292   0.244   2.852   3.546
  131SOL    HW2 1293   0.098   2.814   3.484
  132SOL     OW 1294   3.322   3.042   1.102
  132SOL    HW1 1295   3.314   3.132   1.058
  132SOL    HW2 1296   3.383   3.050   1.181
  133SOL     OW 1297   5.990   6.642   6.527
  133SOL    HW1 1298   5.933   6.566   6.559
  133SOL    HW2 1299   5.947   6.729   6.550
  134SOL     OW 1300   5.505   1.528   1.468
  134SOL    HW1 1301   5.588   1.580   1.487
  134SOL    HW2 1302   5.426   1.588   1.478
  135SOL     OW 1303   4.877   3.340   4.087
  135SOL    HW1 1304   4.942   3.296   4.026
  135SOL    HW2 1305   4.822   3.270   4.133
  136SOL     OW 1306   3.314   0.236   6.258
  136SOL    HW1 1307   3.370   0.238   6.175
  136SOL    HW2 1308   3.267   0.323   6.269
  137SOL     OW 1309   3.161   3.382   6.271
  137SOL    HW1 1310   3.150   3.372   6.370
  137SOL    HW2 1311   3.244   3.433   6.252
  138SOL     OW 1312   0.994   5.196   6.130
  138SOL    HW1 1313   0.985   5.135   6.052
  138SOL    HW2 1314   1.074   5.169   6.184
  139SOL     OW 1315   1.686   6.687   0.801
  139SOL    HW1 1316   1.667   6.589   0.803
  139SOL    HW2 1317   1.631   6.730   0.729
  140SOL     OW 1318   3.914   0.411   0.995
  140SOL    HW1 1319   3.868   0.337   0.946
  140SOL    HW2 1320   3.984   0.372   1.055
  141SOL     OW 1321   0.285   2.936   0.778
  141SOL    HW1 1322   0.375   2.901   0.806
  141SOL    HW2 1323   0.293   2.985   0.692
  142SOL     OW 1324   1.840   3.930   1.280
  142SOL    HW1 1325   1.801   3.883   1.359
  142SOL    HW2 1326   1.776   4.000   1.248
  143SOL     OW 1327   4.868   6.703   2.300
  143SOL    HW1 1328   4.962   6.700   2.268
  143SOL    HW2 1329   4.845   6.796   2.328
  144SOL     OW 1330   3.481   5.444   3.649
  144SOL    HW1 1331   3.472   5.361   3.704
  144SOL    HW2 1332   3.402   5.504   3.667
  145SOL     OW 1333   0.146   4.380   3.347
  145SOL    HW1 1334   0.201   4.398   3.266
  145SOL    HW2 1335   0.206   4.352   3.422
  146SOL     OW 1336   5.012   0.804   5.960
  146SOL    HW1 1337   4.952   0.724   5.957
  146SOL    HW2 1338   5.034   0.827   6.055
  147SOL     OW 1339   4.899   1.091   5.050
  147SOL    HW1 1340   4.831   1.082   4.977
  147SOL    HW2 1341   4.984   1.126   5.012
  148SOL     OW 1342   1.473   5.867   1.583
  148SOL    HW1 1343   1.551   5.823   1.629
  148SOL    HW2 1344   1.459   5.958   1.620
  149SOL     OW 1345   2.193   2.496   4.934
  149SOL    HW1 1346   2.284   2.477   4.970
  149SOL    HW2 1347   2.191   2.588   4.894
  150SOL     OW 1348   4.397   1.830   5.003
  150SOL    HW1 1349   4.449   1.745   5.013
  150SOL    HW2 1350   4.458   1.903   4.970
  151SOL     OW 1351   4.709   2.807   1.120
  151SOL    HW1 1352   4.760   2.865   1.057
  151SOL    HW2 1353   4.772   2.768   1.188
  152SOL     OW 1354   0.266   2.241   0.645
  152SOL    HW1 1355   0.317   2.252   0.560
  152SOL    HW2 1356   0.207   2.321   0.659
  153SOL     OW 1357   2.398   1.519   3.318
  153SOL    HW1 1358   2.461   1.515   3.240
  153SOL    HW2 1359   2.423   1.597   3.376
  154SOL     OW 1360   6.889   2.034   2.684
  154SOL    HW1 1361   6.875   1.955   2.624
  154SOL    HW2 1362   6.964   2.089   2.649
  155SOL     OW 1363   0.600   6.081   2.698
  155SOL    HW1 1364   0.580   6.082   2.795
  155SOL    HW2 1365   0.538   6.017   2.651
  156SOL     OW 1366   5.306   2.967   0.325
  156SOL    HW1 1367   5.391   2.941   0.373
  156SOL    HW2 1368   5.265   3.046   0.370
  157SOL     OW 1369   4.960   5.801   0.625
  157SOL    HW1 1370   4.877   5.772   0.673
  157SOL    HW2 1371   4.934   5.850   0.542
  158SOL     OW 1372   0.387   2.992   3.856
  158SOL    HW1 1373   0.408   2.894   3.848
  158SOL    HW2 1374   0.471   3.045   3.850
  159SOL     OW 1375   6.125   5.824   0.504
  159SOL    HW1 1376   6.036   5.860   0.534
  159SOL    HW2 1377   6.164   5.885   0.436
  160SOL     OW 1378   6.216   6.862   1.681
  160SOL    HW1 1379   6.309   6.837   1.708
  160SOL    HW2 1380   6.154   6.848   1.757
  161SOL     OW 1381   0.709   6.555   1.107
  161SOL    HW1 1382   0.781   6.604   1.158
  161SOL    HW2 1383   0.640   6.621   1.077
  162SOL     OW 1384   4.562   6.512   6.474
  162SOL    HW1 1385   4.473   6.548   6.446
  162SOL    HW2 1386   4.620   6.587   6.505
  163SOL     OW 1387   0.828   3.619   2.560
  163SOL    HW1 1388   0.904   3.586   2.504
  163SOL    HW2 1389   0.779   3.690   2.510
  164SOL     OW 1390   2.945   2.223   3.863
  164SOL    HW1 1391   2.851   2.241   3.834
  164SOL    HW2 1392   2.952   2.130   3.899
  165SOL     OW 1393   0.497   6.266   3.686
  165SOL    HW1 1394   0.487   6.174   3.723
  165SOL    HW2 1395   0.481   6.334   3.758
  166SOL     OW 1396   6.687   3.918   2.867
  166SOL    HW1 1397   6.625   3.995   2.855
  166SOL    HW2 1398   6.781   3.949   2.855
  167SOL     OW 1399   2.553   1.912   6.686
  167SOL    HW1 1400   2.627   1.911   6.754
  167SOL    HW2 1401   2.489   1.985   6.709
  168SOL     OW 1402   3.875   3.783   1.570
  168SOL    HW1 1403   3.875   3.742   1.478
  168SOL    HW2 1404   3.960   3.762   1.616
  169SOL     OW 1405   4.869   2.088   1.084
  169SOL    HW1 1406   4.961   2.114   1.112
  169SOL    HW2 1407   4.865   2.080   0.985
  170SOL     OW 1408   6.515   5.951   2.187
  170SOL    HW1 1409   6.560   5.862   2.191
  170SOL    HW2 1410   6.422   5.941   2.152
  171SOL     OW 1411   3.574   3.010   0.959
  171SOL    HW1 1412   3.491   3.025   1.012
  171SOL    HW2 1413   3.637   2.953   1.012
  172SOL     OW 1414   0.980   1.946   6.534
  172SOL    HW1 1415   0.900   1.928   6.592
  172SOL    HW2 1416   1.061   1.903   6.574
  173SOL     OW 1417   6.503   1.093   4.320
  173SOL    HW1 1418   6.460   1.075   4.232
  173SOL    HW2 1419   6.600   1.070   4.315
  174SOL     OW 1420   5.406   4.691   5.132
  174SOL    HW1 1421   5.459   4.664   5.052
  174SOL    HW2 1422   5.361   4.610   5.171
  175SOL     OW 1423   0.137   0.074   1.902
  175SOL    HW1 1424   0.139   7.014   1.959
  175SOL    HW2 1425   0.071   0.139   1.938
  176SOL     OW 1426   5.815   4.034   1.512
  176SOL    HW1 1427   5.852   4.124   1.488
  176SOL    HW2 1428   5.864   3.997   1.591
  177SOL     OW 1429   5.688   1.861   4.179
  177SOL    HW1 1430   5.752   1.889   4.108
  177SOL    HW2 1431   5.634   1.939   4.210
  178SOL     OW 1432   2.855   6.031   5.285
  178SOL    HW1 1433   2.825   6.102   5.221
  178SOL    HW2 1434   2.776   5.996   5.335
  179SOL     OW 1435   3.698   4.281   1.313
  179SOL    HW1 1436   3.707   4.181   1.317
  179SOL    HW2 1437   3.765   4.323   1.374
  180SOL     OW 1438   3.777   1.058   0.343
  180SOL    HW1 1439   3.703   1.042   0.407
  180SOL    HW2 1440   3.830   0.974   0.331
  181SOL     OW 1441   3.101   2.037   5.672
  181SOL    HW1 1442   3.023   2.025   5.734
  181SOL    HW2 1443   3.082   2.113   5.610
  182SOL     OW 1444   3.534   2.792   6.336
  182SOL    HW1 1445   3.500   2.730   6.407
  182SOL    HW2 1446   3.577   2.872   6.379
  183SOL     OW 1447   3.706   0.834   3.606
  183SOL    HW1 1448   3.728   0.875   3.517
  183SOL    HW2 1449   3.767   0.871   3.676
  184SOL     OW 1450   5.112   5.645   3.418
  184SOL    HW1 1451   5.169   5.698   3.355
  184SOL    HW2 1452   5.158   5.559   3.439
  185SOL     OW 1453   0.117   0.474   5.066
  185SOL    HW1 1454   0.169   0.453   5.148
  185SOL    HW2 1455   0.128   0.571   5.043
  186SOL     OW 1456   4.390   6.617   4.554
  186SOL    HW1 1457   4.417   6.566   4.472
  186SOL    HW2 1458   4.296   6.648   4.545
  187SOL     OW 1459   4.089   6.339   1.221
  187SOL    HW1 1460   4.088   6.427   1.268
  187SOL    HW2 1461   4.011   6.284   1.252
  188SOL     OW 1462   1.332   3.223   3.153
  188SOL    HW1 1463   1.372   3.315   3.147
  188SOL    HW2 1464   1.369   3.166   3.079
  189SOL     OW 1465   5.898   5.072   5.793
  189SOL    HW1 1466   5.956   5.096   5.715
  189SOL    HW2 1467   5.952   5.026   5.863
  190SOL     OW 1468   5.951   0.969   0.519
  190SOL    HW1 1469   5.924   1.026   0.442
  190SOL    HW2 1470   5.870   0.921   0.555
  191SOL     OW 1471   0.127   1.211   5.667
  191SOL    HW1 1472   0.129   1.250   5.759
  191SOL    HW2 1473   0.141   1.112   5.672
  192SOL     OW 1474   0.119   5.273   0.962
  192SOL    HW1 1475   0.026   5.250   0.989
  192SOL    HW2 1476   0.120   5.361   0.915
  193SOL     OW 1477   2.852   6.703   0.378
  193SOL    HW1 1478   2.824   6.789   0.422
  193SOL    HW2 1479   2.798   6.628   0.415
  194SOL     OW 1480   3.671   6.627   2.006
  194SOL    HW1 1481   3.760   6.669   1.991
  194SOL    HW2 1482   3.599   6.689   1.975
  195SOL     OW 1483   3.590   1.500   1.148
  195SOL    HW1 1484   3.640   1.460   1.072
  195SOL    HW2 1485   3.577   1.598   1.131
  196SOL     OW 1486   3.149   2.273   0.396
  196SOL    HW1 1487   3.176   2.313   0.484
  196SOL    HW2 1488   3.166   2.175   0.398
  197SOL     OW 1489   2.022   6.778   0.668
  197SOL    HW1 1490   2.083   6.699   0.663
  197SOL    HW2 1491   2.042   6.831   0.751
  198SOL     OW 1492   4.332   0.533   6.663
  198SOL    HW1 1493   4.384   0.601   6.715
  198SOL    HW2 1494   4.391   0.491   6.594
  199SOL     OW 1495   6.977   0.138   2.254
  199SOL    HW1 1496   6.974   0.167   2.158
  199SOL    HW2 1497   6.920   0.199   2.309
  200SOL     OW 1498   0.713   4.128   2.850
  200SOL    HW1 1499   0.789   4.067   2.873
  200SOL    HW2 1500   0.748   4.218   2.824
  201SOL     OW 1501   4.298   1.212   6.745
  201SOL    HW1 1502   4.203   1.241   6.730
  201SOL    HW2 1503   4.347   1.282   6.795
  202SOL     OW 1504   3.439   0.554   2.512
  202SOL    HW1 1505   3.391   0.479   2.467
  202SOL    HW2 1506   3.535   0.555   2.484
  203SOL     OW 1507   5.556   2.670   0.160
  203SOL    HW1 1508   5.558   2.721   0.074
  203SOL    HW2 1509   5.606   2.584   0.148
  204SOL     OW 1510   2.630   5.713   1.327
  204SOL    HW1 1511   2.557   5.767   1.368
  204SOL    HW2 1512   2.655   5.752   1.239
  205SOL     OW 1513   6.453   0.822   0.411
  205SOL    HW1 1514   6.453   0.782   0.503
  205SOL    HW2 1515   6.359   0.830   0.378
  206SOL     OW 1516   0.324   4.356   1.507
  206SOL    HW1 1517   0.415   4.362   1.548
  206SOL    HW2 1518   0.318   4.421   1.430
  207SOL     OW 1519   4.573   1.286   5.386
  207SOL    HW1 1520   4.635   1.267   5.310
  207SOL    HW2 1521   4.481   1.304   5.350
  208SOL     OW 1522   3.535   4.478   6.184
  208SOL    HW1 1523   3.463   4.489   6.116
  208SOL    HW2 1524   3.533   4.384   6.219
  209SOL     OW 1525   6.453   5.150   5.710
  209SOL    HW1 1526   6.447   5.091   5.629
  209SOL    HW2 1527   6.362   5.159   5.751
  210SOL     OW 1528   3.856   2.095   2.154
  210SOL    HW1 1529   3.891   2.047   2.074
  210SOL    HW2 1530   3.782   2.157   2.126
  211SOL     OW 1531   1.077   1.753   1.658
  211SOL    HW1 1532   1.168   1.727   1.690
  211SOL    HW2 1533   1.012   1.746   1.733
  212SOL     OW 1534   0.818   4.660   4.157
  212SOL    HW1 1535   0.740   4.671   4.218
  212SOL    HW2 1536   0.848   4.564   4.158
  213SOL     OW 1537   4.535   2.493   6.803
  213SOL    HW1 1538   4.578   2.529   6.720
  213SOL    HW2 1539   4.506   2.569   6.861
  214SOL     OW 1540   1.044   6.932   2.679
  214SOL    HW1 1541   1.073   6.837   2.677
  214SOL    HW2 1542   1.123   6.990   2.699
  215SOL     OW 1543   3.193   3.327   2.628
  215SOL    HW1 1544   3.099   3.296   2.610
  215SOL    HW2 1545   3.208   3.331   2.726
  216SOL     OW 1546   1.126   6.350   5.765
  216SOL    HW1 1547   1.133   6.298   5.680
  216SOL    HW2 1548   1.173   6.301   5.838
  217SOL     OW 1549   0.437   2.805   3.628
  217SOL    HW1 1550   0.473   2.753   3.705
  217SOL    HW2 1551   0.456   2.757   3.543
  218SOL     OW 1552   1.229   3.761   5.353
  218SOL    HW1 1553   1.293   3.755   5.276
  218SOL    HW2 1554   1.149   3.705   5.333
  219SOL     OW 1555   4.764   5.199   6.798
  219SOL    HW1 1556   4.717   5.275   6.843
  219SOL    HW2 1557   4.825   5.155   6.864
  220SOL     OW 1558   2.435   4.679   0.793
  220SOL    HW1 1559   2.444   4.580   0.785
  220SOL    HW2 1560   2.490   4.712   0.870
  221SOL     OW 1561   6.869   2.507   3.994
  221SOL    HW1 1562   6.784   2.527   4.043
  221SOL    HW2 1563   6.925   2.590   3.989
  222SOL     OW 1564   1.273   6.159   5.252
  222SOL    HW1 1565   1.262   6.131   5.347
  222SOL    HW2 1566   1.194   6.214   5.224
  223SOL     OW 1567   6.589   3.947   1.745
  223SOL    HW1 1568   6.618   3.890   1.821
  223SOL    HW2 1569   6.663   3.953   1.677
  224SOL     OW 1570   3.301   2.244   1.637
  224SOL    HW1 1571   3.283   2.162   1.692
  224SOL    HW2 1572   3.396   2.272   1.650
  225SOL     OW 1573   0.311   6.836   0.626
  225SOL    HW1 1574   0.303   6.860   0.530
  225SOL    HW2 1575   0.279   6.913   0.682
  226SOL     OW 1576   6.944   5.527   1.006
  226SOL    HW1 1577   6.853   5.569   1.006
  226SOL    HW2 1578   7.013   5.599   1.012
  227SOL     OW 1579   1.576   3.092   3.742
  227SOL    HW1 1580   1.507   3.022   3.763
  227SOL    HW2 1581   1.531   3.174   3.709
  228SOL     OW 1582   3.735   0.021   2.766
  228SOL    HW1 1583   3.716   0.108   2.811
  228SOL    HW2 1584   3.834   0.003   2.770
  229SOL     OW 1585   5.960   5.292   2.525
  229SOL    HW1 1586   5.943   5.390   2.515
  229SOL    HW2 1587   5.877   5.247   2.558
  230SOL     OW 1588   1.615   4.334   5.086
  230SOL    HW1 1589   1.670   4.372   5.011
  230SOL    HW2 1590   1.635   4.237   5.095
  231SOL     OW 1591   0.519   1.812   7.015
  231SOL    HW1 1592   0.507   1.893   6.958
  231SOL    HW2 1593   0.439   1.753   7.007
  232SOL     OW 1594   1.981   5.091   6.202
  232SOL    HW1 1595   2.014   5.063   6.112
  232SOL    HW2 1596   1.930   5.015   6.243
  233SOL     OW 1597   3.141   0.929   6.056
  233SOL    HW1 1598   3.055   0.949   6.102
  233SOL    HW2 1599   3.152   0.990   5.977
  234SOL     OW 1600   3.034   6.138   0.150
  234SOL    HW1 1601   3.007   6.108   0.242
  234SOL    HW2 1602   2.957   6.128   0.087
  235SOL     OW 1603   3.494   3.116   5.079
  235SOL    HW1 1604   3.415   3.064   5.110
  235SOL    HW2 1605   3.579   3.071   5.108
  236SOL     OW 1606   6.907   2.444   5.833
  236SOL    HW1 1607   6.926   2.511   5.905
  236SOL    HW2 1608   6.825   2.470   5.783
  237SOL     OW 1609   0.368   0.225   1.754
  237SOL    HW1 1610   0.345   0.146   1.810
  237SOL    HW2 1611   0.450   0.269   1.790
  238SOL     OW 1612   6.250   2.094   2.015
  238SOL    HW1 1613   6.185   2.169   2.030
  238SOL    HW2 1614   6.331   2.130   1.968
  239SOL     OW 1615   0.415   5.604   0.687
  239SOL    HW1 1616   0.481   5.650   0.627
  239SOL    HW2 1617   0.435   5.506   0.689
  240SOL     OW 1618   6.806   3.782   5.324
  240SOL    HW1 1619   6.798   3.743   5.233
  240SOL    HW2 1620   6.724   3.762   5.377
  241SOL     OW 1621   6.633   1.686   3.696
  241SOL    HW1 1622   6.556   1.627   3.670
  241SOL    HW2 1623   6.685   1.711   3.615
  242SOL     OW 1624   2.226   2.431   3.416
  242SOL    HW1 1625   2.260   2.377   3.339
  242SOL    HW2 1626   2.148   2.486   3.387
  243SOL     OW 1627   4.382   1.243   5.213
  243SOL    HW1 1628   4.291   1.235   5.255
  243SOL    HW2 1629   4.382   1.320   5.149
  244SOL     OW 1630   6.694   0.454   6.028
  244SOL    HW1 1631   6.701   0.519   5.952
  244SOL    HW2 1632   6.776   0.397   6.031
  245SOL     OW 1633   6.122   2.095   3.656
  245SOL    HW1 1634   6.205   2.041   3.641
  245SOL    HW2 1635   6.146   2.185   3.690
  246SOL     OW 1636   4.884   3.253   3.393
  246SOL    HW1 1637   4.866   3.227   3.299
  246SOL    HW2 1638   4.833   3.194   3.455
  247SOL     OW 1639   3.359   1.028   3.646
  247SOL    HW1 1640   3.361   0.932   3.674
  247SOL    HW2 1641   3.308   1.036   3.560
  248SOL     OW 1642   5.512   1.530   2.601
  248SOL    HW1 1643   5.535   1.483   2.516
  248SOL    HW2 1644   5.416   1.559   2.599
  249SOL     OW 1645   2.545   6.735   3.631
  249SOL    HW1 1646   2.614   6.774   3.569
  249SOL    HW2 1647   2.528   6.799   3.706
  250SOL     OW 1648   5.034   3.062   6.123
  250SOL    HW1 1649   5.070   2.982   6.075
  250SOL    HW2 1650   4.995   3.032   6.211
  251SOL     OW 1651   2.244   2.525   0.919
  251SOL    HW1 1652   2.262   2.619   0.947
  251SOL    HW2 1653   2.286   2.507   0.830
  252SOL     OW 1654   0.325   1.831   6.658
  252SOL    HW1 1655   0.328   1.736   6.627
  252SOL    HW2 1656   0.309   1.891   6.579
  253SOL     OW 1657   2.112   3.831   5.567
  253SOL    HW1 1658   2.064   3.919   5.558
  253SOL    HW2 1659   2.082   3.786   5.651
  254SOL     OW 1660   5.803   3.713   5.267
  254SOL    HW1 1661   5.718   3.758   5.293
  254SOL    HW2 1662   5.819   3.635   5.327
  255SOL     OW 1663   3.502   2.049   3.540
  255SOL    HW1 1664   3.548   2.041   3.629
  255SOL    HW2 1665   3.561   2.011   3.469
  256SOL     OW 1666   6.762   5.851   0.055
  256SOL    HW1 1667   6.762   5.951   0.049
  256SOL    HW2 1668   6.837   5.814   0.000
  257SOL     OW 1669   2.998   5.842   6.372
  257SOL    HW1 1670   3.011   5.755   6.420
  257SOL    HW2 1671   2.924   5.834   6.306
  258SOL     OW 1672   5.176   3.990   4.357
  258SOL    HW1 1673   5.083   3.993   4.394
  258SOL    HW2 1674   5.233   3.935   4.417
  259SOL     OW 1675   1.485   1.853   2.945
  259SOL    HW1 1676   1.565   1.808   2.906
  259SOL    HW2 1677   1.443   1.913   2.877
  260SOL     OW 1678   6.324   6.696   5.853
  260SOL    HW1 1679   6.311   6.738   5.763
  260SOL    HW2 1680   6.236   6.669   5.890
  261SOL     OW 1681   1.462   1.651   2.525
  261SOL    HW1 1682   1.377   1.677   2.480
  261SOL    HW2 1683   1.521   1.731   2.534
  262SOL     OW 1684   1.871   5.016   1.885
  262SOL    HW1 1685   1.795   5.008   1.950
  262SOL    HW2 1686   1.933   4.939   1.897
  263SOL     OW 1687   0.005   2.095   4.915
  263SOL    HW1 1688   6.935   2.065   4.938
  263SOL    HW2 1689   0.022   2.185   4.956
  264SOL     OW 1690   2.916   4.553   6.078
  264SOL    HW1 1691   2.950   4.488   6.145
  264SOL    HW2 1692   2.976   4.634   6.076
  265SOL     OW 1693   5.855   5.414   5.656
  265SOL    HW1 1694   5.921   5.340   5.641
  265SOL    HW2 1695   5.809   5.401   5.744
  266SOL     OW 1696   3.471   2.257   0.157
  266SOL    HW1 1697   3.377   2.226   0.147
  266SOL    HW2 1698   3.515   2.207   0.232
  267SOL     OW 1699   1.828   1.176   6.041
  267SOL    HW1 1700   1.888   1.238   5.990
  267SOL    HW2 1701   1.801   1.219   6.127
  268SOL     OW 1702   3.318   5.655   4.277
  268SOL    HW1 1703   3.236   5.661   4.221
  268SOL    HW2 1704   3.313   5.722   4.351
  269SOL     OW 1705   1.701   0.953   5.735
  269SOL    HW1 1706   1.644   1.012   5.678
  269SOL    HW2 1707   1.645   0.917   5.810
  270SOL     OW 1708   5.492   7.015   4.301
  270SOL    HW1 1709   5.566   0.059   4.319
  270SOL    HW2 1710   5.408   0.043   4.278
  271SOL     OW 1711   1.605   1.706   6.997
  271SOL    HW1 1712   1.622   1.717   0.073
  271SOL    HW2 1713   1.632   1.789   6.949
  272SOL     OW 1714   5.044   5.714   2.589
  272SOL    HW1 1715   5.097   5.690   2.508
  272SOL    HW2 1716   4.955   5.750   2.561
  273SOL     OW 1717   3.162   0.010   5.182
  273SOL    HW1 1718   3.070   7.009   5.215
  273SOL    HW2 1719   3.161   0.019   5.083
  274SOL     OW 1720   5.759   1.678   0.883
  274SOL    HW1 1721   5.721   1.613   0.817
  274SOL    HW2 1722   5.788   1.630   0.965
  275SOL     OW 1723   5.345   5.978   4.748
  275SOL    HW1 1724   5.418   5.910   4.756
  275SOL    HW2 1725   5.373   6.063   4.792
  276SOL     OW 1726   0.079   6.313   3.584
  276SOL    HW1 1727   0.158   6.298   3.525
  276SOL    HW2 1728   0.076   6.243   3.655
  277SOL     OW 1729   4.827   1.741   5.754
  277SOL    HW1 1730   4.793   1.779   5.667
  277SOL    HW2 1731   4.926   1.750   5.758
  278SOL     OW 1732   6.007   3.193   3.604
  278SOL    HW1 1733   6.010   3.187   3.504
  278SOL    HW2 1734   6.045   3.280   3.633
  279SOL     OW 1735   0.826   3.722   4.203
  279SOL    HW1 1736   0.789   3.815   4.211
  279SOL    HW2 1737   0.878   3.700   4.285
  280SOL     OW 1738   3.414   0.719   3.560
  280SOL    HW1 1739   3.511   0.740   3.561
  280SOL    HW2 1740   3.386   0.689   3.651
  281SOL     OW 1741   5.518   6.776   4.467
  281SOL    HW1 1742   5.494   6.858   4.413
  281SOL    HW2 1743   5.434   6.728   4.492
  282SOL     OW 1744   2.130   2.281   0.359
  282SOL    HW1 1745   2.131   2.371   0.403
  282SOL    HW2 1746   2.224   2.252   0.342
  283SOL     OW 1747   6.349   2.451   4.789
  283SOL    HW1 1748   6.357   2.474   4.692
  283SOL    HW2 1749   6.270   2.390   4.802
  284SOL     OW 1750   4.701   5.571   2.804
  284SOL    HW1 1751   4.663   5.505   2.870
  284SOL    HW2 1752   4.736   5.521   2.725
  285SOL     OW 1753   4.558   0.328   5.633
  285SOL    HW1 1754   4.587   0.423   5.624
  285SOL    HW2 1755   4.584   0.294   5.724
  286SOL     OW 1756   2.556   4.753   5.375
  286SOL    HW1 1757   2.654   4.743   5.359
  286SOL    HW2 1758   2.539   4.772   5.472
  287SOL     OW 1759   3.166   0.086   6.436
  287SOL    HW1 1760   3.226   0.139   6.375
  287SOL    HW2 1761   3.222   0.030   6.497
  288SOL     OW 1762   4.196   0.880   1.161
  288SOL    HW1 1763   4.099   0.887   1.182
  288SOL    HW2 1764   4.246   0.953   1.208
  289SOL     OW 1765   6.243   6.027   3.429
  289SOL    HW1 1766   6.234   6.032   3.329
  289SOL    HW2 1767   6.165   6.072   3.471
  290SOL     OW 1768   3.540   0.297   6.424
  290SOL    HW1 1769   3.586   0.346   6.350
  290SOL    HW2 1770   3.452   0.262   6.392
  291SOL     OW 1771   3.451   6.958   4.901
  291SOL    HW1 1772   3.470   6.938   4.805
  291SOL    HW2 1773   3.353   6.967   4.915
  292SOL     OW 1774   4.947   0.413   4.115
  292SOL    HW1 1775   4.937   0.475   4.036
  292SOL    HW2 1776   4.950   0.467   4.199
  293SOL     OW 1777   5.728   6.968   2.041
  293SOL    HW1 1778   5.746   0.034   1.996
  293SOL    HW2 1779   5.812   6.935   2.083
  294SOL     OW 1780   5.948   0.795   6.295
  294SOL    HW1 1781   5.907   0.850   6.368
  294SOL    HW2 1782   5.912   0.826   6.206
  295SOL     OW 1783   1.066   1.120   5.106
  295SOL    HW1 1784   1.119   1.161   5.032
  295SOL    HW2 1785   1.011   1.190   5.151
  296SOL     OW 1786   0.300   1.990   0.973
  296SOL    HW1 1787   0.349   2.077   0.975
  296SOL    HW2 1788   0.205   2.004   0.999
  297SOL     OW 1789   5.161   3.356   3.222
  297SOL    HW1 1790   5.089   3.419   3.251
  297SOL    HW2 1791   5.205   3.392   3.140
  298SOL     OW 1792   4.364   0.636   6.010
  298SOL    HW1 1793   4.455   0.634   5.969
  298SOL    HW2 1794   4.308   0.704   5.964
  299SOL     OW 1795   0.787   0.920   0.165
  299SOL    HW1 1796   0.799   0.929   0.264
  299SOL    HW2 1797   0.795   0.824   0.140
  300SOL     OW 1798   4.105   0.213   3.726
  300SOL    HW1 1799   4.059   0.196   3.639
  300SOL    HW2 1800   4.149   0.129   3.757
  301SOL     OW 1801   6.642   5.663   0.447
  301SOL    HW1 1802   6.596   5.752   0.454
  301SOL    HW2 1803   6.699   5.662   0.364
  302SOL     OW 1804   0.337   5.397   2.423
  302SOL    HW1 1805   0.281   5.479   2.411
  302SOL    HW2 1806   0.313   5.330   2.352
  303SOL     OW 1807   5.261   5.804   3.249
  303SOL    HW1 1808   5.206   5.844   3.175
  303SOL    HW2 1809   5.299   5.877   3.305
  304SOL     OW 1810   2.734   5.916   4.841
  304SOL    HW1 1811   2.815   5.871   4.803
  304SOL    HW2 1812   2.692   5.857   4.910
  305SOL     OW 1813   0.991   2.869   1.957
  305SOL    HW1 1814   0.906   2.827   1.990
  305SOL    HW2 1815   1.061   2.864   2.029
  306SOL     OW 1816   6.947   6.866   3.425
  306SOL    HW1 1817   6.915   6.898   3.514
  306SOL    HW2 1818   0.008   6.916   3.399
  307SOL     OW 1819   3.219   3.000   3.999
  307SOL    HW1 1820   3.131   2.999   3.952
  307SOL    HW2 1821   3.293   3.003   3.931
  308SOL     OW 1822   6.062   2.456   3.197
  308SOL    HW1 1823   6.011   2.424   3.277
  308SOL    HW2 1824   5.999   2.488   3.127
  309SOL     OW 1825   1.715   6.274   6.732
  309SOL    HW1 1826   1.635   6.296   6.788
  309SOL    HW2 1827   1.717   6.334   6.652
  310SOL     OW 1828   5.449   0.123   5.648
  310SOL    HW1 1829   5.477   0.028   5.634
  310SOL    HW2 1830   5.355   0.135   5.615
  311SOL     OW 1831   1.772   5.901   2.556
  311SOL    HW1 1832   1.836   5.927   2.628
  311SOL    HW2 1833   1.704   5.838   2.592
  312SOL     OW 1834   3.830   0.569   3.628
  312SOL    HW1 1835   3.855   0.501   3.559
  312SOL    HW2 1836   3.766   0.634   3.588
  313SOL     OW 1837   3.726   3.494   2.681
  313SOL    HW1 1838   3.761   3.453   2.765
  313SOL    HW2 1839   3.722   3.593   2.691
  314SOL     OW 1840   3.098   5.764   5.964
  314SOL    HW1 1841   3.128   5.673   5.994
  314SOL    HW2 1842   3.040   5.754   5.883
  315SOL     OW 1843   6.177   0.790   4.310
  315SOL    HW1 1844   6.242   0.746   4.372
  315SOL    HW2 1845   6.215   0.791   4.218
  316SOL     OW 1846   4.004   1.414   6.312
  316SOL    HW1 1847   3.910   1.444   6.295
  316SOL    HW2 1848   4.046   1.385   6.226
  317SOL     OW 1849   1.046   1.819   1.393
  317SOL    HW1 1850   0.958   1.858   1.368
  317SOL    HW2 1851   1.041   1.783   1.486
  318SOL     OW 1852   0.517   0.420   4.767
  318SOL    HW1 1853   0.453   0.347   4.745
  318SOL    HW2 1854   0.486   0.505   4.724
  319SOL     OW 1855   1.239   1.389   2.712
  319SOL    HW1 1856   1.235   1.426   2.805
  319SOL    HW2 1857   1.147   1.381   2.675
  320SOL     OW 1858   5.904   2.334   6.189
  320SOL    HW1 1859   5.824   2.394   6.184
  320SOL    HW2 1860   5.956   2.354   6.272
  321SOL     OW 1861   5.095   3.416   0.468
  321SOL    HW1 1862   5.109   3.399   0.371
  321SOL    HW2 1863   5.057   3.508   0.481
  322SOL     OW 1864   2.997   3.324   6.070
  322SOL    HW1 1865   3.058   3.349   6.145
  322SOL    HW2 1866   2.967   3.229   6.083
  323SOL     OW 1867   0.902   3.329   2.087
  323SOL    HW1 1868   0.967   3.310   2.014
  323SOL    HW2 1869   0.951   3.342   2.173
  324SOL     OW 1870   0.324   0.380   3.286
  324SOL    HW1 1871   0.303   0.327   3.368
  324SOL    HW2 1872   0.239   0.419   3.249
  325SOL     OW 1873   6.846   3.919   1.633
  325SOL    HW1 1874   6.872   3.967   1.549
  325SOL    HW2 1875   6.921   3.923   1.699
  326SOL     OW 1876   1.124   6.345   6.427
  326SOL    HW1 1877   1.099   6.278   6.357
  326SOL    HW2 1878   1.073   6.429   6.411
  327SOL     OW 1879   5.308   5.442   3.951
  327SOL    HW1 1880   5.337   5.351   3.980
  327SOL    HW2 1881   5.356   5.468   3.867
  328SOL     OW 1882   2.201   3.955   2.833
  328SOL    HW1 1883   2.262   4.006   2.773
  328SOL    HW2 1884   2.197   4.000   2.923
  329SOL     OW 1885   3.207   2.998   1.745
  329SOL    HW1 1886   3.249   3.004   1.835
  329SOL    HW2 1887   3.229   2.910   1.703
  330SOL     OW 1888   3.023   4.915   0.950
  330SOL    HW1 1889   2.929   4.944   0.969
  330SOL    HW2 1890   3.054   4.854   1.023
  331SOL     OW 1891   6.271   5.504   6.513
  331SOL    HW1 1892   6.315   5.445   6.581
  331SOL    HW2 1893   6.178   5.473   6.496
  332SOL     OW 1894   5.990   2.304   3.439
  332SOL    HW1 1895   6.022   2.238   3.506
  332SOL    HW2 1896   5.972   2.258   3.352
  333SOL     OW 1897   3.253   1.076   5.818
  333SOL    HW1 1898   3.215   0.994   5.777
  333SOL    HW2 1899   3.203   1.156   5.784
  334SOL     OW 1900   3.554   3.398   3.473
  334SOL    HW1 1901   3.626   3.440   3.529
  334SOL    HW2 1902   3.510   3.468   3.417
  335SOL     OW 1903   3.812   1.242   1.030
  335SOL    HW1 1904   3.893   1.184   1.024
  335SOL    HW2 1905   3.830   1.330   0.985
  336SOL     OW 1906   2.824   1.890   4.084
  336SOL    HW1 1907   2.775   1.852   4.163
  336SOL    HW2 1908   2.775   1.970   4.050
  337SOL     OW 1909   1.167   0.888   5.796
  337SOL    HW1 1910   1.216   0.869   5.710
  337SOL    HW2 1911   1.177   0.810   5.858
  338SOL     OW 1912   4.253   1.531   1.342
  338SOL    HW1 1913   4.323   1.463   1.320
  338SOL    HW2 1914   4.235   1.529   1.440
  339SOL     OW 1915   3.959   6.226   4.996
  339SOL    HW1 1916   3.898   6.251   5.072
  339SOL    HW2 1917   3.904   6.190   4.920
  340SOL     OW 1918   5.341   2.306   4.259
  340SOL    HW1 1919   5.256   2.275   4.218
  340SOL    HW2 1920   5.324   2.339   4.352
  341SOL     OW 1921   6.251   6.779   2.900
  341SOL    HW1 1922   6.255   6.860   2.842
  341SOL    HW2 1923   6.344   6.750   2.923
  342SOL     OW 1924   4.339   2.398   2.186
  342SOL    HW1 1925   4.356   2.451   2.102
  342SOL    HW2 1926   4.307   2.307   2.162
  343SOL     OW 1927   0.264   6.068   2.787
  343SOL    HW1 1928   0.342   6.009   2.765
  343SOL    HW2 1929   0.188   6.047   2.726
  344SOL     OW 1930   1.182   2.341   1.126
  344SOL    HW1 1931   1.087   2.360   1.102
  344SOL    HW2 1932   1.213   2.260   1.076
  345SOL     OW 1933   6.754   3.577   3.760
  345SOL    HW1 1934   6.724   3.484   3.783
  345SOL    HW2 1935   6.781   3.579   3.663
  346SOL     OW 1936   1.580   6.859   3.532
  346SOL    HW1 1937   1.647   6.845   3.606
  346SOL    HW2 1938   1.588   6.785   3.466
  347SOL     OW 1939   2.030   4.931   0.889
  347SOL    HW1 1940   2.079   4.976   0.964
  347SOL    HW2 1941   2.073   4.843   0.869
  348SOL     OW 1942   4.376   4.994   1.483
  348SOL    HW1 1943   4.416   5.032   1.399
  348SOL    HW2 1944   4.306   5.056   1.518
  349SOL     OW 1945   5.706   4.488   1.507
  349SOL    HW1 1946   5.770   4.420   1.472
  349SOL    HW2 1947   5.634   4.443   1.560
  350SOL     OW 1948   3.385   2.591   0.167
  350SOL    HW1 1949   3.474   2.561   0.201
  350SOL    HW2 1950   3.342   2.652   0.233
  351SOL     OW 1951   3.323   4.334   1.007
  351SOL    HW1 1952   3.356   4.239   1.014
  351SOL    HW2 1953   3.257   4.352   1.079
  352SOL     OW 1954   4.031   0.217   2.853
  352SOL    HW1 1955   4.035   0.308   2.896
  352SOL    HW2 1956   3.999   0.226   2.759
  353SOL     OW 1957   2.427   6.675   6.451
  353SOL    HW1 1958   2.453   6.751   6.511
  353SOL    HW2 1959   2.328   6.665   6.450
  354SOL     OW 1960   0.351   2.801   0.414
  354SOL    HW1 1961   0.408   2.855   0.353
  354SOL    HW2 1962   0.286   2.747   0.361
  355SOL     OW 1963   1.701   1.524   2.446
  355SOL    HW1 1964   1.613   1.557   2.481
  355SOL    HW2 1965   1.775   1.570   2.495
  356SOL     OW 1966   1.435   0.756   6.189
  356SOL    HW1 1967   1.436   0.829   6.121
  356SOL    HW2 1968   1.347   0.708   6.187
  357SOL     OW 1969   5.554   0.055   5.305
  357SOL    HW1 1970   5.485   7.007   5.322
  357SOL    HW2 1971   5.641   0.026   5.346
  358SOL     OW 1972   3.633   5.619   6.895
  358SOL    HW1 1973   3.574   5.541   6.874
  358SOL    HW2 1974   3.728   5.594   6.877
  359SOL     OW 1975   2.082   1.745   2.864
  359SOL    HW1 1976   2.091   1.822   2.801
  359SOL    HW2 1977   2.020   1.770   2.939
  360SOL     OW 1978   1.353   4.226   4.171
  360SOL    HW1 1979   1.326   4.219   4.075
  360SOL    HW2 1980   1.453   4.222   4.177
  361SOL     OW 1981   6.471   1.427   3.024
  361SOL    HW1 1982   6.445   1.511   3.071
  361SOL    HW2 1983   6.492   1.446   2.929
  362SOL     OW 1984   3.882   4.775   0.884
  362SOL    HW1 1985   3.825   4.730   0.815
  362SOL    HW2 1986   3.911   4.708   0.952
  363SOL     OW 1987   5.306   5.406   1.710
  363SOL    HW1 1988   5.363   5.351   1.649
  363SOL    HW2 1989   5.283   5.492   1.666
  364SOL     OW 1990   0.860   6.414   6.177
  364SOL    HW1 1991   0.871   6.316   6.193
  364SOL    HW2 1992   0.863   6.433   6.078
  365SOL     OW 1993   4.633   1.924   3.354
  365SOL    HW1 1994   4.655   1.837   3.398
  365SOL    HW2 1995   4.536   1.944   3.365
  366SOL     OW 1996   5.015   2.312   6.860
  366SOL    HW1 1997   5.084   2.313   6.932
  366SOL    HW2 1998   5.058   2.330   6.772
  367SOL     OW 1999   5.487   1.965   5.746
  367SOL    HW1 2000   5.519   2.058   5.761
  367SOL    HW2 2001   5.406   1.967   5.688
  368SOL     OW 2002   6.512   2.282   5.873
  368SOL    HW1 2003   6.584   2.215   5.893
  368SOL    HW2 2004   6.447   2.241   5.808
  369SOL     OW 2005   6.176   3.523   2.431
  369SOL    HW1 2006   6.079   3.545   2.421
  369SOL    HW2 2007   6.231   3.594   2.387
  370SOL     OW 2008   1.713   3.102   4.054
  370SOL    HW1 2009   1.695   3.011   4.091
  370SOL    HW2 2010   1.701   3.101   3.955
  371SOL     OW 2011   1.436   5.059   0.003
  371SOL    HW1 2012   1.359   5.008   0.041
  371SOL    HW2 2013   1.438   5.048   6.926
  372SOL     OW 2014   3.144   6.059   6.326
  372SOL    HW1 2015   3.076   5.997   6.364
  372SOL    HW2 2016   3.175   6.024   6.237
  373SOL     OW 2017   5.750   5.319   4.023
  373SOL    HW1 2018   5.797   5.308   3.935
  373SOL    HW2 2019   5.759   5.413   4.054
  374SOL     OW 2020   2.829   1.823   3.157
  374SOL    HW1 2021   2.745   1.836   3.210
  374SOL    HW2 2022   2.901   1.788   3.216
  375SOL     OW 2023   1.315   5.375   4.650
  375SOL    HW1 2024   1.300   5.326   4.736
  375SOL    HW2 2025   1.327   5.473   4.669
  376SOL     OW 2026   2.746   0.852   4.136
  376SOL    HW1 2027   2.756   0.944   4.100
  376SOL    HW2 2028   2.661   0.846   4.190
  377SOL     OW 2029   0.769   1.705   6.240
  377SOL    HW1 2030   0.715   1.639   6.292
  377SOL    HW2 2031   0.864   1.705   6.273
  378SOL     OW 2032   4.052   0.831   2.024
  378SOL    HW1 2033   4.131   0.841   1.963
  378SOL    HW2 2034   4.027   0.734   2.030
  379SOL     OW 2035   5.943   1.496   6.447
  379SOL    HW1 2036   5.955   1.538   6.357
  379SOL    HW2 2037   5.953   1.566   6.518
  380SOL     OW 2038   4.107   2.165   1.107
  380SOL    HW1 2039   4.035   2.096   1.113
  380SOL    HW2 2040   4.066   2.256   1.100
  381SOL     OW 2041   1.805   3.680   3.035
  381SOL    HW1 2042   1.798   3.611   3.107
  381SOL    HW2 2043   1.901   3.693   3.010
  382SOL     OW 2044   5.081   0.542   6.916
  382SOL    HW1 2045   5.095   0.595   6.833
  382SOL    HW2 2046   5.169   0.519   6.956
  383SOL     OW 2047   4.094   2.508   0.658
  383SOL    HW1 2048   4.174   2.482   0.604
  383SOL    HW2 2049   4.053   2.426   0.699
  384SOL     OW 2050   5.624   4.122   4.617
  384SOL    HW1 2051   5.575   4.035   4.611
  384SOL    HW2 2052   5.599   4.168   4.703
  385SOL     OW 2053   4.204   3.660   0.521
  385SOL    HW1 2054   4.278   3.722   0.496
  385SOL    HW2 2055   4.129   3.669   0.454
  386SOL     OW 2056   3.329   6.264   3.525
  386SOL    HW1 2057   3.355   6.168   3.525
  386SOL    HW2 2058   3.231   6.273   3.540
  387SOL     OW 2059   2.603   6.412   3.275
  387SOL    HW1 2060   2.531   6.456   3.329
  387SOL    HW2 2061   2.578   6.415   3.178
  388SOL     OW 2062   1.935   3.905   6.373
  388SOL    HW1 2063   1.992   3.961   6.312
  388SOL    HW2 2064   1.874   3.848   6.318
  389SOL     OW 2065   3.275   4.058   2.884
  389SOL    HW1 2066   3.280   4.054   2.784
  389SOL    HW2 2067   3.244   3.970   2.919
  390SOL     OW 2068   2.134   1.245   4.394
  390SOL    HW1 2069   2.196   1.315   4.360
  390SOL    HW2 2070   2.172   1.205   4.478
  391SOL     OW 2071   1.051   3.259   6.814
  391SOL    HW1 2072   1.033   3.287   6.908
  391SOL    HW2 2073   0.980   3.296   6.754
  392SOL     OW 2074   2.355   5.484   2.891
  392SOL    HW1 2075   2.410   5.405   2.866
  392SOL    HW2 2076   2.405   5.541   2.956
  393SOL     OW 2077   6.264   4.618   4.846
  393SOL    HW1 2078   6.337   4.623   4.915
  393SOL    HW2 2079   6.295   4.563   4.769
  394SOL     OW 2080   2.432   0.541   0.041
  394SOL    HW1 2081   2.389   0.505   0.124
  394SOL    HW2 2082   2.364   0.544   6.989
  395SOL     OW 2083   5.591   3.640   1.292
  395SOL    HW1 2084   5.672   3.605   1.244
  395SOL    HW2 2085   5.613   3.655   1.388
  396SOL     OW 2086   3.297   4.106   4.004
  396SOL    HW1 2087   3.340   4.016   3.997
  396SOL    HW2 2088   3.242   4.123   3.923
  397SOL     OW 2089   4.475   2.319   5.785
  397SOL    HW1 2090   4.469   2.239   5.725
  397SOL    HW2 2091   4.430   2.397   5.741
  398SOL     OW 2092   1.259   5.253   2.333
  398SOL    HW1 2093   1.200   5.241   2.253
  398SOL    HW2 2094   1.261   5.169   2.387
  399SOL     OW 2095   5.024   5.168   1.618
  399SOL    HW1 2096   5.048   5.254   1.574
  399SOL    HW2 2097   5.017   5.183   1.717
  400SOL     OW 2098   1.003   5.805   5.212
  400SOL    HW1 2099   0.975   5.726   5.158
  400SOL    HW2 2100   1.010   5.885   5.152
  401SOL     OW 2101   4.746   1.979   6.671
  401SOL    HW1 2102   4.820   1.914   6.685
  401SOL    HW2 2103   4.772   2.069   6.707
  402SOL     OW 2104   5.554   5.540   1.835
  402SOL    HW1 2105   5.485   5.506   1.771
  402SOL    HW2 2106   5.643   5.502   1.812
  403SOL     OW 2107   5.045   2.275   5.912
  403SOL    HW1 2108   5.046   2.375   5.917
  403SOL    HW2 2109   4.972   2.239   5.969
  404SOL     OW 2110   0.966   0.199   4.594
  404SOL    HW1 2111   1.049   0.188   4.649
  404SOL    HW2 2112   0.988   0.178   4.498
  405SOL     OW 2113   0.586   2.439   0.800
  405SOL    HW1 2114   0.659   2.371   0.793
  405SOL    HW2 2115   0.548   2.457   0.710
  406SOL     OW 2116   2.052   2.780   4.006
  406SOL    HW1 2117   2.112   2.859   4.017
  406SOL    HW2 2118   1.991   2.774   4.085
  407SOL     OW 2119   2.970   0.520   4.897
  407SOL    HW1 2120   2.987   0.479   4.808
  407SOL    HW2 2121   3.021   0.471   4.967
  408SOL     OW 2122   2.213   0.678   3.763
  408SOL    HW1 2123   2.179   0.763   3.805
  408SOL    HW2 2124   2.152   0.603   3.787
  409SOL     OW 2125   5.466   3.357   3.726
  409SOL    HW1 2126   5.494   3.262   3.733
  409SOL    HW2 2127   5.505   3.398   3.644
  410SOL     OW 2128   2.806   1.167   6.560
  410SOL    HW1 2129   2.717   1.201   6.589
  410SOL    HW2 2130   2.828   1.203   6.469
  411SOL     OW 2131   5.977   4.511   5.350
  411SOL    HW1 2132   6.024   4.516   5.262
  411SOL    HW2 2133   5.878   4.519   5.336
  412SOL     OW 2134   3.636   0.533   2.792
  412SOL    HW1 2135   3.685   0.555   2.707
  412SOL    HW2 2136   3.614   0.618   2.840
  413SOL     OW 2137   2.972   6.633   0.660
  413SOL    HW1 2138   2.898   6.610   0.596
  413SOL    HW2 2139   3.042   6.561   0.657
  414SOL     OW 2140   4.094   4.005   0.432
  414SOL    HW1 2141   4.018   4.063   0.460
  414SOL    HW2 2142   4.059   3.917   0.400
  415SOL     OW 2143   2.145   6.546   1.366
  415SOL    HW1 2144   2.209   6.623   1.359
  415SOL    HW2 2145   2.153   6.504   1.456
  416SOL     OW 2146   4.470   6.586   4.817
  416SOL    HW1 2147   4.455   6.573   4.719
  416SOL    HW2 2148   4.381   6.592   4.863
  417SOL     OW 2149   4.360   6.082   1.972
  417SOL    HW1 2150   4.273   6.060   2.017
  417SOL    HW2 2151   4.343   6.145   1.896
  418SOL     OW 2152   4.942   5.540   0.994
  418SOL    HW1 2153   4.900   5.630   1.003
  418SOL    HW2 2154   4.907   5.494   0.913
  419SOL     OW 2155   7.016   6.684   1.367
  419SOL    HW1 2156   0.080   6.653   1.407
  419SOL    HW2 2157   7.015   6.661   1.270
  420SOL     OW 2158   5.053   4.801   0.235
  420SOL    HW1 2159   5.024   4.735   0.305
  420SOL    HW2 2160   5.041   4.761   0.144
  421SOL     OW 2161   2.363   6.273   6.645
  421SOL    HW1 2162   2.448   6.312   6.608
  421SOL    HW2 2163   2.380   6.179   6.676
  422SOL     OW 2164   5.654   4.177   6.950
  422SOL    HW1 2165   5.567   4.137   6.979
  422SOL    HW2 2166   5.679   4.141   6.860
  423SOL     OW 2167   6.810   3.523   6.836
  423SOL    HW1 2168   6.721   3.522   6.882
  423SOL    HW2 2169   6.881   3.545   6.903
  424SOL     OW 2170   3.296   3.882   0.191
  424SOL    HW1 2171   3.277   3.885   0.093
  424SOL    HW2 2172   3.388   3.847   0.206
  425SOL     OW 2173   3.694   1.456   0.822
  425SOL    HW1 2174   3.778   1.465   0.876
  425SOL    HW2 2175   3.709   1.392   0.747
  426SOL     OW 2176   5.331   3.948   6.474
  426SOL    HW1 2177   5.370   3.923   6.562
  426SOL    HW2 2178   5.237   3.981   6.487
  427SOL     OW 2179   5.099   3.685   1.453
  427SOL    HW1 2180   5.158   3.711   1.377
  427SOL    HW2 2181   5.154   3.671   1.535
  428SOL     OW 2182   3.923   0.638   5.460
  428SOL    HW1 2183   3.974   0.566   5.507
  428SOL    HW2 2184   3.959   0.650   5.368
  429SOL     OW 2185   1.647   4.933   0.153
  429SOL    HW1 2186   1.588   4.983   0.090
  429SOL    HW2 2187   1.629   4.963   0.247
  430SOL     OW 2188   1.301   6.974   4.899
  430SOL    HW1 2189   1.303   6.942   4.994
  430SOL    HW2 2190   1.383   0.007   4.882
  431SOL     OW 2191   3.744   1.741   0.938
  431SOL    HW1 2192   3.671   1.767   1.001
  431SOL    HW2 2193   3.706   1.731   0.846
  432SOL     OW 2194   0.054   1.559   0.866
  432SOL    HW1 2195   0.069   1.604   0.778
  432SOL    HW2 2196   0.059   1.460   0.854
  433SOL     OW 2197   3.010   6.601   5.100
  433SOL    HW1 2198   2.970   6.510   5.089
  433SOL    HW2 2199   2.938   6.668   5.117
  434SOL     OW 2200   5.884   3.643   1.175
  434SOL    HW1 2201   5.888   3.729   1.226
  434SOL    HW2 2202   5.967   3.632   1.120
  435SOL     OW 2203   2.960   4.260   6.777
  435SOL    HW1 2204   2.969   4.273   6.678
  435SOL    HW2 2205   3.040   4.301   6.823
  436SOL     OW 2206   2.037   1.031   0.864
  436SOL    HW1 2207   2.029   1.034   0.764
  436SOL    HW2 2208   2.133   1.041   0.890
  437SOL     OW 2209   6.783   0.165   6.588
  437SOL    HW1 2210   6.872   0.138   6.550
  437SOL    HW2 2211   6.774   0.128   6.680
  438SOL     OW 2212   1.524   3.148   1.614
  438SOL    HW1 2213   1.473   3.224   1.656
  438SOL    HW2 2214   1.485   3.061   1.645
  439SOL     OW 2215   6.375   5.084   2.795
  439SOL    HW1 2216   6.470   5.112   2.784
  439SOL    HW2 2217   6.314   5.155   2.759
  440SOL     OW 2218   0.968   2.275   3.707
  440SOL    HW1 2219   1.028   2.354   3.719
  440SOL    HW2 2220   0.896   2.276   3.777
  441SOL     OW 2221   1.527   1.492   2.970
  441SOL    HW1 2222   1.606   1.465   3.025
  441SOL    HW2 2223   1.503   1.418   2.907
  442SOL     OW 2224   0.116   3.960   6.856
  442SOL    HW1 2225   0.079   3.943   6.947
  442SOL    HW2 2226   0.059   3.915   6.788
  443SOL     OW 2227   1.196   4.070   4.853
  443SOL    HW1 2228   1.284   4.117   4.866
  443SOL    HW2 2229   1.129   4.108   4.917
  444SOL     OW 2230   4.753   2.607   6.182
  444SOL    HW1 2231   4.777   2.525   6.130
  444SOL    HW2 2232   4.670   2.589   6.235
  445SOL     OW 2233   2.441   4.505   3.597
  445SOL    HW1 2234   2.350   4.545   3.610
  445SOL    HW2 2235   2.434   4.405   3.607
  446SOL     OW 2236   3.674   5.019   3.875
  446SOL    HW1 2237   3.748   4.986   3.816
  446SOL    HW2 2238   3.713   5.074   3.949
  447SOL     OW 2239   0.137   5.367   0.548
  447SOL    HW1 2240   0.096   5.310   0.618
  447SOL    HW2 2241   0.066   5.404   0.488
  448SOL     OW 2242   4.497   1.107   4.597
  448SOL    HW1 2243   4.596   1.121   4.604
  448SOL    HW2 2244   4.460   1.088   4.688
  449SOL     OW 2245   5.785   1.033   4.975
  449SOL    HW1 2246   5.872   1.028   5.023
  449SOL    HW2 2247   5.787   1.108   4.909
  450SOL     OW 2248   0.290   5.709   3.418
  450SOL    HW1 2249   0.333   5.693   3.507
  450SOL    HW2 2250   0.347   5.669   3.346
  451SOL     OW 2251   0.526   1.676   2.624
  451SOL    HW1 2252   0.470   1.697   2.544
  451SOL    HW2 2253   0.468   1.658   2.703
  452SOL     OW 2254   0.458   4.180   6.963
  452SOL    HW1 2255   0.417   4.171   0.032
  452SOL    HW2 2256   0.540   4.236   6.968
  453SOL     OW 2257   3.125   1.714   6.473
  453SOL    HW1 2258   3.040   1.760   6.447
  453SOL    HW2 2259   3.197   1.782   6.485
  454SOL     OW 2260   0.882   6.191   6.575
  454SOL    HW1 2261   0.908   6.269   6.632
  454SOL    HW2 2262   0.908   6.209   6.480
  455SOL     OW 2263   5.911   0.705   4.469
  455SOL    HW1 2264   5.856   0.705   4.385
  455SOL    HW2 2265   6.004   0.736   4.447
  456SOL     OW 2266   4.464   6.087   6.441
  456SOL    HW1 2267   4.458   6.064   6.344
  456SOL    HW2 2268   4.372   6.106   6.477
  457SOL     OW 2269   2.528   4.527   3.337
  457SOL    HW1 2270   2.500   4.521   3.433
  457SOL    HW2 2271   2.479   4.458   3.284
  458SOL     OW 2272   6.076   5.245   5.625
  458SOL    HW1 2273   6.129   5.278   5.547
  458SOL    HW2 2274   6.135   5.244   5.707
  459SOL     OW 2275   1.622   0.622   2.601
  459SOL    HW1 2276   1.650   0.582   2.514
  459SOL    HW2 2277   1.683   0.698   2.624
  460SOL     OW 2278   6.744   1.748   2.983
  460SOL    HW1 2279   6.645   1.754   2.986
  460SOL    HW2 2280   6.783   1.836   2.959
  461SOL     OW 2281   4.841   6.472   5.035
  461SOL    HW1 2282   4.835   6.563   4.992
  461SOL    HW2 2283   4.751   6.430   5.037
  462SOL     OW 2284   3.139   2.904   6.388
  462SOL    HW1 2285   3.202   2.953   6.328
  462SOL    HW2 2286   3.128   2.954   6.473
  463SOL     OW 2287   6.840   5.244   3.428
  463SOL    HW1 2288   6.918   5.266   3.368
  463SOL    HW2 2289   6.873   5.236   3.522
  464SOL     OW 2290   1.310   1.235   6.207
  464SOL    HW1 2291   1.265   1.168   6.266
  464SOL    HW2 2292   1.276   1.224   6.114
  465SOL     OW 2293   0.564   2.321   3.632
  465SOL    HW1 2294   0.500   2.253   3.665
  465SOL    HW2 2295   0.627   2.279   3.566
  466SOL     OW 2296   1.147   6.877   4.297
  466SOL    HW1 2297   1.235   6.864   4.342
  466SOL    HW2 2298   1.130   6.802   4.233
  467SOL     OW 2299   1.765   0.163   5.474
  467SOL    HW1 2300   1.730   0.101   5.404
  467SOL    HW2 2301   1.747   0.258   5.446
  468SOL     OW 2302   3.918   5.442   1.060
  468SOL    HW1 2303   3.978   5.490   1.123
  468SOL    HW2 2304   3.967   5.365   1.020
  469SOL     OW 2305   2.201   5.994   0.093
  469SOL    HW1 2306   2.270   5.922   0.104
  469SOL    HW2 2307   2.154   5.982   0.006
  470SOL     OW 2308   3.944   0.805   2.631
  470SOL    HW1 2309   3.983   0.846   2.548
  470SOL    HW2 2310   3.988   0.717   2.649
  471SOL     OW 2311   2.267   2.774   4.871
  471SOL    HW1 2312   2.280   2.863   4.914
  471SOL    HW2 2313   2.342   2.756   4.807
  472SOL     OW 2314   4.438   5.658   6.415
  472SOL    HW1 2315   4.426   5.576   6.471
  472SOL    HW2 2316   4.399   5.736   6.462
  473SOL     OW 2317   0.847   2.744   2.596
  473SOL    HW1 2318   0.769   2.701   2.549
  473SOL    HW2 2319   0.822   2.763   2.691
  474SOL     OW 2320   3.736   5.204   4.751
  474SOL    HW1 2321   3.671   5.280   4.757
  474SOL    HW2 2322   3.695   5.122   4.791
  475SOL     OW 2323   0.240   6.728   6.554
  475SOL    HW1 2324   0.224   6.770   6.644
  475SOL    HW2 2325   0.274   6.635   6.567
  476SOL     OW 2326   6.167   5.010   1.936
  476SOL    HW1 2327   6.222   4.972   1.862
  476SOL    HW2 2328   6.223   5.071   1.992
  477SOL     OW 2329   2.116   4.954   4.174
  477SOL    HW1 2330   2.068   4.988   4.093
  477SOL    HW2 2331   2.107   4.855   4.179
  478SOL     OW 2332   3.570   5.774   3.648
  478SOL    HW1 2333   3.541   5.679   3.637
  478SOL    HW2 2334   3.668   5.781   3.630
  479SOL     OW 2335   3.029   2.607   0.656
  479SOL    HW1 2336   3.051   2.621   0.559
  479SOL    HW2 2337   3.108   2.568   0.702
  480SOL     OW 2338   1.357   6.961   2.259
  480SOL    HW1 2339   1.415   6.978   2.179
  480SOL    HW2 2340   1.340   6.863   2.268
  481SOL     OW 2341   2.769   0.120   1.497
  481SOL    HW1 2342   2.814   0.091   1.582
  481SOL    HW2 2343   2.697   0.054   1.474
  482SOL     OW 2344   5.635   4.627   2.643
  482SOL    HW1 2345   5.735   4.621   2.634
  482SOL    HW2 2346   5.603   4.714   2.607
  483SOL     OW 2347   5.822   1.680   1.900
  483SOL    HW1 2348   5.846   1.587   1.874
  483SOL    HW2 2349   5.723   1.692   1.892
  484SOL     OW 2350   0.513   3.256   4.088
  484SOL    HW1 2351   0.543   3.251   3.992
  484SOL    HW2 2352   0.446   3.329   4.098
  485SOL     OW 2353   3.332   4.956   2.272
  485SOL    HW1 2354   3.288   5.023   2.212
  485SOL    HW2 2355   3.276   4.874   2.277
  486SOL     OW 2356   0.977   1.376   0.656
  486SOL    HW1 2357   1.051   1.311   0.641
  486SOL    HW2 2358   0.889   1.329   0.654
  487SOL     OW 2359   0.745   2.359   0.240
  487SOL    HW1 2360   0.829   2.331   0.287
  487SOL    HW2 2361   0.710   2.282   0.186
  488SOL     OW 2362   0.308   2.030   1.958
  488SOL    HW1 2363   0.364   1.951   1.932
  488SOL    HW2 2364   0.241   2.001   2.026
  489SOL     OW 2365   3.743   5.799   0.398
  489SOL    HW1 2366   3.797   5.832   0.321
  489SOL    HW2 2367   3.660   5.854   0.407
  490SOL     OW 2368   6.462   6.512   4.364
  490SOL    HW1 2369   6.454   6.423   4.320
  490SOL    HW2 2370   6.503   6.577   4.301
  491SOL     OW 2371   0.322   2.258   3.047
  491SOL    HW1 2372   0.354   2.170   3.012
  491SOL    HW2 2373   0.316   2.323   2.971
  492SOL     OW 2374   2.675   0.488   6.326
  492SOL    HW1 2375   2.726   0.496   6.240
  492SOL    HW2 2376   2.593   0.544   6.322
  493SOL     OW 2377   6.444   4.692   5.814
  493SOL    HW1 2378   6.452   4.598   5.780
  493SOL    HW2 2379   6.512   4.750   5.768
  494SOL     OW 2380   0.135   6.741   6.821
  494SOL    HW1 2381   0.078   6.764   6.900
  494SOL    HW2 2382   0.165   6.646   6.828
  495SOL     OW 2383   4.755   4.609   2.053
  495SOL    HW1 2384   4.847   4.649   2.054
  495SOL    HW2 2385   4.763   4.509   2.058
  496SOL     OW 2386   5.562   3.251   3.129
  496SOL    HW1 2387   5.546   3.270   3.032
  496SOL    HW2 2388   5.494   3.184   3.161
  497SOL     OW 2389   3.347   1.278   4.837
  497SOL    HW1 2390   3.322   1.186   4.867
  497SOL    HW2 2391   3.401   1.272   4.753
  498SOL     OW 2392   0.207   2.885   2.095
  498SOL    HW1 2393   0.173   2.934   2.175
  498SOL    HW2 2394   0.294   2.924   2.066
  499SOL     OW 2395   3.652   0.061   4.716
  499SOL    HW1 2396   3.591   0.015   4.651
  499SOL    HW2 2397   3.601   0.132   4.765
  500SOL     OW 2398   0.579   3.539   2.659
  500SOL    HW1 2399   0.668   3.575   2.630
  500SOL    HW2 2400   0.582   3.439   2.659
  501SOL     OW 2401   2.187   3.289   6.651
  501SOL    HW1 2402   2.245   3.214   6.683
  501SOL    HW2 2403   2.202   3.304   6.553
  502SOL     OW 2404   4.788   4.889   6.541
  502SOL    HW1 2405   4.769   4.791   6.539
  502SOL    HW2 2406   4.728   4.935   6.606
  503SOL     OW 2407   5.942   4.784   5.529
  503SOL    HW1 2408   5.892   4.801   5.614
  503SOL    HW2 2409   5.893   4.716   5.474
  504SOL     OW 2410   2.319   6.234   4.439
  504SOL    HW1 2411   2.334   6.216   4.342
  504SOL    HW2 2412   2.312   6.332   4.454
  505SOL     OW 2413   4.745   0.306   5.853
  505SOL    HW1 2414   4.843   0.302   5.834
  505SOL    HW2 2415   4.724   0.391   5.901
  506SOL     OW 2416   1.680   4.118   5.231
  506SOL    HW1 2417   1.762   4.160   5.271
  506SOL    HW2 2418   1.688   4.018   5.237
  507SOL     OW 2419   3.132   6.892   4.562
  507SOL    HW1 2420   3.119   6.986   4.529
  507SOL    HW2 2421   3.120   6.891   4.662
  508SOL     OW 2422   6.229   3.966   2.934
  508SOL    HW1 2423   6.170   4.046   2.949
  508SOL    HW2 2424   6.185   3.885   2.973
  509SOL     OW 2425   4.539   1.330   1.592
  509SOL    HW1 2426   4.625   1.282   1.608
  509SOL    HW2 2427   4.479   1.317   1.671
  510SOL     OW 2428   6.897   4.683   5.572
  510SOL    HW1 2429   6.978   4.642   5.612
  510SOL    HW2 2430   6.912   4.782   5.561
  511SOL     OW 2431   0.294   6.422   0.284
  511SOL    HW1 2432   0.324   6.516   0.299
  511SOL    HW2 2433   0.205   6.422   0.237
  512SOL     OW 2434   1.554   3.245   6.915
  512SOL    HW1 2435   1.473   3.187   6.916
  512SOL    HW2 2436   1.602   3.234   6.828
  513SOL     OW 2437   6.320   5.753   3.470
  513SOL    HW1 2438   6.318   5.712   3.379
  513SOL    HW2 2439   6.266   5.837   3.469
  514SOL     OW 2440   6.424   2.050   4.296
  514SOL    HW1 2441   6.516   2.011   4.304
  514SOL    HW2 2442   6.415   2.129   4.357
  515SOL     OW 2443   2.294   6.890   5.784
  515SOL    HW1 2444   2.248   6.890   5.873
  515SOL    HW2 2445   2.350   6.808   5.775
  516SOL     OW 2446   2.118   4.747   1.488
  516SOL    HW1 2447   2.193   4.812   1.476
  516SOL    HW2 2448   2.031   4.796   1.492
  517SOL     OW 2449   5.197   6.878   1.715
  517SOL    HW1 2450   5.236   6.820   1.643
  517SOL    HW2 2451   5.168   6.965   1.675
  518SOL     OW 2452   2.422   2.325   1.363
  518SOL    HW1 2453   2.511   2.298   1.400
  518SOL    HW2 2454   2.407   2.279   1.277
  519SOL     OW 2455   0.691   0.227   5.806
  519SOL    HW1 2456   0.619   0.208   5.873
  519SOL    HW2 2457   0.650   0.259   5.720
  520SOL     OW 2458   5.431   4.990   6.010
  520SOL    HW1 2459   5.473   4.906   5.976
  520SOL    HW2 2460   5.376   4.970   6.091
  521SOL     OW 2461   6.997   2.089   6.576
  521SOL    HW1 2462   0.058   2.058   6.529
  521SOL    HW2 2463   7.020   2.162   6.639
  522SOL     OW 2464   3.845   3.058   5.122
  522SOL    HW1 2465   3.869   3.000   5.200
  522SOL    HW2 2466   3.821   3.000   5.044
  523SOL     OW 2467   6.901   6.964   3.725
  523SOL    HW1 2468   6.964   0.004   3.773
  523SOL    HW2 2469   6.821   7.015   3.696
  524SOL     OW 2470   3.065   1.129   6.676
  524SOL    HW1 2471   2.980   1.176   6.655
  524SOL    HW2 2472   3.048   1.056   6.742
  525SOL     OW 2473   2.854   3.871   6.691
  525SOL    HW1 2474   2.816   3.904   6.778
  525SOL    HW2 2475   2.952   3.892   6.687
  526SOL     OW 2476   3.223   5.415   4.469
  526SOL    HW1 2477   3.190   5.453   4.383
  526SOL    HW2 2478   3.302   5.356   4.452
  527SOL     OW 2479   6.981   1.589   6.511
  527SOL    HW1 2480   6.940   1.523   6.575
  527SOL    HW2 2481   0.055   1.565   6.497
  528SOL     OW 2482   1.682   1.458   5.184
  528SOL    HW1 2483   1.689   1.487   5.089
  528SOL    HW2 2484   1.689   1.538   5.244
  529SOL     OW 2485   1.128   5.137   4.665
  529SOL    HW1 2486   1.171   5.179   4.746
  529SOL    HW2 2487   1.191   5.070   4.626
  530SOL     OW 2488   2.486   3.243   5.374
  530SOL    HW1 2489   2.391   3.272   5.360
  530SOL    HW2 2490   2.514   3.183   5.298
  531SOL     OW 2491   0.593   0.547   1.238
  531SOL    HW1 2492   0.622   0.474   1.300
  531SOL    HW2 2493   0.624   0.526   1.146
  532SOL     OW 2494   0.979   1.894   5.984
  532SOL    HW1 2495   0.970   1.899   6.083
  532SOL    HW2 2496   0.935   1.810   5.951
  533SOL     OW 2497   5.366   6.400   4.701
  533SOL    HW1 2498   5.370   6.328   4.770
  533SOL    HW2 2499   5.454   6.447   4.697
  534SOL     OW 2500   4.271   5.420   2.824
  534SOL    HW1 2501   4.191   5.465   2.785
  534SOL    HW2 2502   4.242   5.337   2.872
  535SOL     OW 2503   0.581   4.065   3.518
  535SOL    HW1 2504   0.504   4.011   3.552
  535SOL    HW2 2505   0.655   4.003   3.491
  536SOL     OW 2506   1.401   5.367   1.424
  536SOL    HW1 2507   1.410   5.466   1.437
  536SOL    HW2 2508   1.487   5.323   1.450
  537SOL     OW 2509   2.306   6.832   2.829
  537SOL    HW1 2510   2.242   6.778   2.774
  537SOL    HW2 2511   2.370   6.879   2.769
  538SOL     OW 2512   1.206   5.898   2.997
  538SOL    HW1 2513   1.118   5.939   2.972
  538SOL    HW2 2514   1.190   5.817   3.052
  539SOL     OW 2515   1.609   5.308   1.908
  539SOL    HW1 2516   1.617   5.237   1.838
  539SOL    HW2 2517   1.660   5.389   1.879
  540SOL     OW 2518   1.181   2.177   2.047
  540SOL    HW1 2519   1.159   2.249   2.114
  540SOL    HW2 2520   1.280   2.177   2.030
  541SOL     OW 2521   3.227   6.576   5.408
  541SOL    HW1 2522   3.217   6.578   5.309
  541SOL    HW2 2523   3.220   6.482   5.441
  542SOL     OW 2524   5.647   5.708   6.844
  542SOL    HW1 2525   5.724   5.699   6.781
  542SOL    HW2 2526   5.681   5.721   6.937
  543SOL     OW 2527   1.181   4.689   6.824
  543SOL    HW1 2528   1.270   4.708   6.863
  543SOL    HW2 2529   1.136   4.616   6.875
  544SOL     OW 2530   0.641   5.444   0.952
  544SOL    HW1 2531   0.701   5.502   0.897
  544SOL    HW2 2532   0.550   5.484   0.955
  545SOL     OW 2533   4.082   1.438   2.659
  545SOL    HW1 2534   4.157   1.450   2.594
  545SOL    HW2 2535   4.109   1.473   2.748
  546SOL     OW 2536   1.061   3.738   1.275
  546SOL    HW1 2537   1.066   3.739   1.375
  546SOL    HW2 2538   1.003   3.663   1.246
  547SOL     OW 2539   2.615   3.107   0.413
  547SOL    HW1 2540   2.629   3.011   0.437
  547SOL    HW2 2541   2.542   3.145   0.470
  548SOL     OW 2542   3.451   2.872   4.476
  548SOL    HW1 2543   3.409   2.854   4.387
  548SOL    HW2 2544   3.383   2.912   4.537
  549SOL     OW 2545   4.890   3.526   1.539
  549SOL    HW1 2546   4.805   3.557   1.496
  549SOL    HW2 2547   4.966   3.584   1.509
  550SOL     OW 2548   6.223   2.911   2.591
  550SOL    HW1 2549   6.199   2.820   2.624
  550SOL    HW2 2550   6.142   2.955   2.552
  551SOL     OW 2551   6.465   1.776   0.676
  551SOL    HW1 2552   6.385   1.832   0.697
  551SOL    HW2 2553   6.451   1.728   0.589
  552SOL     OW 2554   3.410   5.259   0.919
  552SOL    HW1 2555   3.385   5.195   0.847
  552SOL    HW2 2556   3.509   5.276   0.917
  553SOL     OW 2557   2.592   1.054   1.277
  553SOL    HW1 2558   2.612   0.977   1.338
  553SOL    HW2 2559   2.552   1.129   1.329
  554SOL     OW 2560   6.195   6.524   5.438
  554SOL    HW1 2561   6.211   6.481   5.349
  554SOL    HW2 2562   6.123   6.592   5.430
  555SOL     OW 2563   1.475   4.572   4.472
  555SOL    HW1 2564   1.563   4.596   4.430
  555SOL    HW2 2565   1.401   4.603   4.413
  556SOL     OW 2566   6.025   2.677   3.753
  556SOL    HW1 2567   5.984   2.629   3.676
  556SOL    HW2 2568   5.954   2.710   3.815
  557SOL     OW 2569   0.092   6.039   6.088
  557SOL    HW1 2570   0.124   6.101   6.016
  557SOL    HW2 2571   0.020   5.981   6.052
  558SOL     OW 2572   4.157   3.484   5.083
  558SOL    HW1 2573   4.109   3.398   5.065
  558SOL    HW2 2574   4.111   3.558   5.034
  559SOL     OW 2575   0.538   5.957   6.445
  559SOL    HW1 2576   0.469   5.979   6.375
  559SOL    HW2 2577   0.522   5.864   6.479
  560SOL     OW 2578   4.779   6.860   0.526
  560SOL    HW1 2579   4.680   6.858   0.512
  560SOL    HW2 2580   4.799   6.861   0.624
  561SOL     OW 2581   5.848   6.850   0.598
  561SOL    HW1 2582   5.804   6.798   0.526
  561SOL    HW2 2583   5.918   6.909   0.559
  562SOL     OW 2584   4.919   1.299   5.803
  562SOL    HW1 2585   4.975   1.260   5.876
  562SOL    HW2 2586   4.893   1.393   5.828
  563SOL     OW 2587   3.179   6.308   4.404
  563SOL    HW1 2588   3.137   6.243   4.341
  563SOL    HW2 2589   3.132   6.396   4.398
  564SOL     OW 2590   0.068   1.173   6.971
  564SOL    HW1 2591   0.108   1.083   6.990
  564SOL    HW2 2592   0.082   1.197   6.875
  565SOL     OW 2593   4.588   3.988   5.583
  565SOL    HW1 2594   4.492   3.964   5.566
  565SOL    HW2 2595   4.604   4.082   5.553
  566SOL     OW 2596   4.383   4.738   3.260
  566SOL    HW1 2597   4.379   4.644   3.295
  566SOL    HW2 2598   4.479   4.764   3.249
  567SOL     OW 2599   3.335   3.828   5.017
  567SOL    HW1 2600   3.390   3.858   4.939
  567SOL    HW2 2601   3.242   3.807   4.986
  568SOL     OW 2602   2.496   1.930   0.361
  568SOL    HW1 2603   2.557   1.933   0.281
  568SOL    HW2 2604   2.548   1.950   0.444
  569SOL     OW 2605   1.644   3.013   0.833
  569SOL    HW1 2606   1.640   3.023   0.933
  569SOL    HW2 2607   1.675   2.921   0.810
  570SOL     OW 2608   0.780   6.335   0.445
  570SOL    HW1 2609   0.802   6.370   0.355
  570SOL    HW2 2610   0.707   6.390   0.486
  571SOL     OW 2611   3.829   5.264   2.668
  571SOL    HW1 2612   3.907   5.241   2.611
  571SOL    HW2 2613   3.810   5.362   2.662
  572SOL     OW 2614   1.334   4.116   5.125
  572SOL    HW1 2615   1.324   4.210   5.091
  572SOL    HW2 2616   1.288   4.108   5.213
  573SOL     OW 2617   3.755   1.651   5.532
  573SOL    HW1 2618   3.853   1.648   5.553
  573SOL    HW2 2619   3.738   1.719   5.460
  574SOL     OW 2620   2.453   2.244   4.267
  574SOL    HW1 2621   2.528   2.308   4.246
  574SOL    HW2 2622   2.394   2.284   4.337
  575SOL     OW 2623   5.964   2.652   0.160
  575SOL    HW1 2624   5.995   2.594   0.085
  575SOL    HW2 2625   5.946   2.744   0.126
  576SOL     OW 2626   1.222   1.705   2.411
  576SOL    HW1 2627   1.191   1.742   2.498
  576SOL    HW2 2628   1.172   1.749   2.336
  577SOL     OW 2629   3.249   1.776   3.511
  577SOL    HW1 2630   3.288   1.862   3.477
  577SOL    HW2 2631   3.176   1.797   3.575
  578SOL     OW 2632   0.593   3.191   3.509
  578SOL    HW1 2633   0.514   3.221   3.456
  578SOL    HW2 2634   0.661   3.265   3.513
  579SOL     OW 2635   4.777   2.685   0.380
  579SOL    HW1 2636   4.834   2.618   0.428
  579SOL    HW2 2637   4.729   2.741   0.447
  580SOL     OW 2638   1.574   5.378   6.755
  580SOL    HW1 2639   1.564   5.279   6.761
  580SOL    HW2 2640   1.498   5.423   6.801
  581SOL     OW 2641   3.955   3.096   2.848
  581SOL    HW1 2642   3.894   3.035   2.797
  581SOL    HW2 2643   3.955   3.070   2.944
  582SOL     OW 2644   5.509   3.478   2.664
  582SOL    HW1 2645   5.586   3.464   2.601
  582SOL    HW2 2646   5.434   3.523   2.615
  583SOL     OW 2647   2.447   4.406   0.256
  583SOL    HW1 2648   2.537   4.364   0.252
  583SOL    HW2 2649   2.453   4.502   0.229
  584SOL     OW 2650   6.899   4.475   5.056
  584SOL    HW1 2651   6.961   4.537   5.105
  584SOL    HW2 2652   6.858   4.522   4.978
  585SOL     OW 2653   0.228   1.553   6.548
  585SOL    HW1 2654   0.250   1.610   6.470
  585SOL    HW2 2655   0.269   1.462   6.537
  586SOL     OW 2656   2.351   6.872   0.605
  586SOL    HW1 2657   2.319   6.964   0.582
  586SOL    HW2 2658   2.370   6.821   0.521
  587SOL     OW 2659   0.870   3.532   5.606
  587SOL    HW1 2660   0.824   3.443   5.606
  587SOL    HW2 2661   0.968   3.519   5.624
  588SOL     OW 2662   3.183   6.360   1.780
  588SOL    HW1 2663   3.239   6.369   1.697
  588SOL    HW2 2664   3.152   6.450   1.810
  589SOL     OW 2665   3.426   5.406   2.678
  589SOL    HW1 2666   3.488   5.359   2.742
  589SOL    HW2 2667   3.432   5.362   2.588
  590SOL     OW 2668   0.078   1.775   1.665
  590SOL    HW1 2669   0.009   1.703   1.679
  590SOL    HW2 2670   0.057   1.825   1.580
  591SOL     OW 2671   3.657   6.944   3.074
  591SOL    HW1 2672   3.737   6.958   3.015
  591SOL    HW2 2673   3.641   6.846   3.086
  592SOL     OW 2674   4.914   0.849   0.090
  592SOL    HW1 2675   4.989   0.784   0.077
  592SOL    HW2 2676   4.883   0.846   0.185
  593SOL     OW 2677   4.818   2.453   3.786
  593SOL    HW1 2678   4.890   2.522   3.777
  593SOL    HW2 2679   4.846   2.369   3.741
  594SOL     OW 2680   3.839   3.609   1.338
  594SOL    HW1 2681   3.872   3.531   1.391
  594SOL    HW2 2682   3.905   3.631   1.266
  595SOL     OW 2683   3.544   5.964   3.841
  595SOL    HW1 2684   3.509   6.044   3.792
  595SOL    HW2 2685   3.559   5.890   3.776
  596SOL     OW 2686   1.185   4.024   3.150
  596SOL    HW1 2687   1.207   3.947   3.091
  596SOL    HW2 2688   1.088   4.018   3.177
  597SOL     OW 2689   4.093   1.296   5.250
  597SOL    HW1 2690   4.021   1.366   5.261
  597SOL    HW2 2691   4.059   1.222   5.192
  598SOL     OW 2692   3.965   4.588   1.066
  598SOL    HW1 2693   3.937   4.500   1.103
  598SOL    HW2 2694   4.060   4.607   1.090
  599SOL     OW 2695   6.117   6.857   2.361
  599SOL    HW1 2696   6.074   6.818   2.442
  599SOL    HW2 2697   6.215   6.838   2.364
  600SOL     OW 2698   2.249   6.935   0.097
  600SOL    HW1 2699   2.303   7.017   0.111
  600SOL    HW2 2700   2.160   6.959   0.057
  601SOL     OW 2701   3.086   5.456   4.188
  601SOL    HW1 2702   3.065   5.358   4.186
  601SOL    HW2 2703   3.079   5.494   4.096
  602SOL     OW 2704   2.278   0.383   1.346
  602SOL    HW1 2705   2.372   0.347   1.343
  602SOL    HW2 2706   2.246   0.383   1.440
  603SOL     OW 2707   4.354   2.004   2.790
  603SOL    HW1 2708   4.412   1.998   2.871
  603SOL    HW2 2709   4.265   2.040   2.815
  604SOL     OW 2710   0.742   4.075   6.213
  604SOL    HW1 2711   0.694   4.149   6.167
  604SOL    HW2 2712   0.840   4.080   6.191
  605SOL     OW 2713   5.895   6.956   3.873
  605SOL    HW1 2714   5.853   0.015   3.833
  605SOL    HW2 2715   5.934   6.979   3.962
  606SOL     OW 2716   3.632   0.063   3.703
  606SOL    HW1 2717   3.637   0.126   3.625
  606SOL    HW2 2718   3.710   0.000   3.700
  607SOL     OW 2719   5.340   0.816   4.362
  607SOL    HW1 2720   5.265   0.877   4.389
  607SOL    HW2 2721   5.412   0.870   4.319
  608SOL     OW 2722   3.794   1.135   1.274
  608SOL    HW1 2723   3.790   1.180   1.184
  608SOL    HW2 2724   3.836   1.197   1.340
  609SOL     OW 2725   3.581   3.881   4.308
  609SOL    HW1 2726   3.482   3.874   4.312
  609SOL    HW2 2727   3.607   3.977   4.295
  610SOL     OW 2728   5.155   2.624   4.253
  610SOL    HW1 2729   5.243   2.670   4.259
  610SOL    HW2 2730   5.131   2.611   4.156
  611SOL     OW 2731   0.415   6.682   0.343
  611SOL    HW1 2732   0.344   6.715   0.282
  611SOL    HW2 2733   0.474   6.759   0.370
  612SOL     OW 2734   2.871   5.770   6.126
  612SOL    HW1 2735   2.956   5.804   6.086
  612SOL    HW2 2736   2.835   5.696   6.069
  613SOL     OW 2737   3.376   1.810   0.142
  613SOL    HW1 2738   3.417   1.808   0.052
  613SOL    HW2 2739   3.438   1.767   0.208
  614SOL     OW 2740   5.304   4.755   1.078
  614SOL    HW1 2741   5.249   4.825   1.124
  614SOL    HW2 2742   5.377   4.799   1.026
  615SOL     OW 2743   6.829   7.005   0.911
  615SOL    HW1 2744   6.921   7.000   0.870
  615SOL    HW2 2745   6.838   7.010   1.011
  616SOL     OW 2746   6.175   1.444   4.420
  616SOL    HW1 2747   6.204   1.443   4.324
  616SOL    HW2 2748   6.119   1.525   4.438
  617SOL     OW 2749   0.638   4.741   5.793
  617SOL    HW1 2750   0.628   4.818   5.857
  617SOL    HW2 2751   0.731   4.740   5.757
  618SOL     OW 2752   6.566   3.456   0.525
  618SOL    HW1 2753   6.646   3.502   0.488
  618SOL    HW2 2754   6.571   3.358   0.505
  619SOL     OW 2755   2.415   0.128   0.139
  619SOL    HW1 2756   2.489   0.087   0.085
  619SOL    HW2 2757   2.439   0.222   0.161
  620SOL     OW 2758   6.466   1.327   2.565
  620SOL    HW1 2759   6.382   1.288   2.527
  620SOL    HW2 2760   6.523   1.254   2.602
  621SOL     OW 2761   3.502   1.132   6.560
  621SOL    HW1 2762   3.431   1.186   6.514
  621SOL    HW2 2763   3.572   1.105   6.494
  622SOL     OW 2764   1.073   1.691   4.971
  622SOL    HW1 2765   1.076   1.782   4.929
  622SOL    HW2 2766   1.071   1.621   4.900
  623SOL     OW 2767   5.917   0.104   4.555
  623SOL    HW1 2768   5.908   0.012   4.595
  623SOL    HW2 2769   5.961   0.165   4.620
  624SOL     OW 2770   6.228   0.795   6.469
  624SOL    HW1 2771   6.260   0.879   6.513
  624SOL    HW2 2772   6.164   0.819   6.396
  625SOL     OW 2773   2.565   1.613   0.438
  625SOL    HW1 2774   2.571   1.704   0.397
  625SOL    HW2 2775   2.554   1.544   0.366
  626SOL     OW 2776   0.417   5.024   3.842
  626SOL    HW1 2777   0.471   4.955   3.890
  626SOL    HW2 2778   0.387   4.989   3.754
  627SOL     OW 2779   6.507   0.125   0.003
  627SOL    HW1 2780   6.509   0.089   6.931
  627SOL    HW2 2781   6.468   0.056   0.064
  628SOL     OW 2782   4.764   4.972   5.916
  628SOL    HW1 2783   4.783   5.049   5.855
  628SOL    HW2 2784   4.759   5.006   6.010
  629SOL     OW 2785   0.018   6.418   6.151
  629SOL    HW1 2786   0.035   6.515   6.164
  629SOL    HW2 2787   0.101   6.367   6.174
  630SOL     OW 2788   6.695   0.783   1.180
  630SOL    HW1 2789   6.609   0.826   1.210
  630SOL    HW2 2790   6.712   0.702   1.236
  631SOL     OW 2791   2.025   2.764   4.746
  631SOL    HW1 2792   2.117   2.789   4.777
  631SOL    HW2 2793   1.963   2.762   4.824
  632SOL     OW 2794   3.154   3.192   6.873
  632SOL    HW1 2795   3.074   3.178   6.815
  632SOL    HW2 2796   3.144   3.279   6.923
  633SOL     OW 2797   1.746   5.797   1.658
  633SOL    HW1 2798   1.798   5.742   1.593
  633SOL    HW2 2799   1.787   5.887   1.667
  634SOL     OW 2800   3.056   3.099   3.644
  634SOL    HW1 2801   3.137   3.042   3.631
  634SOL    HW2 2802   3.053   3.170   3.573
  635SOL     OW 2803   5.580   0.786   6.400
  635SOL    HW1 2804   5.652   0.855   6.406
  635SOL    HW2 2805   5.549   0.763   6.492
  636SOL     OW 2806   2.761   0.827   6.527
  636SOL    HW1 2807   2.819   0.746   6.511
  636SOL    HW2 2808   2.819   0.905   6.549
  637SOL     OW 2809   6.609   1.051   2.059
  637SOL    HW1 2810   6.526   1.105   2.076
  637SOL    HW2 2811   6.678   1.109   2.014
  638SOL     OW 2812   6.388   3.517   4.095
  638SOL    HW1 2813   6.438   3.571   4.163
  638SOL    HW2 2814   6.307   3.567   4.065
  639SOL     OW 2815   4.726   4.754   2.618
  639SOL    HW1 2816   4.763   4.698   2.692
  639SOL    HW2 2817   4.627   4.764   2.629
  640SOL     OW 2818   0.910   2.421   1.826
  640SOL    HW1 2819   0.925   2.331   1.785
  640SOL    HW2 2820   0.884   2.409   1.922
  641SOL     OW 2821   2.008   5.179   4.352
  641SOL    HW1 2822   2.027   5.110   4.282
  641SOL    HW2 2823   2.059   5.156   4.435
  642SOL     OW 2824   0.659   3.614   4.618
  642SOL    HW1 2825   0.582   3.553   4.632
  642SOL    HW2 2826   0.628   3.709   4.626
  643SOL     OW 2827   4.959   5.088   6.975
  643SOL    HW1 2828   5.002   5.140   6.901
  643SOL    HW2 2829   5.024   5.080   0.029
  644SOL     OW 2830   6.873   6.735   4.782
  644SOL    HW1 2831   6.780   6.770   4.788
  644SOL    HW2 2832   6.925   6.763   4.863
  645SOL     OW 2833   3.983   5.062   2.015
  645SOL    HW1 2834   4.037   5.032   1.936
  645SOL    HW2 2835   3.987   4.993   2.086
  646SOL     OW 2836   3.840   1.093   5.296
  646SOL    HW1 2837   3.828   1.181   5.342
  646SOL    HW2 2838   3.822   1.019   5.361
  647SOL     OW 2839   4.678   2.533   5.831
  647SOL    HW1 2840   4.616   2.603   5.868
  647SOL    HW2 2841   4.624   2.463   5.783
  648SOL     OW 2842   5.722   1.637   3.322
  648SOL    HW1 2843   5.707   1.733   3.299
  648SOL    HW2 2844   5.721   1.582   3.238
  649SOL     OW 2845   2.421   5.827   0.668
  649SOL    HW1 2846   2.462   5.757   0.610
  649SOL    HW2 2847   2.345   5.788   0.719
  650SOL     OW 2848   0.145   4.700   1.085
  650SOL    HW1 2849   0.163   4.608   1.120
  650SOL    HW2 2850   0.067   4.696   1.022
  651SOL     OW 2851   1.431   0.284   4.819
  651SOL    HW1 2852   1.489   0.304   4.740
  651SOL    HW2 2853   1.487   0.258   4.897
  652SOL     OW 2854   3.409   6.268   1.633
  652SOL    HW1 2855   3.440   6.330   1.561
  652SOL    HW2 2856   3.484   6.209   1.662
  653SOL     OW 2857   0.660   6.886   1.717
  653SOL    HW1 2858   0.748   6.932   1.720
  653SOL    HW2 2859   0.666   6.800   1.769
  654SOL     OW 2860   0.041   6.878   4.978
  654SOL    HW1 2861   0.083   6.871   5.068
  654SOL    HW2 2862   0.112   6.873   4.907
  655SOL     OW 2863   6.823   4.309   2.088
  655SOL    HW1 2864   6.801   4.214   2.109
  655SOL    HW2 2865   6.755   4.346   2.025
  656SOL     OW 2866   3.699   6.180   0.508
  656SOL    HW1 2867   3.624   6.114   0.498
  656SOL    HW2 2868   3.691   6.226   0.597
  657SOL     OW 2869   3.744   3.022   2.194
  657SOL    HW1 2870   3.825   3.025   2.136
  657SOL    HW2 2871   3.695   2.935   2.177
  658SOL     OW 2872   2.209   3.065   4.211
  658SOL    HW1 2873   2.118   3.044   4.174
  658SOL    HW2 2874   2.203   3.147   4.268
  659SOL     OW 2875   2.581   6.293   6.281
  659SOL    HW1 2876   2.672   6.253   6.291
  659SOL    HW2 2877   2.513   6.220   6.276
  660SOL     OW 2878   5.277   4.342   2.450
  660SOL    HW1 2879   5.301   4.437   2.433
  660SOL    HW2 2880   5.181   4.336   2.477
  661SOL     OW 2881   4.333   4.683   4.285
  661SOL    HW1 2882   4.369   4.642   4.201
  661SOL    HW2 2883   4.234   4.694   4.278
  662SOL     OW 2884   4.671   3.537   0.164
  662SOL    HW1 2885   4.701   3.449   0.126
  662SOL    HW2 2886   4.641   3.524   0.258
  663SOL     OW 2887   0.571   4.266   0.559
  663SOL    HW1 2888   0.565   4.219   0.646
  663SOL    HW2 2889   0.554   4.364   0.572
  664SOL     OW 2890   1.981   6.958   6.921
  664SOL    HW1 2891   1.885   6.947   6.946
  664SOL    HW2 2892   2.014   6.873   6.881
  665SOL     OW 2893   4.107   5.222   1.000
  665SOL    HW1 2894   4.199   5.248   0.971
  665SOL    HW2 2895   4.073   5.149   0.941
  666SOL     OW 2896   3.270   1.667   0.550
  666SOL    HW1 2897   3.174   1.683   0.575
  666SOL    HW2 2898   3.295   1.573   0.575
  667SOL     OW 2899   1.059   2.677   2.951
  667SOL    HW1 2900   0.964   2.683   2.982
  667SOL    HW2 2901   1.111   2.616   3.011
  668SOL     OW 2902   5.306   0.012   0.442
  668SOL    HW1 2903   5.378   7.017   0.509
  668SOL    HW2 2904   5.223   6.985   0.469
  669SOL     OW 2905   1.765   6.277   2.975
  669SOL    HW1 2906   1.754   6.372   2.945
  669SOL    HW2 2907   1.741   6.216   2.899
  670SOL     OW 2908   3.389   3.279   3.675
  670SOL    HW1 2909   3.472   3.325   3.643
  670SOL    HW2 2910   3.321   3.276   3.602
  671SOL     OW 2911   1.949   6.908   6.205
  671SOL    HW1 2912   1.904   6.975   6.148
  671SOL    HW2 2913   2.006   6.848   6.149
  672SOL     OW 2914   2.393   2.709   3.972
  672SOL    HW1 2915   2.308   2.664   3.946
  672SOL    HW2 2916   2.374   2.803   4.003
  673SOL     OW 2917   5.782   0.256   1.036
  673SOL    HW1 2918   5.765   0.214   1.125
  673SOL    HW2 2919   5.697   0.298   1.003
  674SOL     OW 2920   0.427   1.790   3.351
  674SOL    HW1 2921   0.413   1.889   3.362
  674SOL    HW2 2922   0.377   1.741   3.421
  675SOL     OW 2923   6.665   2.938   5.060
  675SOL    HW1 2924   6.628   3.029   5.040
  675SOL    HW2 2925   6.653   2.880   4.979
  676SOL     OW 2926   2.225   4.618   4.310
  676SOL    HW1 2927   2.320   4.592   4.295
  676SOL    HW2 2928   2.181   4.550   4.369
  677SOL     OW 2929   6.664   6.884   0.717
  677SOL    HW1 2930   6.584   6.870   0.775
  677SOL    HW2 2931   6.738   6.925   0.771
  678SOL     OW 2932   2.291   1.420   6.158
  678SOL    HW1 2933   2.339   1.486   6.100
  678SOL    HW2 2934   2.294   1.330   6.115
  679SOL     OW 2935   4.702   6.948   2.777
  679SOL    HW1 2936   4.610   6.916   2.756
  679SOL    HW2 2937   4.754   6.873   2.819
  680SOL     OW 2938   4.802   4.190   5.325
  680SOL    HW1 2939   4.845   4.212   5.238
  680SOL    HW2 2940   4.741   4.111   5.314
  681SOL     OW 2941   0.978   6.777   1.595
  681SOL    HW1 2942   0.939   6.869   1.592
  681SOL    HW2 2943   1.075   6.781   1.572
  682SOL     OW 2944   2.092   5.772   0.562
  682SOL    HW1 2945   2.089   5.859   0.512
  682SOL    HW2 2946   2.043   5.782   0.648
  683SOL     OW 2947   5.436   1.450   0.399
  683SOL    HW1 2948   5.523   1.469   0.353
  683SOL    HW2 2949   5.452   1.395   0.481
  684SOL     OW 2950   0.162   5.409   6.082
  684SOL    HW1 2951   0.099   5.445   6.013
  684SOL    HW2 2952   0.254   5.404   6.043
  685SOL     OW 2953   5.997   0.148   5.672
  685SOL    HW1 2954   6.029   0.222   5.731
  685SOL    HW2 2955   5.897   0.149   5.668
  686SOL     OW 2956   5.170   4.762   2.704
  686SOL    HW1 2957   5.187   4.830   2.633
  686SOL    HW2 2958   5.114   4.688   2.667
  687SOL     OW 2959   6.526   3.683   5.970
  687SOL    HW1 2960   6.581   3.623   6.028
  687SOL    HW2 2961   6.441   3.707   6.017
  688SOL     OW 2962   6.981   3.681   6.127
  688SOL    HW1 2963   0.042   3.733   6.110
  688SOL    HW2 2964   6.966   3.616   6.053
  689SOL     OW 2965   5.735   3.554   5.488
  689SOL    HW1 2966   5.649   3.508   5.466
  689SOL    HW2 2967   5.716   3.633   5.546
  690SOL     OW 2968   1.673   2.060   3.468
  690SOL    HW1 2969   1.635   2.151   3.485
  690SOL    HW2 2970   1.645   2.029   3.377
  691SOL     OW 2971   0.817   2.704   6.258
  691SOL    HW1 2972   0.876   2.657   6.192
  691SOL    HW2 2973   0.850   2.798   6.270
  692SOL     OW 2974   2.333   0.377   3.037
  692SOL    HW1 2975   2.372   0.469   3.032
  692SOL    HW2 2976   2.406   0.309   3.032
  693SOL     OW 2977   6.990   2.000   1.893
  693SOL    HW1 2978   0.026   2.070   1.851
  693SOL    HW2 2979   6.980   1.923   1.829
  694SOL     OW 2980   2.061   0.251   1.191
  694SOL    HW1 2981   2.125   0.203   1.131
  694SOL    HW2 2982   2.112   0.300   1.262
  695SOL     OW 2983   4.736   6.131   5.520
  695SOL    HW1 2984   4.731   6.122   5.421
  695SOL    HW2 2985   4.644   6.130   5.559
  696SOL     OW 2986   4.332   5.192   2.409
  696SOL    HW1 2987   4.407   5.195   2.475
  696SOL    HW2 2988   4.352   5.123   2.339
  697SOL     OW 2989   1.253   4.233   3.924
  697SOL    HW1 2990   1.290   4.195   3.840
  697SOL    HW2 2991   1.167   4.187   3.947
  698SOL     OW 2992   4.455   0.218   3.485
  698SOL    HW1 2993   4.515   0.242   3.561
  698SOL    HW2 2994   4.360   0.221   3.516
  699SOL     OW 2995   1.716   4.484   1.114
  699SOL    HW1 2996   1.796   4.475   1.174
  699SOL    HW2 2997   1.717   4.412   1.045
  700SOL     OW 2998   2.391   1.823   4.667
  700SOL    HW1 2999   2.346   1.830   4.578
  700SOL    HW2 3000   2.351   1.891   4.729
  701SOL     OW 3001   0.147   4.282   5.893
  701SOL    HW1 3002   0.202   4.365   5.883
  701SOL    HW2 3003   0.050   4.306   5.901
  702SOL     OW 3004   5.558   6.036   4.413
  702SOL    HW1 3005   5.505   5.967   4.363
  702SOL    HW2 3006   5.496   6.103   4.454
  703SOL     OW 3007   3.508   3.849   6.805
  703SOL    HW1 3008   3.532   3.752   6.806
  703SOL    HW2 3009   3.490   3.877   6.711
  704SOL     OW 3010   1.913   0.308   0.035
  704SOL    HW1 3011   1.925   0.269   6.966
  704SOL    HW2 3012   1.913   0.408   0.029
  705SOL     OW 3013   6.395   1.984   2.478
  705SOL    HW1 3014   6.297   2.002   2.464
  705SOL    HW2 3015   6.440   1.978   2.389
  706SOL     OW 3016   3.798   1.903   3.544
  706SOL    HW1 3017   3.802   1.818   3.596
  706SOL    HW2 3018   3.757   1.885   3.455
  707SOL     OW 3019   4.679   0.497   1.631
  707SOL    HW1 3020   4.723   0.462   1.713
  707SOL    HW2 3021   4.749   0.518   1.562
  708SOL     OW 3022   4.180   0.645   1.789
  708SOL    HW1 3023   4.101   0.587   1.810
  708SOL    HW2 3024   4.171   0.679   1.695
  709SOL     OW 3025   0.952   4.600   0.129
  709SOL    HW1 3026   0.941   4.601   0.228
  709SOL    HW2 3027   0.884   4.659   0.087
  710SOL     OW 3028   3.087   3.600   2.832
  710SOL    HW1 3029   3.030   3.605   2.750
  710SOL    HW2 3030   3.100   3.692   2.869
  711SOL     OW 3031   0.320   0.681   4.065
  711SOL    HW1 3032   0.346   0.670   3.970
  711SOL    HW2 3033   0.343   0.773   4.096
  712SOL     OW 3034   1.215   3.928   1.702
  712SOL    HW1 3035   1.146   3.989   1.740
  712SOL    HW2 3036   1.287   3.913   1.769
  713SOL     OW 3037   3.781   2.916   2.723
  713SOL    HW1 3038   3.825   2.828   2.705
  713SOL    HW2 3039   3.733   2.947   2.640
  714SOL     OW 3040   4.663   4.993   5.092
  714SOL    HW1 3041   4.690   4.984   4.996
  714SOL    HW2 3042   4.611   4.912   5.120
  715SOL     OW 3043   4.639   6.883   6.417
  715SOL    HW1 3044   4.648   6.892   6.318
  715SOL    HW2 3045   4.566   6.818   6.438
  716SOL     OW 3046   0.029   4.862   1.427
  716SOL    HW1 3047   7.011   4.941   1.473
  716SOL    HW2 3048   0.092   4.894   1.356
  717SOL     OW 3049   6.599   2.452   0.669
  717SOL    HW1 3050   6.612   2.459   0.768
  717SOL    HW2 3051   6.518   2.397   0.650
  718SOL     OW 3052   3.658   3.593   6.002
  718SOL    HW1 3053   3.715   3.585   5.921
  718SOL    HW2 3054   3.682   3.522   6.068
  719SOL     OW 3055   5.319   4.006   1.327
  719SOL    HW1 3056   5.343   3.996   1.424
  719SOL    HW2 3057   5.381   4.072   1.285
  720SOL     OW 3058   2.442   1.810   6.175
  720SOL    HW1 3059   2.534   1.824   6.138
  720SOL    HW2 3060   2.379   1.788   6.101
  721SOL     OW 3061   1.633   0.052   6.115
  721SOL    HW1 3062   1.653   6.980   6.088
  721SOL    HW2 3063   1.615   0.055   6.213
  722SOL     OW 3064   3.961   0.249   4.830
  722SOL    HW1 3065   4.044   0.296   4.800
  722SOL    HW2 3066   3.938   0.178   4.763
  723SOL     OW 3067   0.910   2.627   1.623
  723SOL    HW1 3068   0.938   2.576   1.705
  723SOL    HW2 3069   0.973   2.606   1.548
  724SOL     OW 3070   0.046   1.019   4.678
  724SOL    HW1 3071   0.071   1.010   4.581
  724SOL    HW2 3072   0.129   1.013   4.734
  725SOL     OW 3073   1.936   4.678   2.214
  725SOL    HW1 3074   1.970   4.587   2.240
  725SOL    HW2 3075   1.871   4.669   2.139
  726SOL     OW 3076   4.135   6.983   6.612
  726SOL    HW1 3077   4.070   6.939   6.549
  726SOL    HW2 3078   4.164   0.049   6.574
  727SOL     OW 3079   2.624   5.198   4.166
  727SOL    HW1 3080   2.556   5.125   4.169
  727SOL    HW2 3081   2.700   5.176   4.228
  728SOL     OW 3082   6.869   4.217   4.828
  728SOL    HW1 3083   6.813   4.259   4.899
  728SOL    HW2 3084   6.845   4.120   4.819
  729SOL     OW 3085   2.482   0.089   1.657
  729SOL    HW1 3086   2.491   0.048   1.566
  729SOL    HW2 3087   2.516   0.183   1.654
  730SOL     OW 3088   6.086   0.693   3.792
  730SOL    HW1 3089   6.032   0.717   3.873
  730SOL    HW2 3090   6.109   0.595   3.795
  731SOL     OW 3091   5.579   3.927   4.237
  731SOL    HW1 3092   5.641   3.865   4.189
  731SOL    HW2 3093   5.500   3.947   4.178
  732SOL     OW 3094   6.484   2.651   1.375
  732SOL    HW1 3095   6.582   2.668   1.381
  732SOL    HW2 3096   6.465   2.588   1.300
  733SOL     OW 3097   4.865   4.424   3.807
  733SOL    HW1 3098   4.956   4.440   3.768
  733SOL    HW2 3099   4.809   4.374   3.741
  734SOL     OW 3100   6.349   4.608   1.128
  734SOL    HW1 3101   6.356   4.562   1.216
  734SOL    HW2 3102   6.284   4.560   1.069
  735SOL     OW 3103   1.674   4.429   6.284
  735SOL    HW1 3104   1.678   4.329   6.274
  735SOL    HW2 3105   1.604   4.453   6.351
  736SOL     OW 3106   6.404   0.924   3.303
  736SOL    HW1 3107   6.358   0.955   3.219
  736SOL    HW2 3108   6.481   0.984   3.322
  737SOL     OW 3109   5.439   3.452   0.940
  737SOL    HW1 3110   5.410   3.366   0.900
  737SOL    HW2 3111   5.516   3.489   0.889
  738SOL     OW 3112   0.623   3.840   3.889
  738SOL    HW1 3113   0.547   3.884   3.936
  738SOL    HW2 3114   0.588   3.775   3.821
  739SOL     OW 3115   3.956   6.293   6.049
  739SOL    HW1 3116   4.026   6.338   6.104
  739SOL    HW2 3117   3.956   6.195   6.070
  740SOL     OW 3118   6.372   6.615   1.501
  740SOL    HW1 3119   6.274   6.622   1.522
  740SOL    HW2 3120   6.405   6.525   1.530
  741SOL     OW 3121   1.994   6.880   2.834
  741SOL    HW1 3122   2.017   6.977   2.832
  741SOL    HW2 3123   1.900   6.867   2.803
  742SOL     OW 3124   1.016   0.131   3.470
  742SOL    HW1 3125   0.953   0.071   3.421
  742SOL    HW2 3126   1.104   0.085   3.481
  743SOL     OW 3127   1.942   3.796   4.544
  743SOL    HW1 3128   1.959   3.834   4.453
  743SOL    HW2 3129   2.028   3.775   4.589
  744SOL     OW 3130   0.331   5.357   0.377
  744SOL    HW1 3131   0.283   5.390   0.296
  744SOL    HW2 3132   0.271   5.363   0.457
  745SOL     OW 3133   1.672   6.119   2.788
  745SOL    HW1 3134   1.639   6.159   2.702
  745SOL    HW2 3135   1.762   6.077   2.773
  746SOL     OW 3136   1.411   0.828   5.234
  746SOL    HW1 3137   1.403   0.903   5.169
  746SOL    HW2 3138   1.393   0.742   5.188
  747SOL     OW 3139   4.925   4.720   3.201
  747SOL    HW1 3140   4.993   4.792   3.207
  747SOL    HW2 3141   4.971   4.632   3.187
  748SOL     OW 3142   4.687   3.504   1.338
  748SOL    HW1 3143   4.702   3.406   1.321
  748SOL    HW2 3144   4.618   3.538   1.274
  749SOL     OW 3145   0.103   2.220   5.453
  749SOL    HW1 3146   0.185   2.179   5.413
  749SOL    HW2 3147   0.022   2.179   5.410
  750SOL     OW 3148   2.341   4.115   0.026
  750SOL    HW1 3149   2.312   4.053   6.975
  750SOL    HW2 3150   2.367   4.203   7.008
  751SOL     OW 3151   4.182   0.873   0.045
  751SOL    HW1 3152   4.107   0.884   0.110
  751SOL    HW2 3153   4.192   0.776   0.021
  752SOL     OW 3154   4.774   2.186   1.464
  752SOL    HW1 3155   4.759   2.253   1.392
  752SOL    HW2 3156   4.697   2.188   1.528
  753SOL     OW 3157   2.331   2.759   4.555
  753SOL    HW1 3158   2.296   2.724   4.468
  753SOL    HW2 3159   2.288   2.847   4.575
  754SOL     OW 3160   3.776   5.281   6.891
  754SOL    HW1 3161   3.677   5.289   6.903
  754SOL    HW2 3162   3.803   5.321   6.803
  755SOL     OW 3163   0.337   6.164   0.435
  755SOL    HW1 3164   0.328   6.227   0.358
  755SOL    HW2 3165   0.341   6.070   0.401
  756SOL     OW 3166   4.807   0.496   2.454
  756SOL    HW1 3167   4.841   0.506   2.547
  756SOL    HW2 3168   4.715   0.534   2.447
  757SOL     OW 3169   0.579   6.660   3.668
  757SOL    HW1 3170   0.543   6.570   3.696
  757SOL    HW2 3171   0.653   6.647   3.602
  758SOL     OW 3172   3.647   1.952   1.305
  758SOL    HW1 3173   3.662   1.858   1.336
  758SOL    HW2 3174   3.660   1.958   1.206
  759SOL     OW 3175   1.362   1.823   0.445
  759SOL    HW1 3176   1.429   1.796   0.376
  759SOL    HW2 3177   1.355   1.752   0.515
  760SOL     OW 3178   4.906   0.995   6.526
  760SOL    HW1 3179   4.855   0.999   6.440
  760SOL    HW2 3180   4.862   0.930   6.588
  761SOL     OW 3181   5.811   2.478   6.849
  761SOL    HW1 3182   5.732   2.509   6.796
  761SOL    HW2 3183   5.881   2.550   6.850
  762SOL     OW 3184   2.226   6.872   3.976
  762SOL    HW1 3185   2.303   6.845   3.918
  762SOL    HW2 3186   2.150   6.808   3.962
  763SOL     OW 3187   4.118   6.107   6.595
  763SOL    HW1 3188   4.184   6.090   6.668
  763SOL    HW2 3189   4.025   6.099   6.631
  764SOL     OW 3190   3.743   1.734   1.680
  764SOL    HW1 3191   3.748   1.703   1.775
  764SOL    HW2 3192   3.669   1.801   1.671
  765SOL     OW 3193   6.880   0.430   3.249
  765SOL    HW1 3194   6.909   0.475   3.333
  765SOL    HW2 3195   6.909   0.334   3.251
  766SOL     OW 3196   0.282   6.315   6.987
  766SOL    HW1 3197   0.313   6.248   6.919
  766SOL    HW2 3198   0.321   6.292   0.054
  767SOL     OW 3199   6.238   6.467   2.764
  767SOL    HW1 3200   6.249   6.368   2.780
  767SOL    HW2 3201   6.298   6.496   2.690
  768SOL     OW 3202   2.755   6.729   2.836
  768SOL    HW1 3203   2.757   6.787   2.755
  768SOL    HW2 3204   2.844   6.731   2.881
  769SOL     OW 3205   4.477   0.523   5.135
  769SOL    HW1 3206   4.428   0.444   5.172
  769SOL    HW2 3207   4.543   0.555   5.203
  770SOL     OW 3208   2.799   4.801   3.907
  770SOL    HW1 3209   2.827   4.895   3.923
  770SOL    HW2 3210   2.807   4.780   3.809
  771SOL     OW 3211   0.492   5.076   3.350
  771SOL    HW1 3212   0.505   5.158   3.405
  771SOL    HW2 3213   0.571   5.062   3.291
  772SOL     OW 3214   6.915   3.857   6.672
  772SOL    HW1 3215   6.821   3.861   6.705
  772SOL    HW2 3216   6.945   3.762   6.668
  773SOL     OW 3217   6.946   3.834   2.311
  773SOL    HW1 3218   0.016   3.842   2.349
  773SOL    HW2 3219   6.887   3.788   2.378
  774SOL     OW 3220   1.661   1.130   0.999
  774SOL    HW1 3221   1.574   1.130   1.048
  774SOL    HW2 3222   1.733   1.094   1.059
  775SOL     OW 3223   1.136   2.279   4.608
  775SOL    HW1 3224   1.064   2.210   4.615
  775SOL    HW2 3225   1.188   2.281   4.694
  776SOL     OW 3226   2.278   0.384   6.091
  776SOL    HW1 3227   2.274   0.308   6.155
  776SOL    HW2 3228   2.185   0.416   6.073
  777SOL     OW 3229   4.219   1.540   1.059
  777SOL    HW1 3230   4.304   1.548   1.007
  777SOL    HW2 3231   4.237   1.563   1.155
  778SOL     OW 3232   4.392   6.866   3.725
  778SOL    HW1 3233   4.368   6.769   3.713
  778SOL    HW2 3234   4.458   6.893   3.655
  779SOL     OW 3235   0.853   2.040   2.396
  779SOL    HW1 3236   0.851   1.944   2.424
  779SOL    HW2 3237   0.892   2.047   2.304
  780SOL     OW 3238   6.142   3.427   4.481
  780SOL    HW1 3239   6.122   3.419   4.578
  780SOL    HW2 3240   6.090   3.358   4.431
  781SOL     OW 3241   6.732   0.797   6.364
  781SOL    HW1 3242   6.826   0.800   6.328
  781SOL    HW2 3243   6.733   0.758   6.456
  782SOL     OW 3244   6.807   2.742   0.938
  782SOL    HW1 3245   6.843   2.650   0.954
  782SOL    HW2 3246   6.738   2.763   1.007
  783SOL     OW 3247   2.647   4.933   0.162
  783SOL    HW1 3248   2.689   4.983   0.238
  783SOL    HW2 3249   2.560   4.976   0.139
  784SOL     OW 3250   4.486   0.878   4.806
  784SOL    HW1 3251   4.417   0.850   4.740
  784SOL    HW2 3252   4.454   0.859   4.898
  785SOL     OW 3253   6.710   2.049   3.557
  785SOL    HW1 3254   6.677   2.129   3.608
  785SOL    HW2 3255   6.799   2.020   3.593
  786SOL     OW 3256   6.987   6.610   0.162
  786SOL    HW1 3257   6.902   6.619   0.111
  786SOL    HW2 3258   6.967   6.611   0.260
  787SOL     OW 3259   2.710   2.041   6.473
  787SOL    HW1 3260   2.691   2.078   6.564
  787SOL    HW2 3261   2.697   1.942   6.473
  788SOL     OW 3262   1.773   3.362   4.102
  788SOL    HW1 3263   1.764   3.361   4.201
  788SOL    HW2 3264   1.775   3.268   4.067
  789SOL     OW 3265   5.187   3.642   1.957
  789SOL    HW1 3266   5.190   3.677   2.051
  789SOL    HW2 3267   5.103   3.590   1.943
  790SOL     OW 3268   2.923   1.443   3.683
  790SOL    HW1 3269   2.853   1.474   3.619
  790SOL    HW2 3270   2.896   1.468   3.776
  791SOL     OW 3271   3.027   1.320   4.548
  791SOL    HW1 3272   3.013   1.310   4.646
  791SOL    HW2 3273   3.094   1.392   4.530
  792SOL     OW 3274   5.903   0.299   3.128
  792SOL    HW1 3275   5.911   0.347   3.041
  792SOL    HW2 3276   5.993   0.294   3.172
  793SOL     OW 3277   5.249   0.468   0.092
  793SOL    HW1 3278   5.210   0.395   0.148
  793SOL    HW2 3279   5.349   0.466   0.101
  794SOL     OW 3280   2.133   4.917   5.648
  794SOL    HW1 3281   2.103   4.832   5.605
  794SOL    HW2 3282   2.088   4.994   5.604
  795SOL     OW 3283   4.509   4.740   6.416
  795SOL    HW1 3284   4.545   4.658   6.462
  795SOL    HW2 3285   4.410   4.744   6.428
  796SOL     OW 3286   7.010   2.294   6.800
  796SOL    HW1 3287   0.060   2.319   6.735
  796SOL    HW2 3288   0.029   2.284   6.891
  797SOL     OW 3289   6.096   2.866   4.136
  797SOL    HW1 3290   6.096   2.961   4.168
  797SOL    HW2 3291   6.019   2.852   4.075
  798SOL     OW 3292   5.256   0.824   6.571
  798SOL    HW1 3293   5.186   0.895   6.567
  798SOL    HW2 3294   5.343   0.865   6.596
  799SOL     OW 3295   6.570   2.316   3.310
  799SOL    HW1 3296   6.635   2.272   3.248
  799SOL    HW2 3297   6.496   2.252   3.331
  800SOL     OW 3298   5.876   0.976   2.524
  800SOL    HW1 3299   5.849   0.928   2.441
  800SOL    HW2 3300   5.795   0.995   2.580
  801SOL     OW 3301   7.008   2.210   3.556
  801SOL    HW1 3302   0.051   2.214   3.480
  801SOL    HW2 3303   6.996   2.301   3.595
  802SOL     OW 3304   5.585   1.139   0.337
  802SOL    HW1 3305   5.553   1.094   0.253
  802SOL    HW2 3306   5.519   1.210   0.363
  803SOL     OW 3307   6.494   5.584   4.371
  803SOL    HW1 3308   6.589   5.556   4.358
  803SOL    HW2 3309   6.482   5.677   4.337
  804SOL     OW 3310   0.784   6.571   6.868
  804SOL    HW1 3311   0.690   6.543   6.886
  804SOL    HW2 3312   0.792   6.670   6.877
  805SOL     OW 3313   3.118   2.909   5.944
  805SOL    HW1 3314   3.171   2.967   5.882
  805SOL    HW2 3315   3.179   2.842   5.986
  806SOL     OW 3316   5.231   1.206   0.380
  806SOL    HW1 3317   5.175   1.280   0.344
  806SOL    HW2 3318   5.272   1.234   0.467
  807SOL     OW 3319   1.455   0.427   3.422
  807SOL    HW1 3320   1.466   0.500   3.354
  807SOL    HW2 3321   1.359   0.420   3.449
  808SOL     OW 3322   5.339   3.284   5.539
  808SOL    HW1 3323   5.414   3.332   5.493
  808SOL    HW2 3324   5.257   3.340   5.535
  809SOL     OW 3325   0.716   4.117   6.617
  809SOL    HW1 3326   0.807   4.139   6.582
  809SOL    HW2 3327   0.679   4.039   6.567
  810SOL     OW 3328   5.624   3.868   0.032
  810SOL    HW1 3329   5.706   3.917   0.003
  810SOL    HW2 3330   5.643   3.822   0.119
  811SOL     OW 3331   5.393   4.882   3.446
  811SOL    HW1 3332   5.430   4.858   3.536
  811SOL    HW2 3333   5.301   4.843   3.436
  812SOL     OW 3334   0.433   0.182   1.470
  812SOL    HW1 3335   0.363   0.183   1.399
  812SOL    HW2 3336   0.392   0.201   1.559
  813SOL     OW 3337   4.850   5.106   2.032
  813SOL    HW1 3338   4.932   5.051   2.052
  813SOL    HW2 3339   4.846   5.182   2.096
  814SOL     OW 3340   6.183   6.025   2.289
  814SOL    HW1 3341   6.170   6.096   2.220
  814SOL    HW2 3342   6.222   5.944   2.245
  815SOL     OW 3343   6.676   2.139   0.852
  815SOL    HW1 3344   6.675   2.218   0.913
  815SOL    HW2 3345   6.686   2.055   0.906
  816SOL     OW 3346   6.542   6.108   1.096
  816SOL    HW1 3347   6.448   6.132   1.070
  816SOL    HW2 3348   6.565   6.018   1.058
  817SOL     OW 3349   1.831   3.074   2.523
  817SOL    HW1 3350   1.898   3.000   2.513
  817SOL    HW2 3351   1.740   3.036   2.535
  818SOL     OW 3352   5.992   1.167   0.709
  818SOL    HW1 3353   5.974   1.121   0.795
  818SOL    HW2 3354   6.005   1.099   0.637
  819SOL     OW 3355   6.951   3.111   3.695
  819SOL    HW1 3356   6.968   3.020   3.658
  819SOL    HW2 3357   7.020   3.175   3.660
  820SOL     OW 3358   1.153   2.843   4.499
  820SOL    HW1 3359   1.229   2.885   4.547
  820SOL    HW2 3360   1.187   2.768   4.441
  821SOL     OW 3361   1.434   3.652   6.608
  821SOL    HW1 3362   1.365   3.608   6.667
  821SOL    HW2 3363   1.515   3.674   6.663
  822SOL     OW 3364   1.389   3.952   4.392
  822SOL    HW1 3365   1.354   4.002   4.471
  822SOL    HW2 3366   1.486   3.932   4.405
  823SOL     OW 3367   4.250   4.508   0.114
  823SOL    HW1 3368   4.182   4.437   0.094
  823SOL    HW2 3369   4.307   4.478   0.191
  824SOL     OW 3370   5.288   2.701   4.916
  824SOL    HW1 3371   5.241   2.787   4.900
  824SOL    HW2 3372   5.232   2.625   4.883
  825SOL     OW 3373   2.165   3.866   2.450
  825SOL    HW1 3374   2.241   3.899   2.507
  825SOL    HW2 3375   2.106   3.943   2.426
  826SOL     OW 3376   6.511   3.121   6.628
  826SOL    HW1 3377   6.452   3.176   6.568
  826SOL    HW2 3378   6.604   3.122   6.593
  827SOL     OW 3379   3.703   5.518   0.330
  827SOL    HW1 3380   3.784   5.473   0.293
  827SOL    HW2 3381   3.728   5.608   0.366
  828SOL     OW 3382   5.781   0.676   5.866
  828SOL    HW1 3383   5.712   0.737   5.827
  828SOL    HW2 3384   5.735   0.603   5.917
  829SOL     OW 3385   3.225   2.928   4.641
  829SOL    HW1 3386   3.180   2.862   4.701
  829SOL    HW2 3387   3.213   3.020   4.677
  830SOL     OW 3388   4.616   4.014   5.260
  830SOL    HW1 3389   4.618   3.919   5.290
  830SOL    HW2 3390   4.521   4.042   5.247
  831SOL     OW 3391   7.014   1.012   5.826
  831SOL    HW1 3392   6.978   1.060   5.906
  831SOL    HW2 3393   0.021   0.920   5.854
  832SOL     OW 3394   2.235   1.932   6.355
  832SOL    HW1 3395   2.297   2.010   6.347
  832SOL    HW2 3396   2.272   1.855   6.303
  833SOL     OW 3397   6.261   6.536   6.406
  833SOL    HW1 3398   6.216   6.625   6.405
  833SOL    HW2 3399   6.317   6.528   6.489
  834SOL     OW 3400   2.893   3.611   4.290
  834SOL    HW1 3401   2.944   3.650   4.213
  834SOL    HW2 3402   2.835   3.682   4.331
  835SOL     OW 3403   3.572   6.834   3.486
  835SOL    HW1 3404   3.513   6.890   3.428
  835SOL    HW2 3405   3.608   6.757   3.433
  836SOL     OW 3406   3.195   0.723   0.174
  836SOL    HW1 3407   3.222   0.816   0.197
  836SOL    HW2 3408   3.117   0.725   0.111
  837SOL     OW 3409   4.628   1.050   5.616
  837SOL    HW1 3410   4.712   1.102   5.634
  837SOL    HW2 3411   4.619   1.035   5.517
  838SOL     OW 3412   2.113   5.468   3.894
  838SOL    HW1 3413   2.119   5.461   3.795
  838SOL    HW2 3414   2.162   5.549   3.925
  839SOL     OW 3415   3.056   1.920   2.984
  839SOL    HW1 3416   2.969   1.884   3.019
  839SOL    HW2 3417   3.093   1.855   2.917
  840SOL     OW 3418   0.660   1.491   6.746
  840SOL    HW1 3419   0.743   1.436   6.752
  840SOL    HW2 3420   0.590   1.454   6.807
  841SOL     OW 3421   0.310   3.656   6.704
  841SOL    HW1 3422   0.331   3.719   6.630
  841SOL    HW2 3423   0.343   3.564   6.681
  842SOL     OW 3424   3.998   4.832   3.106
  842SOL    HW1 3425   4.009   4.929   3.128
  842SOL    HW2 3426   4.085   4.794   3.076
  843SOL     OW 3427   6.671   1.876   2.131
  843SOL    HW1 3428   6.759   1.858   2.176
  843SOL    HW2 3429   6.686   1.930   2.048
  844SOL     OW 3430   4.920   5.849   0.999
  844SOL    HW1 3431   4.926   5.947   0.982
  844SOL    HW2 3432   4.853   5.808   0.937
  845SOL     OW 3433   0.161   4.701   4.387
  845SOL    HW1 3434   0.215   4.650   4.320
  845SOL    HW2 3435   0.157   4.797   4.361
  846SOL     OW 3436   6.315   1.594   6.637
  846SOL    HW1 3437   6.307   1.627   6.543
  846SOL    HW2 3438   6.388   1.526   6.642
  847SOL     OW 3439   5.421   3.197   2.260
  847SOL    HW1 3440   5.391   3.251   2.181
  847SOL    HW2 3441   5.486   3.127   2.230
  848SOL     OW 3442   6.074   0.556   6.281
  848SOL    HW1 3443   6.133   0.538   6.202
  848SOL    HW2 3444   6.044   0.651   6.279
  849SOL     OW 3445   0.489   5.042   4.442
  849SOL    HW1 3446   0.575   5.006   4.406
  849SOL    HW2 3447   0.499   5.059   4.540
  850SOL     OW 3448   4.201   0.877   3.006
  850SOL    HW1 3449   4.225   0.793   2.958
  850SOL    HW2 3450   4.234   0.956   2.954
  851SOL     OW 3451   1.224   0.765   0.101
  851SOL    HW1 3452   1.130   0.732   0.090
  851SOL    HW2 3453   1.238   0.798   0.194
  852SOL     OW 3454   2.015   3.672   6.491
  852SOL    HW1 3455   2.009   3.766   6.457
  852SOL    HW2 3456   2.017   3.673   6.591
  853SOL     OW 3457   0.769   3.482   1.474
  853SOL    HW1 3458   0.757   3.537   1.392
  853SOL    HW2 3459   0.734   3.390   1.458
  854SOL     OW 3460   5.236   5.853   2.169
  854SOL    HW1 3461   5.327   5.854   2.127
  854SOL    HW2 3462   5.196   5.944   2.163
  855SOL     OW 3463   4.944   6.470   2.038
  855SOL    HW1 3464   5.013   6.474   2.110
  855SOL    HW2 3465   4.874   6.403   2.063
  856SOL     OW 3466   2.130   6.387   5.111
  856SOL    HW1 3467   2.051   6.432   5.068
  856SOL    HW2 3468   2.109   6.290   5.124
  857SOL     OW 3469   6.155   2.894   1.557
  857SOL    HW1 3470   6.056   2.882   1.565
  857SOL    HW2 3471   6.192   2.822   1.500
  858SOL     OW 3472   2.963   5.017   1.309
  858SOL    HW1 3473   2.957   5.005   1.408
  858SOL    HW2 3474   3.011   4.939   1.269
  859SOL     OW 3475   6.689   4.855   0.545
  859SOL    HW1 3476   6.780   4.843   0.507
  859SOL    HW2 3477   6.660   4.950   0.532
  860SOL     OW 3478   2.325   4.805   1.143
  860SOL    HW1 3479   2.408   4.762   1.107
  860SOL    HW2 3480   2.280   4.742   1.206
  861SOL     OW 3481   3.576   5.883   5.952
  861SOL    HW1 3482   3.535   5.812   5.894
  861SOL    HW2 3483   3.664   5.910   5.915
  862SOL     OW 3484   4.658   4.381   4.543
  862SOL    HW1 3485   4.700   4.339   4.624
  862SOL    HW2 3486   4.672   4.320   4.464
  863SOL     OW 3487   6.063   0.996   1.297
  863SOL    HW1 3488   6.153   1.018   1.334
  863SOL    HW2 3489   6.073   0.934   1.219
  864SOL     OW 3490   6.495   4.471   2.662
  864SOL    HW1 3491   6.456   4.501   2.749
  864SOL    HW2 3492   6.584   4.514   2.649
  865SOL     OW 3493   1.981   6.485   4.170
  865SOL    HW1 3494   2.028   6.520   4.251
  865SOL    HW2 3495   1.884   6.508   4.176
  866SOL     OW 3496   3.080   1.910   2.102
  866SOL    HW1 3497   3.162   1.874   2.057
  866SOL    HW2 3498   2.999   1.870   2.059
  867SOL     OW 3499   2.378   3.318   6.405
  867SOL    HW1 3500   2.427   3.375   6.340
  867SOL    HW2 3501   2.323   3.250   6.355
  868SOL     OW 3502   5.388   1.777   3.284
  868SOL    HW1 3503   5.384   1.756   3.186
  868SOL    HW2 3504   5.477   1.818   3.306
  869SOL     OW 3505   6.092   5.749   2.920
  869SOL    HW1 3506   6.046   5.836   2.937
  869SOL    HW2 3507   6.105   5.701   3.007
  870SOL     OW 3508   6.726   1.102   1.118
  870SOL    HW1 3509   6.800   1.038   1.095
  870SOL    HW2 3510   6.638   1.062   1.092
  871SOL     OW 3511   5.818   2.593   1.085
  871SOL    HW1 3512   5.806   2.658   1.161
  871SOL    HW2 3513   5.863   2.640   1.009
  872SOL     OW 3514   6.593   2.263   3.704
  872SOL    HW1 3515   6.514   2.240   3.646
  872SOL    HW2 3516   6.561   2.313   3.785
  873SOL     OW 3517   4.071   6.738   5.124
  873SOL    HW1 3518   3.999   6.671   5.106
  873SOL    HW2 3519   4.035   6.830   5.110
  874SOL     OW 3520   0.834   3.228   5.330
  874SOL    HW1 3521   0.803   3.135   5.308
  874SOL    HW2 3522   0.847   3.236   5.428
  875SOL     OW 3523   6.410   4.344   7.014
  875SOL    HW1 3524   6.336   4.278   6.999
  875SOL    HW2 3525   6.394   4.393   0.077
  876SOL     OW 3526   0.041   3.366   1.825
  876SOL    HW1 3527   0.087   3.357   1.736
  876SOL    HW2 3528   6.986   3.302   1.830
  877SOL     OW 3529   5.568   5.959   0.256
  877SOL    HW1 3530   5.525   5.919   0.337
  877SOL    HW2 3531   5.528   6.049   0.238
  878SOL     OW 3532   2.578   4.762   0.465
  878SOL    HW1 3533   2.615   4.839   0.517
  878SOL    HW2 3534   2.536   4.796   0.381
  879SOL     OW 3535   4.385   2.420   2.453
  879SOL    HW1 3536   4.433   2.506   2.470
  879SOL    HW2 3537   4.345   2.422   2.361
  880SOL     OW 3538   3.913   4.948   0.317
  880SOL    HW1 3539   3.918   4.850   0.334
  880SOL    HW2 3540   3.916   4.997   0.403
  881SOL     OW 3541   3.956   4.992   5.088
  881SOL    HW1 3542   4.041   4.944   5.065
  881SOL    HW2 3543   3.883   4.926   5.103
  882SOL     OW 3544   1.067   1.096   4.483
  882SOL    HW1 3545   1.137   1.058   4.422
  882SOL    HW2 3546   0.977   1.089   4.439
  883SOL     OW 3547   3.019   5.307   6.113
  883SOL    HW1 3548   3.089   5.360   6.066
  883SOL    HW2 3549   3.054   5.276   6.201
  884SOL     OW 3550   5.120   3.241   1.714
  884SOL    HW1 3551   5.056   3.168   1.738
  884SOL    HW2 3552   5.070   3.326   1.700
  885SOL     OW 3553   5.076   6.542   6.929
  885SOL    HW1 3554   5.005   6.471   6.925
  885SOL    HW2 3555   5.065   6.594   7.014
  886SOL     OW 3556   4.194   2.011   5.991
  886SOL    HW1 3557   4.131   2.084   5.962
  886SOL    HW2 3558   4.161   1.972   6.077
  887SOL     OW 3559   4.173   0.482   6.135
  887SOL    HW1 3560   4.076   0.506   6.134
  887SOL    HW2 3561   4.222   0.540   6.070
  888SOL     OW 3562   6.431   5.984   3.095
  888SOL    HW1 3563   6.461   6.027   3.009
  888SOL    HW2 3564   6.344   6.023   3.122
  889SOL     OW 3565   0.727   6.637   4.721
  889SOL    HW1 3566   0.747   6.545   4.689
  889SOL    HW2 3567   0.791   6.702   4.679
  890SOL     OW 3568   2.727   4.724   2.274
  890SOL    HW1 3569   2.665   4.659   2.317
  890SOL    HW2 3570   2.766   4.683   2.192
  891SOL     OW 3571   5.383   3.379   6.865
  891SOL    HW1 3572   5.353   3.395   6.771
  891SOL    HW2 3573   5.403   3.467   6.909
  892SOL     OW 3574   2.194   4.580   1.278
  892SOL    HW1 3575   2.256   4.512   1.316
  892SOL    HW2 3576   2.148   4.630   1.351
  893SOL     OW 3577   1.099   0.319   0.088
  893SOL    HW1 3578   1.122   0.258   0.012
  893SOL    HW2 3579   1.080   0.265   0.170
  894SOL     OW 3580   1.060   5.775   3.917
  894SOL    HW1 3581   1.094   5.866   3.892
  894SOL    HW2 3582   1.062   5.765   4.016
  895SOL     OW 3583   2.503   6.462   5.087
  895SOL    HW1 3584   2.546   6.495   5.003
  895SOL    HW2 3585   2.404   6.465   5.077
  896SOL     OW 3586   5.596   6.874   2.853
  896SOL    HW1 3587   5.499   6.850   2.854
  896SOL    HW2 3588   5.627   6.886   2.759
  897SOL     OW 3589   5.322   2.306   5.914
  897SOL    HW1 3590   5.233   2.261   5.901
  897SOL    HW2 3591   5.359   2.332   5.825
  898SOL     OW 3592   5.939   6.402   3.408
  898SOL    HW1 3593   5.872   6.405   3.482
  898SOL    HW2 3594   5.925   6.480   3.348
  899SOL     OW 3595   0.784   4.579   5.243
  899SOL    HW1 3596   0.863   4.639   5.260
  899SOL    HW2 3597   0.730   4.571   5.326
  900SOL     OW 3598   0.776   5.881   3.191
  900SOL    HW1 3599   0.729   5.797   3.164
  900SOL    HW2 3600   0.791   5.880   3.290
  901SOL     OW 3601   6.091   1.415   3.890
  901SOL    HW1 3602   6.001   1.424   3.847
  901SOL    HW2 3603   6.101   1.484   3.962
  902SOL     OW 3604   0.208   6.095   0.171
  902SOL    HW1 3605   0.252   6.058   0.089
  902SOL    HW2 3606   0.139   6.030   0.204
  903SOL     OW 3607   1.263   5.245   0.159
  903SOL    HW1 3608   1.210   5.230   0.076
  903SOL    HW2 3609   1.318   5.164   0.179
  904SOL     OW 3610   1.887   1.586   3.503
  904SOL    HW1 3611   1.947   1.611   3.427
  904SOL    HW2 3612   1.831   1.665   3.529
  905SOL     OW 3613   5.701   2.645   5.030
  905SOL    HW1 3614   5.659   2.724   4.986
  905SOL    HW2 3615   5.638   2.606   5.097
  906SOL     OW 3616   6.057   3.607   6.038
  906SOL    HW1 3617   6.004   3.633   6.119
  906SOL    HW2 3618   6.152   3.634   6.051
  907SOL     OW 3619   6.550   2.592   2.679
  907SOL    HW1 3620   6.575   2.525   2.750
  907SOL    HW2 3621   6.500   2.668   2.720
  908SOL     OW 3622   1.963   0.819   4.231
  908SOL    HW1 3623   1.886   0.829   4.169
  908SOL    HW2 3624   1.995   0.909   4.259
  909SOL     OW 3625   3.765   1.292   2.159
  909SOL    HW1 3626   3.736   1.198   2.176
  909SOL    HW2 3627   3.847   1.291   2.101
  910SOL     OW 3628   2.118   2.264   1.203
  910SOL    HW1 3629   2.096   2.179   1.250
  910SOL    HW2 3630   2.204   2.253   1.153
  911SOL     OW 3631   0.267   4.269   0.930
  911SOL    HW1 3632   0.262   4.360   0.889
  911SOL    HW2 3633   0.176   4.239   0.956
  912SOL     OW 3634   1.253   0.615   5.916
  912SOL    HW1 3635   1.289   0.565   5.995
  912SOL    HW2 3636   1.329   0.637   5.854
  913SOL     OW 3637   2.733   1.030   2.070
  913SOL    HW1 3638   2.809   1.048   2.132
  913SOL    HW2 3639   2.769   1.009   1.979
  914SOL     OW 3640   3.060   6.361   2.883
  914SOL    HW1 3641   3.137   6.425   2.882
  914SOL    HW2 3642   3.003   6.378   2.964
  915SOL     OW 3643   0.826   2.615   0.386
  915SOL    HW1 3644   0.805   2.539   0.325
  915SOL    HW2 3645   0.742   2.657   0.419
  916SOL     OW 3646   2.159   3.088   2.806
  916SOL    HW1 3647   2.191   3.167   2.754
  916SOL    HW2 3648   2.226   3.014   2.800
  917SOL     OW 3649   3.741   1.870   0.333
  917SOL    HW1 3650   3.800   1.847   0.255
  917SOL    HW2 3651   3.675   1.796   0.347
  918SOL     OW 3652   1.597   0.585   6.331
  918SOL    HW1 3653   1.563   0.652   6.264
  918SOL    HW2 3654   1.656   0.519   6.285
  919SOL     OW 3655   2.714   6.073   2.543
  919SOL    HW1 3656   2.701   6.039   2.450
  919SOL    HW2 3657   2.634   6.125   2.571
  920SOL     OW 3658   2.647   0.326   3.803
  920SOL    HW1 3659   2.693   0.291   3.885
  920SOL    HW2 3660   2.551   0.344   3.824
  921SOL     OW 3661   5.075   4.813   5.283
  921SOL    HW1 3662   5.094   4.796   5.380
  921SOL    HW2 3663   5.148   4.774   5.228
  922SOL     OW 3664   2.677   3.816   6.972
  922SOL    HW1 3665   2.608   3.789   6.905
  922SOL    HW2 3666   2.698   3.913   6.961
  923SOL     OW 3667   4.147   0.254   6.387
  923SOL    HW1 3668   4.133   0.352   6.376
  923SOL    HW2 3669   4.172   0.235   6.482
  924SOL     OW 3670   5.500   3.466   3.297
  924SOL    HW1 3671   5.553   3.464   3.382
  924SOL    HW2 3672   5.534   3.395   3.235
  925SOL     OW 3673   6.405   1.656   3.144
  925SOL    HW1 3674   6.427   1.693   3.054
  925SOL    HW2 3675   6.452   1.710   3.214
  926SOL     OW 3676   5.246   5.836   1.138
  926SOL    HW1 3677   5.299   5.863   1.218
  926SOL    HW2 3678   5.208   5.918   1.095
  927SOL     OW 3679   4.005   5.257   5.058
  927SOL    HW1 3680   4.065   5.275   4.981
  927SOL    HW2 3681   3.990   5.158   5.066
  928SOL     OW 3682   0.818   1.555   1.213
  928SOL    HW1 3683   0.798   1.507   1.127
  928SOL    HW2 3684   0.740   1.612   1.238
  929SOL     OW 3685   0.511   2.307   2.197
  929SOL    HW1 3686   0.435   2.256   2.237
  929SOL    HW2 3687   0.594   2.293   2.252
  930SOL     OW 3688   5.169   6.187   3.703
  930SOL    HW1 3689   5.168   6.271   3.649
  930SOL    HW2 3690   5.232   6.198   3.780
  931SOL     OW 3691   1.678   2.862   2.049
  931SOL    HW1 3692   1.697   2.932   1.979
  931SOL    HW2 3693   1.755   2.799   2.055
  932SOL     OW 3694   4.700   6.408   1.242
  932SOL    HW1 3695   4.624   6.425   1.305
  932SOL    HW2 3696   4.712   6.310   1.229
  933SOL     OW 3697   1.935   5.999   2.770
  933SOL    HW1 3698   1.960   6.071   2.705
  933SOL    HW2 3699   2.019   5.961   2.811
  934SOL     OW 3700   3.115   0.797   5.124
  934SOL    HW1 3701   3.179   0.726   5.154
  934SOL    HW2 3702   3.106   0.794   5.025
  935SOL     OW 3703   3.443   3.447   6.223
  935SOL    HW1 3704   3.480   3.385   6.292
  935SOL    HW2 3705   3.481   3.539   6.237
  936SOL     OW 3706   0.570   1.689   1.249
  936SOL    HW1 3707   0.560   1.743   1.166
  936SOL    HW2 3708   0.525   1.600   1.237
  937SOL     OW 3709   4.773   2.327   4.247
  937SOL    HW1 3710   4.806   2.419   4.269
  937SOL    HW2 3711   4.725   2.289   4.326
  938SOL     OW 3712   0.376   2.454   6.805
  938SOL    HW1 3713   0.329   2.531   6.763
  938SOL    HW2 3714   0.329   2.427   6.889
  939SOL     OW 3715   6.255   0.541   6.082
  939SOL    HW1 3716   6.258   0.462   6.019
  939SOL    HW2 3717   6.334   0.600   6.065
  940SOL     OW 3718   6.926   0.844   4.261
  940SOL    HW1 3719   6.880   0.808   4.342
  940SOL    HW2 3720   6.968   0.769   4.210
  941SOL     OW 3721   5.828   2.677   4.535
  941SOL    HW1 3722   5.871   2.683   4.445
  941SOL    HW2 3723   5.766   2.598   4.537
  942SOL     OW 3724   5.728   6.528   5.068
  942SOL    HW1 3725   5.693   6.617   5.040
  942SOL    HW2 3726   5.801   6.500   5.004
  943SOL     OW 3727   5.642   2.164   1.054
  943SOL    HW1 3728   5.616   2.225   0.979
  943SOL    HW2 3729   5.595   2.076   1.043
  944SOL     OW 3730   5.874   4.043   4.469
  944SOL    HW1 3731   5.785   4.085   4.488
  944SOL    HW2 3732   5.940   4.073   4.537
  945SOL     OW 3733   5.225   4.011   4.785
  945SOL    HW1 3734   5.156   3.950   4.747
  945SOL    HW2 3735   5.241   4.087   4.721
  946SOL     OW 3736   5.582   2.494   5.236
  946SOL    HW1 3737   5.504   2.431   5.228
  946SOL    HW2 3738   5.583   2.534   5.328
  947SOL     OW 3739   2.027   2.942   5.761
  947SOL    HW1 3740   2.121   2.909   5.763
  947SOL    HW2 3741   1.992   2.938   5.667
  948SOL     OW 3742   3.788   2.088   0.737
  948SOL    HW1 3743   3.772   2.012   0.673
  948SOL    HW2 3744   3.826   2.052   0.822
  949SOL     OW 3745   5.483   5.921   6.340
  949SOL    HW1 3746   5.549   5.943   6.412
  949SOL    HW2 3747   5.475   6.000   6.278
  950SOL     OW 3748   4.169   5.166   1.601
  950SOL    HW1 3749   4.080   5.203   1.573
  950SOL    HW2 3750   4.231   5.241   1.622
  951SOL     OW 3751   0.841   2.129   2.856
  951SOL    HW1 3752   0.933   2.107   2.889
  951SOL    HW2 3753   0.794   2.044   2.829
  952SOL     OW 3754   4.742   2.190   2.029
  952SOL    HW1 3755   4.700   2.206   2.118
  952SOL    HW2 3756   4.704   2.253   1.962
  953SOL     OW 3757   4.021   0.099   6.851
  953SOL    HW1 3758   4.068   0.044   6.782
  953SOL    HW2 3759   4.017   0.195   6.820
  954SOL     OW 3760   6.460   6.084   0.805
  954SOL    HW1 3761   6.465   6.008   0.869
  954SOL    HW2 3762   6.389   6.148   0.836
  955SOL     OW 3763   0.086   6.379   2.614
  955SOL    HW1 3764   0.028   6.356   2.692
  955SOL    HW2 3765   0.048   6.459   2.567
  956SOL     OW 3766   0.931   2.826   0.722
  956SOL    HW1 3767   0.831   2.835   0.725
  956SOL    HW2 3768   0.959   2.743   0.771
  957SOL     OW 3769   2.590   6.148   4.930
  957SOL    HW1 3770   2.636   6.074   4.880
  957SOL    HW2 3771   2.492   6.130   4.934
  958SOL     OW 3772   5.035   2.462   1.044
  958SOL    HW1 3773   5.080   2.400   0.979
  958SOL    HW2 3774   4.972   2.522   0.994
  959SOL     OW 3775   1.998   4.188   2.608
  959SOL    HW1 3776   1.929   4.258   2.623
  959SOL    HW2 3777   1.960   4.098   2.630
  960SOL     OW 3778   1.402   5.567   4.906
  960SOL    HW1 3779   1.475   5.523   4.854
  960SOL    HW2 3780   1.385   5.659   4.870
  961SOL     OW 3781   3.665   0.207   2.103
  961SOL    HW1 3782   3.680   0.257   2.019
  961SOL    HW2 3783   3.749   0.159   2.130
  962SOL     OW 3784   1.684   0.120   4.650
  962SOL    HW1 3785   1.687   0.065   4.566
  962SOL    HW2 3786   1.764   0.180   4.652
  963SOL     OW 3787   6.747   6.531   0.757
  963SOL    HW1 3788   6.759   6.574   0.668
  963SOL    HW2 3789   6.836   6.503   0.793
  964SOL     OW 3790   5.194   3.759   2.190
  964SOL    HW1 3791   5.210   3.857   2.201
  964SOL    HW2 3792   5.194   3.715   2.280
  965SOL     OW 3793   0.549   2.117   0.769
  965SOL    HW1 3794   0.540   2.019   0.752
  965SOL    HW2 3795   0.479   2.166   0.718
  966SOL     OW 3796   0.034   2.282   2.417
  966SOL    HW1 3797   0.050   2.298   2.319
  966SOL    HW2 3798   6.982   2.215   2.428
  967SOL     OW 3799   1.101   6.496   2.264
  967SOL    HW1 3800   1.165   6.453   2.200
  967SOL    HW2 3801   1.007   6.475   2.236
  968SOL     OW 3802   5.496   3.094   2.811
  968SOL    HW1 3803   5.542   3.179   2.835
  968SOL    HW2 3804   5.402   3.114   2.781
  969SOL     OW 3805   4.525   5.876   5.450
  969SOL    HW1 3806   4.559   5.878   5.356
  969SOL    HW2 3807   4.535   5.784   5.487
  970SOL     OW 3808   4.349   2.275   5.366
  970SOL    HW1 3809   4.363   2.180   5.339
  970SOL    HW2 3810   4.421   2.303   5.429
  971SOL     OW 3811   6.806   1.543   2.020
  971SOL    HW1 3812   6.716   1.540   1.976
  971SOL    HW2 3813   6.853   1.627   1.993
  972SOL     OW 3814   6.551   5.364   0.964
  972SOL    HW1 3815   6.547   5.424   1.044
  972SOL    HW2 3816   6.515   5.412   0.884
  973SOL     OW 3817   5.559   4.147   5.697
  973SOL    HW1 3818   5.641   4.113   5.744
  973SOL    HW2 3819   5.566   4.246   5.687
  974SOL     OW 3820   2.745   1.091   3.996
  974SOL    HW1 3821   2.783   1.040   3.918
  974SOL    HW2 3822   2.650   1.064   4.011
  975SOL     OW 3823   3.508   6.520   5.425
  975SOL    HW1 3824   3.527   6.457   5.350
  975SOL    HW2 3825   3.413   6.551   5.420
  976SOL     OW 3826   0.224   4.440   3.942
  976SOL    HW1 3827   0.313   4.461   3.901
  976SOL    HW2 3828   0.151   4.475   3.884
  977SOL     OW 3829   2.148   1.396   4.030
  977SOL    HW1 3830   2.154   1.299   4.006
  977SOL    HW2 3831   2.059   1.431   4.002
  978SOL     OW 3832   5.997   3.254   4.321
  978SOL    HW1 3833   5.906   3.214   4.314
  978SOL    HW2 3834   6.047   3.237   4.236
  979SOL     OW 3835   5.966   0.959   3.481
  979SOL    HW1 3836   5.885   0.979   3.426
  979SOL    HW2 3837   5.943   0.890   3.550
  980SOL     OW 3838   6.745   0.928   4.612
  980SOL    HW1 3839   6.761   1.023   4.638
  980SOL    HW2 3840   6.811   0.869   4.658
  981SOL     OW 3841   6.884   2.316   5.310
  981SOL    HW1 3842   6.924   2.244   5.253
  981SOL    HW2 3843   6.947   2.394   5.314
  982SOL     OW 3844   1.542   3.272   1.300
  982SOL    HW1 3845   1.455   3.309   1.269
  982SOL    HW2 3846   1.543   3.267   1.400
  983SOL     OW 3847   5.979   1.732   3.446
  983SOL    HW1 3848   5.899   1.681   3.416
  983SOL    HW2 3849   5.995   1.714   3.544
  984SOL     OW 3850   4.675   1.578   4.667
  984SOL    HW1 3851   4.716   1.663   4.702
  984SOL    HW2 3852   4.599   1.551   4.727
  985SOL     OW 3853   3.392   5.553   0.394
  985SOL    HW1 3854   3.405   5.477   0.458
  985SOL    HW2 3855   3.471   5.559   0.334
  986SOL     OW 3856   4.574   5.056   6.388
  986SOL    HW1 3857   4.637   5.127   6.357
  986SOL    HW2 3858   4.626   4.978   6.422
  987SOL     OW 3859   4.240   6.877   2.595
  987SOL    HW1 3860   4.265   6.885   2.499
  987SOL    HW2 3861   4.320   6.896   2.653
  988SOL     OW 3862   3.558   3.855   1.990
  988SOL    HW1 3863   3.587   3.845   1.895
  988SOL    HW2 3864   3.459   3.843   1.996
  989SOL     OW 3865   0.336   0.232   6.269
  989SOL    HW1 3866   0.275   0.267   6.198
  989SOL    HW2 3867   0.407   0.176   6.227
  990SOL     OW 3868   4.625   6.883   3.893
  990SOL    HW1 3869   4.674   6.969   3.876
  990SOL    HW2 3870   4.541   6.881   3.837
  991SOL     OW 3871   6.551   1.233   4.784
  991SOL    HW1 3872   6.599   1.259   4.700
  991SOL    HW2 3873   6.482   1.302   4.806
  992SOL     OW 3874   0.811   3.304   0.281
  992SOL    HW1 3875   0.722   3.346   0.299
  992SOL    HW2 3876   0.879   3.375   0.264
  993SOL     OW 3877   3.240   5.253   3.062
  993SOL    HW1 3878   3.184   5.185   3.110
  993SOL    HW2 3879   3.336   5.227   3.069
  994SOL     OW 3880   3.170   3.812   2.977
  994SOL    HW1 3881   3.081   3.821   3.021
  994SOL    HW2 3882   3.233   3.763   3.037
  995SOL     OW 3883   1.318   1.656   4.590
  995SOL    HW1 3884   1.219   1.644   4.588
  995SOL    HW2 3885   1.360   1.600   4.518
  996SOL     OW 3886   1.815   3.754   2.504
  996SOL    HW1 3887   1.893   3.693   2.493
  996SOL    HW2 3888   1.733   3.701   2.525
  997SOL     OW 3889   6.601   1.007   1.617
  997SOL    HW1 3890   6.558   1.090   1.652
  997SOL    HW2 3891   6.603   0.938   1.689
  998SOL     OW 3892   5.054   0.310   2.865
  998SOL    HW1 3893   4.963   0.275   2.889
  998SOL    HW2 3894   5.095   0.251   2.795
  999SOL     OW 3895   0.209   5.209   1.238
  999SOL    HW1 3896   0.210   5.109   1.232
  999SOL    HW2 3897   0.194   5.248   1.147
 1000SOL     OW 3898   3.565   1.823   4.027
 1000SOL    HW1 3899   3.551   1.819   3.928
 1000SOL    HW2 3900   3.626   1.748   4.055
 1001SOL     OW 3901   5.183   0.111   5.558
 1001SOL    HW1 3902   5.129   0.027   5.557
 1001SOL    HW2 3903   5.138   0.181   5.504
 1002SOL     OW 3904   6.517   0.940   0.969
 1002SOL    HW1 3905   6.537   0.975   0.878
 1002SOL    HW2 3906   6.516   0.840   0.967
 1003SOL     OW 3907   3.730   5.532   2.628
 1003SOL    HW1 3908   3.786   5.613   2.645
 1003SOL    HW2 3909   3.638   5.560   2.603
 1004SOL     OW 3910   5.857   6.825   0.309
 1004SOL    HW1 3911   5.898   6.909   0.273
 1004SOL    HW2 3912   5.764   6.815   0.273
 1005SOL     OW 3913   0.222   6.548   3.275
 1005SOL    HW1 3914   0.290   6.568   3.346
 1005SOL    HW2 3915   0.131   6.566   3.310
 1006SOL     OW 3916   2.163   5.021   1.100
 1006SOL    HW1 3917   2.204   5.073   1.175
 1006SOL    HW2 3918   2.200   4.928   1.101
 1007SOL     OW 3919   0.186   1.135   3.625
 1007SOL    HW1 3920   0.165   1.171   3.716
 1007SOL    HW2 3921   0.282   1.153   3.603
 1008SOL     OW 3922   2.084   3.209   3.427
 1008SOL    HW1 3923   2.104   3.256   3.513
 1008SOL    HW2 3924   2.143   3.246   3.354
 1009SOL     OW 3925   0.890   6.174   5.401
 1009SOL    HW1 3926   0.871   6.076   5.401
 1009SOL    HW2 3927   0.981   6.190   5.441
 1010SOL     OW 3928   4.487   2.271   0.323
 1010SOL    HW1 3929   4.494   2.368   0.301
 1010SOL    HW2 3930   4.450   2.261   0.416
 1011SOL     OW 3931   2.898   6.413   3.124
 1011SOL    HW1 3932   2.936   6.383   3.211
 1011SOL    HW2 3933   2.822   6.353   3.099
 1012SOL     OW 3934   5.614   5.394   0.157
 1012SOL    HW1 3935   5.572   5.469   0.107
 1012SOL    HW2 3936   5.543   5.333   0.193
 1013SOL     OW 3937   0.781   1.095   1.232
 1013SOL    HW1 3938   0.830   1.182   1.240
 1013SOL    HW2 3939   0.847   1.020   1.229
 1014SOL     OW 3940   4.476   6.839   5.597
 1014SOL    HW1 3941   4.458   6.873   5.689
 1014SOL    HW2 3942   4.527   6.907   5.546
 1015SOL     OW 3943   3.278   5.825   4.504
 1015SOL    HW1 3944   3.265   5.763   4.582
 1015SOL    HW2 3945   3.193   5.874   4.485
 1016SOL     OW 3946   4.221   2.865   1.102
 1016SOL    HW1 3947   4.209   2.924   1.022
 1016SOL    HW2 3948   4.313   2.824   1.100
 1017SOL     OW 3949   4.159   2.212   6.909
 1017SOL    HW1 3950   4.080   2.224   6.849
 1017SOL    HW2 3951   4.243   2.222   6.856
 1018SOL     OW 3952   1.722   2.718   2.788
 1018SOL    HW1 3953   1.698   2.644   2.850
 1018SOL    HW2 3954   1.682   2.804   2.820
 1019SOL     OW 3955   0.053   1.771   6.683
 1019SOL    HW1 3956   0.037   1.711   6.605
 1019SOL    HW2 3957   0.151   1.769   6.707
 1020SOL     OW 3958   2.912   1.369   1.609
 1020SOL    HW1 3959   3.009   1.391   1.605
 1020SOL    HW2 3960   2.860   1.450   1.634
 1021SOL     OW 3961   6.662   1.476   1.037
 1021SOL    HW1 3962   6.671   1.400   1.101
 1021SOL    HW2 3963   6.632   1.442   0.948
 1022SOL     OW 3964   4.275   3.329   6.062
 1022SOL    HW1 3965   4.309   3.381   6.140
 1022SOL    HW2 3966   4.262   3.390   5.984
 1023SOL     OW 3967   5.557   1.280   2.812
 1023SOL    HW1 3968   5.528   1.324   2.727
 1023SOL    HW2 3969   5.503   1.317   2.888
 1024SOL     OW 3970   6.707   1.063   3.702
 1024SOL    HW1 3971   6.691   1.160   3.688
 1024SOL    HW2 3972   6.805   1.044   3.700
 1025SOL     OW 3973   3.367   4.770   0.967
 1025SOL    HW1 3974   3.430   4.693   0.970
 1025SOL    HW2 3975   3.337   4.784   0.873
 1026SOL     OW 3976   1.610   2.517   0.150
 1026SOL    HW1 3977   1.556   2.535   0.068
 1026SOL    HW2 3978   1.578   2.575   0.224
 1027SOL     OW 3979   2.815   4.841   2.511
 1027SOL    HW1 3980   2.823   4.779   2.433
 1027SOL    HW2 3981   2.887   4.910   2.506
 1028SOL     OW 3982   1.304   6.041   0.812
 1028SOL    HW1 3983   1.277   6.137   0.806
 1028SOL    HW2 3984   1.392   6.033   0.858
 1029SOL     OW 3985   2.240   0.177   6.264
 1029SOL    HW1 3986   2.143   0.192   6.283
 1029SOL    HW2 3987   2.285   0.142   6.346
 1030SOL     OW 3988   4.064   3.236   5.130
 1030SOL    HW1 3989   4.113   3.191   5.205
 1030SOL    HW2 3990   3.984   3.181   5.104
 1031SOL     OW 3991   2.297   5.737   2.205
 1031SOL    HW1 3992   2.236   5.709   2.280
 1031SOL    HW2 3993   2.243   5.748   2.122
 1032SOL     OW 3994   1.335   0.810   4.622
 1032SOL    HW1 3995   1.340   0.720   4.664
 1032SOL    HW2 3996   1.310   0.801   4.526
 1033SOL     OW 3997   2.435   5.865   2.411
 1033SOL    HW1 3998   2.377   5.834   2.336
 1033SOL    HW2 3999   2.527   5.882   2.377
 1034SOL     OW 4000   1.714   4.820   3.839
 1034SOL    HW1 4001   1.702   4.724   3.814
 1034SOL    HW2 4002   1.761   4.868   3.765
 1035SOL     OW 4003   2.451   1.180   4.301
 1035SOL    HW1 4004   2.511   1.172   4.381
 1035SOL    HW2 4005   2.400   1.266   4.307
 1036SOL     OW 4006   4.530   2.295   0.585
 1036SOL    HW1 4007   4.461   2.366   0.570
 1036SOL    HW2 4008   4.490   2.221   0.641
 1037SOL     OW 4009   1.976   1.882   6.667
 1037SOL    HW1 4010   1.894   1.846   6.711
 1037SOL    HW2 4011   2.055   1.869   6.728
 1038SOL     OW 4012   2.014   0.981   5.035
 1038SOL    HW1 4013   1.994   1.028   4.949
 1038SOL    HW2 4014   2.079   1.035   5.088
 1039SOL     OW 4015   4.054   2.181   3.823
 1039SOL    HW1 4016   3.988   2.194   3.749
 1039SOL    HW2 4017   4.025   2.104   3.880
 1040SOL     OW 4018   6.743   4.550   2.594
 1040SOL    HW1 4019   6.718   4.514   2.504
 1040SOL    HW2 4020   6.843   4.555   2.601
 1041SOL     OW 4021   0.828   1.075   4.329
 1041SOL    HW1 4022   0.880   1.135   4.268
 1041SOL    HW2 4023   0.814   0.986   4.284
 1042SOL     OW 4024   5.618   5.068   0.716
 1042SOL    HW1 4025   5.607   5.149   0.659
 1042SOL    HW2 4026   5.677   5.089   0.793
 1043SOL     OW 4027   3.150   2.173   6.538
 1043SOL    HW1 4028   3.160   2.074   6.548
 1043SOL    HW2 4029   3.061   2.195   6.499
 1044SOL     OW 4030   4.319   3.380   1.703
 1044SOL    HW1 4031   4.404   3.407   1.658
 1044SOL    HW2 4032   4.329   3.287   1.739
 1045SOL     OW 4033   3.164   1.531   3.284
 1045SOL    HW1 4034   3.108   1.613   3.294
 1045SOL    HW2 4035   3.226   1.541   3.206
 1046SOL     OW 4036   4.192   0.180   1.845
 1046SOL    HW1 4037   4.183   0.095   1.792
 1046SOL    HW2 4038   4.258   0.240   1.799
 1047SOL     OW 4039   0.856   4.517   2.939
 1047SOL    HW1 4040   0.780   4.580   2.957
 1047SOL    HW2 4041   0.877   4.465   3.022
 1048SOL     OW 4042   4.909   4.426   5.481
 1048SOL    HW1 4043   4.897   4.331   5.451
 1048SOL    HW2 4044   4.825   4.477   5.461
 1049SOL     OW 4045   0.076   3.503   5.317
 1049SOL    HW1 4046   0.152   3.467   5.370
 1049SOL    HW2 4047   7.021   3.440   5.322
 1050SOL     OW 4048   3.700   0.445   0.092
 1050SOL    HW1 4049   3.652   0.500   0.023
 1050SOL    HW2 4050   3.635   0.417   0.163
 1051SOL     OW 4051   4.852   4.344   1.509
 1051SOL    HW1 4052   4.792   4.398   1.450
 1051SOL    HW2 4053   4.942   4.334   1.466
 1052SOL     OW 4054   3.788   0.327   4.536
 1052SOL    HW1 4055   3.849   0.255   4.568
 1052SOL    HW2 4056   3.754   0.379   4.614
 1053SOL     OW 4057   4.683   4.516   4.008
 1053SOL    HW1 4058   4.742   4.550   4.081
 1053SOL    HW2 4059   4.739   4.488   3.930
 1054SOL     OW 4060   3.351   5.954   4.994
 1054SOL    HW1 4061   3.402   5.990   4.916
 1054SOL    HW2 4062   3.271   5.904   4.962
 1055SOL     OW 4063   4.512   6.002   5.137
 1055SOL    HW1 4064   4.539   5.907   5.126
 1055SOL    HW2 4065   4.442   6.024   5.069
 1056SOL     OW 4066   1.965   6.723   5.259
 1056SOL    HW1 4067   2.045   6.663   5.260
 1056SOL    HW2 4068   1.952   6.764   5.349
 1057SOL     OW 4069   2.974   3.833   2.284
 1057SOL    HW1 4070   2.931   3.919   2.259
 1057SOL    HW2 4071   3.066   3.829   2.247
 1058SOL     OW 4072   3.844   0.837   1.854
 1058SOL    HW1 4073   3.925   0.828   1.912
 1058SOL    HW2 4074   3.835   0.932   1.824
 1059SOL     OW 4075   3.990   1.953   1.290
 1059SOL    HW1 4076   3.918   1.920   1.352
 1059SOL    HW2 4077   4.006   2.050   1.306
 1060SOL     OW 4078   1.926   1.738   5.769
 1060SOL    HW1 4079   1.945   1.651   5.723
 1060SOL    HW2 4080   2.006   1.796   5.766
 1061SOL     OW 4081   3.448   5.348   1.517
 1061SOL    HW1 4082   3.508   5.291   1.573
 1061SOL    HW2 4083   3.368   5.374   1.571
 1062SOL     OW 4084   5.593   5.614   4.564
 1062SOL    HW1 4085   5.582   5.554   4.484
 1062SOL    HW2 4086   5.596   5.559   4.647
 1063SOL     OW 4087   1.742   2.588   6.437
 1063SOL    HW1 4088   1.797   2.651   6.382
 1063SOL    HW2 4089   1.651   2.628   6.452
 1064SOL     OW 4090   6.628   2.981   1.948
 1064SOL    HW1 4091   6.564   3.030   2.007
 1064SOL    HW2 4092   6.578   2.915   1.892
 1065SOL     OW 4093   6.466   6.616   4.874
 1065SOL    HW1 4094   6.492   6.520   4.875
 1065SOL    HW2 4095   6.379   6.628   4.922
 1066SOL     OW 4096   4.365   0.670   3.594
 1066SOL    HW1 4097   4.349   0.656   3.692
 1066SOL    HW2 4098   4.370   0.581   3.548
 1067SOL     OW 4099   1.718   3.326   1.918
 1067SOL    HW1 4100   1.652   3.401   1.923
 1067SOL    HW2 4101   1.721   3.280   2.007
 1068SOL     OW 4102   0.601   3.676   1.837
 1068SOL    HW1 4103   0.513   3.687   1.792
 1068SOL    HW2 4104   0.594   3.709   1.931
 1069SOL     OW 4105   3.853   4.015   1.416
 1069SOL    HW1 4106   3.883   4.073   1.491
 1069SOL    HW2 4107   3.841   3.921   1.448
 1070SOL     OW 4108   2.392   0.902   0.126
 1070SOL    HW1 4109   2.435   0.825   0.173
 1070SOL    HW2 4110   2.364   0.875   0.034
 1071SOL     OW 4111   4.103   6.782   3.012
 1071SOL    HW1 4112   4.116   6.704   3.073
 1071SOL    HW2 4113   4.187   6.837   3.011
 1072SOL     OW 4114   3.919   5.764   2.656
 1072SOL    HW1 4115   3.969   5.768   2.570
 1072SOL    HW2 4116   3.910   5.856   2.694
 1073SOL     OW 4117   2.077   4.891   2.745
 1073SOL    HW1 4118   2.169   4.929   2.737
 1073SOL    HW2 4119   2.065   4.820   2.676
 1074SOL     OW 4120   1.296   5.642   1.760
 1074SOL    HW1 4121   1.263   5.663   1.668
 1074SOL    HW2 4122   1.310   5.544   1.769
 1075SOL     OW 4123   6.635   4.616   4.586
 1075SOL    HW1 4124   6.685   4.702   4.598
 1075SOL    HW2 4125   6.685   4.557   4.523
 1076SOL     OW 4126   0.194   4.824   3.621
 1076SOL    HW1 4127   0.284   4.796   3.587
 1076SOL    HW2 4128   0.132   4.746   3.618
 1077SOL     OW 4129   4.438   0.253   0.793
 1077SOL    HW1 4130   4.420   0.171   0.738
 1077SOL    HW2 4131   4.492   0.318   0.740
 1078SOL     OW 4132   0.781   2.260   1.457
 1078SOL    HW1 4133   0.724   2.288   1.534
 1078SOL    HW2 4134   0.725   2.208   1.392
 1079SOL     OW 4135   2.409   5.682   3.374
 1079SOL    HW1 4136   2.474   5.673   3.449
 1079SOL    HW2 4137   2.316   5.675   3.409
 1080SOL     OW 4138   1.617   5.423   4.773
 1080SOL    HW1 4139   1.674   5.376   4.841
 1080SOL    HW2 4140   1.602   5.362   4.695
 1081SOL     OW 4141   1.695   0.877   0.300
 1081SOL    HW1 4142   1.643   0.855   0.218
 1081SOL    HW2 4143   1.632   0.908   0.372
 1082SOL     OW 4144   2.162   6.823   6.057
 1082SOL    HW1 4145   2.169   6.729   6.023
 1082SOL    HW2 4146   2.251   6.854   6.090
 1083SOL     OW 4147   3.736   3.369   1.219
 1083SOL    HW1 4148   3.715   3.466   1.232
 1083SOL    HW2 4149   3.733   3.322   1.308
 1084SOL     OW 4150   6.211   4.049   0.480
 1084SOL    HW1 4151   6.277   3.992   0.530
 1084SOL    HW2 4152   6.154   4.099   0.545
 1085SOL     OW 4153   2.058   3.926   3.950
 1085SOL    HW1 4154   2.074   3.845   4.007
 1085SOL    HW2 4155   2.070   4.009   4.005
 1086SOL     OW 4156   4.270   4.751   2.199
 1086SOL    HW1 4157   4.287   4.671   2.141
 1086SOL    HW2 4158   4.171   4.765   2.208
 1087SOL     OW 4159   4.442   2.855   5.275
 1087SOL    HW1 4160   4.387   2.933   5.245
 1087SOL    HW2 4161   4.489   2.878   5.360
 1088SOL     OW 4162   4.786   3.939   3.677
 1088SOL    HW1 4163   4.835   3.868   3.627
 1088SOL    HW2 4164   4.688   3.920   3.677
 1089SOL     OW 4165   6.999   0.187   3.159
 1089SOL    HW1 4166   6.936   0.109   3.165
 1089SOL    HW2 4167   0.069   0.157   3.187
 1090SOL     OW 4168   0.813   1.887   5.711
 1090SOL    HW1 4169   0.852   1.970   5.750
 1090SOL    HW2 4170   0.814   1.814   5.779
 1091SOL     OW 4171   1.091   1.959   4.875
 1091SOL    HW1 4172   1.083   2.001   4.785
 1091SOL    HW2 4173   1.188   1.946   4.898
 1092SOL     OW 4174   2.347   4.265   1.222
 1092SOL    HW1 4175   2.311   4.229   1.309
 1092SOL    HW2 4176   2.440   4.298   1.236
 1093SOL     OW 4177   0.605   1.705   2.214
 1093SOL    HW1 4178   0.560   1.681   2.128
 1093SOL    HW2 4179   0.536   1.735   2.280
 1094SOL     OW 4180   0.394   6.304   1.473
 1094SOL    HW1 4181   0.382   6.219   1.523
 1094SOL    HW2 4182   0.367   6.291   1.377
 1095SOL     OW 4183   5.621   3.906   6.118
 1095SOL    HW1 4184   5.718   3.918   6.096
 1095SOL    HW2 4185   5.597   3.962   6.197
 1096SOL     OW 4186   3.390   4.612   1.642
 1096SOL    HW1 4187   3.294   4.617   1.669
 1096SOL    HW2 4188   3.448   4.619   1.723
 1097SOL     OW 4189   1.298   5.240   5.435
 1097SOL    HW1 4190   1.289   5.201   5.344
 1097SOL    HW2 4191   1.208   5.269   5.468
 1098SOL     OW 4192   4.518   1.944   2.355
 1098SOL    HW1 4193   4.462   1.969   2.434
 1098SOL    HW2 4194   4.534   2.025   2.298
 1099SOL     OW 4195   3.936   1.876   3.275
 1099SOL    HW1 4196   3.837   1.891   3.276
 1099SOL    HW2 4197   3.979   1.941   3.213
 1100SOL     OW 4198   0.961   0.816   0.384
 1100SOL    HW1 4199   0.914   0.841   0.469
 1100SOL    HW2 4200   1.060   0.817   0.399
 1101SOL     OW 4201   5.438   2.787   1.182
 1101SOL    HW1 4202   5.437   2.711   1.246
 1101SOL    HW2 4203   5.451   2.753   1.089
 1102SOL     OW 4204   0.636   4.556   3.375
 1102SOL    HW1 4205   0.604   4.463   3.354
 1102SOL    HW2 4206   0.641   4.609   3.291
 1103SOL     OW 4207   0.499   2.976   1.184
 1103SOL    HW1 4208   0.459   2.931   1.264
 1103SOL    HW2 4209   0.598   2.982   1.196
 1104SOL     OW 4210   2.923   4.963   6.395
 1104SOL    HW1 4211   3.018   4.957   6.364
 1104SOL    HW2 4212   2.865   4.992   6.319
 1105SOL     OW 4213   4.393   4.908   6.770
 1105SOL    HW1 4214   4.393   4.813   6.739
 1105SOL    HW2 4215   4.410   4.910   6.869
 1106SOL     OW 4216   0.207   2.316   6.600
 1106SOL    HW1 4217   0.294   2.355   6.628
 1106SOL    HW2 4218   0.222   2.248   6.528
 1107SOL     OW 4219   1.265   0.532   0.640
 1107SOL    HW1 4220   1.304   0.573   0.558
 1107SOL    HW2 4221   1.262   0.600   0.713
 1108SOL     OW 4222   0.573   1.897   4.837
 1108SOL    HW1 4223   0.640   1.952   4.887
 1108SOL    HW2 4224   0.559   1.810   4.885
 1109SOL     OW 4225   4.812   0.633   3.987
 1109SOL    HW1 4226   4.762   0.593   3.910
 1109SOL    HW2 4227   4.790   0.730   3.993
 1110SOL     OW 4228   3.056   3.057   2.210
 1110SOL    HW1 4229   3.084   3.052   2.114
 1110SOL    HW2 4230   2.983   3.125   2.220
 1111SOL     OW 4231   5.702   0.192   0.052
 1111SOL    HW1 4232   5.759   0.210   0.132
 1111SOL    HW2 4233   5.712   0.096   0.026
 1112SOL     OW 4234   6.386   0.649   2.445
 1112SOL    HW1 4235   6.448   0.616   2.517
 1112SOL    HW2 4236   6.390   0.749   2.442
 1113SOL     OW 4237   6.671   3.791   2.022
 1113SOL    HW1 4238   6.594   3.849   2.050
 1113SOL    HW2 4239   6.655   3.697   2.052
 1114SOL     OW 4240   4.779   1.142   4.619
 1114SOL    HW1 4241   4.789   1.184   4.529
 1114SOL    HW2 4242   4.808   1.207   4.689
 1115SOL     OW 4243   2.664   3.490   0.951
 1115SOL    HW1 4244   2.657   3.399   0.992
 1115SOL    HW2 4245   2.756   3.504   0.915
 1116SOL     OW 4246   4.717   6.799   4.448
 1116SOL    HW1 4247   4.803   6.755   4.423
 1116SOL    HW2 4248   4.653   6.793   4.371
 1117SOL     OW 4249   2.741   3.330   1.405
 1117SOL    HW1 4250   2.687   3.246   1.400
 1117SOL    HW2 4251   2.685   3.402   1.446
 1118SOL     OW 4252   2.168   3.359   3.660
 1118SOL    HW1 4253   2.258   3.361   3.617
 1118SOL    HW2 4254   2.131   3.452   3.663
 1119SOL     OW 4255   4.031   3.787   1.805
 1119SOL    HW1 4256   3.980   3.869   1.832
 1119SOL    HW2 4257   4.122   3.815   1.774
 1120SOL     OW 4258   4.296   1.064   4.415
 1120SOL    HW1 4259   4.370   1.088   4.477
 1120SOL    HW2 4260   4.291   0.965   4.405
 1121SOL     OW 4261   5.343   2.872   2.101
 1121SOL    HW1 4262   5.338   2.809   2.024
 1121SOL    HW2 4263   5.412   2.942   2.082
 1122SOL     OW 4264   5.050   4.238   6.941
 1122SOL    HW1 4265   5.034   4.178   6.863
 1122SOL    HW2 4266   5.087   4.325   6.909
 1123SOL     OW 4267   3.528   0.220   2.570
 1123SOL    HW1 4268   3.627   0.235   2.570
 1123SOL    HW2 4269   3.490   0.251   2.483
 1124SOL     OW 4270   0.948   3.917   4.508
 1124SOL    HW1 4271   0.937   3.823   4.478
 1124SOL    HW2 4272   1.044   3.934   4.530
 1125SOL     OW 4273   3.521   3.326   5.226
 1125SOL    HW1 4274   3.516   3.241   5.173
 1125SOL    HW2 4275   3.430   3.348   5.263
 1126SOL     OW 4276   5.254   6.553   2.011
 1126SOL    HW1 4277   5.275   6.643   2.051
 1126SOL    HW2 4278   5.301   6.482   2.064
 1127SOL     OW 4279   1.527   4.978   6.747
 1127SOL    HW1 4280   1.500   4.997   6.653
 1127SOL    HW2 4281   1.626   4.988   6.756
 1128SOL     OW 4282   2.775   1.995   5.009
 1128SOL    HW1 4283   2.729   2.042   5.084
 1128SOL    HW2 4284   2.752   2.039   4.923
 1129SOL     OW 4285   5.401   0.512   6.888
 1129SOL    HW1 4286   5.377   0.596   6.937
 1129SOL    HW2 4287   5.490   0.480   6.919
 1130SOL     OW 4288   0.164   4.632   6.562
 1130SOL    HW1 4289   0.065   4.623   6.547
 1130SOL    HW2 4290   0.213   4.592   6.485
 1131SOL     OW 4291   0.783   5.375   5.537
 1131SOL    HW1 4292   0.703   5.316   5.526
 1131SOL    HW2 4293   0.753   5.470   5.545
 1132SOL     OW 4294   5.704   0.139   5.743
 1132SOL    HW1 4295   5.612   0.167   5.716
 1132SOL    HW2 4296   5.711   0.137   5.843
 1133SOL     OW 4297   0.211   3.674   1.547
 1133SOL    HW1 4298   0.274   3.636   1.479
 1133SOL    HW2 4299   0.255   3.675   1.637
 1134SOL     OW 4300   5.293   2.442   6.156
 1134SOL    HW1 4301   5.390   2.426   6.173
 1134SOL    HW2 4302   5.265   2.397   6.072
 1135SOL     OW 4303   3.003   2.189   2.917
 1135SOL    HW1 4304   3.038   2.097   2.905
 1135SOL    HW2 4305   2.985   2.206   3.014
 1136SOL     OW 4306   3.295   5.253   4.009
 1136SOL    HW1 4307   3.333   5.252   3.917
 1136SOL    HW2 4308   3.338   5.326   4.062
 1137SOL     OW 4309   1.724   0.914   6.035
 1137SOL    HW1 4310   1.644   0.900   6.094
 1137SOL    HW2 4311   1.746   1.012   6.033
 1138SOL     OW 4312   0.938   3.978   5.519
 1138SOL    HW1 4313   0.872   3.905   5.504
 1138SOL    HW2 4314   0.907   4.037   5.593
 1139SOL     OW 4315   1.528   6.459   1.921
 1139SOL    HW1 4316   1.536   6.398   1.843
 1139SOL    HW2 4317   1.457   6.528   1.902
 1140SOL     OW 4318   4.015   1.545   3.697
 1140SOL    HW1 4319   3.941   1.484   3.726
 1140SOL    HW2 4320   3.992   1.584   3.608
 1141SOL     OW 4321   6.401   5.369   5.464
 1141SOL    HW1 4322   6.329   5.438   5.476
 1141SOL    HW2 4323   6.366   5.295   5.406
 1142SOL     OW 4324   6.281   0.770   4.073
 1142SOL    HW1 4325   6.335   0.711   4.013
 1142SOL    HW2 4326   6.264   0.857   4.028
 1143SOL     OW 4327   4.326   2.049   2.524
 1143SOL    HW1 4328   4.373   2.037   2.611
 1143SOL    HW2 4329   4.269   2.131   2.528
 1144SOL     OW 4330   0.146   5.622   4.982
 1144SOL    HW1 4331   0.088   5.541   4.977
 1144SOL    HW2 4332   0.121   5.686   4.910
 1145SOL     OW 4333   1.058   5.681   4.741
 1145SOL    HW1 4334   1.137   5.652   4.688
 1145SOL    HW2 4335   1.007   5.751   4.691
 1146SOL     OW 4336   5.765   2.066   0.754
 1146SOL    HW1 4337   5.857   2.070   0.716
 1146SOL    HW2 4338   5.720   1.983   0.724
 1147SOL     OW 4339   6.648   2.553   1.793
 1147SOL    HW1 4340   6.731   2.528   1.743
 1147SOL    HW2 4341   6.594   2.616   1.737
 1148SOL     OW 4342   3.860   0.372   0.411
 1148SOL    HW1 4343   3.927   0.301   0.391
 1148SOL    HW2 4344   3.768   0.333   0.409
 1149SOL     OW 4345   6.354   3.077   2.430
 1149SOL    HW1 4346   6.308   3.029   2.504
 1149SOL    HW2 4347   6.452   3.081   2.448
 1150SOL     OW 4348   1.451   4.718   6.854
 1150SOL    HW1 4349   1.491   4.788   6.794
 1150SOL    HW2 4350   1.514   4.641   6.861
 1151SOL     OW 4351   4.767   5.305   6.524
 1151SOL    HW1 4352   4.778   5.255   6.609
 1151SOL    HW2 4353   4.856   5.314   6.479
 1152SOL     OW 4354   0.981   0.445   4.736
 1152SOL    HW1 4355   1.072   0.474   4.766
 1152SOL    HW2 4356   0.983   0.349   4.709
 1153SOL     OW 4357   2.237   5.090   2.955
 1153SOL    HW1 4358   2.252   5.045   2.867
 1153SOL    HW2 4359   2.322   5.088   3.009
 1154SOL     OW 4360   1.224   5.377   1.663
 1154SOL    HW1 4361   1.272   5.359   1.577
 1154SOL    HW2 4362   1.126   5.371   1.649
 1155SOL     OW 4363   3.749   6.171   2.080
 1155SOL    HW1 4364   3.662   6.138   2.044
 1155SOL    HW2 4365   3.823   6.110   2.051
 1156SOL     OW 4366   2.410   0.310   4.169
 1156SOL    HW1 4367   2.340   0.347   4.232
 1156SOL    HW2 4368   2.406   0.210   4.170
 1157SOL     OW 4369   0.786   2.786   3.961
 1157SOL    HW1 4370   0.686   2.780   3.959
 1157SOL    HW2 4371   0.814   2.848   4.033
 1158SOL     OW 4372   4.557   5.459   5.300
 1158SOL    HW1 4373   4.651   5.480   5.327
 1158SOL    HW2 4374   4.551   5.363   5.273
 1159SOL     OW 4375   4.597   4.751   3.544
 1159SOL    HW1 4376   4.565   4.657   3.548
 1159SOL    HW2 4377   4.625   4.773   3.451
 1160SOL     OW 4378   3.004   3.804   0.778
 1160SOL    HW1 4379   2.992   3.845   0.687
 1160SOL    HW2 4380   2.960   3.714   0.779
 1161SOL     OW 4381   5.192   0.679   3.610
 1161SOL    HW1 4382   5.097   0.665   3.583
 1161SOL    HW2 4383   5.195   0.734   3.694
 1162SOL     OW 4384   3.645   4.132   1.731
 1162SOL    HW1 4385   3.640   4.126   1.830
 1162SOL    HW2 4386   3.630   4.227   1.702
 1163SOL     OW 4387   5.286   2.421   2.984
 1163SOL    HW1 4388   5.228   2.476   2.924
 1163SOL    HW2 4389   5.375   2.409   2.941
 1164SOL     OW 4390   5.651   3.470   3.945
 1164SOL    HW1 4391   5.623   3.392   4.001
 1164SOL    HW2 4392   5.591   3.477   3.865
 1165SOL     OW 4393   0.840   5.295   2.975
 1165SOL    HW1 4394   0.811   5.297   2.880
 1165SOL    HW2 4395   0.917   5.231   2.986
 1166SOL     OW 4396   4.178   2.945   6.542
 1166SOL    HW1 4397   4.133   2.857   6.557
 1166SOL    HW2 4398   4.264   2.947   6.594
 1167SOL     OW 4399   4.776   1.566   5.170
 1167SOL    HW1 4400   4.827   1.583   5.254
 1167SOL    HW2 4401   4.708   1.494   5.186
 1168SOL     OW 4402   5.958   6.352   3.108
 1168SOL    HW1 4403   5.997   6.363   3.199
 1168SOL    HW2 4404   5.901   6.431   3.086
 1169SOL     OW 4405   0.730   3.409   1.881
 1169SOL    HW1 4406   0.725   3.508   1.866
 1169SOL    HW2 4407   0.771   3.391   1.970
 1170SOL     OW 4408   2.830   0.709   1.057
 1170SOL    HW1 4409   2.900   0.694   0.988
 1170SOL    HW2 4410   2.818   0.626   1.113
 1171SOL     OW 4411   2.842   6.343   0.336
 1171SOL    HW1 4412   2.933   6.380   0.315
 1171SOL    HW2 4413   2.792   6.327   0.251
 1172SOL     OW 4414   3.080   3.576   5.139
 1172SOL    HW1 4415   3.048   3.632   5.215
 1172SOL    HW2 4416   3.057   3.620   5.053
 1173SOL     OW 4417   3.645   0.996   6.318
 1173SOL    HW1 4418   3.597   1.010   6.232
 1173SOL    HW2 4419   3.743   0.982   6.300
 1174SOL     OW 4420   2.982   6.131   0.842
 1174SOL    HW1 4421   2.932   6.172   0.766
 1174SOL    HW2 4422   2.917   6.103   0.913
 1175SOL     OW 4423   6.070   4.945   5.965
 1175SOL    HW1 4424   6.096   4.876   5.898
 1175SOL    HW2 4425   6.152   4.995   5.995
 1176SOL     OW 4426   6.132   4.364   0.631
 1176SOL    HW1 4427   6.090   4.278   0.657
 1176SOL    HW2 4428   6.067   4.419   0.578
 1177SOL     OW 4429   6.382   2.485   6.597
 1177SOL    HW1 4430   6.435   2.420   6.544
 1177SOL    HW2 4431   6.298   2.442   6.629
 1178SOL     OW 4432   6.013   4.014   1.992
 1178SOL    HW1 4433   5.920   3.978   1.980
 1178SOL    HW2 4434   6.011   4.114   1.981
 1179SOL     OW 4435   2.613   5.772   6.195
 1179SOL    HW1 4436   2.594   5.676   6.176
 1179SOL    HW2 4437   2.708   5.793   6.171
 1180SOL     OW 4438   2.611   2.032   4.320
 1180SOL    HW1 4439   2.560   1.948   4.341
 1180SOL    HW2 4440   2.547   2.101   4.287
 1181SOL     OW 4441   2.175   4.373   2.903
 1181SOL    HW1 4442   2.096   4.428   2.874
 1181SOL    HW2 4443   2.254   4.433   2.916
 1182SOL     OW 4444   1.800   4.204   3.294
 1182SOL    HW1 4445   1.855   4.126   3.322
 1182SOL    HW2 4446   1.725   4.218   3.359
 1183SOL     OW 4447   4.510   5.495   1.322
 1183SOL    HW1 4448   4.429   5.508   1.378
 1183SOL    HW2 4449   4.487   5.445   1.239
 1184SOL     OW 4450   2.979   2.881   5.359
 1184SOL    HW1 4451   2.911   2.954   5.355
 1184SOL    HW2 4452   3.016   2.875   5.452
 1185SOL     OW 4453   1.925   1.218   6.885
 1185SOL    HW1 4454   1.854   1.240   6.819
 1185SOL    HW2 4455   1.929   1.289   6.955
 1186SOL     OW 4456   4.589   1.641   4.967
 1186SOL    HW1 4457   4.631   1.675   4.883
 1186SOL    HW2 4458   4.659   1.628   5.037
 1187SOL     OW 4459   6.784   0.837   5.548
 1187SOL    HW1 4460   6.859   0.811   5.487
 1187SOL    HW2 4461   6.796   0.931   5.578
 1188SOL     OW 4462   1.411   0.150   5.779
 1188SOL    HW1 4463   1.357   0.168   5.861
 1188SOL    HW2 4464   1.502   0.192   5.789
 1189SOL     OW 4465   5.844   1.212   2.208
 1189SOL    HW1 4466   5.874   1.249   2.120
 1189SOL    HW2 4467   5.911   1.145   2.240
 1190SOL     OW 4468   4.184   5.192   2.967
 1190SOL    HW1 4469   4.221   5.117   2.911
 1190SOL    HW2 4470   4.163   5.158   3.059
 1191SOL     OW 4471   3.387   5.426   6.371
 1191SOL    HW1 4472   3.292   5.400   6.354
 1191SOL    HW2 4473   3.405   5.516   6.333
 1192SOL     OW 4474   5.197   5.281   2.620
 1192SOL    HW1 4475   5.134   5.229   2.678
 1192SOL    HW2 4476   5.216   5.370   2.663
 1193SOL     OW 4477   4.662   0.612   3.753
 1193SOL    HW1 4478   4.576   0.578   3.792
 1193SOL    HW2 4479   4.650   0.707   3.723
 1194SOL     OW 4480   6.004   0.101   0.932
 1194SOL    HW1 4481   6.054   0.165   0.873
 1194SOL    HW2 4482   5.909   0.131   0.939
 1195SOL     OW 4483   4.438   0.756   6.254
 1195SOL    HW1 4484   4.398   0.713   6.173
 1195SOL    HW2 4485   4.365   0.791   6.313
 1196SOL     OW 4486   0.798   5.447   2.330
 1196SOL    HW1 4487   0.884   5.401   2.311
 1196SOL    HW2 4488   0.722   5.387   2.307
 1197SOL     OW 4489   3.504   5.112   6.059
 1197SOL    HW1 4490   3.543   5.186   6.113
 1197SOL    HW2 4491   3.428   5.070   6.110
 1198SOL     OW 4492   2.749   1.731   2.906
 1198SOL    HW1 4493   2.652   1.706   2.908
 1198SOL    HW2 4494   2.778   1.762   2.997
 1199SOL     OW 4495   4.121   3.630   3.107
 1199SOL    HW1 4496   4.206   3.583   3.130
 1199SOL    HW2 4497   4.097   3.611   3.012
 1200SOL     OW 4498   3.107   4.049   0.344
 1200SOL    HW1 4499   3.044   4.036   0.421
 1200SOL    HW2 4500   3.176   3.977   0.345
 1201SOL     OW 4501   1.108   0.858   5.310
 1201SOL    HW1 4502   1.179   0.927   5.297
 1201SOL    HW2 4503   1.034   0.896   5.366
 1202SOL     OW 4504   6.214   0.044   4.498
 1202SOL    HW1 4505   6.239   0.038   4.595
 1202SOL    HW2 4506   6.124   0.003   4.484
 1203SOL     OW 4507   5.457   0.359   1.604
 1203SOL    HW1 4508   5.360   0.378   1.614
 1203SOL    HW2 4509   5.470   0.286   1.537
 1204SOL     OW 4510   3.063   0.588   0.363
 1204SOL    HW1 4511   3.145   0.616   0.313
 1204SOL    HW2 4512   3.027   0.503   0.323
 1205SOL     OW 4513   0.268   2.822   5.685
 1205SOL    HW1 4514   0.174   2.850   5.705
 1205SOL    HW2 4515   0.275   2.722   5.692
 1206SOL     OW 4516   1.800   1.335   4.790
 1206SOL    HW1 4517   1.738   1.277   4.844
 1206SOL    HW2 4518   1.888   1.343   4.838
 1207SOL     OW 4519   5.439   6.982   6.616
 1207SOL    HW1 4520   5.466   0.055   6.602
 1207SOL    HW2 4521   5.520   6.926   6.632
 1208SOL     OW 4522   4.081   3.602   3.714
 1208SOL    HW1 4523   4.133   3.555   3.642
 1208SOL    HW2 4524   4.033   3.535   3.770
 1209SOL     OW 4525   6.174   5.307   4.367
 1209SOL    HW1 4526   6.263   5.304   4.411
 1209SOL    HW2 4527   6.181   5.268   4.275
 1210SOL     OW 4528   3.350   6.623   2.561
 1210SOL    HW1 4529   3.443   6.589   2.546
 1210SOL    HW2 4530   3.285   6.566   2.511
 1211SOL     OW 4531   0.689   4.015   4.512
 1211SOL    HW1 4532   0.682   4.068   4.597
 1211SOL    HW2 4533   0.775   3.965   4.511
 1212SOL     OW 4534   1.931   4.076   4.945
 1212SOL    HW1 4535   1.965   4.161   4.985
 1212SOL    HW2 4536   1.844   4.094   4.898
 1213SOL     OW 4537   5.797   2.252   5.872
 1213SOL    HW1 4538   5.784   2.254   5.773
 1213SOL    HW2 4539   5.709   2.243   5.918
 1214SOL     OW 4540   2.090   2.956   3.520
 1214SOL    HW1 4541   2.078   3.029   3.452
 1214SOL    HW2 4542   2.052   2.986   3.607
 1215SOL     OW 4543   0.762   4.508   1.788
 1215SOL    HW1 4544   0.711   4.592   1.765
 1215SOL    HW2 4545   0.852   4.511   1.745
 1216SOL     OW 4546   2.519   0.389   1.966
 1216SOL    HW1 4547   2.478   0.308   2.008
 1216SOL    HW2 4548   2.574   0.437   2.034
 1217SOL     OW 4549   1.082   0.370   2.165
 1217SOL    HW1 4550   1.141   0.292   2.144
 1217SOL    HW2 4551   1.136   0.443   2.206
 1218SOL     OW 4552   0.695   3.835   3.114
 1218SOL    HW1 4553   0.628   3.767   3.145
 1218SOL    HW2 4554   0.760   3.792   3.052
 1219SOL     OW 4555   3.021   5.715   2.281
 1219SOL    HW1 4556   2.982   5.686   2.368
 1219SOL    HW2 4557   3.116   5.687   2.275
 1220SOL     OW 4558   6.162   3.653   3.414
 1220SOL    HW1 4559   6.098   3.705   3.471
 1220SOL    HW2 4560   6.231   3.715   3.376
 1221SOL     OW 4561   4.759   3.324   6.990
 1221SOL    HW1 4562   4.743   3.328   6.892
 1221SOL    HW2 4563   4.705   3.249   0.007
 1222SOL     OW 4564   6.635   6.218   1.340
 1222SOL    HW1 4565   6.615   6.181   1.249
 1222SOL    HW2 4566   6.716   6.277   1.334
 1223SOL     OW 4567   6.408   6.517   5.609
 1223SOL    HW1 4568   6.392   6.592   5.672
 1223SOL    HW2 4569   6.332   6.510   5.545
 1224SOL     OW 4570   5.596   4.854   2.269
 1224SOL    HW1 4571   5.602   4.762   2.232
 1224SOL    HW2 4572   5.519   4.902   2.227
 1225SOL     OW 4573   4.750   2.197   6.829
 1225SOL    HW1 4574   4.679   2.229   6.891
 1225SOL    HW2 4575   4.840   2.218   6.868
 1226SOL     OW 4576   5.522   5.578   1.070
 1226SOL    HW1 4577   5.495   5.572   1.166
 1226SOL    HW2 4578   5.539   5.486   1.034
 1227SOL     OW 4579   4.602   4.126   6.421
 1227SOL    HW1 4580   4.653   4.212   6.425
 1227SOL    HW2 4581   4.563   4.114   6.330
 1228SOL     OW 4582   3.692   2.979   3.166
 1228SOL    HW1 4583   3.790   2.966   3.149
 1228SOL    HW2 4584   3.680   3.029   3.252
 1229SOL     OW 4585   2.155   5.336   3.022
 1229SOL    HW1 4586   2.182   5.240   3.018
 1229SOL    HW2 4587   2.220   5.391   2.969
 1230SOL     OW 4588   5.488   5.047   1.193
 1230SOL    HW1 4589   5.475   5.142   1.219
 1230SOL    HW2 4590   5.413   4.991   1.230
 1231SOL     OW 4591   1.461   2.306   6.458
 1231SOL    HW1 4592   1.493   2.230   6.514
 1231SOL    HW2 4593   1.538   2.345   6.407
 1232SOL     OW 4594   3.247   0.375   5.599
 1232SOL    HW1 4595   3.176   0.316   5.560
 1232SOL    HW2 4596   3.297   0.325   5.669
 1233SOL     OW 4597   0.490   5.484   5.205
 1233SOL    HW1 4598   0.575   5.452   5.164
 1233SOL    HW2 4599   0.510   5.543   5.283
 1234SOL     OW 4600   0.006   3.425   6.996
 1234SOL    HW1 4601   6.988   3.394   0.060
 1234SOL    HW2 4602   0.101   3.393   6.990
 1235SOL     OW 4603   5.993   4.967   0.970
 1235SOL    HW1 4604   5.916   4.905   0.990
 1235SOL    HW2 4605   6.071   4.913   0.937
 1236SOL     OW 4606   1.242   2.026   2.298
 1236SOL    HW1 4607   1.216   2.039   2.394
 1236SOL    HW2 4608   1.196   2.094   2.241
 1237SOL     OW 4609   0.599   7.020   4.935
 1237SOL    HW1 4610   0.662   0.068   4.900
 1237SOL    HW2 4611   0.594   0.005   5.035
 1238SOL     OW 4612   0.098   0.322   4.808
 1238SOL    HW1 4613   0.089   0.373   4.893
 1238SOL    HW2 4614   0.007   0.302   4.771
 1239SOL     OW 4615   5.523   4.671   4.909
 1239SOL    HW1 4616   5.575   4.644   4.828
 1239SOL    HW2 4617   5.458   4.743   4.885
 1240SOL     OW 4618   6.740   4.461   2.906
 1240SOL    HW1 4619   6.806   4.416   2.846
 1240SOL    HW2 4620   6.789   4.517   2.973
 1241SOL     OW 4621   4.523   5.161   5.239
 1241SOL    HW1 4622   4.609   5.119   5.211
 1241SOL    HW2 4623   4.447   5.113   5.195
 1242SOL     OW 4624   1.143   5.211   6.936
 1242SOL    HW1 4625   1.050   5.196   6.970
 1242SOL    HW2 4626   1.171   5.133   6.880
 1243SOL     OW 4627   1.462   4.259   4.738
 1243SOL    HW1 4628   1.391   4.260   4.667
 1243SOL    HW2 4629   1.438   4.325   4.809
 1244SOL     OW 4630   5.797   0.324   5.488
 1244SOL    HW1 4631   5.818   0.348   5.582
 1244SOL    HW2 4632   5.863   0.367   5.426
 1245SOL     OW 4633   4.720   0.062   1.001
 1245SOL    HW1 4634   4.678   0.034   0.914
 1245SOL    HW2 4635   4.787   7.015   1.029
 1246SOL     OW 4636   4.987   1.086   7.000
 1246SOL    HW1 4637   4.990   1.161   0.044
 1246SOL    HW2 4638   4.971   1.000   0.026
 1247SOL     OW 4639   0.148   6.750   3.670
 1247SOL    HW1 4640   0.080   6.677   3.678
 1247SOL    HW2 4641   0.125   6.824   3.734
 1248SOL     OW 4642   1.177   6.426   4.058
 1248SOL    HW1 4643   1.110   6.368   4.013
 1248SOL    HW2 4644   1.269   6.387   4.045
 1249SOL     OW 4645   5.503   5.183   6.831
 1249SOL    HW1 4646   5.445   5.264   6.820
 1249SOL    HW2 4647   5.573   5.202   6.900
 1250SOL     OW 4648   6.592   3.252   5.042
 1250SOL    HW1 4649   6.534   3.287   4.969
 1250SOL    HW2 4650   6.688   3.257   5.014
 1251SOL     OW 4651   3.136   0.571   2.385
 1251SOL    HW1 4652   3.054   0.595   2.435
 1251SOL    HW2 4653   3.128   0.602   2.290
 1252SOL     OW 4654   1.747   5.753   6.659
 1252SOL    HW1 4655   1.757   5.845   6.694
 1252SOL    HW2 4656   1.651   5.737   6.634
 1253SOL     OW 4657   3.318   1.007   1.209
 1253SOL    HW1 4658   3.405   1.045   1.178
 1253SOL    HW2 4659   3.253   1.006   1.134
 1254SOL     OW 4660   6.180   0.808   2.081
 1254SOL    HW1 4661   6.268   0.777   2.119
 1254SOL    HW2 4662   6.136   0.732   2.034
 1255SOL     OW 4663   5.579   1.739   5.432
 1255SOL    HW1 4664   5.638   1.785   5.498
 1255SOL    HW2 4665   5.545   1.654   5.473
 1256SOL     OW 4666   1.248   5.631   3.764
 1256SOL    HW1 4667   1.251   5.546   3.817
 1256SOL    HW2 4668   1.203   5.702   3.818
 1257SOL     OW 4669   0.796   5.899   3.866
 1257SOL    HW1 4670   0.861   5.973   3.881
 1257SOL    HW2 4671   0.843   5.811   3.874
 1258SOL     OW 4672   4.604   6.836   4.877
 1258SOL    HW1 4673   4.570   6.914   4.825
 1258SOL    HW2 4674   4.537   6.762   4.875
 1259SOL     OW 4675   6.138   0.366   4.358
 1259SOL    HW1 4676   6.186   0.414   4.431
 1259SOL    HW2 4677   6.130   0.269   4.382
 1260SOL     OW 4678   2.526   1.026   1.804
 1260SOL    HW1 4679   2.480   0.941   1.778
 1260SOL    HW2 4680   2.499   1.099   1.741
 1261SOL     OW 4681   6.386   4.449   6.136
 1261SOL    HW1 4682   6.470   4.498   6.110
 1261SOL    HW2 4683   6.308   4.488   6.088
 1262SOL     OW 4684   4.613   5.073   0.819
 1262SOL    HW1 4685   4.524   5.029   0.828
 1262SOL    HW2 4686   4.682   5.005   0.798
 1263SOL     OW 4687   6.829   2.096   1.154
 1263SOL    HW1 4688   6.760   2.026   1.138
 1263SOL    HW2 4689   6.794   2.161   1.222
 1264SOL     OW 4690   0.343   3.302   3.340
 1264SOL    HW1 4691   0.329   3.311   3.242
 1264SOL    HW2 4692   0.262   3.336   3.389
 1265SOL     OW 4693   6.478   5.222   5.026
 1265SOL    HW1 4694   6.512   5.314   5.007
 1265SOL    HW2 4695   6.391   5.208   4.980
 1266SOL     OW 4696   2.538   2.077   4.636
 1266SOL    HW1 4697   2.594   2.126   4.569
 1266SOL    HW2 4698   2.559   1.979   4.632
 1267SOL     OW 4699   0.054   5.099   2.829
 1267SOL    HW1 4700   0.095   5.183   2.792
 1267SOL    HW2 4701   0.089   5.083   2.921
 1268SOL     OW 4702   6.185   3.287   0.126
 1268SOL    HW1 4703   6.119   3.355   0.095
 1268SOL    HW2 4704   6.177   3.205   0.069
 1269SOL     OW 4705   6.907   5.339   5.451
 1269SOL    HW1 4706   6.907   5.371   5.356
 1269SOL    HW2 4707   6.997   5.356   5.491
 1270SOL     OW 4708   1.927   3.101   4.977
 1270SOL    HW1 4709   1.911   3.199   4.989
 1270SOL    HW2 4710   1.840   3.054   4.965
 1271SOL     OW 4711   4.527   0.610   2.442
 1271SOL    HW1 4712   4.443   0.646   2.484
 1271SOL    HW2 4713   4.531   0.639   2.346
 1272SOL     OW 4714   0.564   5.848   1.880
 1272SOL    HW1 4715   0.607   5.807   1.800
 1272SOL    HW2 4716   0.480   5.798   1.902
 1273SOL     OW 4717   2.733   6.301   6.700
 1273SOL    HW1 4718   2.667   6.313   6.774
 1273SOL    HW2 4719   2.712   6.364   6.625
 1274SOL     OW 4720   0.153   2.103   1.479
 1274SOL    HW1 4721   0.157   2.056   1.391
 1274SOL    HW2 4722   0.209   2.054   1.546
 1275SOL     OW 4723   3.309   1.860   4.058
 1275SOL    HW1 4724   3.284   1.957   4.054
 1275SOL    HW2 4725   3.406   1.851   4.079
 1276SOL     OW 4726   6.497   0.308   3.428
 1276SOL    HW1 4727   6.453   0.361   3.355
 1276SOL    HW2 4728   6.524   0.369   3.502
 1277SOL     OW 4729   0.231   0.717   5.279
 1277SOL    HW1 4730   0.262   0.810   5.296
 1277SOL    HW2 4731   0.157   0.695   5.343
 1278SOL     OW 4732   2.148   1.938   5.901
 1278SOL    HW1 4733   2.168   1.860   5.960
 1278SOL    HW2 4734   2.209   2.014   5.923
 1279SOL     OW 4735   2.431   5.087   0.191
 1279SOL    HW1 4736   2.344   5.060   0.150
 1279SOL    HW2 4737   2.422   5.089   0.291
 1280SOL     OW 4738   2.244   7.014   3.261
 1280SOL    HW1 4739   2.171   6.948   3.276
 1280SOL    HW2 4740   2.267   7.017   3.164
 1281SOL     OW 4741   1.160   6.355   3.409
 1281SOL    HW1 4742   1.094   6.430   3.408
 1281SOL    HW2 4743   1.141   6.292   3.333
 1282SOL     OW 4744   0.316   0.978   1.823
 1282SOL    HW1 4745   0.393   0.914   1.821
 1282SOL    HW2 4746   0.328   1.048   1.753
 1283SOL     OW 4747   5.901   5.521   5.390
 1283SOL    HW1 4748   5.847   5.479   5.462
 1283SOL    HW2 4749   5.884   5.473   5.303
 1284SOL     OW 4750   2.710   2.465   1.814
 1284SOL    HW1 4751   2.631   2.508   1.858
 1284SOL    HW2 4752   2.763   2.415   1.882
 1285SOL     OW 4753   4.308   2.610   5.352
 1285SOL    HW1 4754   4.352   2.700   5.346
 1285SOL    HW2 4755   4.224   2.610   5.298
 1286SOL     OW 4756   5.997   4.822   1.903
 1286SOL    HW1 4757   6.025   4.766   1.825
 1286SOL    HW2 4758   6.055   4.904   1.907
 1287SOL     OW 4759   0.144   5.784   6.619
 1287SOL    HW1 4760   0.099   5.866   6.584
 1287SOL    HW2 4761   0.145   5.714   6.548
 1288SOL     OW 4762   6.143   3.223   1.521
 1288SOL    HW1 4763   6.146   3.147   1.586
 1288SOL    HW2 4764   6.130   3.187   1.429
 1289SOL     OW 4765   0.855   5.912   2.729
 1289SOL    HW1 4766   0.800   5.828   2.726
 1289SOL    HW2 4767   0.795   5.991   2.712
 1290SOL     OW 4768   0.785   5.968   1.143
 1290SOL    HW1 4769   0.809   5.909   1.220
 1290SOL    HW2 4770   0.693   6.004   1.156
 1291SOL     OW 4771   2.130   6.017   6.843
 1291SOL    HW1 4772   2.107   5.982   6.752
 1291SOL    HW2 4773   2.114   6.116   6.845
 1292SOL     OW 4774   1.236   5.887   0.609
 1292SOL    HW1 4775   1.264   5.961   0.671
 1292SOL    HW2 4776   1.169   5.923   0.543
 1293SOL     OW 4777   0.329   2.256   6.156
 1293SOL    HW1 4778   0.422   2.222   6.171
 1293SOL    HW2 4779   0.330   2.324   6.083
 1294SOL     OW 4780   0.751   2.306   2.331
 1294SOL    HW1 4781   0.789   2.384   2.380
 1294SOL    HW2 4782   0.784   2.221   2.371
 1295SOL     OW 4783   5.806   2.484   1.645
 1295SOL    HW1 4784   5.879   2.520   1.704
 1295SOL    HW2 4785   5.734   2.552   1.638
 1296SOL     OW 4786   3.446   1.774   6.206
 1296SOL    HW1 4787   3.521   1.826   6.247
 1296SOL    HW2 4788   3.370   1.769   6.271
 1297SOL     OW 4789   6.459   1.472   5.960
 1297SOL    HW1 4790   6.536   1.486   6.023
 1297SOL    HW2 4791   6.433   1.375   5.962
 1298SOL     OW 4792   5.709   2.599   3.342
 1298SOL    HW1 4793   5.789   2.658   3.347
 1298SOL    HW2 4794   5.715   2.542   3.260
 1299SOL     OW 4795   1.309   3.948   4.054
 1299SOL    HW1 4796   1.250   3.994   4.120
 1299SOL    HW2 4797   1.252   3.896   3.989
 1300SOL     OW 4798   3.617   2.910   1.644
 1300SOL    HW1 4799   3.568   2.823   1.633
 1300SOL    HW2 4800   3.700   2.909   1.589
 1301SOL     OW 4801   1.292   6.997   3.473
 1301SOL    HW1 4802   1.386   7.018   3.502
 1301SOL    HW2 4803   1.292   6.912   3.420
 1302SOL     OW 4804   3.027   6.256   4.898
 1302SOL    HW1 4805   3.104   6.318   4.914
 1302SOL    HW2 4806   3.048   6.199   4.818
 1303SOL     OW 4807   3.661   1.433   1.408
 1303SOL    HW1 4808   3.597   1.365   1.445
 1303SOL    HW2 4809   3.629   1.464   1.318
 1304SOL     OW 4810   3.062   0.704   6.761
 1304SOL    HW1 4811   3.084   0.760   6.681
 1304SOL    HW2 4812   3.006   0.627   6.734
 1305SOL     OW 4813   4.733   0.164   5.250
 1305SOL    HW1 4814   4.668   0.172   5.174
 1305SOL    HW2 4815   4.821   0.131   5.216
 1306SOL     OW 4816   0.642   4.306   4.414
 1306SOL    HW1 4817   0.648   4.215   4.454
 1306SOL    HW2 4818   0.732   4.349   4.415
 1307SOL     OW 4819   1.301   2.039   4.150
 1307SOL    HW1 4820   1.285   2.066   4.245
 1307SOL    HW2 4821   1.326   1.943   4.146
 1308SOL     OW 4822   4.487   5.931   3.653
 1308SOL    HW1 4823   4.587   5.935   3.659
 1308SOL    HW2 4824   4.453   6.014   3.608
 1309SOL     OW 4825   6.363   2.914   4.749
 1309SOL    HW1 4826   6.277   2.863   4.743
 1309SOL    HW2 4827   6.350   3.006   4.711
 1310SOL     OW 4828   5.759   3.742   4.466
 1310SOL    HW1 4829   5.817   3.673   4.424
 1310SOL    HW2 4830   5.790   3.833   4.438
 1311SOL     OW 4831   6.272   5.660   5.256
 1311SOL    HW1 4832   6.348   5.705   5.304
 1311SOL    HW2 4833   6.232   5.724   5.190
 1312SOL     OW 4834   0.731   6.716   0.531
 1312SOL    HW1 4835   0.694   6.763   0.611
 1312SOL    HW2 4836   0.686   6.752   0.449
 1313SOL     OW 4837   3.365   5.181   4.729
 1313SOL    HW1 4838   3.417   5.257   4.767
 1313SOL    HW2 4839   3.335   5.204   4.636
 1314SOL     OW 4840   0.681   1.531   5.270
 1314SOL    HW1 4841   0.693   1.508   5.366
 1314SOL    HW2 4842   0.591   1.574   5.257
 1315SOL     OW 4843   2.158   1.113   2.282
 1315SOL    HW1 4844   2.101   1.176   2.230
 1315SOL    HW2 4845   2.254   1.135   2.267
 1316SOL     OW 4846   2.969   6.815   3.791
 1316SOL    HW1 4847   2.946   6.896   3.738
 1316SOL    HW2 4848   3.013   6.747   3.732
 1317SOL     OW 4849   0.142   5.577   4.204
 1317SOL    HW1 4850   0.234   5.615   4.197
 1317SOL    HW2 4851   0.143   5.497   4.264
 1318SOL     OW 4852   0.151   6.626   0.550
 1318SOL    HW1 4853   0.222   6.555   0.554
 1318SOL    HW2 4854   0.194   6.716   0.543
 1319SOL     OW 4855   6.154   1.263   6.823
 1319SOL    HW1 4856   6.128   1.243   6.729
 1319SOL    HW2 4857   6.222   1.336   6.825
 1320SOL     OW 4858   5.362   5.422   6.003
 1320SOL    HW1 4859   5.418   5.431   6.085
 1320SOL    HW2 4860   5.393   5.344   5.949
 1321SOL     OW 4861   3.415   2.498   6.820
 1321SOL    HW1 4862   3.324   2.527   6.848
 1321SOL    HW2 4863   3.469   2.472   6.900
 1322SOL     OW 4864   6.865   1.284   3.897
 1322SOL    HW1 4865   6.798   1.224   3.940
 1322SOL    HW2 4866   6.834   1.379   3.905
 1323SOL     OW 4867   6.792   1.999   4.599
 1323SOL    HW1 4868   6.807   2.079   4.540
 1323SOL    HW2 4869   6.795   2.028   4.695
 1324SOL     OW 4870   1.555   3.618   1.472
 1324SOL    HW1 4871   1.599   3.537   1.511
 1324SOL    HW2 4872   1.584   3.629   1.377
 1325SOL     OW 4873   2.894   5.896   2.699
 1325SOL    HW1 4874   2.840   5.956   2.639
 1325SOL    HW2 4875   2.922   5.815   2.648
 1326SOL     OW 4876   5.472   3.340   4.338
 1326SOL    HW1 4877   5.532   3.416   4.313
 1326SOL    HW2 4878   5.377   3.370   4.335
 1327SOL     OW 4879   4.040   5.346   3.213
 1327SOL    HW1 4880   4.006   5.403   3.288
 1327SOL    HW2 4881   4.067   5.405   3.137
 1328SOL     OW 4882   2.217   2.550   6.329
 1328SOL    HW1 4883   2.154   2.501   6.390
 1328SOL    HW2 4884   2.308   2.508   6.335
 1329SOL     OW 4885   0.401   1.107   0.504
 1329SOL    HW1 4886   0.390   1.134   0.600
 1329SOL    HW2 4887   0.377   1.185   0.445
 1330SOL     OW 4888   6.602   6.867   1.196
 1330SOL    HW1 4889   6.675   6.934   1.205
 1330SOL    HW2 4890   6.549   6.886   1.114
 1331SOL     OW 4891   4.980   0.533   2.228
 1331SOL    HW1 4892   5.025   0.444   2.217
 1331SOL    HW2 4893   4.915   0.528   2.305
 1332SOL     OW 4894   4.444   1.312   1.324
 1332SOL    HW1 4895   4.504   1.335   1.248
 1332SOL    HW2 4896   4.496   1.313   1.409
 1333SOL     OW 4897   3.936   3.973   4.989
 1333SOL    HW1 4898   3.916   4.031   4.911
 1333SOL    HW2 4899   3.851   3.949   5.035
 1334SOL     OW 4900   6.816   4.226   4.537
 1334SOL    HW1 4901   6.848   4.237   4.631
 1334SOL    HW2 4902   6.886   4.180   4.483
 1335SOL     OW 4903   2.493   5.007   3.133
 1335SOL    HW1 4904   2.517   4.948   3.210
 1335SOL    HW2 4905   2.563   5.077   3.121
 1336SOL     OW 4906   0.510   0.573   5.184
 1336SOL    HW1 4907   0.441   0.560   5.254
 1336SOL    HW2 4908   0.511   0.668   5.154
 1337SOL     OW 4909   1.997   1.897   6.220
 1337SOL    HW1 4910   1.949   1.963   6.163
 1337SOL    HW2 4911   2.075   1.942   6.264
 1338SOL     OW 4912   4.279   5.303   0.131
 1338SOL    HW1 4913   4.195   5.250   0.121
 1338SOL    HW2 4914   4.268   5.391   0.086
 1339SOL     OW 4915   6.379   4.244   5.383
 1339SOL    HW1 4916   6.407   4.184   5.308
 1339SOL    HW2 4917   6.456   4.301   5.410
 1340SOL     OW 4918   1.265   2.030   0.605
 1340SOL    HW1 4919   1.350   2.076   0.630
 1340SOL    HW2 4920   1.285   1.956   0.541
 1341SOL     OW 4921   3.597   1.392   3.972
 1341SOL    HW1 4922   3.554   1.429   3.889
 1341SOL    HW2 4923   3.633   1.468   4.027
 1342SOL     OW 4924   0.262   6.618   0.823
 1342SOL    HW1 4925   0.283   6.661   0.735
 1342SOL    HW2 4926   0.287   6.521   0.820
 1343SOL     OW 4927   3.994   5.460   3.595
 1343SOL    HW1 4928   3.945   5.388   3.545
 1343SOL    HW2 4929   3.997   5.543   3.540
 1344SOL     OW 4930   6.202   1.174   2.842
 1344SOL    HW1 4931   6.213   1.103   2.773
 1344SOL    HW2 4932   6.238   1.261   2.807
 1345SOL     OW 4933   0.351   0.156   2.643
 1345SOL    HW1 4934   0.371   0.137   2.547
 1345SOL    HW2 4935   0.431   0.133   2.699
 1346SOL     OW 4936   0.282   0.688   3.738
 1346SOL    HW1 4937   0.214   0.760   3.750
 1346SOL    HW2 4938   0.318   0.692   3.645
 1347SOL     OW 4939   6.146   0.065   3.549
 1347SOL    HW1 4940   6.133   0.010   3.467
 1347SOL    HW2 4941   6.154   0.005   3.628
 1348SOL     OW 4942   6.079   4.426   4.893
 1348SOL    HW1 4943   6.045   4.454   4.983
 1348SOL    HW2 4944   6.153   4.486   4.866
 1349SOL     OW 4945   3.860   3.311   6.720
 1349SOL    HW1 4946   3.808   3.233   6.688
 1349SOL    HW2 4947   3.957   3.298   6.701
 1350SOL     OW 4948   3.155   0.458   6.298
 1350SOL    HW1 4949   3.138   0.452   6.397
 1350SOL    HW2 4950   3.126   0.548   6.265
 1351SOL     OW 4951   0.578   1.004   3.932
 1351SOL    HW1 4952   0.661   0.955   3.958
 1351SOL    HW2 4953   0.578   1.095   3.974
 1352SOL     OW 4954   0.186   0.745   3.458
 1352SOL    HW1 4955   0.166   0.843   3.456
 1352SOL    HW2 4956   0.101   0.693   3.453
 1353SOL     OW 4957   1.023   4.110   3.960
 1353SOL    HW1 4958   1.015   4.022   3.914
 1353SOL    HW2 4959   0.966   4.109   4.043
 1354SOL     OW 4960   0.343   6.311   2.541
 1354SOL    HW1 4961   0.374   6.401   2.509
 1354SOL    HW2 4962   0.249   6.318   2.573
 1355SOL     OW 4963   4.811   2.833   0.159
 1355SOL    HW1 4964   4.867   2.914   0.178
 1355SOL    HW2 4965   4.805   2.777   0.242
 1356SOL     OW 4966   3.459   3.456   2.631
 1356SOL    HW1 4967   3.559   3.453   2.633
 1356SOL    HW2 4968   3.427   3.522   2.698
 1357SOL     OW 4969   2.654   2.851   5.656
 1357SOL    HW1 4970   2.606   2.780   5.603
 1357SOL    HW2 4971   2.721   2.807   5.716
 1358SOL     OW 4972   1.923   2.323   6.142
 1358SOL    HW1 4973   2.011   2.286   6.111
 1358SOL    HW2 4974   1.860   2.248   6.162
 1359SOL     OW 4975   5.952   1.839   0.214
 1359SOL    HW1 4976   6.007   1.919   0.191
 1359SOL    HW2 4977   5.968   1.814   0.310
 1360SOL     OW 4978   3.213   3.748   3.910
 1360SOL    HW1 4979   3.235   3.825   3.851
 1360SOL    HW2 4980   3.244   3.663   3.867
 1361SOL     OW 4981   1.105   6.190   0.370
 1361SOL    HW1 4982   1.188   6.215   0.420
 1361SOL    HW2 4983   1.068   6.271   0.325
 1362SOL     OW 4984   2.920   3.029   6.073
 1362SOL    HW1 4985   2.906   2.990   6.164
 1362SOL    HW2 4986   2.985   2.973   6.023
 1363SOL     OW 4987   6.250   6.445   2.354
 1363SOL    HW1 4988   6.286   6.512   2.289
 1363SOL    HW2 4989   6.317   6.430   2.427
 1364SOL     OW 4990   6.651   3.434   1.271
 1364SOL    HW1 4991   6.635   3.412   1.367
 1364SOL    HW2 4992   6.643   3.351   1.216
 1365SOL     OW 4993   0.607   3.649   6.530
 1365SOL    HW1 4994   0.604   3.743   6.496
 1365SOL    HW2 4995   0.606   3.650   6.630
 1366SOL     OW 4996   6.171   1.556   0.373
 1366SOL    HW1 4997   6.083   1.511   0.391
 1366SOL    HW2 4998   6.210   1.518   0.289
 1367SOL     OW 4999   0.516   5.862   4.657
 1367SOL    HW1 5000   0.436   5.861   4.717
 1367SOL    HW2 5001   0.505   5.934   4.589
 1368SOL     OW 5002   0.283   6.973   5.156
 1368SOL    HW1 5003   0.363   0.002   5.185
 1368SOL    HW2 5004   0.307   6.912   5.080
 1369SOL     OW 5005   2.679   6.750   3.112
 1369SOL    HW1 5006   2.756   6.690   3.136
 1369SOL    HW2 5007   2.662   6.745   3.014
 1370SOL     OW 5008   6.618   2.589   3.248
 1370SOL    HW1 5009   6.715   2.607   3.267
 1370SOL    HW2 5010   6.595   2.497   3.280
 1371SOL     OW 5011   5.804   1.962   5.304
 1371SOL    HW1 5012   5.825   1.927   5.396
 1371SOL    HW2 5013   5.797   1.885   5.240
 1372SOL     OW 5014   6.683   2.696   0.172
 1372SOL    HW1 5015   6.665   2.738   0.083
 1372SOL    HW2 5016   6.668   2.597   0.166
 1373SOL     OW 5017   4.628   2.532   2.121
 1373SOL    HW1 5018   4.557   2.540   2.191
 1373SOL    HW2 5019   4.704   2.594   2.143
 1374SOL     OW 5020   4.666   5.009   0.334
 1374SOL    HW1 5021   4.742   4.975   0.279
 1374SOL    HW2 5022   4.580   4.996   0.285
 1375SOL     OW 5023   6.020   5.706   4.597
 1375SOL    HW1 5024   5.961   5.753   4.662
 1375SOL    HW2 5025   6.084   5.772   4.557
 1376SOL     OW 5026   2.367   5.204   6.312
 1376SOL    HW1 5027   2.315   5.163   6.387
 1376SOL    HW2 5028   2.352   5.151   6.228
 1377SOL     OW 5029   1.575   1.271   2.754
 1377SOL    HW1 5030   1.531   1.272   2.665
 1377SOL    HW2 5031   1.623   1.184   2.766
 1378SOL     OW 5032   4.889   2.588   4.296
 1378SOL    HW1 5033   4.869   2.661   4.361
 1378SOL    HW2 5034   4.987   2.587   4.276
 1379SOL     OW 5035   5.202   5.231   1.320
 1379SOL    HW1 5036   5.115   5.266   1.286
 1379SOL    HW2 5037   5.257   5.306   1.356
 1380SOL     OW 5038   0.338   5.469   1.702
 1380SOL    HW1 5039   0.390   5.463   1.617
 1380SOL    HW2 5040   0.287   5.384   1.717
 1381SOL     OW 5041   6.042   2.500   5.858
 1381SOL    HW1 5042   5.951   2.538   5.870
 1381SOL    HW2 5043   6.067   2.502   5.761
 1382SOL     OW 5044   4.368   2.778   0.321
 1382SOL    HW1 5045   4.444   2.842   0.316
 1382SOL    HW2 5046   4.310   2.800   0.399
 1383SOL     OW 5047   6.943   1.053   1.959
 1383SOL    HW1 5048   0.001   1.075   2.015
 1383SOL    HW2 5049   6.916   0.958   1.975
 1384SOL     OW 5050   5.205   0.894   1.560
 1384SOL    HW1 5051   5.277   0.964   1.559
 1384SOL    HW2 5052   5.245   0.804   1.549
 1385SOL     OW 5053   1.387   5.782   2.007
 1385SOL    HW1 5054   1.393   5.740   1.916
 1385SOL    HW2 5055   1.305   5.749   2.054
 1386SOL     OW 5056   3.003   5.704   4.256
 1386SOL    HW1 5057   2.903   5.704   4.246
 1386SOL    HW2 5058   3.036   5.610   4.250
 1387SOL     OW 5059   3.645   5.625   2.104
 1387SOL    HW1 5060   3.601   5.681   2.174
 1387SOL    HW2 5061   3.575   5.576   2.053
 1388SOL     OW 5062   6.597   0.173   1.057
 1388SOL    HW1 5063   6.666   0.135   1.118
 1388SOL    HW2 5064   6.523   0.107   1.044
 1389SOL     OW 5065   6.348   0.929   2.966
 1389SOL    HW1 5066   6.324   1.019   3.001
 1389SOL    HW2 5067   6.308   0.858   3.024
 1390SOL     OW 5068   6.627   1.747   5.927
 1390SOL    HW1 5069   6.720   1.781   5.914
 1390SOL    HW2 5070   6.626   1.648   5.913
 1391SOL     OW 5071   0.095   1.766   2.956
 1391SOL    HW1 5072   0.100   1.786   2.859
 1391SOL    HW2 5073   7.021   1.747   2.982
 1392SOL     OW 5074   4.696   5.223   5.563
 1392SOL    HW1 5075   4.782   5.176   5.582
 1392SOL    HW2 5076   4.703   5.274   5.478
 1393SOL     OW 5077   4.314   0.302   5.496
 1393SOL    HW1 5078   4.399   0.325   5.543
 1393SOL    HW2 5079   4.290   0.206   5.516
 1394SOL     OW 5080   3.036   5.715   5.687
 1394SOL    HW1 5081   3.015   5.618   5.676
 1394SOL    HW2 5082   2.953   5.769   5.675
 1395SOL     OW 5083   3.811   4.523   5.822
 1395SOL    HW1 5084   3.887   4.483   5.873
 1395SOL    HW2 5085   3.764   4.451   5.770
 1396SOL     OW 5086   6.381   6.099   4.384
 1396SOL    HW1 5087   6.448   6.168   4.412
 1396SOL    HW2 5088   6.308   6.095   4.453
 1397SOL     OW 5089   4.944   6.648   4.340
 1397SOL    HW1 5090   4.886   6.589   4.285
 1397SOL    HW2 5091   5.039   6.619   4.331
 1398SOL     OW 5092   1.276   1.614   5.152
 1398SOL    HW1 5093   1.206   1.652   5.091
 1398SOL    HW2 5094   1.296   1.681   5.224
 1399SOL     OW 5095   3.127   5.808   1.549
 1399SOL    HW1 5096   3.060   5.817   1.623
 1399SOL    HW2 5097   3.085   5.837   1.463
 1400SOL     OW 5098   6.490   0.426   1.929
 1400SOL    HW1 5099   6.448   0.515   1.910
 1400SOL    HW2 5100   6.574   0.440   1.981
 1401SOL     OW 5101   0.206   1.823   5.343
 1401SOL    HW1 5102   0.255   1.892   5.290
 1401SOL    HW2 5103   0.109   1.846   5.347
 1402SOL     OW 5104   0.162   3.257   0.268
 1402SOL    HW1 5105   0.221   3.218   0.338
 1402SOL    HW2 5106   0.149   3.191   0.194
 1403SOL     OW 5107   2.705   6.666   2.418
 1403SOL    HW1 5108   2.741   6.591   2.474
 1403SOL    HW2 5109   2.661   6.733   2.477
 1404SOL     OW 5110   5.520   0.655   0.223
 1404SOL    HW1 5111   5.488   0.706   0.143
 1404SOL    HW2 5112   5.520   0.557   0.202
 1405SOL     OW 5113   1.774   4.179   0.600
 1405SOL    HW1 5114   1.725   4.221   0.677
 1405SOL    HW2 5115   1.867   4.216   0.595
 1406SOL     OW 5116   0.791   4.079   1.651
 1406SOL    HW1 5117   0.839   4.075   1.564
 1406SOL    HW2 5118   0.827   4.154   1.706
 1407SOL     OW 5119   6.602   1.421   2.350
 1407SOL    HW1 5120   6.578   1.373   2.433
 1407SOL    HW2 5121   6.523   1.424   2.288
 1408SOL     OW 5122   5.402   0.934   6.259
 1408SOL    HW1 5123   5.326   0.958   6.319
 1408SOL    HW2 5124   5.470   0.881   6.311
 1409SOL     OW 5125   0.105   0.966   4.422
 1409SOL    HW1 5126   0.199   0.945   4.396
 1409SOL    HW2 5127   0.042   0.925   4.357
 1410SOL     OW 5128   0.777   3.097   6.943
 1410SOL    HW1 5129   0.735   3.091   0.012
 1410SOL    HW2 5130   0.766   3.010   6.896
 1411SOL     OW 5131   1.790   6.554   2.897
 1411SOL    HW1 5132   1.717   6.618   2.920
 1411SOL    HW2 5133   1.783   6.529   2.801
 1412SOL     OW 5134   1.777   2.962   0.336
 1412SOL    HW1 5135   1.698   2.931   0.388
 1412SOL    HW2 5136   1.747   3.025   0.265
 1413SOL     OW 5137   2.457   0.604   4.325
 1413SOL    HW1 5138   2.511   0.592   4.408
 1413SOL    HW2 5139   2.373   0.549   4.333
 1414SOL     OW 5140   2.559   1.781   2.000
 1414SOL    HW1 5141   2.495   1.856   1.983
 1414SOL    HW2 5142   2.652   1.816   2.000
 1415SOL     OW 5143   3.743   6.383   5.108
 1415SOL    HW1 5144   3.691   6.334   5.037
 1415SOL    HW2 5145   3.750   6.480   5.083
 1416SOL     OW 5146   4.320   4.732   2.456
 1416SOL    HW1 5147   4.312   4.737   2.357
 1416SOL    HW2 5148   4.229   4.738   2.497
 1417SOL     OW 5149   2.695   2.766   6.753
 1417SOL    HW1 5150   2.656   2.728   6.837
 1417SOL    HW2 5151   2.663   2.713   6.674
 1418SOL     OW 5152   3.284   4.109   2.604
 1418SOL    HW1 5153   3.204   4.115   2.544
 1418SOL    HW2 5154   3.367   4.127   2.551
 1419SOL     OW 5155   3.413   6.505   4.762
 1419SOL    HW1 5156   3.492   6.566   4.773
 1419SOL    HW2 5157   3.354   6.541   4.690
 1420SOL     OW 5158   0.981   6.422   2.541
 1420SOL    HW1 5159   1.006   6.411   2.445
 1420SOL    HW2 5160   1.061   6.408   2.598
 1421SOL     OW 5161   2.464   2.239   2.846
 1421SOL    HW1 5162   2.491   2.216   2.939
 1421SOL    HW2 5163   2.536   2.294   2.804
 1422SOL     OW 5164   1.910   4.671   1.727
 1422SOL    HW1 5165   1.838   4.670   1.797
 1422SOL    HW2 5166   1.995   4.703   1.768
 1423SOL     OW 5167   5.283   6.873   2.418
 1423SOL    HW1 5168   5.224   6.847   2.342
 1423SOL    HW2 5169   5.234   6.860   2.504
 1424SOL     OW 5170   5.691   4.991   5.130
 1424SOL    HW1 5171   5.694   4.892   5.118
 1424SOL    HW2 5172   5.750   5.034   5.061
 1425SOL     OW 5173   2.004   6.694   3.941
 1425SOL    HW1 5174   1.926   6.729   3.889
 1425SOL    HW2 5175   1.972   6.633   4.012
 1426SOL     OW 5176   1.165   1.780   5.589
 1426SOL    HW1 5177   1.234   1.709   5.570
 1426SOL    HW2 5178   1.161   1.843   5.511
 1427SOL     OW 5179   6.245   0.254   3.794
 1427SOL    HW1 5180   6.177   0.274   3.724
 1427SOL    HW2 5181   6.314   0.192   3.756
 1428SOL     OW 5182   5.821   2.478   0.327
 1428SOL    HW1 5183   5.757   2.436   0.262
 1428SOL    HW2 5184   5.887   2.534   0.277
 1429SOL     OW 5185   6.424   6.991   0.617
 1429SOL    HW1 5186   6.517   6.956   0.601
 1429SOL    HW2 5187   6.429   0.050   0.676
 1430SOL     OW 5188   1.692   4.004   3.655
 1430SOL    HW1 5189   1.674   4.025   3.559
 1430SOL    HW2 5190   1.610   3.963   3.696
 1431SOL     OW 5191   2.488   1.134   2.182
 1431SOL    HW1 5192   2.524   1.216   2.227
 1431SOL    HW2 5193   2.557   1.097   2.120
 1432SOL     OW 5194   2.444   1.216   3.095
 1432SOL    HW1 5195   2.462   1.314   3.096
 1432SOL    HW2 5196   2.367   1.196   3.035
 1433SOL     OW 5197   4.548   0.213   3.968
 1433SOL    HW1 5198   4.558   0.312   3.956
 1433SOL    HW2 5199   4.482   0.196   4.042
 1434SOL     OW 5200   0.321   1.090   5.857
 1434SOL    HW1 5201   0.260   1.163   5.888
 1434SOL    HW2 5202   0.411   1.128   5.837
 1435SOL     OW 5203   5.822   1.348   2.819
 1435SOL    HW1 5204   5.811   1.389   2.909
 1435SOL    HW2 5205   5.741   1.293   2.797
 1436SOL     OW 5206   3.896   4.154   6.918
 1436SOL    HW1 5207   3.964   4.127   6.986
 1436SOL    HW2 5208   3.898   4.090   6.841
 1437SOL     OW 5209   2.820   1.434   3.257
 1437SOL    HW1 5210   2.883   1.359   3.278
 1437SOL    HW2 5211   2.807   1.440   3.158
 1438SOL     OW 5212   2.711   6.680   1.472
 1438SOL    HW1 5213   2.698   6.628   1.388
 1438SOL    HW2 5214   2.751   6.621   1.542
 1439SOL     OW 5215   0.655   5.908   2.363
 1439SOL    HW1 5216   0.572   5.899   2.419
 1439SOL    HW2 5217   0.646   5.988   2.304
 1440SOL     OW 5218   2.894   4.151   1.053
 1440SOL    HW1 5219   2.805   4.137   1.012
 1440SOL    HW2 5220   2.885   4.153   1.153
 1441SOL     OW 5221   5.991   6.527   1.384
 1441SOL    HW1 5222   6.015   6.556   1.292
 1441SOL    HW2 5223   5.949   6.603   1.433
 1442SOL     OW 5224   5.806   5.831   0.184
 1442SOL    HW1 5225   5.772   5.742   0.215
 1442SOL    HW2 5226   5.736   5.901   0.201
 1443SOL     OW 5227   0.856   2.355   2.671
 1443SOL    HW1 5228   0.822   2.270   2.712
 1443SOL    HW2 5229   0.794   2.430   2.693
 1444SOL     OW 5230   5.926   6.418   0.273
 1444SOL    HW1 5231   5.929   6.443   0.370
 1444SOL    HW2 5232   5.838   6.376   0.252
 1445SOL     OW 5233   0.484   3.297   2.365
 1445SOL    HW1 5234   0.431   3.302   2.450
 1445SOL    HW2 5235   0.504   3.202   2.343
 1446SOL     OW 5236   6.277   6.851   6.814
 1446SOL    HW1 5237   6.350   6.898   6.764
 1446SOL    HW2 5238   6.188   6.888   6.788
 1447SOL     OW 5239   5.975   5.111   3.884
 1447SOL    HW1 5240   6.066   5.082   3.852
 1447SOL    HW2 5241   5.952   5.200   3.844
 1448SOL     OW 5242   0.667   2.773   5.149
 1448SOL    HW1 5243   0.764   2.781   5.173
 1448SOL    HW2 5244   0.649   2.825   5.065
 1449SOL     OW 5245   1.498   3.943   4.914
 1449SOL    HW1 5246   1.435   3.993   4.974
 1449SOL    HW2 5247   1.569   4.005   4.881
 1450SOL     OW 5248   1.815   1.915   5.268
 1450SOL    HW1 5249   1.911   1.936   5.287
 1450SOL    HW2 5250   1.783   1.972   5.193
 1451SOL     OW 5251   2.538   6.382   1.605
 1451SOL    HW1 5252   2.520   6.302   1.662
 1451SOL    HW2 5253   2.626   6.372   1.558
 1452SOL     OW 5254   4.248   3.159   6.401
 1452SOL    HW1 5255   4.184   3.094   6.443
 1452SOL    HW2 5256   4.261   3.135   6.305
 1453SOL     OW 5257   0.658   4.212   5.248
 1453SOL    HW1 5258   0.636   4.143   5.317
 1453SOL    HW2 5259   0.753   4.242   5.259
 1454SOL     OW 5260   3.020   2.220   3.522
 1454SOL    HW1 5261   3.004   2.228   3.620
 1454SOL    HW2 5262   3.118   2.207   3.505
 1455SOL     OW 5263   1.416   6.412   2.703
 1455SOL    HW1 5264   1.412   6.390   2.801
 1455SOL    HW2 5265   1.468   6.341   2.656
 1456SOL     OW 5266   6.670   5.633   6.157
 1456SOL    HW1 5267   6.603   5.567   6.123
 1456SOL    HW2 5268   6.649   5.657   6.252
 1457SOL     OW 5269   0.615   3.894   6.780
 1457SOL    HW1 5270   0.683   3.954   6.738
 1457SOL    HW2 5271   0.526   3.939   6.779
 1458SOL     OW 5272   5.717   5.263   5.883
 1458SOL    HW1 5273   5.625   5.233   5.856
 1458SOL    HW2 5274   5.783   5.192   5.862
 1459SOL     OW 5275   5.096   6.261   5.435
 1459SOL    HW1 5276   5.055   6.325   5.500
 1459SOL    HW2 5277   5.039   6.256   5.353
 1460SOL     OW 5278   1.994   6.221   5.366
 1460SOL    HW1 5279   1.899   6.246   5.347
 1460SOL    HW2 5280   1.996   6.154   5.440
 1461SOL     OW 5281   6.863   3.037   2.099
 1461SOL    HW1 5282   6.784   3.013   2.044
 1461SOL    HW2 5283   6.945   3.041   2.041
 1462SOL     OW 5284   1.037   6.954   0.514
 1462SOL    HW1 5285   1.063   6.892   0.440
 1462SOL    HW2 5286   1.070   6.916   0.601
 1463SOL     OW 5287   1.895   6.301   6.931
 1463SOL    HW1 5288   1.984   6.347   6.922
 1463SOL    HW2 5289   1.851   6.297   6.842
 1464SOL     OW 5290   6.387   4.463   4.642
 1464SOL    HW1 5291   6.475   4.504   4.620
 1464SOL    HW2 5292   6.329   4.461   4.561
 1465SOL     OW 5293   1.606   1.782   3.305
 1465SOL    HW1 5294   1.644   1.848   3.241
 1465SOL    HW2 5295   1.652   1.793   3.394
 1466SOL     OW 5296   3.864   2.494   1.568
 1466SOL    HW1 5297   3.863   2.414   1.628
 1466SOL    HW2 5298   3.800   2.562   1.603
 1467SOL     OW 5299   1.107   0.930   3.722
 1467SOL    HW1 5300   1.141   0.904   3.812
 1467SOL    HW2 5301   1.011   0.955   3.727
 1468SOL     OW 5302   2.849   5.841   1.574
 1468SOL    HW1 5303   2.801   5.778   1.512
 1468SOL    HW2 5304   2.838   5.810   1.668
 1469SOL     OW 5305   5.889   5.924   3.530
 1469SOL    HW1 5306   5.949   6.004   3.520
 1469SOL    HW2 5307   5.935   5.855   3.586
 1470SOL     OW 5308   6.204   2.662   0.885
 1470SOL    HW1 5309   6.235   2.581   0.936
 1470SOL    HW2 5310   6.265   2.739   0.906
 1471SOL     OW 5311   6.005   6.789   1.505
 1471SOL    HW1 5312   6.083   6.805   1.566
 1471SOL    HW2 5313   5.920   6.795   1.558
 1472SOL     OW 5314   2.598   6.934   5.939
 1472SOL    HW1 5315   2.528   6.998   5.970
 1472SOL    HW2 5316   2.657   6.979   5.872
 1473SOL     OW 5317   3.210   4.873   4.527
 1473SOL    HW1 5318   3.283   4.903   4.466
 1473SOL    HW2 5319   3.249   4.853   4.617
 1474SOL     OW 5320   4.321   4.538   1.476
 1474SOL    HW1 5321   4.342   4.472   1.548
 1474SOL    HW2 5322   4.373   4.622   1.491
 1475SOL     OW 5323   5.126   0.693   0.196
 1475SOL    HW1 5324   5.175   0.625   0.141
 1475SOL    HW2 5325   5.190   0.738   0.258
 1476SOL     OW 5326   3.779   1.105   1.725
 1476SOL    HW1 5327   3.748   1.089   1.631
 1476SOL    HW2 5328   3.845   1.180   1.727
 1477SOL     OW 5329   4.695   5.745   0.868
 1477SOL    HW1 5330   4.677   5.823   0.808
 1477SOL    HW2 5331   4.647   5.665   0.833
 1478SOL     OW 5332   5.249   5.728   5.152
 1478SOL    HW1 5333   5.264   5.724   5.251
 1478SOL    HW2 5334   5.253   5.824   5.122
 1479SOL     OW 5335   3.591   3.681   1.231
 1479SOL    HW1 5336   3.571   3.761   1.287
 1479SOL    HW2 5337   3.674   3.637   1.265
 1480SOL     OW 5338   3.024   0.792   4.880
 1480SOL    HW1 5339   2.948   0.812   4.818
 1480SOL    HW2 5340   3.011   0.701   4.920
 1481SOL     OW 5341   5.174   2.983   4.968
 1481SOL    HW1 5342   5.237   3.038   4.913
 1481SOL    HW2 5343   5.080   3.004   4.941
 1482SOL     OW 5344   4.306   0.066   0.621
 1482SOL    HW1 5345   4.206   0.077   0.617
 1482SOL    HW2 5346   4.344   0.075   0.529
 1483SOL     OW 5347   4.463   1.047   5.888
 1483SOL    HW1 5348   4.418   1.022   5.802
 1483SOL    HW2 5349   4.511   1.134   5.876
 1484SOL     OW 5350   2.594   5.466   4.596
 1484SOL    HW1 5351   2.674   5.412   4.619
 1484SOL    HW2 5352   2.620   5.562   4.584
 1485SOL     OW 5353   4.971   2.046   2.508
 1485SOL    HW1 5354   5.041   2.057   2.436
 1485SOL    HW2 5355   4.893   1.996   2.470
 1486SOL     OW 5356   4.966   6.840   3.109
 1486SOL    HW1 5357   4.901   6.825   3.034
 1486SOL    HW2 5358   5.004   6.932   3.103
 1487SOL     OW 5359   0.030   0.623   0.867
 1487SOL    HW1 5360   0.110   0.592   0.918
 1487SOL    HW2 5361   6.969   0.608   0.922
 1488SOL     OW 5362   6.537   0.871   2.706
 1488SOL    HW1 5363   6.575   0.778   2.700
 1488SOL    HW2 5364   6.494   0.883   2.795
 1489SOL     OW 5365   3.834   5.143   6.428
 1489SOL    HW1 5366   3.920   5.143   6.378
 1489SOL    HW2 5367   3.793   5.051   6.423
 1490SOL     OW 5368   0.468   2.505   2.007
 1490SOL    HW1 5369   0.494   2.428   2.065
 1490SOL    HW2 5370   0.470   2.589   2.062
 1491SOL     OW 5371   6.725   3.508   1.608
 1491SOL    HW1 5372   6.655   3.573   1.636
 1491SOL    HW2 5373   6.805   3.557   1.573
 1492SOL     OW 5374   5.922   1.130   3.088
 1492SOL    HW1 5375   5.969   1.064   3.028
 1492SOL    HW2 5376   5.926   1.221   3.046
 1493SOL     OW 5377   4.798   2.005   5.903
 1493SOL    HW1 5378   4.726   2.074   5.898
 1493SOL    HW2 5379   4.772   1.926   5.848
 1494SOL     OW 5380   5.552   2.933   6.029
 1494SOL    HW1 5381   5.627   2.964   5.970
 1494SOL    HW2 5382   5.493   2.870   5.979
 1495SOL     OW 5383   5.892   3.895   4.014
 1495SOL    HW1 5384   5.912   3.983   4.058
 1495SOL    HW2 5385   5.943   3.888   3.929
 1496SOL     OW 5386   6.986   6.212   6.905
 1496SOL    HW1 5387   0.055   6.248   6.885
 1496SOL    HW2 5388   6.970   6.213   7.004
 1497SOL     OW 5389   5.677   2.907   2.794
 1497SOL    HW1 5390   5.629   2.994   2.781
 1497SOL    HW2 5391   5.631   2.835   2.743
 1498SOL     OW 5392   3.414   4.839   0.669
 1498SOL    HW1 5393   3.327   4.807   0.632
 1498SOL    HW2 5394   3.397   4.910   0.738
 1499SOL     OW 5395   0.208   3.843   6.095
 1499SOL    HW1 5396   0.252   3.754   6.110
 1499SOL    HW2 5397   0.234   3.878   6.005
 1500SOL     OW 5398   0.278   5.844   0.817
 1500SOL    HW1 5399   0.344   5.905   0.862
 1500SOL    HW2 5400   0.324   5.793   0.744
 1501SOL     OW 5401   5.362   1.403   6.066
 1501SOL    HW1 5402   5.336   1.477   6.004
 1501SOL    HW2 5403   5.442   1.431   6.120
 1502SOL     OW 5404   6.838   0.843   6.664
 1502SOL    HW1 5405   6.775   0.896   6.721
 1502SOL    HW2 5406   6.885   0.775   6.720
 1503SOL     OW 5407   0.460   3.925   1.980
 1503SOL    HW1 5408   0.367   3.907   1.948
 1503SOL    HW2 5409   0.474   3.877   2.067
 1504SOL     OW 5410   0.589   0.265   3.383
 1504SOL    HW1 5411   0.631   0.297   3.468
 1504SOL    HW2 5412   0.489   0.274   3.390
 1505SOL     OW 5413   6.166   6.441   4.777
 1505SOL    HW1 5414   6.067   6.454   4.767
 1505SOL    HW2 5415   6.214   6.510   4.723
 1506SOL     OW 5416   1.310   1.262   0.832
 1506SOL    HW1 5417   1.293   1.337   0.896
 1506SOL    HW2 5418   1.375   1.292   0.762
 1507SOL     OW 5419   0.893   2.056   4.321
 1507SOL    HW1 5420   0.962   2.020   4.384
 1507SOL    HW2 5421   0.820   1.988   4.309
 1508SOL     OW 5422   0.983   0.631   0.722
 1508SOL    HW1 5423   0.917   0.702   0.695
 1508SOL    HW2 5424   1.022   0.655   0.811
 1509SOL     OW 5425   5.119   1.152   4.882
 1509SOL    HW1 5426   5.094   1.094   4.805
 1509SOL    HW2 5427   5.198   1.113   4.930
 1510SOL     OW 5428   3.369   6.781   4.094
 1510SOL    HW1 5429   3.373   6.708   4.026
 1510SOL    HW2 5430   3.461   6.814   4.114
 1511SOL     OW 5431   4.082   3.825   3.878
 1511SOL    HW1 5432   4.064   3.748   3.816
 1511SOL    HW2 5433   4.157   3.880   3.842
 1512SOL     OW 5434   6.479   5.709   1.264
 1512SOL    HW1 5435   6.514   5.618   1.246
 1512SOL    HW2 5436   6.545   5.760   1.318
 1513SOL     OW 5437   3.276   6.976   5.850
 1513SOL    HW1 5438   3.332   6.897   5.875
 1513SOL    HW2 5439   3.197   6.982   5.910
 1514SOL     OW 5440   3.147   2.329   5.858
 1514SOL    HW1 5441   3.222   2.328   5.792
 1514SOL    HW2 5442   3.066   2.371   5.815
 1515SOL     OW 5443   6.392   1.897   2.175
 1515SOL    HW1 5444   6.492   1.898   2.165
 1515SOL    HW2 5445   6.353   1.975   2.125
 1516SOL     OW 5446   6.551   6.368   4.886
 1516SOL    HW1 5447   6.491   6.312   4.828
 1516SOL    HW2 5448   6.552   6.331   4.978
 1517SOL     OW 5449   3.765   6.164   3.645
 1517SOL    HW1 5450   3.680   6.215   3.633
 1517SOL    HW2 5451   3.760   6.110   3.729
 1518SOL     OW 5452   6.886   2.340   0.636
 1518SOL    HW1 5453   6.787   2.354   0.625
 1518SOL    HW2 5454   6.916   2.265   0.576
 1519SOL     OW 5455   7.008   3.893   0.595
 1519SOL    HW1 5456   7.007   3.993   0.594
 1519SOL    HW2 5457   0.041   3.860   0.671
 1520SOL     OW 5458   0.669   5.499   1.779
 1520SOL    HW1 5459   0.735   5.571   1.800
 1520SOL    HW2 5460   0.598   5.535   1.718
 1521SOL     OW 5461   2.055   4.943   5.967
 1521SOL    HW1 5462   2.097   5.032   5.951
 1521SOL    HW2 5463   2.066   4.886   5.886
 1522SOL     OW 5464   5.303   5.504   4.600
 1522SOL    HW1 5465   5.305   5.539   4.694
 1522SOL    HW2 5466   5.390   5.526   4.555
 1523SOL     OW 5467   3.432   6.373   0.150
 1523SOL    HW1 5468   3.501   6.312   0.190
 1523SOL    HW2 5469   3.470   6.465   0.140
 1524SOL     OW 5470   2.201   2.435   2.531
 1524SOL    HW1 5471   2.154   2.479   2.454
 1524SOL    HW2 5472   2.287   2.394   2.498
 1525SOL     OW 5473   5.573   2.606   0.927
 1525SOL    HW1 5474   5.567   2.669   0.850
 1525SOL    HW2 5475   5.666   2.608   0.965
 1526SOL     OW 5476   0.817   1.950   0.472
 1526SOL    HW1 5477   0.888   1.888   0.506
 1526SOL    HW2 5478   0.795   2.017   0.542
 1527SOL     OW 5479   3.333   1.617   4.599
 1527SOL    HW1 5480   3.302   1.650   4.689
 1527SOL    HW2 5481   3.256   1.617   4.535
 1528SOL     OW 5482   5.117   3.672   1.052
 1528SOL    HW1 5483   5.162   3.661   0.963
 1528SOL    HW2 5484   5.176   3.726   1.112
 1529SOL     OW 5485   4.686   1.104   6.678
 1529SOL    HW1 5486   4.752   1.101   6.603
 1529SOL    HW2 5487   4.670   1.199   6.705
 1530SOL     OW 5488   3.141   0.155   1.515
 1530SOL    HW1 5489   3.226   0.188   1.555
 1530SOL    HW2 5490   3.127   0.197   1.426
 1531SOL     OW 5491   3.499   0.316   4.066
 1531SOL    HW1 5492   3.534   0.267   4.146
 1531SOL    HW2 5493   3.574   0.335   4.003
 1532SOL     OW 5494   3.139   5.074   5.987
 1532SOL    HW1 5495   3.101   5.161   6.018
 1532SOL    HW2 5496   3.121   5.064   5.889
 1533SOL     OW 5497   5.320   5.501   1.327
 1533SOL    HW1 5498   5.370   5.577   1.367
 1533SOL    HW2 5499   5.250   5.536   1.265
 1534SOL     OW 5500   3.884   5.864   6.926
 1534SOL    HW1 5501   3.849   5.815   6.846
 1534SOL    HW2 5502   3.828   5.946   6.942
 1535SOL     OW 5503   6.576   6.261   4.485
 1535SOL    HW1 5504   6.621   6.346   4.457
 1535SOL    HW2 5505   6.538   6.271   4.576
 1536SOL     OW 5506   3.943   4.701   6.751
 1536SOL    HW1 5507   4.010   4.661   6.814
 1536SOL    HW2 5508   3.857   4.717   6.800
 1537SOL     OW 5509   3.225   4.890   3.551
 1537SOL    HW1 5510   3.263   4.832   3.478
 1537SOL    HW2 5511   3.298   4.917   3.613
 1538SOL     OW 5512   3.006   1.778   0.665
 1538SOL    HW1 5513   2.974   1.733   0.749
 1538SOL    HW2 5514   2.929   1.794   0.604
 1539SOL     OW 5515   5.012   3.287   1.395
 1539SOL    HW1 5516   4.974   3.360   1.452
 1539SOL    HW2 5517   4.976   3.199   1.426
 1540SOL     OW 5518   2.241   0.065   4.370
 1540SOL    HW1 5519   2.171   0.067   4.441
 1540SOL    HW2 5520   2.331   0.051   4.412
 1541SOL     OW 5521   3.467   3.192   4.615
 1541SOL    HW1 5522   3.428   3.276   4.651
 1541SOL    HW2 5523   3.495   3.205   4.520
 1542SOL     OW 5524   6.489   6.876   2.160
 1542SOL    HW1 5525   6.587   6.871   2.140
 1542SOL    HW2 5526   6.441   6.918   2.083
 1543SOL     OW 5527   3.126   5.300   6.421
 1543SOL    HW1 5528   3.034   5.286   6.458
 1543SOL    HW2 5529   3.175   5.213   6.421
 1544SOL     OW 5530   3.905   3.085   3.881
 1544SOL    HW1 5531   3.811   3.056   3.899
 1544SOL    HW2 5532   3.928   3.065   3.785
 1545SOL     OW 5533   6.196   0.540   1.812
 1545SOL    HW1 5534   6.277   0.598   1.820
 1545SOL    HW2 5535   6.168   0.510   1.903
 1546SOL     OW 5536   5.043   6.480   5.599
 1546SOL    HW1 5537   5.125   6.517   5.556
 1546SOL    HW2 5538   4.963   6.533   5.570
 1547SOL     OW 5539   1.423   4.066   0.324
 1547SOL    HW1 5540   1.449   3.975   0.356
 1547SOL    HW2 5541   1.458   4.080   0.232
 1548SOL     OW 5542   5.975   2.266   0.040
 1548SOL    HW1 5543   6.022   2.353   0.056
 1548SOL    HW2 5544   6.027   2.192   0.082
 1549SOL     OW 5545   3.969   1.593   4.639
 1549SOL    HW1 5546   3.926   1.503   4.644
 1549SOL    HW2 5547   4.023   1.600   4.555
 1550SOL     OW 5548   3.844   3.356   2.474
 1550SOL    HW1 5549   3.791   3.402   2.544
 1550SOL    HW2 5550   3.936   3.335   2.510
 1551SOL     OW 5551   0.918   5.392   6.654
 1551SOL    HW1 5552   0.971   5.388   6.739
 1551SOL    HW2 5553   0.854   5.315   6.652
 1552SOL     OW 5554   2.572   4.802   1.435
 1552SOL    HW1 5555   2.634   4.724   1.421
 1552SOL    HW2 5556   2.600   4.853   1.516
 1553SOL     OW 5557   7.013   1.613   5.778
 1553SOL    HW1 5558   6.950   1.603   5.701
 1553SOL    HW2 5559   6.968   1.664   5.852
 1554SOL     OW 5560   3.264   2.126   3.471
 1554SOL    HW1 5561   3.248   2.117   3.373
 1554SOL    HW2 5562   3.353   2.086   3.494
 1555SOL     OW 5563   5.993   3.064   6.329
 1555SOL    HW1 5564   5.984   3.077   6.231
 1555SOL    HW2 5565   6.088   3.042   6.351
 1556SOL     OW 5566   2.219   1.043   6.367
 1556SOL    HW1 5567   2.237   1.136   6.398
 1556SOL    HW2 5568   2.137   1.042   6.309
 1557SOL     OW 5569   1.694   3.205   6.711
 1557SOL    HW1 5570   1.616   3.191   6.649
 1557SOL    HW2 5571   1.750   3.280   6.677
 1558SOL     OW 5572   6.825   0.031   5.040
 1558SOL    HW1 5573   6.916   7.013   5.041
 1558SOL    HW2 5574   6.799   0.055   4.946
 1559SOL     OW 5575   0.483   2.742   5.908
 1559SOL    HW1 5576   0.414   2.814   5.919
 1559SOL    HW2 5577   0.440   2.662   5.865
 1560SOL     OW 5578   0.192   0.907   6.292
 1560SOL    HW1 5579   0.250   0.926   6.213
 1560SOL    HW2 5580   0.163   0.993   6.334
 1561SOL     OW 5581   4.787   6.122   2.323
 1561SOL    HW1 5582   4.803   6.214   2.288
 1561SOL    HW2 5583   4.707   6.122   2.382
 1562SOL     OW 5584   4.791   0.162   2.898
 1562SOL    HW1 5585   4.748   0.082   2.855
 1562SOL    HW2 5586   4.721   0.221   2.937
 1563SOL     OW 5587   3.482   1.518   6.151
 1563SOL    HW1 5588   3.485   1.617   6.160
 1563SOL    HW2 5589   3.401   1.492   6.098
 1564SOL     OW 5590   1.634   1.814   2.129
 1564SOL    HW1 5591   1.590   1.803   2.040
 1564SOL    HW2 5592   1.685   1.731   2.150
 1565SOL     OW 5593   4.888   3.499   2.268
 1565SOL    HW1 5594   4.871   3.559   2.190
 1565SOL    HW2 5595   4.872   3.404   2.241
 1566SOL     OW 5596   5.483   4.081   3.576
 1566SOL    HW1 5597   5.402   4.094   3.634
 1566SOL    HW2 5598   5.460   4.017   3.502
 1567SOL     OW 5599   6.226   5.522   5.987
 1567SOL    HW1 5600   6.180   5.541   5.901
 1567SOL    HW2 5601   6.215   5.599   6.049
 1568SOL     OW 5602   1.201   0.502   0.337
 1568SOL    HW1 5603   1.155   0.455   0.413
 1568SOL    HW2 5604   1.287   0.541   0.370
 1569SOL     OW 5605   4.120   6.633   4.649
 1569SOL    HW1 5606   4.138   6.685   4.733
 1569SOL    HW2 5607   4.107   6.537   4.672
 1570SOL     OW 5608   2.741   1.655   1.545
 1570SOL    HW1 5609   2.659   1.650   1.487
 1570SOL    HW2 5610   2.730   1.729   1.611
 1571SOL     OW 5611   5.804   3.111   1.801
 1571SOL    HW1 5612   5.808   3.162   1.716
 1571SOL    HW2 5613   5.866   3.152   1.868
 1572SOL     OW 5614   0.355   6.836   2.060
 1572SOL    HW1 5615   0.261   6.854   2.030
 1572SOL    HW2 5616   0.419   6.884   2.000
 1573SOL     OW 5617   5.049   6.801   1.299
 1573SOL    HW1 5618   5.079   6.865   1.369
 1573SOL    HW2 5619   5.124   6.782   1.236
 1574SOL     OW 5620   6.699   2.305   1.289
 1574SOL    HW1 5621   6.698   2.403   1.309
 1574SOL    HW2 5622   6.606   2.274   1.272
 1575SOL     OW 5623   1.578   2.458   0.824
 1575SOL    HW1 5624   1.488   2.464   0.780
 1575SOL    HW2 5625   1.647   2.440   0.755
 1576SOL     OW 5626   5.657   6.028   4.073
 1576SOL    HW1 5627   5.623   6.083   3.997
 1576SOL    HW2 5628   5.597   6.040   4.153
 1577SOL     OW 5629   2.715   0.385   5.555
 1577SOL    HW1 5630   2.796   0.406   5.610
 1577SOL    HW2 5631   2.735   0.400   5.458
 1578SOL     OW 5632   5.202   3.941   5.886
 1578SOL    HW1 5633   5.216   3.969   5.981
 1578SOL    HW2 5634   5.290   3.930   5.840
 1579SOL     OW 5635   0.485   1.184   3.658
 1579SOL    HW1 5636   0.533   1.269   3.681
 1579SOL    HW2 5637   0.481   1.125   3.739
 1580SOL     OW 5638   2.924   4.421   5.367
 1580SOL    HW1 5639   2.854   4.470   5.418
 1580SOL    HW2 5640   2.945   4.470   5.282
 1581SOL     OW 5641   6.767   3.979   4.717
 1581SOL    HW1 5642   6.780   3.986   4.618
 1581SOL    HW2 5643   6.846   3.933   4.758
 1582SOL     OW 5644   0.729   4.969   4.361
 1582SOL    HW1 5645   0.791   5.014   4.297
 1582SOL    HW2 5646   0.683   4.893   4.315
 1583SOL     OW 5647   2.341   2.567   3.622
 1583SOL    HW1 5648   2.300   2.533   3.538
 1583SOL    HW2 5649   2.286   2.643   3.658
 1584SOL     OW 5650   2.266   7.016   5.352
 1584SOL    HW1 5651   2.250   6.931   5.302
 1584SOL    HW2 5652   2.179   0.030   5.386
 1585SOL     OW 5653   5.557   1.280   3.568
 1585SOL    HW1 5654   5.488   1.210   3.583
 1585SOL    HW2 5655   5.639   1.258   3.621
 1586SOL     OW 5656   3.823   4.073   2.516
 1586SOL    HW1 5657   3.913   4.071   2.560
 1586SOL    HW2 5658   3.826   4.017   2.433
 1587SOL     OW 5659   3.532   6.635   0.120
 1587SOL    HW1 5660   3.557   6.693   0.043
 1587SOL    HW2 5661   3.542   6.687   0.205
 1588SOL     OW 5662   5.387   2.062   1.892
 1588SOL    HW1 5663   5.386   2.122   1.972
 1588SOL    HW2 5664   5.481   2.045   1.865
 1589SOL     OW 5665   6.207   4.792   4.391
 1589SOL    HW1 5666   6.234   4.888   4.402
 1589SOL    HW2 5667   6.287   4.737   4.366
 1590SOL     OW 5668   1.957   0.214   6.808
 1590SOL    HW1 5669   2.055   0.221   6.789
 1590SOL    HW2 5670   1.933   0.118   6.825
 1591SOL     OW 5671   1.266   4.376   2.517
 1591SOL    HW1 5672   1.205   4.320   2.573
 1591SOL    HW2 5673   1.232   4.471   2.515
 1592SOL     OW 5674   3.010   3.727   2.550
 1592SOL    HW1 5675   2.986   3.793   2.479
 1592SOL    HW2 5676   2.956   3.644   2.538
 1593SOL     OW 5677   1.261   5.866   4.285
 1593SOL    HW1 5678   1.302   5.934   4.225
 1593SOL    HW2 5679   1.327   5.793   4.303
 1594SOL     OW 5680   6.942   5.111   2.589
 1594SOL    HW1 5681   6.979   5.100   2.682
 1594SOL    HW2 5682   6.901   5.025   2.561
 1595SOL     OW 5683   6.575   4.664   6.687
 1595SOL    HW1 5684   6.564   4.608   6.605
 1595SOL    HW2 5685   6.563   4.760   6.664
 1596SOL     OW 5686   2.366   5.515   6.171
 1596SOL    HW1 5687   2.387   5.445   6.238
 1596SOL    HW2 5688   2.439   5.520   6.103
 1597SOL     OW 5689   2.466   6.068   1.410
 1597SOL    HW1 5690   2.456   5.971   1.388
 1597SOL    HW2 5691   2.376   6.108   1.423
 1598SOL     OW 5692   0.451   4.853   1.164
 1598SOL    HW1 5693   0.506   4.791   1.220
 1598SOL    HW2 5694   0.478   4.947   1.183
 1599SOL     OW 5695   3.480   5.021   7.016
 1599SOL    HW1 5696   3.552   5.039   0.061
 1599SOL    HW2 5697   3.393   5.056   0.029
 1600SOL     OW 5698   5.494   1.196   4.812
 1600SOL    HW1 5699   5.436   1.146   4.876
 1600SOL    HW2 5700   5.477   1.166   4.719
 1601SOL     OW 5701   0.865   5.032   4.749
 1601SOL    HW1 5702   0.963   5.052   4.747
 1601SOL    HW2 5703   0.850   4.937   4.719
 1602SOL     OW 5704   1.138   5.186   3.710
 1602SOL    HW1 5705   1.195   5.265   3.731
 1602SOL    HW2 5706   1.061   5.183   3.773
 1603SOL     OW 5707   0.198   6.090   1.998
 1603SOL    HW1 5708   0.196   6.079   1.899
 1603SOL    HW2 5709   0.193   6.187   2.022
 1604SOL     OW 5710   6.919   4.736   6.496
 1604SOL    HW1 5711   6.910   4.836   6.494
 1604SOL    HW2 5712   6.870   4.696   6.419
 1605SOL     OW 5713   6.233   6.188   2.810
 1605SOL    HW1 5714   6.141   6.185   2.848
 1605SOL    HW2 5715   6.236   6.136   2.724
 1606SOL     OW 5716   5.080   6.795   5.999
 1606SOL    HW1 5717   5.033   6.720   5.952
 1606SOL    HW2 5718   5.081   6.876   5.941
 1607SOL     OW 5719   4.821   2.580   0.887
 1607SOL    HW1 5720   4.769   2.665   0.884
 1607SOL    HW2 5721   4.784   2.516   0.819
 1608SOL     OW 5722   2.226   6.857   0.876
 1608SOL    HW1 5723   2.251   6.760   0.883
 1608SOL    HW2 5724   2.233   6.886   0.781
 1609SOL     OW 5725   4.732   2.360   6.024
 1609SOL    HW1 5726   4.717   2.425   5.950
 1609SOL    HW2 5727   4.643   2.329   6.059
 1610SOL     OW 5728   6.175   6.123   4.161
 1610SOL    HW1 5729   6.250   6.103   4.224
 1610SOL    HW2 5730   6.211   6.162   4.077
 1611SOL     OW 5731   3.342   3.558   1.907
 1611SOL    HW1 5732   3.304   3.590   1.820
 1611SOL    HW2 5733   3.279   3.579   1.981
 1612SOL     OW 5734   2.206   0.717   4.685
 1612SOL    HW1 5735   2.185   0.719   4.588
 1612SOL    HW2 5736   2.124   0.696   4.737
 1613SOL     OW 5737   2.416   5.975   0.436
 1613SOL    HW1 5738   2.486   6.037   0.470
 1613SOL    HW2 5739   2.384   5.916   0.510
 1614SOL     OW 5740   5.729   2.147   0.028
 1614SOL    HW1 5741   5.814   2.198   0.040
 1614SOL    HW2 5742   5.706   2.144   6.952
 1615SOL     OW 5743   0.079   4.242   6.829
 1615SOL    HW1 5744   0.072   4.280   6.921
 1615SOL    HW2 5745   0.083   4.143   6.833
 1616SOL     OW 5746   3.349   1.820   5.958
 1616SOL    HW1 5747   3.394   1.828   6.047
 1616SOL    HW2 5748   3.262   1.773   5.968
 1617SOL     OW 5749   5.201   0.792   3.343
 1617SOL    HW1 5750   5.214   0.733   3.424
 1617SOL    HW2 5751   5.288   0.800   3.294
 1618SOL     OW 5752   6.046   3.116   1.253
 1618SOL    HW1 5753   6.005   3.040   1.304
 1618SOL    HW2 5754   5.982   3.148   1.184
 1619SOL     OW 5755   1.720   3.410   4.375
 1619SOL    HW1 5756   1.767   3.369   4.453
 1619SOL    HW2 5757   1.708   3.508   4.391
 1620SOL     OW 5758   2.507   5.197   1.771
 1620SOL    HW1 5759   2.601   5.179   1.801
 1620SOL    HW2 5760   2.501   5.290   1.735
 1621SOL     OW 5761   1.451   0.572   0.869
 1621SOL    HW1 5762   1.494   0.613   0.789
 1621SOL    HW2 5763   1.480   0.476   0.876
 1622SOL     OW 5764   2.102   2.025   4.496
 1622SOL    HW1 5765   2.063   2.010   4.587
 1622SOL    HW2 5766   2.117   1.938   4.451
 1623SOL     OW 5767   2.545   1.900   5.497
 1623SOL    HW1 5768   2.492   1.984   5.514
 1623SOL    HW2 5769   2.545   1.880   5.399
 1624SOL     OW 5770   2.987   1.598   0.296
 1624SOL    HW1 5771   2.966   1.696   0.296
 1624SOL    HW2 5772   2.955   1.557   0.381
 1625SOL     OW 5773   0.724   5.125   2.428
 1625SOL    HW1 5774   0.761   5.049   2.375
 1625SOL    HW2 5775   0.684   5.193   2.366
 1626SOL     OW 5776   1.908   2.945   6.340
 1626SOL    HW1 5777   1.921   3.044   6.333
 1626SOL    HW2 5778   1.964   2.899   6.271
 1627SOL     OW 5779   6.400   2.911   3.971
 1627SOL    HW1 5780   6.459   2.976   4.020
 1627SOL    HW2 5781   6.332   2.961   3.918
 1628SOL     OW 5782   3.284   4.274   0.303
 1628SOL    HW1 5783   3.222   4.199   0.324
 1628SOL    HW2 5784   3.232   4.359   0.297
 1629SOL     OW 5785   3.569   2.051   4.165
 1629SOL    HW1 5786   3.569   1.964   4.116
 1629SOL    HW2 5787   3.627   2.043   4.246
 1630SOL     OW 5788   0.391   4.363   5.181
 1630SOL    HW1 5789   0.484   4.327   5.193
 1630SOL    HW2 5790   0.338   4.350   5.264
 1631SOL     OW 5791   7.007   0.058   5.748
 1631SOL    HW1 5792   6.920   0.047   5.700
 1631SOL    HW2 5793   6.990   0.101   5.837
 1632SOL     OW 5794   6.295   0.702   0.958
 1632SOL    HW1 5795   6.373   0.645   0.933
 1632SOL    HW2 5796   6.233   0.710   0.881
 1633SOL     OW 5797   6.278   2.286   3.816
 1633SOL    HW1 5798   6.270   2.375   3.770
 1633SOL    HW2 5799   6.373   2.271   3.843
 1634SOL     OW 5800   2.938   0.458   6.727
 1634SOL    HW1 5801   2.939   0.397   6.806
 1634SOL    HW2 5802   2.844   0.470   6.695
 1635SOL     OW 5803   0.378   6.263   5.009
 1635SOL    HW1 5804   0.379   6.363   5.007
 1635SOL    HW2 5805   0.331   6.229   4.928
 1636SOL     OW 5806   2.052   6.010   1.982
 1636SOL    HW1 5807   2.006   6.091   1.945
 1636SOL    HW2 5808   1.985   5.938   1.998
 1637SOL     OW 5809   6.480   3.092   2.143
 1637SOL    HW1 5810   6.404   3.111   2.081
 1637SOL    HW2 5811   6.444   3.077   2.235
 1638SOL     OW 5812   6.871   3.416   4.577
 1638SOL    HW1 5813   6.832   3.473   4.649
 1638SOL    HW2 5814   6.916   3.474   4.510
 1639SOL     OW 5815   5.019   5.274   2.316
 1639SOL    HW1 5816   4.957   5.197   2.329
 1639SOL    HW2 5817   5.061   5.299   2.403
 1640SOL     OW 5818   6.467   0.386   0.936
 1640SOL    HW1 5819   6.542   0.329   0.968
 1640SOL    HW2 5820   6.403   0.402   1.012
 1641SOL     OW 5821   5.514   3.027   5.208
 1641SOL    HW1 5822   5.575   3.024   5.129
 1641SOL    HW2 5823   5.429   2.980   5.187
 1642SOL     OW 5824   6.963   2.213   0.943
 1642SOL    HW1 5825   6.914   2.173   0.866
 1642SOL    HW2 5826   6.936   2.168   1.028
 1643SOL     OW 5827   4.138   6.637   5.387
 1643SOL    HW1 5828   4.112   6.714   5.446
 1643SOL    HW2 5829   4.129   6.664   5.291
 1644SOL     OW 5830   2.805   1.287   1.372
 1644SOL    HW1 5831   2.843   1.307   1.462
 1644SOL    HW2 5832   2.711   1.255   1.382
 1645SOL     OW 5833   2.986   6.767   6.602
 1645SOL    HW1 5834   3.053   6.723   6.541
 1645SOL    HW2 5835   2.927   6.828   6.548
 1646SOL     OW 5836   1.221   3.959   0.861
 1646SOL    HW1 5837   1.158   4.017   0.808
 1646SOL    HW2 5838   1.168   3.891   0.912
 1647SOL     OW 5839   5.959   3.121   3.873
 1647SOL    HW1 5840   6.033   3.169   3.920
 1647SOL    HW2 5841   5.957   3.148   3.777
 1648SOL     OW 5842   4.367   6.769   1.914
 1648SOL    HW1 5843   4.318   6.734   1.833
 1648SOL    HW2 5844   4.301   6.792   1.985
 1649SOL     OW 5845   3.505   1.475   3.744
 1649SOL    HW1 5846   3.410   1.499   3.724
 1649SOL    HW2 5847   3.530   1.393   3.692
 1650SOL     OW 5848   2.764   6.852   4.005
 1650SOL    HW1 5849   2.830   6.845   3.930
 1650SOL    HW2 5850   2.806   6.900   4.082
 1651SOL     OW 5851   1.042   0.168   0.328
 1651SOL    HW1 5852   1.052   0.076   0.367
 1651SOL    HW2 5853   1.027   0.234   0.402
 1652SOL     OW 5854   2.961   2.228   1.673
 1652SOL    HW1 5855   2.974   2.301   1.739
 1652SOL    HW2 5856   2.971   2.264   1.580
 1653SOL     OW 5857   1.028   5.448   1.261
 1653SOL    HW1 5858   1.064   5.357   1.282
 1653SOL    HW2 5859   1.086   5.518   1.302
 1654SOL     OW 5860   6.567   3.492   2.853
 1654SOL    HW1 5861   6.503   3.433   2.804
 1654SOL    HW2 5862   6.596   3.568   2.794
 1655SOL     OW 5863   4.801   4.310   6.486
 1655SOL    HW1 5864   4.856   4.394   6.486
 1655SOL    HW2 5865   4.799   4.271   6.578
 1656SOL     OW 5866   1.130   5.103   3.229
 1656SOL    HW1 5867   1.124   5.162   3.310
 1656SOL    HW2 5868   1.220   5.113   3.187
 1657SOL     OW 5869   1.401   0.358   5.274
 1657SOL    HW1 5870   1.329   0.317   5.330
 1657SOL    HW2 5871   1.365   0.439   5.228
 1658SOL     OW 5872   5.976   6.230   2.884
 1658SOL    HW1 5873   5.883   6.244   2.851
 1658SOL    HW2 5874   5.983   6.261   2.979
 1659SOL     OW 5875   3.705   2.487   6.262
 1659SOL    HW1 5876   3.667   2.430   6.334
 1659SOL    HW2 5877   3.710   2.435   6.177
 1660SOL     OW 5878   1.733   5.745   3.666
 1660SOL    HW1 5879   1.747   5.710   3.574
 1660SOL    HW2 5880   1.802   5.706   3.728
 1661SOL     OW 5881   3.493   0.826   2.135
 1661SOL    HW1 5882   3.419   0.816   2.202
 1661SOL    HW2 5883   3.455   0.852   2.047
 1662SOL     OW 5884   0.647   0.919   3.670
 1662SOL    HW1 5885   0.627   0.909   3.767
 1662SOL    HW2 5886   0.575   0.876   3.615
 1663SOL     OW 5887   2.881   0.398   2.517
 1663SOL    HW1 5888   2.970   0.377   2.478
 1663SOL    HW2 5889   2.844   0.317   2.563
 1664SOL     OW 5890   2.341   5.640   3.996
 1664SOL    HW1 5891   2.411   5.587   4.044
 1664SOL    HW2 5892   2.305   5.710   4.057
 1665SOL     OW 5893   7.016   0.608   3.110
 1665SOL    HW1 5894   6.977   0.531   3.161
 1665SOL    HW2 5895   0.051   0.574   3.036
 1666SOL     OW 5896   5.743   2.995   5.866
 1666SOL    HW1 5897   5.710   3.026   5.777
 1666SOL    HW2 5898   5.808   3.061   5.902
 1667SOL     OW 5899   6.566   6.766   5.882
 1667SOL    HW1 5900   6.575   6.831   5.958
 1667SOL    HW2 5901   6.474   6.726   5.883
 1668SOL     OW 5902   4.150   0.419   5.075
 1668SOL    HW1 5903   4.074   0.356   5.058
 1668SOL    HW2 5904   4.214   0.376   5.139
 1669SOL     OW 5905   5.662   6.712   5.888
 1669SOL    HW1 5906   5.740   6.742   5.943
 1669SOL    HW2 5907   5.605   6.651   5.943
 1670SOL     OW 5908   5.184   4.705   5.519
 1670SOL    HW1 5909   5.239   4.663   5.591
 1670SOL    HW2 5910   5.102   4.746   5.559
 1671SOL     OW 5911   4.593   3.130   0.037
 1671SOL    HW1 5912   4.579   3.051   6.999
 1671SOL    HW2 5913   4.535   3.122   0.118
 1672SOL     OW 5914   1.660   5.048   2.046
 1672SOL    HW1 5915   1.639   5.143   2.067
 1672SOL    HW2 5916   1.598   4.987   2.095
 1673SOL     OW 5917   6.824   3.691   4.182
 1673SOL    HW1 5918   6.818   3.637   4.265
 1673SOL    HW2 5919   6.783   3.640   4.106
 1674SOL     OW 5920   1.100   3.934   0.007
 1674SOL    HW1 5921   1.096   3.880   6.945
 1674SOL    HW2 5922   1.119   3.874   0.084
 1675SOL     OW 5923   4.441   1.572   6.484
 1675SOL    HW1 5924   4.410   1.537   6.396
 1675SOL    HW2 5925   4.495   1.655   6.470
 1676SOL     OW 5926   1.668   0.724   3.116
 1676SOL    HW1 5927   1.722   0.643   3.140
 1676SOL    HW2 5928   1.677   0.792   3.189
 1677SOL     OW 5929   5.547   2.200   5.463
 1677SOL    HW1 5930   5.596   2.123   5.504
 1677SOL    HW2 5931   5.487   2.166   5.391
 1678SOL     OW 5932   5.278   7.004   2.067
 1678SOL    HW1 5933   5.340   0.024   2.133
 1678SOL    HW2 5934   5.330   6.964   1.992
 1679SOL     OW 5935   0.808   3.148   6.449
 1679SOL    HW1 5936   0.831   3.232   6.400
 1679SOL    HW2 5937   0.713   3.124   6.431
 1680SOL     OW 5938   0.601   2.027   4.094
 1680SOL    HW1 5939   0.607   1.960   4.168
 1680SOL    HW2 5940   0.691   2.040   4.054
 1681SOL     OW 5941   6.439   5.586   0.809
 1681SOL    HW1 5942   6.535   5.607   0.788
 1681SOL    HW2 5943   6.380   5.656   0.770
 1682SOL     OW 5944   6.750   3.217   5.579
 1682SOL    HW1 5945   6.721   3.155   5.506
 1682SOL    HW2 5946   6.703   3.305   5.567
 1683SOL     OW 5947   5.435   6.480   1.206
 1683SOL    HW1 5948   5.376   6.439   1.276
 1683SOL    HW2 5949   5.392   6.469   1.116
 1684SOL     OW 5950   0.508   6.447   5.639
 1684SOL    HW1 5951   0.493   6.520   5.572
 1684SOL    HW2 5952   0.472   6.475   5.728
 1685SOL     OW 5953   1.636   1.417   0.281
 1685SOL    HW1 5954   1.691   1.359   0.342
 1685SOL    HW2 5955   1.669   1.406   0.187
 1686SOL     OW 5956   1.323   6.683   6.519
 1686SOL    HW1 5957   1.342   6.585   6.531
 1686SOL    HW2 5958   1.404   6.736   6.545
 1687SOL     OW 5959   1.598   6.055   2.372
 1687SOL    HW1 5960   1.670   6.002   2.416
 1687SOL    HW2 5961   1.621   6.069   2.275
 1688SOL     OW 5962   1.619   1.892   2.540
 1688SOL    HW1 5963   1.610   1.916   2.443
 1688SOL    HW2 5964   1.704   1.932   2.576
 1689SOL     OW 5965   2.159   1.323   2.629
 1689SOL    HW1 5966   2.068   1.285   2.613
 1689SOL    HW2 5967   2.228   1.255   2.605
 1690SOL     OW 5968   1.701   1.484   1.464
 1690SOL    HW1 5969   1.744   1.569   1.435
 1690SOL    HW2 5970   1.718   1.413   1.397
 1691SOL     OW 5971   4.920   4.007   2.826
 1691SOL    HW1 5972   4.955   4.101   2.826
 1691SOL    HW2 5973   4.997   3.943   2.820
 1692SOL     OW 5974   0.816   0.275   2.173
 1692SOL    HW1 5975   0.797   0.334   2.094
 1692SOL    HW2 5976   0.910   0.292   2.205
 1693SOL     OW 5977   2.774   2.315   3.401
 1693SOL    HW1 5978   2.861   2.341   3.444
 1693SOL    HW2 5979   2.706   2.386   3.419
 1694SOL     OW 5980   4.790   5.663   4.866
 1694SOL    HW1 5981   4.692   5.654   4.888
 1694SOL    HW2 5982   4.816   5.759   4.870
 1695SOL     OW 5983   3.109   2.513   5.453
 1695SOL    HW1 5984   3.140   2.460   5.531
 1695SOL    HW2 5985   3.155   2.481   5.370
 1696SOL     OW 5986   5.154   6.137   0.719
 1696SOL    HW1 5987   5.172   6.210   0.654
 1696SOL    HW2 5988   5.237   6.120   0.773
 1697SOL     OW 5989   1.190   1.106   1.503
 1697SOL    HW1 5990   1.135   1.189   1.492
 1697SOL    HW2 5991   1.287   1.130   1.498
 1698SOL     OW 5992   4.386   2.263   1.497
 1698SOL    HW1 5993   4.302   2.227   1.537
 1698SOL    HW2 5994   4.363   2.338   1.434
 1699SOL     OW 5995   2.447   3.458   1.150
 1699SOL    HW1 5996   2.470   3.374   1.100
 1699SOL    HW2 5997   2.348   3.474   1.144
 1700SOL     OW 5998   0.068   3.000   3.043
 1700SOL    HW1 5999   0.110   2.994   3.133
 1700SOL    HW2 6000   7.016   2.934   3.036
 1701SOL     OW 6001   5.956   3.503   4.058
 1701SOL    HW1 6002   5.868   3.478   4.019
 1701SOL    HW2 6003   5.942   3.563   4.137
 1702SOL     OW 6004   5.015   3.950   1.286
 1702SOL    HW1 6005   5.093   3.993   1.241
 1702SOL    HW2 6006   4.978   3.878   1.227
 1703SOL     OW 6007   2.156   3.868   0.148
 1703SOL    HW1 6008   2.134   3.778   0.184
 1703SOL    HW2 6009   2.164   3.863   0.048
 1704SOL     OW 6010   0.519   0.702   1.767
 1704SOL    HW1 6011   0.568   0.773   1.819
 1704SOL    HW2 6012   0.544   0.708   1.671
 1705SOL     OW 6013   4.351   3.127   1.778
 1705SOL    HW1 6014   4.297   3.054   1.819
 1705SOL    HW2 6015   4.444   3.124   1.815
 1706SOL     OW 6016   3.357   0.731   1.268
 1706SOL    HW1 6017   3.336   0.829   1.272
 1706SOL    HW2 6018   3.341   0.698   1.175
 1707SOL     OW 6019   5.745   2.139   3.451
 1707SOL    HW1 6020   5.745   2.223   3.504
 1707SOL    HW2 6021   5.834   2.094   3.458
 1708SOL     OW 6022   6.693   5.511   3.480
 1708SOL    HW1 6023   6.704   5.580   3.408
 1708SOL    HW2 6024   6.741   5.427   3.454
 1709SOL     OW 6025   3.238   6.044   2.552
 1709SOL    HW1 6026   3.317   6.040   2.491
 1709SOL    HW2 6027   3.218   5.953   2.588
 1710SOL     OW 6028   0.308   5.734   4.398
 1710SOL    HW1 6029   0.222   5.696   4.363
 1710SOL    HW2 6030   0.289   5.820   4.446
 1711SOL     OW 6031   1.504   4.809   5.108
 1711SOL    HW1 6032   1.549   4.730   5.150
 1711SOL    HW2 6033   1.509   4.800   5.009
 1712SOL     OW 6034   0.196   4.305   0.593
 1712SOL    HW1 6035   0.107   4.323   0.550
 1712SOL    HW2 6036   0.234   4.390   0.628
 1713SOL     OW 6037   1.446   2.736   1.291
 1713SOL    HW1 6038   1.368   2.678   1.266
 1713SOL    HW2 6039   1.495   2.763   1.208
 1714SOL     OW 6040   3.351   1.890   0.850
 1714SOL    HW1 6041   3.332   1.954   0.925
 1714SOL    HW2 6042   3.321   1.930   0.764
 1715SOL     OW 6043   0.187   2.991   2.804
 1715SOL    HW1 6044   0.147   3.067   2.753
 1715SOL    HW2 6045   0.160   2.998   2.900
 1716SOL     OW 6046   0.293   6.003   6.938
 1716SOL    HW1 6047   0.369   6.017   6.875
 1716SOL    HW2 6048   0.288   5.906   6.963
 1717SOL     OW 6049   3.092   0.149   6.892
 1717SOL    HW1 6050   3.110   0.236   6.939
 1717SOL    HW2 6051   3.169   0.088   6.905
 1718SOL     OW 6052   1.531   4.459   0.058
 1718SOL    HW1 6053   1.526   4.486   6.983
 1718SOL    HW2 6054   1.589   4.523   0.107
 1719SOL     OW 6055   1.923   3.539   1.581
 1719SOL    HW1 6056   1.833   3.495   1.586
 1719SOL    HW2 6057   1.987   3.491   1.641
 1720SOL     OW 6058   6.438   1.149   0.136
 1720SOL    HW1 6059   6.522   1.109   0.172
 1720SOL    HW2 6060   6.419   1.112   0.045
 1721SOL     OW 6061   2.193   6.526   3.529
 1721SOL    HW1 6062   2.129   6.558   3.459
 1721SOL    HW2 6063   2.285   6.522   3.490
 1722SOL     OW 6064   5.939   6.847   2.141
 1722SOL    HW1 6065   6.001   6.864   2.217
 1722SOL    HW2 6066   5.931   6.749   2.125
 1723SOL     OW 6067   0.104   1.747   2.344
 1723SOL    HW1 6068   0.109   1.648   2.350
 1723SOL    HW2 6069   0.018   1.779   2.385
 1724SOL     OW 6070   4.539   0.891   6.605
 1724SOL    HW1 6071   4.590   0.971   6.640
 1724SOL    HW2 6072   4.446   0.893   6.641
 1725SOL     OW 6073   3.447   4.177   1.261
 1725SOL    HW1 6074   3.513   4.250   1.245
 1725SOL    HW2 6075   3.405   4.149   1.175
 1726SOL     OW 6076   0.141   4.292   4.251
 1726SOL    HW1 6077   0.149   4.193   4.254
 1726SOL    HW2 6078   0.218   4.331   4.201
 1727SOL     OW 6079   4.085   3.740   4.970
 1727SOL    HW1 6080   4.174   3.785   4.972
 1727SOL    HW2 6081   4.013   3.809   4.964
 1728SOL     OW 6082   4.497   4.494   3.567
 1728SOL    HW1 6083   4.562   4.428   3.605
 1728SOL    HW2 6084   4.432   4.521   3.637
 1729SOL     OW 6085   1.696   3.366   2.788
 1729SOL    HW1 6086   1.748   3.438   2.743
 1729SOL    HW2 6087   1.615   3.343   2.733
 1730SOL     OW 6088   6.384   2.581   5.228
 1730SOL    HW1 6089   6.379   2.483   5.249
 1730SOL    HW2 6090   6.296   2.624   5.244
 1731SOL     OW 6091   2.009   5.111   0.677
 1731SOL    HW1 6092   2.047   5.045   0.741
 1731SOL    HW2 6093   1.936   5.163   0.723
 1732SOL     OW 6094   1.113   4.455   6.942
 1732SOL    HW1 6095   1.062   4.504   7.013
 1732SOL    HW2 6096   1.161   4.377   6.983
 1733SOL     OW 6097   1.368   3.692   1.095
 1733SOL    HW1 6098   1.439   3.655   1.155
 1733SOL    HW2 6099   1.294   3.730   1.151
 1734SOL     OW 6100   4.449   2.737   1.121
 1734SOL    HW1 6101   4.415   2.694   1.038
 1734SOL    HW2 6102   4.549   2.739   1.119
 1735SOL     OW 6103   5.754   5.339   1.774
 1735SOL    HW1 6104   5.830   5.275   1.791
 1735SOL    HW2 6105   5.677   5.289   1.733
 1736SOL     OW 6106   3.688   3.075   7.006
 1736SOL    HW1 6107   3.680   3.023   6.920
 1736SOL    HW2 6108   3.771   3.047   0.032
 1737SOL     OW 6109   1.967   0.150   3.530
 1737SOL    HW1 6110   1.923   0.106   3.452
 1737SOL    HW2 6111   1.953   0.095   3.612
 1738SOL     OW 6112   2.159   3.152   2.384
 1738SOL    HW1 6113   2.146   3.062   2.341
 1738SOL    HW2 6114   2.220   3.143   2.463
 1739SOL     OW 6115   4.715   2.232   4.872
 1739SOL    HW1 6116   4.681   2.302   4.809
 1739SOL    HW2 6117   4.787   2.271   4.929
 1740SOL     OW 6118   0.348   0.893   6.054
 1740SOL    HW1 6119   0.325   0.797   6.035
 1740SOL    HW2 6120   0.332   0.948   5.972
 1741SOL     OW 6121   1.147   0.781   2.789
 1741SOL    HW1 6122   1.222   0.730   2.747
 1741SOL    HW2 6123   1.090   0.822   2.717
 1742SOL     OW 6124   6.277   0.797   4.656
 1742SOL    HW1 6125   6.367   0.829   4.684
 1742SOL    HW2 6126   6.227   0.873   4.613
 1743SOL     OW 6127   3.598   1.071   1.468
 1743SOL    HW1 6128   3.514   1.121   1.446
 1743SOL    HW2 6129   3.666   1.087   1.396
 1744SOL     OW 6130   2.747   0.852   1.633
 1744SOL    HW1 6131   2.775   0.809   1.548
 1744SOL    HW2 6132   2.665   0.908   1.618
 1745SOL     OW 6133   6.401   2.063   3.327
 1745SOL    HW1 6134   6.436   1.970   3.328
 1745SOL    HW2 6135   6.357   2.081   3.239
 1746SOL     OW 6136   3.079   0.606   5.836
 1746SOL    HW1 6137   3.135   0.584   5.915
 1746SOL    HW2 6138   3.086   0.704   5.816
 1747SOL     OW 6139   3.371   0.436   2.079
 1747SOL    HW1 6140   3.460   0.429   2.033
 1747SOL    HW2 6141   3.322   0.516   2.045
 1748SOL     OW 6142   5.978   1.999   3.437
 1748SOL    HW1 6143   6.060   1.992   3.495
 1748SOL    HW2 6144   5.947   1.907   3.412
 1749SOL     OW 6145   4.104   6.595   6.505
 1749SOL    HW1 6146   4.040   6.656   6.552
 1749SOL    HW2 6147   4.154   6.541   6.573
 1750SOL     OW 6148   4.890   1.735   2.705
 1750SOL    HW1 6149   4.804   1.784   2.713
 1750SOL    HW2 6150   4.904   1.707   2.610
 1751SOL     OW 6151   1.365   5.402   4.361
 1751SOL    HW1 6152   1.345   5.380   4.456
 1751SOL    HW2 6153   1.455   5.366   4.336
 1752SOL     OW 6154   6.400   1.703   0.431
 1752SOL    HW1 6155   6.486   1.664   0.398
 1752SOL    HW2 6156   6.324   1.642   0.408
 1753SOL     OW 6157   0.628   0.169   1.096
 1753SOL    HW1 6158   0.585   0.232   1.161
 1753SOL    HW2 6159   0.709   0.127   1.137
 1754SOL     OW 6160   3.940   3.038   0.869
 1754SOL    HW1 6161   3.904   3.096   0.796
 1754SOL    HW2 6162   3.904   3.069   0.957
 1755SOL     OW 6163   5.129   4.410   1.370
 1755SOL    HW1 6164   5.216   4.446   1.336
 1755SOL    HW2 6165   5.147   4.335   1.433
 1756SOL     OW 6166   6.898   5.537   4.126
 1756SOL    HW1 6167   6.914   5.446   4.088
 1756SOL    HW2 6168   6.985   5.578   4.155
 1757SOL     OW 6169   3.295   6.639   4.551
 1757SOL    HW1 6170   3.225   6.708   4.529
 1757SOL    HW2 6171   3.382   6.666   4.511
 1758SOL     OW 6172   2.652   0.589   3.398
 1758SOL    HW1 6173   2.612   0.631   3.479
 1758SOL    HW2 6174   2.579   0.551   3.341
 1759SOL     OW 6175   0.601   5.162   5.858
 1759SOL    HW1 6176   0.693   5.199   5.872
 1759SOL    HW2 6177   0.600   5.066   5.885
 1760SOL     OW 6178   6.391   1.218   2.094
 1760SOL    HW1 6179   6.412   1.291   2.029
 1760SOL    HW2 6180   6.312   1.167   2.062
 1761SOL     OW 6181   5.887   1.031   0.931
 1761SOL    HW1 6182   5.794   0.997   0.920
 1761SOL    HW2 6183   5.938   0.971   0.992
 1762SOL     OW 6184   6.040   1.691   6.278
 1762SOL    HW1 6185   6.071   1.747   6.355
 1762SOL    HW2 6186   6.119   1.665   6.223
 1763SOL     OW 6187   1.686   3.770   4.087
 1763SOL    HW1 6188   1.640   3.854   4.058
 1763SOL    HW2 6189   1.645   3.736   4.171
 1764SOL     OW 6190   0.630   3.218   2.711
 1764SOL    HW1 6191   0.639   3.284   2.786
 1764SOL    HW2 6192   0.582   3.136   2.744
 1765SOL     OW 6193   2.235   2.467   6.685
 1765SOL    HW1 6194   2.243   2.520   6.770
 1765SOL    HW2 6195   2.163   2.507   6.628
 1766SOL     OW 6196   5.707   3.318   5.233
 1766SOL    HW1 6197   5.702   3.380   5.155
 1766SOL    HW2 6198   5.645   3.350   5.305
 1767SOL     OW 6199   5.547   3.773   2.705
 1767SOL    HW1 6200   5.549   3.872   2.690
 1767SOL    HW2 6201   5.478   3.732   2.646
 1768SOL     OW 6202   4.416   6.632   3.179
 1768SOL    HW1 6203   4.476   6.556   3.205
 1768SOL    HW2 6204   4.320   6.606   3.195
 1769SOL     OW 6205   3.697   1.969   2.709
 1769SOL    HW1 6206   3.625   1.978   2.640
 1769SOL    HW2 6207   3.781   2.013   2.676
 1770SOL     OW 6208   2.797   5.840   5.639
 1770SOL    HW1 6209   2.844   5.920   5.602
 1770SOL    HW2 6210   2.746   5.795   5.566
 1771SOL     OW 6211   3.147   6.375   0.066
 1771SOL    HW1 6212   3.099   6.301   0.113
 1771SOL    HW2 6213   3.243   6.375   0.093
 1772SOL     OW 6214   3.128   6.777   2.763
 1772SOL    HW1 6215   3.158   6.870   2.745
 1772SOL    HW2 6216   3.103   6.733   2.677
 1773SOL     OW 6217   1.583   5.563   6.568
 1773SOL    HW1 6218   1.563   5.504   6.646
 1773SOL    HW2 6219   1.628   5.510   6.497
 1774SOL     OW 6220   4.020   5.533   1.348
 1774SOL    HW1 6221   4.116   5.531   1.377
 1774SOL    HW2 6222   3.987   5.627   1.350
 1775SOL     OW 6223   1.172   3.668   2.259
 1775SOL    HW1 6224   1.182   3.767   2.271
 1775SOL    HW2 6225   1.139   3.650   2.166
 1776SOL     OW 6226   4.091   5.954   4.194
 1776SOL    HW1 6227   4.063   5.902   4.275
 1776SOL    HW2 6228   4.172   5.912   4.153
 1777SOL     OW 6229   4.237   5.935   0.320
 1777SOL    HW1 6230   4.215   5.884   0.403
 1777SOL    HW2 6231   4.205   6.029   0.329
 1778SOL     OW 6232   4.623   3.331   6.285
 1778SOL    HW1 6233   4.592   3.335   6.380
 1778SOL    HW2 6234   4.610   3.239   6.250
 1779SOL     OW 6235   3.643   0.945   5.150
 1779SOL    HW1 6236   3.618   0.974   5.058
 1779SOL    HW2 6237   3.698   1.015   5.194
 1780SOL     OW 6238   3.522   3.224   6.400
 1780SOL    HW1 6239   3.538   3.273   6.485
 1780SOL    HW2 6240   3.599   3.162   6.383
 1781SOL     OW 6241   4.266   5.922   3.009
 1781SOL    HW1 6242   4.321   5.840   2.997
 1781SOL    HW2 6243   4.258   5.970   2.921
 1782SOL     OW 6244   2.907   1.151   3.033
 1782SOL    HW1 6245   2.914   1.156   3.133
 1782SOL    HW2 6246   2.829   1.094   3.007
 1783SOL     OW 6247   2.633   5.283   6.306
 1783SOL    HW1 6248   2.665   5.291   6.400
 1783SOL    HW2 6249   2.547   5.233   6.304
 1784SOL     OW 6250   3.534   0.001   6.025
 1784SOL    HW1 6251   3.485   0.012   5.939
 1784SOL    HW2 6252   3.521   6.930   6.060
 1785SOL     OW 6253   6.256   3.871   2.625
 1785SOL    HW1 6254   6.188   3.797   2.623
 1785SOL    HW2 6255   6.265   3.910   2.533
 1786SOL     OW 6256   2.207   2.867   0.541
 1786SOL    HW1 6257   2.265   2.863   0.460
 1786SOL    HW2 6258   2.121   2.818   0.523
 1787SOL     OW 6259   3.320   1.362   5.420
 1787SOL    HW1 6260   3.276   1.338   5.333
 1787SOL    HW2 6261   3.257   1.417   5.474
 1788SOL     OW 6262   1.443   4.882   5.790
 1788SOL    HW1 6263   1.521   4.908   5.732
 1788SOL    HW2 6264   1.467   4.801   5.844
 1789SOL     OW 6265   5.426   2.092   0.439
 1789SOL    HW1 6266   5.425   1.996   0.414
 1789SOL    HW2 6267   5.364   2.143   0.379
 1790SOL     OW 6268   3.854   6.729   3.245
 1790SOL    HW1 6269   3.765   6.687   3.229
 1790SOL    HW2 6270   3.864   6.751   3.342
 1791SOL     OW 6271   6.750   7.012   2.457
 1791SOL    HW1 6272   6.762   6.928   2.403
 1791SOL    HW2 6273   6.796   0.066   2.411
 1792SOL     OW 6274   0.554   4.051   5.059
 1792SOL    HW1 6275   0.631   3.989   5.041
 1792SOL    HW2 6276   0.586   4.131   5.109
 1793SOL     OW 6277   6.635   0.832   3.564
 1793SOL    HW1 6278   6.662   0.905   3.627
 1793SOL    HW2 6279   6.711   0.812   3.501
 1794SOL     OW 6280   5.094   5.838   5.643
 1794SOL    HW1 6281   4.997   5.824   5.622
 1794SOL    HW2 6282   5.103   5.878   5.735
 1795SOL     OW 6283   0.107   2.488   0.684
 1795SOL    HW1 6284   0.075   2.578   0.656
 1795SOL    HW2 6285   0.031   2.422   0.676
 1796SOL     OW 6286   2.291   0.860   5.706
 1796SOL    HW1 6287   2.241   0.794   5.763
 1796SOL    HW2 6288   2.374   0.888   5.754
 1797SOL     OW 6289   1.069   6.813   0.254
 1797SOL    HW1 6290   1.134   6.814   0.177
 1797SOL    HW2 6291   0.976   6.823   0.218
 1798SOL     OW 6292   4.398   2.458   3.871
 1798SOL    HW1 6293   4.454   2.541   3.867
 1798SOL    HW2 6294   4.456   2.381   3.896
 1799SOL     OW 6295   6.768   2.623   5.193
 1799SOL    HW1 6296   6.867   2.641   5.202
 1799SOL    HW2 6297   6.730   2.684   5.123
 1800SOL     OW 6298   3.929   4.435   1.529
 1800SOL    HW1 6299   3.962   4.467   1.618
 1800SOL    HW2 6300   3.986   4.473   1.456
 1801SOL     OW 6301   6.922   0.747   2.025
 1801SOL    HW1 6302   6.889   0.740   2.119
 1801SOL    HW2 6303   7.009   0.698   2.016
 1802SOL     OW 6304   6.620   5.323   4.190
 1802SOL    HW1 6305   6.668   5.236   4.205
 1802SOL    HW2 6306   6.664   5.395   4.244
 1803SOL     OW 6307   0.372   5.217   6.981
 1803SOL    HW1 6308   0.417   5.153   0.022
 1803SOL    HW2 6309   0.420   5.305   6.983
 1804SOL     OW 6310   2.817   4.155   5.508
 1804SOL    HW1 6311   2.739   4.099   5.481
 1804SOL    HW2 6312   2.851   4.206   5.430
 1805SOL     OW 6313   5.050   4.029   6.480
 1805SOL    HW1 6314   4.994   4.053   6.400
 1805SOL    HW2 6315   5.008   3.951   6.527
 1806SOL     OW 6316   0.908   0.153   1.233
 1806SOL    HW1 6317   0.954   0.232   1.193
 1806SOL    HW2 6318   0.900   0.167   1.332
 1807SOL     OW 6319   6.025   1.823   4.904
 1807SOL    HW1 6320   5.991   1.752   4.966
 1807SOL    HW2 6321   6.124   1.814   4.893
 1808SOL     OW 6322   0.143   5.149   4.751
 1808SOL    HW1 6323   0.163   5.175   4.845
 1808SOL    HW2 6324   0.215   5.184   4.691
 1809SOL     OW 6325   2.847   1.715   5.858
 1809SOL    HW1 6326   2.855   1.693   5.760
 1809SOL    HW2 6327   2.808   1.638   5.907
 1810SOL     OW 6328   3.229   6.970   3.686
 1810SOL    HW1 6329   3.222   6.972   3.786
 1810SOL    HW2 6330   3.182   0.027   3.647
 1811SOL     OW 6331   5.886   5.757   3.286
 1811SOL    HW1 6332   5.854   5.804   3.368
 1811SOL    HW2 6333   5.811   5.704   3.247
 1812SOL     OW 6334   4.415   5.657   5.018
 1812SOL    HW1 6335   4.403   5.574   4.963
 1812SOL    HW2 6336   4.406   5.738   4.959
 1813SOL     OW 6337   5.691   4.301   0.420
 1813SOL    HW1 6338   5.669   4.355   0.501
 1813SOL    HW2 6339   5.770   4.341   0.374
 1814SOL     OW 6340   4.544   0.110   2.121
 1814SOL    HW1 6341   4.544   0.022   2.169
 1814SOL    HW2 6342   4.622   0.165   2.151
 1815SOL     OW 6343   0.630   1.496   2.973
 1815SOL    HW1 6344   0.571   1.523   2.897
 1815SOL    HW2 6345   0.579   1.503   3.059
 1816SOL     OW 6346   2.002   2.862   1.042
 1816SOL    HW1 6347   1.976   2.948   0.998
 1816SOL    HW2 6348   1.924   2.827   1.094
 1817SOL     OW 6349   1.766   6.388   2.375
 1817SOL    HW1 6350   1.831   6.331   2.325
 1817SOL    HW2 6351   1.814   6.458   2.427
 1818SOL     OW 6352   1.533   0.457   3.027
 1818SOL    HW1 6353   1.623   0.499   3.038
 1818SOL    HW2 6354   1.471   0.494   3.096
 1819SOL     OW 6355   1.074   4.231   1.480
 1819SOL    HW1 6356   1.038   4.261   1.568
 1819SOL    HW2 6357   1.083   4.310   1.419
 1820SOL     OW 6358   4.331   0.873   2.223
 1820SOL    HW1 6359   4.416   0.921   2.200
 1820SOL    HW2 6360   4.254   0.937   2.217
 1821SOL     OW 6361   1.929   1.179   2.596
 1821SOL    HW1 6362   1.868   1.116   2.645
 1821SOL    HW2 6363   1.887   1.204   2.509
 1822SOL     OW 6364   3.492   2.630   1.560
 1822SOL    HW1 6365   3.419   2.668   1.617
 1822SOL    HW2 6366   3.574   2.617   1.614
 1823SOL     OW 6367   4.183   6.557   2.556
 1823SOL    HW1 6368   4.187   6.639   2.613
 1823SOL    HW2 6369   4.250   6.490   2.588
 1824SOL     OW 6370   4.226   2.625   1.323
 1824SOL    HW1 6371   4.317   2.661   1.345
 1824SOL    HW2 6372   4.235   2.542   1.269
 1825SOL     OW 6373   1.135   0.633   1.434
 1825SOL    HW1 6374   1.112   0.557   1.495
 1825SOL    HW2 6375   1.170   0.710   1.488
 1826SOL     OW 6376   3.111   1.065   1.027
 1826SOL    HW1 6377   3.161   1.113   0.955
 1826SOL    HW2 6378   3.029   1.117   1.050
 1827SOL     OW 6379   6.901   5.497   1.778
 1827SOL    HW1 6380   6.859   5.574   1.730
 1827SOL    HW2 6381   6.890   5.508   1.876
 1828SOL     OW 6382   1.174   2.865   6.948
 1828SOL    HW1 6383   1.137   2.936   7.007
 1828SOL    HW2 6384   1.177   2.898   6.854
 1829SOL     OW 6385   4.824   5.715   3.007
 1829SOL    HW1 6386   4.765   5.795   3.024
 1829SOL    HW2 6387   4.785   5.660   2.933
 1830SOL     OW 6388   4.409   6.574   3.606
 1830SOL    HW1 6389   4.499   6.565   3.647
 1830SOL    HW2 6390   4.364   6.485   3.603
 1831SOL     OW 6391   5.703   6.248   2.153
 1831SOL    HW1 6392   5.783   6.194   2.178
 1831SOL    HW2 6393   5.684   6.236   2.055
 1832SOL     OW 6394   4.598   2.312   1.243
 1832SOL    HW1 6395   4.695   2.337   1.244
 1832SOL    HW2 6396   4.576   2.267   1.156
 1833SOL     OW 6397   5.238   0.606   4.770
 1833SOL    HW1 6398   5.277   0.530   4.823
 1833SOL    HW2 6399   5.311   0.654   4.722
 1834SOL     OW 6400   3.639   3.310   0.965
 1834SOL    HW1 6401   3.616   3.215   0.946
 1834SOL    HW2 6402   3.689   3.315   1.052
 1835SOL     OW 6403   1.552   4.981   0.982
 1835SOL    HW1 6404   1.602   4.902   1.016
 1835SOL    HW2 6405   1.595   5.065   1.015
 1836SOL     OW 6406   0.268   1.067   0.752
 1836SOL    HW1 6407   0.203   0.992   0.762
 1836SOL    HW2 6408   0.358   1.037   0.783
 1837SOL     OW 6409   0.774   2.306   4.341
 1837SOL    HW1 6410   0.823   2.219   4.346
 1837SOL    HW2 6411   0.703   2.300   4.271
 1838SOL     OW 6412   0.570   3.059   4.284
 1838SOL    HW1 6413   0.579   3.119   4.205
 1838SOL    HW2 6414   0.489   3.085   4.337
 1839SOL     OW 6415   6.301   3.160   4.638
 1839SOL    HW1 6416   6.206   3.187   4.654
 1839SOL    HW2 6417   6.361   3.237   4.659
 1840SOL     OW 6418   2.755   5.816   0.472
 1840SOL    HW1 6419   2.700   5.900   0.469
 1840SOL    HW2 6420   2.704   5.741   0.430
 1841SOL     OW 6421   2.264   2.973   3.978
 1841SOL    HW1 6422   2.329   3.008   3.910
 1841SOL    HW2 6423   2.284   3.015   4.067
 1842SOL     OW 6424   0.668   4.892   0.393
 1842SOL    HW1 6425   0.675   4.877   0.492
 1842SOL    HW2 6426   0.585   4.848   0.358
 1843SOL     OW 6427   2.321   1.165   5.765
 1843SOL    HW1 6428   2.278   1.099   5.703
 1843SOL    HW2 6429   2.368   1.235   5.711
 1844SOL     OW 6430   4.112   2.142   4.547
 1844SOL    HW1 6431   4.075   2.082   4.476
 1844SOL    HW2 6432   4.043   2.154   4.619
 1845SOL     OW 6433   3.974   0.375   6.714
 1845SOL    HW1 6434   3.878   0.389   6.737
 1845SOL    HW2 6435   4.020   0.464   6.713
 1846SOL     OW 6436   3.658   1.950   6.666
 1846SOL    HW1 6437   3.729   1.885   6.640
 1846SOL    HW2 6438   3.590   1.904   6.724
 1847SOL     OW 6439   0.883   6.922   1.097
 1847SOL    HW1 6440   0.887   6.983   1.176
 1847SOL    HW2 6441   0.961   6.860   1.099
 1848SOL     OW 6442   3.101   6.200   2.221
 1848SOL    HW1 6443   3.063   6.214   2.312
 1848SOL    HW2 6444   3.128   6.288   2.182
 1849SOL     OW 6445   3.678   1.398   0.317
 1849SOL    HW1 6446   3.707   1.327   0.252
 1849SOL    HW2 6447   3.636   1.355   0.397
 1850SOL     OW 6448   6.268   2.246   3.126
 1850SOL    HW1 6449   6.184   2.294   3.152
 1850SOL    HW2 6450   6.245   2.166   3.071
 1851SOL     OW 6451   0.369   1.759   2.385
 1851SOL    HW1 6452   0.374   1.845   2.435
 1851SOL    HW2 6453   0.274   1.742   2.357
 1852SOL     OW 6454   3.689   3.265   0.316
 1852SOL    HW1 6455   3.601   3.221   0.297
 1852SOL    HW2 6456   3.741   3.208   0.380
 1853SOL     OW 6457   0.653   3.999   1.051
 1853SOL    HW1 6458   0.611   4.066   1.112
 1853SOL    HW2 6459   0.606   3.911   1.060
 1854SOL     OW 6460   2.903   5.753   4.690
 1854SOL    HW1 6461   2.923   5.666   4.735
 1854SOL    HW2 6462   2.825   5.742   4.629
 1855SOL     OW 6463   4.999   5.251   0.822
 1855SOL    HW1 6464   4.928   5.322   0.817
 1855SOL    HW2 6465   5.072   5.272   0.758
 1856SOL     OW 6466   5.827   2.827   5.356
 1856SOL    HW1 6467   5.846   2.731   5.336
 1856SOL    HW2 6468   5.912   2.879   5.355
 1857SOL     OW 6469   3.982   0.929   4.644
 1857SOL    HW1 6470   4.006   1.025   4.640
 1857SOL    HW2 6471   3.928   0.904   4.564
 1858SOL     OW 6472   5.023   3.107   3.941
 1858SOL    HW1 6473   5.029   3.149   3.850
 1858SOL    HW2 6474   5.104   3.051   3.957
 1859SOL     OW 6475   4.396   2.037   3.385
 1859SOL    HW1 6476   4.366   2.132   3.394
 1859SOL    HW2 6477   4.322   1.976   3.413
 1860SOL     OW 6478   6.259   0.964   3.877
 1860SOL    HW1 6479   6.310   0.912   3.808
 1860SOL    HW2 6480   6.166   0.979   3.844
 1861SOL     OW 6481   4.986   6.355   3.037
 1861SOL    HW1 6482   5.003   6.357   2.938
 1861SOL    HW2 6483   5.006   6.445   3.076
 1862SOL     OW 6484   2.083   1.005   6.807
 1862SOL    HW1 6485   2.039   1.092   6.831
 1862SOL    HW2 6486   2.014   0.933   6.800
 1863SOL     OW 6487   2.768   2.682   1.370
 1863SOL    HW1 6488   2.670   2.668   1.353
 1863SOL    HW2 6489   2.818   2.676   1.283
 1864SOL     OW 6490   0.565   6.537   4.493
 1864SOL    HW1 6491   0.643   6.477   4.508
 1864SOL    HW2 6492   0.596   6.632   4.487
 1865SOL     OW 6493   3.716   1.880   5.358
 1865SOL    HW1 6494   3.616   1.873   5.365
 1865SOL    HW2 6495   3.740   1.951   5.293
 1866SOL     OW 6496   4.692   4.297   2.444
 1866SOL    HW1 6497   4.651   4.213   2.409
 1866SOL    HW2 6498   4.766   4.326   2.383
 1867SOL     OW 6499   0.389   4.399   6.795
 1867SOL    HW1 6500   0.411   4.331   6.864
 1867SOL    HW2 6501   0.298   4.437   6.813
 1868SOL     OW 6502   5.701   4.501   5.942
 1868SOL    HW1 6503   5.651   4.417   5.960
 1868SOL    HW2 6504   5.772   4.513   6.012
 1869SOL     OW 6505   6.411   1.127   5.181
 1869SOL    HW1 6506   6.397   1.120   5.280
 1869SOL    HW2 6507   6.506   1.106   5.159
 1870SOL     OW 6508   1.629   5.089   4.900
 1870SOL    HW1 6509   1.536   5.092   4.864
 1870SOL    HW2 6510   1.653   4.995   4.924
 1871SOL     OW 6511   2.384   0.349   0.610
 1871SOL    HW1 6512   2.360   0.412   0.536
 1871SOL    HW2 6513   2.346   0.384   0.696
 1872SOL     OW 6514   2.729   4.522   0.523
 1872SOL    HW1 6515   2.681   4.606   0.500
 1872SOL    HW2 6516   2.789   4.537   0.601
 1873SOL     OW 6517   4.074   1.370   6.049
 1873SOL    HW1 6518   3.993   1.349   5.993
 1873SOL    HW2 6519   4.138   1.426   5.996
 1874SOL     OW 6520   1.798   1.609   2.211
 1874SOL    HW1 6521   1.775   1.573   2.302
 1874SOL    HW2 6522   1.802   1.533   2.145
 1875SOL     OW 6523   0.137   6.867   6.348
 1875SOL    HW1 6524   0.177   6.817   6.426
 1875SOL    HW2 6525   0.089   6.948   6.381
 1876SOL     OW 6526   2.805   7.008   4.491
 1876SOL    HW1 6527   2.769   6.918   4.518
 1876SOL    HW2 6528   2.806   0.047   4.570
 1877SOL     OW 6529   0.965   0.397   3.880
 1877SOL    HW1 6530   0.974   0.305   3.843
 1877SOL    HW2 6531   0.869   0.425   3.878
 1878SOL     OW 6532   0.091   2.223   4.279
 1878SOL    HW1 6533   0.116   2.311   4.238
 1878SOL    HW2 6534   0.125   2.149   4.222
 1879SOL     OW 6535   1.099   3.800   4.839
 1879SOL    HW1 6536   1.165   3.869   4.869
 1879SOL    HW2 6537   1.087   3.806   4.740
 1880SOL     OW 6538   6.716   1.871   5.195
 1880SOL    HW1 6539   6.688   1.947   5.135
 1880SOL    HW2 6540   6.657   1.792   5.178
 1881SOL     OW 6541   6.457   2.260   0.131
 1881SOL    HW1 6542   6.360   2.273   0.151
 1881SOL    HW2 6543   6.489   2.174   0.172
 1882SOL     OW 6544   1.086   4.048   5.897
 1882SOL    HW1 6545   1.053   4.044   5.991
 1882SOL    HW2 6546   1.174   4.095   5.895
 1883SOL     OW 6547   6.717   2.346   2.433
 1883SOL    HW1 6548   6.625   2.354   2.394
 1883SOL    HW2 6549   6.775   2.418   2.395
 1884SOL     OW 6550   0.446   1.990   1.347
 1884SOL    HW1 6551   0.461   1.966   1.443
 1884SOL    HW2 6552   0.387   1.922   1.304
 1885SOL     OW 6553   1.945   1.431   5.313
 1885SOL    HW1 6554   1.885   1.436   5.233
 1885SOL    HW2 6555   1.891   1.406   5.394
 1886SOL     OW 6556   1.418   0.285   2.835
 1886SOL    HW1 6557   1.460   0.343   2.905
 1886SOL    HW2 6558   1.488   0.253   2.772
 1887SOL     OW 6559   1.414   5.880   5.915
 1887SOL    HW1 6560   1.324   5.871   5.958
 1887SOL    HW2 6561   1.415   5.826   5.831
 1888SOL     OW 6562   3.009   1.635   0.923
 1888SOL    HW1 6563   3.005   1.731   0.952
 1888SOL    HW2 6564   3.063   1.583   0.988
 1889SOL     OW 6565   1.500   3.339   3.663
 1889SOL    HW1 6566   1.520   3.412   3.728
 1889SOL    HW2 6567   1.403   3.341   3.639
 1890SOL     OW 6568   0.863   5.864   3.449
 1890SOL    HW1 6569   0.777   5.820   3.478
 1890SOL    HW2 6570   0.940   5.816   3.491
 1891SOL     OW 6571   3.892   3.483   2.223
 1891SOL    HW1 6572   3.989   3.465   2.203
 1891SOL    HW2 6573   3.868   3.444   2.312
 1892SOL     OW 6574   0.086   0.301   1.639
 1892SOL    HW1 6575   0.051   0.219   1.683
 1892SOL    HW2 6576   0.181   0.316   1.667
 1893SOL     OW 6577   3.772   3.344   3.152
 1893SOL    HW1 6578   3.729   3.263   3.192
 1893SOL    HW2 6579   3.762   3.421   3.215
 1894SOL     OW 6580   3.331   3.730   4.286
 1894SOL    HW1 6581   3.264   3.792   4.244
 1894SOL    HW2 6582   3.317   3.637   4.251
 1895SOL     OW 6583   4.588   0.399   0.631
 1895SOL    HW1 6584   4.552   0.492   0.637
 1895SOL    HW2 6585   4.688   0.401   0.643
 1896SOL     OW 6586   5.340   1.568   0.767
 1896SOL    HW1 6587   5.405   1.563   0.843
 1896SOL    HW2 6588   5.364   1.643   0.707
 1897SOL     OW 6589   2.177   4.624   3.141
 1897SOL    HW1 6590   2.235   4.564   3.085
 1897SOL    HW2 6591   2.107   4.667   3.083
 1898SOL     OW 6592   1.530   5.431   3.132
 1898SOL    HW1 6593   1.493   5.435   3.039
 1898SOL    HW2 6594   1.619   5.386   3.131
 1899SOL     OW 6595   7.006   0.423   1.402
 1899SOL    HW1 6596   6.923   0.466   1.438
 1899SOL    HW2 6597   0.028   0.370   1.474
 1900SOL     OW 6598   2.668   0.761   7.005
 1900SOL    HW1 6599   2.670   0.735   6.908
 1900SOL    HW2 6600   2.577   0.742   0.020
 1901SOL     OW 6601   2.839   3.852   1.273
 1901SOL    HW1 6602   2.754   3.804   1.252
 1901SOL    HW2 6603   2.916   3.789   1.260
 1902SOL     OW 6604   1.867   6.691   4.487
 1902SOL    HW1 6605   1.916   6.705   4.401
 1902SOL    HW2 6606   1.806   6.612   4.477
 1903SOL     OW 6607   0.895   2.545   4.014
 1903SOL    HW1 6608   0.992   2.525   3.999
 1903SOL    HW2 6609   0.874   2.637   3.983
 1904SOL     OW 6610   5.475   5.470   2.859
 1904SOL    HW1 6611   5.536   5.424   2.794
 1904SOL    HW2 6612   5.515   5.558   2.885
 1905SOL     OW 6613   0.802   0.831   4.209
 1905SOL    HW1 6614   0.745   0.749   4.207
 1905SOL    HW2 6615   0.818   0.864   4.116
 1906SOL     OW 6616   2.499   0.121   6.120
 1906SOL    HW1 6617   2.409   0.149   6.156
 1906SOL    HW2 6618   2.535   0.195   6.063
 1907SOL     OW 6619   5.148   3.187   6.908
 1907SOL    HW1 6620   5.238   3.221   6.933
 1907SOL    HW2 6621   5.106   3.143   6.987
 1908SOL     OW 6622   3.885   0.600   0.784
 1908SOL    HW1 6623   3.797   0.640   0.810
 1908SOL    HW2 6624   3.911   0.530   0.850
 1909SOL     OW 6625   0.054   4.389   4.845
 1909SOL    HW1 6626   0.026   4.406   4.940
 1909SOL    HW2 6627   7.018   4.318   4.806
 1910SOL     OW 6628   6.549   5.975   6.027
 1910SOL    HW1 6629   6.549   6.017   6.118
 1910SOL    HW2 6630   6.585   5.881   6.034
 1911SOL     OW 6631   0.150   5.310   4.328
 1911SOL    HW1 6632   0.149   5.238   4.259
 1911SOL    HW2 6633   0.217   5.287   4.398
 1912SOL     OW 6634   2.347   4.945   2.732
 1912SOL    HW1 6635   2.423   4.976   2.675
 1912SOL    HW2 6636   2.382   4.887   2.805
 1913SOL     OW 6637   2.510   5.017   5.273
 1913SOL    HW1 6638   2.474   5.013   5.180
 1913SOL    HW2 6639   2.509   4.926   5.314
 1914SOL     OW 6640   2.452   4.680   6.086
 1914SOL    HW1 6641   2.534   4.737   6.076
 1914SOL    HW2 6642   2.479   4.586   6.108
 1915SOL     OW 6643   5.122   2.280   6.345
 1915SOL    HW1 6644   5.041   2.271   6.287
 1915SOL    HW2 6645   5.189   2.340   6.300
 1916SOL     OW 6646   4.245   0.073   1.593
 1916SOL    HW1 6647   4.225   0.151   1.534
 1916SOL    HW2 6648   4.298   0.005   1.542
 1917SOL     OW 6649   2.402   4.524   1.487
 1917SOL    HW1 6650   2.344   4.503   1.567
 1917SOL    HW2 6651   2.470   4.593   1.513
 1918SOL     OW 6652   0.224   1.660   4.898
 1918SOL    HW1 6653   0.158   1.705   4.838
 1918SOL    HW2 6654   0.177   1.624   4.979
 1919SOL     OW 6655   1.105   2.363   1.426
 1919SOL    HW1 6656   1.011   2.330   1.437
 1919SOL    HW2 6657   1.133   2.353   1.331
 1920SOL     OW 6658   5.297   2.588   1.549
 1920SOL    HW1 6659   5.284   2.572   1.451
 1920SOL    HW2 6660   5.216   2.631   1.587
 1921SOL     OW 6661   1.471   2.830   6.783
 1921SOL    HW1 6662   1.420   2.831   6.697
 1921SOL    HW2 6663   1.566   2.856   6.766
 1922SOL     OW 6664   3.260   3.279   2.236
 1922SOL    HW1 6665   3.203   3.199   2.216
 1922SOL    HW2 6666   3.235   3.353   2.175
 1923SOL     OW 6667   4.668   0.580   5.295
 1923SOL    HW1 6668   4.767   0.584   5.284
 1923SOL    HW2 6669   4.634   0.671   5.319
 1924SOL     OW 6670   4.459   0.116   1.087
 1924SOL    HW1 6671   4.439   0.153   0.996
 1924SOL    HW2 6672   4.549   0.146   1.116
 1925SOL     OW 6673   1.089   4.127   0.689
 1925SOL    HW1 6674   1.001   4.114   0.643
 1925SOL    HW2 6675   1.161   4.134   0.620
 1926SOL     OW 6676   3.624   6.912   2.090
 1926SOL    HW1 6677   3.665   6.883   2.177
 1926SOL    HW2 6678   3.586   7.004   2.099
 1927SOL     OW 6679   1.871   4.887   1.525
 1927SOL    HW1 6680   1.796   4.843   1.475
 1927SOL    HW2 6681   1.874   4.850   1.618
 1928SOL     OW 6682   4.614   4.325   2.920
 1928SOL    HW1 6683   4.640   4.256   2.852
 1928SOL    HW2 6684   4.518   4.350   2.907
 1929SOL     OW 6685   3.018   0.777   2.810
 1929SOL    HW1 6686   2.929   0.731   2.807
 1929SOL    HW2 6687   3.011   0.867   2.769
 1930SOL     OW 6688   4.873   2.963   6.768
 1930SOL    HW1 6689   4.929   2.980   6.687
 1930SOL    HW2 6690   4.898   2.876   6.810
 1931SOL     OW 6691   0.578   1.270   5.544
 1931SOL    HW1 6692   0.663   1.234   5.507
 1931SOL    HW2 6693   0.507   1.266   5.474
 1932SOL     OW 6694   4.621   2.387   3.028
 1932SOL    HW1 6695   4.720   2.389   3.039
 1932SOL    HW2 6696   4.598   2.388   2.930
 1933SOL     OW 6697   0.979   1.502   0.879
 1933SOL    HW1 6698   0.989   1.457   0.791
 1933SOL    HW2 6699   1.065   1.546   0.903
 1934SOL     OW 6700   6.877   0.237   5.976
 1934SOL    HW1 6701   6.907   0.197   6.062
 1934SOL    HW2 6702   6.786   0.201   5.952
 1935SOL     OW 6703   6.457   4.886   4.007
 1935SOL    HW1 6704   6.552   4.915   4.020
 1935SOL    HW2 6705   6.426   4.836   4.088
 1936SOL     OW 6706   4.999   3.246   4.888
 1936SOL    HW1 6707   4.935   3.286   4.822
 1936SOL    HW2 6708   5.088   3.234   4.844
 1937SOL     OW 6709   5.167   4.941   6.794
 1937SOL    HW1 6710   5.236   4.932   6.722
 1937SOL    HW2 6711   5.180   5.029   6.840
 1938SOL     OW 6712   0.849   2.556   6.513
 1938SOL    HW1 6713   0.771   2.509   6.555
 1938SOL    HW2 6714   0.817   2.609   6.434
 1939SOL     OW 6715   1.248   6.904   5.169
 1939SOL    HW1 6716   1.158   6.944   5.153
 1939SOL    HW2 6717   1.238   6.806   5.189
 1940SOL     OW 6718   6.516   4.995   1.473
 1940SOL    HW1 6719   6.545   4.930   1.403
 1940SOL    HW2 6720   6.581   4.994   1.550
 1941SOL     OW 6721   0.889   2.986   4.119
 1941SOL    HW1 6722   0.904   2.912   4.185
 1941SOL    HW2 6723   0.955   3.059   4.135
 1942SOL     OW 6724   5.966   3.677   2.380
 1942SOL    HW1 6725   5.943   3.767   2.342
 1942SOL    HW2 6726   5.962   3.680   2.479
 1943SOL     OW 6727   1.180   1.345   2.427
 1943SOL    HW1 6728   1.173   1.287   2.345
 1943SOL    HW2 6729   1.200   1.439   2.399
 1944SOL     OW 6730   6.872   2.475   1.640
 1944SOL    HW1 6731   6.947   2.520   1.592
 1944SOL    HW2 6732   6.890   2.376   1.646
 1945SOL     OW 6733   4.533   0.117   1.581
 1945SOL    HW1 6734   4.513   0.073   1.669
 1945SOL    HW2 6735   4.495   0.209   1.581
 1946SOL     OW 6736   6.116   5.691   1.583
 1946SOL    HW1 6737   6.215   5.677   1.589
 1946SOL    HW2 6738   6.092   5.722   1.492
 1947SOL     OW 6739   5.845   4.585   3.377
 1947SOL    HW1 6740   5.906   4.632   3.440
 1947SOL    HW2 6741   5.855   4.486   3.388
 1948SOL     OW 6742   4.953   3.348   3.017
 1948SOL    HW1 6743   4.902   3.272   3.056
 1948SOL    HW2 6744   4.957   3.423   3.083
 1949SOL     OW 6745   3.478   5.280   6.616
 1949SOL    HW1 6746   3.495   5.184   6.597
 1949SOL    HW2 6747   3.441   5.325   6.534
 1950SOL     OW 6748   3.708   4.151   4.344
 1950SOL    HW1 6749   3.673   4.218   4.409
 1950SOL    HW2 6750   3.789   4.106   4.382
 1951SOL     OW 6751   6.575   4.183   5.796
 1951SOL    HW1 6752   6.667   4.167   5.759
 1951SOL    HW2 6753   6.508   4.180   5.722
 1952SOL     OW 6754   5.694   4.678   0.023
 1952SOL    HW1 6755   5.671   4.608   0.090
 1952SOL    HW2 6756   5.621   4.685   6.978
 1953SOL     OW 6757   0.783   1.701   6.632
 1953SOL    HW1 6758   0.859   1.677   6.572
 1953SOL    HW2 6759   0.723   1.622   6.643
 1954SOL     OW 6760   3.973   7.000   1.592
 1954SOL    HW1 6761   4.069   0.001   1.605
 1954SOL    HW2 6762   3.947   6.927   1.656
 1955SOL     OW 6763   0.755   1.419   2.041
 1955SOL    HW1 6764   0.799   1.448   2.126
 1955SOL    HW2 6765   0.811   1.351   1.995
 1956SOL     OW 6766   5.728   0.555   2.190
 1956SOL    HW1 6767   5.672   0.547   2.108
 1956SOL    HW2 6768   5.693   0.628   2.248
 1957SOL     OW 6769   5.519   2.128   4.140
 1957SOL    HW1 6770   5.471   2.188   4.204
 1957SOL    HW2 6771   5.477   2.134   4.049
 1958SOL     OW 6772   4.621   1.510   1.189
 1958SOL    HW1 6773   4.554   1.561   1.134
 1958SOL    HW2 6774   4.708   1.560   1.190
 1959SOL     OW 6775   0.309   0.284   4.415
 1959SOL    HW1 6776   0.331   0.369   4.366
 1959SOL    HW2 6777   0.368   0.211   4.383
 1960SOL     OW 6778   5.755   4.101   3.625
 1960SOL    HW1 6779   5.660   4.122   3.603
 1960SOL    HW2 6780   5.759   4.033   3.698
 1961SOL     OW 6781   6.401   4.005   4.693
 1961SOL    HW1 6782   6.335   3.931   4.707
 1961SOL    HW2 6783   6.483   3.987   4.748
 1962SOL     OW 6784   0.881   0.426   2.750
 1962SOL    HW1 6785   0.944   0.436   2.826
 1962SOL    HW2 6786   0.861   0.516   2.711
 1963SOL     OW 6787   0.730   1.945   2.018
 1963SOL    HW1 6788   0.644   1.908   2.053
 1963SOL    HW2 6789   0.715   2.037   1.982
 1964SOL     OW 6790   5.422   4.326   1.555
 1964SOL    HW1 6791   5.426   4.314   1.456
 1964SOL    HW2 6792   5.348   4.271   1.593
 1965SOL     OW 6793   0.539   4.644   4.030
 1965SOL    HW1 6794   0.591   4.569   4.070
 1965SOL    HW2 6795   0.504   4.617   3.941
 1966SOL     OW 6796   1.692   4.668   0.155
 1966SOL    HW1 6797   1.656   4.761   0.148
 1966SOL    HW2 6798   1.717   4.649   0.250
 1967SOL     OW 6799   5.410   3.112   3.535
 1967SOL    HW1 6800   5.506   3.139   3.524
 1967SOL    HW2 6801   5.356   3.148   3.459
 1968SOL     OW 6802   2.247   1.482   5.153
 1968SOL    HW1 6803   2.210   1.559   5.204
 1968SOL    HW2 6804   2.185   1.404   5.161
 1969SOL     OW 6805   3.385   6.776   0.851
 1969SOL    HW1 6806   3.418   6.787   0.945
 1969SOL    HW2 6807   3.357   6.865   0.815
 1970SOL     OW 6808   5.951   5.694   4.929
 1970SOL    HW1 6809   5.930   5.761   4.858
 1970SOL    HW2 6810   5.885   5.702   5.004
 1971SOL     OW 6811   1.363   6.487   5.744
 1971SOL    HW1 6812   1.276   6.438   5.744
 1971SOL    HW2 6813   1.424   6.446   5.676
 1972SOL     OW 6814   5.954   2.317   2.526
 1972SOL    HW1 6815   5.911   2.302   2.437
 1972SOL    HW2 6816   6.039   2.368   2.515
 1973SOL     OW 6817   1.940   4.438   0.207
 1973SOL    HW1 6818   1.896   4.459   0.295
 1973SOL    HW2 6819   1.873   4.397   0.146
 1974SOL     OW 6820   3.639   6.228   4.927
 1974SOL    HW1 6821   3.702   6.186   4.862
 1974SOL    HW2 6822   3.552   6.247   4.881
 1975SOL     OW 6823   1.432   2.674   2.903
 1975SOL    HW1 6824   1.428   2.741   2.977
 1975SOL    HW2 6825   1.487   2.595   2.933
 1976SOL     OW 6826   6.927   0.299   6.265
 1976SOL    HW1 6827   6.846   0.322   6.320
 1976SOL    HW2 6828   6.952   0.204   6.281
 1977SOL     OW 6829   1.931   4.264   5.795
 1977SOL    HW1 6830   1.959   4.168   5.790
 1977SOL    HW2 6831   1.984   4.310   5.865
 1978SOL     OW 6832   2.450   0.162   2.101
 1978SOL    HW1 6833   2.463   0.201   2.192
 1978SOL    HW2 6834   2.506   0.080   2.090
 1979SOL     OW 6835   6.924   4.832   6.770
 1979SOL    HW1 6836   7.016   4.851   6.735
 1979SOL    HW2 6837   6.870   4.787   6.699
 1980SOL     OW 6838   3.120   1.488   1.117
 1980SOL    HW1 6839   3.129   1.581   1.154
 1980SOL    HW2 6840   3.158   1.423   1.182
 1981SOL     OW 6841   4.335   2.332   3.014
 1981SOL    HW1 6842   4.410   2.377   3.063
 1981SOL    HW2 6843   4.259   2.317   3.077
 1982SOL     OW 6844   6.872   2.815   4.731
 1982SOL    HW1 6845   6.831   2.729   4.761
 1982SOL    HW2 6846   6.804   2.869   4.681
 1983SOL     OW 6847   6.966   0.308   1.156
 1983SOL    HW1 6848   6.986   0.373   1.082
 1983SOL    HW2 6849   6.972   0.355   1.244
 1984SOL     OW 6850   5.374   3.330   5.159
 1984SOL    HW1 6851   5.275   3.338   5.149
 1984SOL    HW2 6852   5.403   3.237   5.135
 1985SOL     OW 6853   6.468   3.947   2.110
 1985SOL    HW1 6854   6.380   3.900   2.110
 1985SOL    HW2 6855   6.488   3.982   2.201
 1986SOL     OW 6856   3.386   2.089   1.356
 1986SOL    HW1 6857   3.367   2.015   1.422
 1986SOL    HW2 6858   3.366   2.177   1.399
 1987SOL     OW 6859   2.223   0.225   2.714
 1987SOL    HW1 6860   2.235   0.314   2.670
 1987SOL    HW2 6861   2.129   0.216   2.745
 1988SOL     OW 6862   6.700   1.889   1.025
 1988SOL    HW1 6863   6.767   1.820   1.053
 1988SOL    HW2 6864   6.614   1.844   1.000
 1989SOL     OW 6865   3.296   4.867   5.050
 1989SOL    HW1 6866   3.223   4.811   5.089
 1989SOL    HW2 6867   3.362   4.889   5.122
 1990SOL     OW 6868   4.072   0.376   0.657
 1990SOL    HW1 6869   4.029   0.439   0.592
 1990SOL    HW2 6870   4.032   0.285   0.646
 1991SOL     OW 6871   2.831   5.308   0.839
 1991SOL    HW1 6872   2.916   5.343   0.880
 1991SOL    HW2 6873   2.823   5.343   0.746
 1992SOL     OW 6874   0.365   5.783   1.316
 1992SOL    HW1 6875   0.454   5.737   1.311
 1992SOL    HW2 6876   0.292   5.714   1.316
 1993SOL     OW 6877   2.096   3.494   4.255
 1993SOL    HW1 6878   2.079   3.593   4.252
 1993SOL    HW2 6879   2.128   3.463   4.166
 1994SOL     OW 6880   3.031   3.527   0.505
 1994SOL    HW1 6881   2.967   3.455   0.479
 1994SOL    HW2 6882   3.033   3.596   0.433
 1995SOL     OW 6883   5.393   2.399   4.536
 1995SOL    HW1 6884   5.313   2.349   4.570
 1995SOL    HW2 6885   5.377   2.498   4.545
 1996SOL     OW 6886   3.768   1.865   0.604
 1996SOL    HW1 6887   3.681   1.836   0.644
 1996SOL    HW2 6888   3.757   1.881   0.506
 1997SOL     OW 6889   4.011   0.724   3.775
 1997SOL    HW1 6890   4.090   0.663   3.769
 1997SOL    HW2 6891   3.929   0.676   3.745
 1998SOL     OW 6892   1.964   3.435   1.331
 1998SOL    HW1 6893   1.876   3.433   1.283
 1998SOL    HW2 6894   1.955   3.486   1.416
 1999SOL     OW 6895   1.726   6.552   5.568
 1999SOL    HW1 6896   1.801   6.492   5.595
 1999SOL    HW2 6897   1.642   6.499   5.560
 2000SOL     OW 6898   3.578   4.338   5.666
 2000SOL    HW1 6899   3.529   4.352   5.752
 2000SOL    HW2 6900   3.556   4.248   5.629
 2001SOL     OW 6901   2.194   1.549   6.903
 2001SOL    HW1 6902   2.156   1.477   6.845
 2001SOL    HW2 6903   2.270   1.594   6.855
 2002SOL     OW 6904   6.996   4.420   0.868
 2002SOL    HW1 6905   7.003   4.428   0.967
 2002SOL    HW2 6906   6.925   4.354   0.844
 2003SOL     OW 6907   6.763   5.429   2.141
 2003SOL    HW1 6908   6.830   5.498   2.114
 2003SOL    HW2 6909   6.742   5.439   2.238
 2004SOL     OW 6910   3.410   7.018   3.323
 2004SOL    HW1 6911   3.317   6.986   3.306
 2004SOL    HW2 6912   3.455   0.015   3.236
 2005SOL     OW 6913   1.469   6.220   1.140
 2005SOL    HW1 6914   1.378   6.203   1.179
 2005SOL    HW2 6915   1.500   6.138   1.093
 2006SOL     OW 6916   5.709   0.098   2.688
 2006SOL    HW1 6917   5.726   0.109   2.590
 2006SOL    HW2 6918   5.790   0.059   2.731
 2007SOL     OW 6919   5.891   4.876   0.110
 2007SOL    HW1 6920   5.828   4.816   0.062
 2007SOL    HW2 6921   5.937   4.936   0.045
 2008SOL     OW 6922   2.111   3.598   3.542
 2008SOL    HW1 6923   2.036   3.632   3.600
 2008SOL    HW2 6924   2.077   3.582   3.450
 2009SOL     OW 6925   6.095   6.848   1.917
 2009SOL    HW1 6926   6.144   6.764   1.942
 2009SOL    HW2 6927   6.023   6.866   1.984
 2010SOL     OW 6928   1.391   1.484   1.386
 2010SOL    HW1 6929   1.464   1.552   1.382
 2010SOL    HW2 6930   1.352   1.483   1.479
 2011SOL     OW 6931   0.757   6.627   5.672
 2011SOL    HW1 6932   0.703   6.544   5.660
 2011SOL    HW2 6933   0.847   6.614   5.632
 2012SOL     OW 6934   1.279   3.162   2.122
 2012SOL    HW1 6935   1.352   3.110   2.166
 2012SOL    HW2 6936   1.191   3.133   2.159
 2013SOL     OW 6937   0.291   3.345   2.871
 2013SOL    HW1 6938   0.262   3.363   2.776
 2013SOL    HW2 6939   0.211   3.316   2.924
 2014SOL     OW 6940   3.404   0.773   4.234
 2014SOL    HW1 6941   3.392   0.871   4.253
 2014SOL    HW2 6942   3.319   0.735   4.200
 2015SOL     OW 6943   4.501   0.705   1.503
 2015SOL    HW1 6944   4.466   0.681   1.412
 2015SOL    HW2 6945   4.589   0.659   1.518
 2016SOL     OW 6946   1.683   0.553   5.811
 2016SOL    HW1 6947   1.763   0.608   5.789
 2016SOL    HW2 6948   1.698   0.459   5.780
 2017SOL     OW 6949   3.946   6.416   2.455
 2017SOL    HW1 6950   3.873   6.474   2.420
 2017SOL    HW2 6951   4.015   6.473   2.499
 2018SOL     OW 6952   1.368   1.107   3.645
 2018SOL    HW1 6953   1.429   1.058   3.707
 2018SOL    HW2 6954   1.274   1.074   3.658
 2019SOL     OW 6955   6.006   5.045   6.441
 2019SOL    HW1 6956   6.040   4.996   6.521
 2019SOL    HW2 6957   5.906   5.043   6.442
 2020SOL     OW 6958   2.172   5.934   6.356
 2020SOL    HW1 6959   2.171   5.872   6.278
 2020SOL    HW2 6960   2.264   5.972   6.368
 2021SOL     OW 6961   6.664   5.915   4.119
 2021SOL    HW1 6962   6.724   5.953   4.049
 2021SOL    HW2 6963   6.641   5.821   4.095
 2022SOL     OW 6964   2.173   3.777   5.066
 2022SOL    HW1 6965   2.222   3.859   5.037
 2022SOL    HW2 6966   2.116   3.744   4.991
 2023SOL     OW 6967   0.401   0.025   0.251
 2023SOL    HW1 6968   0.428   0.122   0.247
 2023SOL    HW2 6969   0.386   7.014   0.158
 2024SOL     OW 6970   1.034   5.748   4.184
 2024SOL    HW1 6971   1.116   5.780   4.230
 2024SOL    HW2 6972   0.980   5.691   4.247
 2025SOL     OW 6973   1.747   6.969   4.449
 2025SOL    HW1 6974   1.752   6.988   4.351
 2025SOL    HW2 6975   1.755   6.870   4.464
 2026SOL     OW 6976   6.435   0.623   5.798
 2026SOL    HW1 6977   6.426   0.722   5.791
 2026SOL    HW2 6978   6.518   0.594   5.751
 2027SOL     OW 6979   0.234   6.035   2.446
 2027SOL    HW1 6980   0.265   6.130   2.435
 2027SOL    HW2 6981   0.161   6.017   2.381
 2028SOL     OW 6982   3.687   4.926   4.215
 2028SOL    HW1 6983   3.734   5.012   4.232
 2028SOL    HW2 6984   3.742   4.850   4.251
 2029SOL     OW 6985   5.641   2.687   6.644
 2029SOL    HW1 6986   5.731   2.725   6.624
 2029SOL    HW2 6987   5.583   2.694   6.563
 2030SOL     OW 6988   2.833   6.482   2.585
 2030SOL    HW1 6989   2.836   6.393   2.630
 2030SOL    HW2 6990   2.906   6.540   2.620
 2031SOL     OW 6991   0.031   5.606   3.860
 2031SOL    HW1 6992   0.106   5.624   3.924
 2031SOL    HW2 6993   6.986   5.546   3.903
 2032SOL     OW 6994   3.007   2.217   5.506
 2032SOL    HW1 6995   3.016   2.312   5.534
 2032SOL    HW2 6996   2.910   2.192   5.503
 2033SOL     OW 6997   1.711   2.255   0.356
 2033SOL    HW1 6998   1.647   2.331   0.342
 2033SOL    HW2 6999   1.752   2.230   0.268
 2034SOL     OW 7000   6.653   4.672   5.425
 2034SOL    HW1 7001   6.671   4.691   5.328
 2034SOL    HW2 7002   6.739   4.678   5.476
 2035SOL     OW 7003   5.922   0.450   2.894
 2035SOL    HW1 7004   5.946   0.440   2.798
 2035SOL    HW2 7005   5.839   0.505   2.903
 2036SOL     OW 7006   1.016   4.274   1.743
 2036SOL    HW1 7007   1.064   4.217   1.809
 2036SOL    HW2 7008   1.067   4.360   1.730
 2037SOL     OW 7009   6.859   3.172   6.731
 2037SOL    HW1 7010   6.823   3.209   6.816
 2037SOL    HW2 7011   6.945   3.218   6.708
 2038SOL     OW 7012   1.562   1.739   6.548
 2038SOL    HW1 7013   1.514   1.664   6.593
 2038SOL    HW2 7014   1.507   1.770   6.469
 2039SOL     OW 7015   6.265   5.817   2.686
 2039SOL    HW1 7016   6.200   5.795   2.758
 2039SOL    HW2 7017   6.355   5.834   2.727
 2040SOL     OW 7018   1.904   2.822   0.023
 2040SOL    HW1 7019   1.903   2.722   0.011
 2040SOL    HW2 7020   1.817   2.851   0.062
 2041SOL     OW 7021   1.989   0.241   6.342
 2041SOL    HW1 7022   1.937   0.192   6.411
 2041SOL    HW2 7023   1.995   0.338   6.366
 2042SOL     OW 7024   5.339   1.249   5.450
 2042SOL    HW1 7025   5.383   1.243   5.361
 2042SOL    HW2 7026   5.396   1.205   5.519
 2043SOL     OW 7027   6.730   4.030   1.309
 2043SOL    HW1 7028   6.826   4.049   1.333
 2043SOL    HW2 7029   6.672   4.047   1.388
 2044SOL     OW 7030   4.299   0.781   0.558
 2044SOL    HW1 7031   4.207   0.797   0.594
 2044SOL    HW2 7032   4.295   0.774   0.458
 2045SOL     OW 7033   1.859   6.488   6.348
 2045SOL    HW1 7034   1.800   6.469   6.427
 2045SOL    HW2 7035   1.916   6.408   6.329
 2046SOL     OW 7036   0.959   2.301   4.974
 2046SOL    HW1 7037   0.979   2.246   5.055
 2046SOL    HW2 7038   1.035   2.294   4.910
 2047SOL     OW 7039   0.314   0.431   0.326
 2047SOL    HW1 7040   0.265   0.518   0.335
 2047SOL    HW2 7041   0.338   0.397   0.417
 2048SOL     OW 7042   0.647   2.047   4.625
 2048SOL    HW1 7043   0.589   2.043   4.544
 2048SOL    HW2 7044   0.597   2.012   4.704
 2049SOL     OW 7045   5.440   1.755   5.033
 2049SOL    HW1 7046   5.482   1.685   4.976
 2049SOL    HW2 7047   5.345   1.769   5.005
 2050SOL     OW 7048   0.830   1.258   4.039
 2050SOL    HW1 7049   0.748   1.269   4.095
 2050SOL    HW2 7050   0.830   1.325   3.966
 2051SOL     OW 7051   3.181   6.070   0.653
 2051SOL    HW1 7052   3.192   5.981   0.610
 2051SOL    HW2 7053   3.120   6.062   0.732
 2052SOL     OW 7054   1.524   4.342   6.513
 2052SOL    HW1 7055   1.615   4.303   6.526
 2052SOL    HW2 7056   1.460   4.298   6.576
 2053SOL     OW 7057   0.985   4.902   3.915
 2053SOL    HW1 7058   1.030   4.867   3.997
 2053SOL    HW2 7059   0.955   4.996   3.932
 2054SOL     OW 7060   3.624   3.212   3.937
 2054SOL    HW1 7061   3.691   3.280   3.910
 2054SOL    HW2 7062   3.555   3.202   3.865
 2055SOL     OW 7063   2.912   1.975   5.838
 2055SOL    HW1 7064   2.874   1.883   5.845
 2055SOL    HW2 7065   2.906   2.020   5.927
 2056SOL     OW 7066   3.934   4.734   1.345
 2056SOL    HW1 7067   3.988   4.652   1.327
 2056SOL    HW2 7068   3.842   4.707   1.375
 2057SOL     OW 7069   6.094   2.248   4.003
 2057SOL    HW1 7070   6.009   2.291   3.973
 2057SOL    HW2 7071   6.157   2.239   3.926
 2058SOL     OW 7072   0.164   5.948   3.037
 2058SOL    HW1 7073   0.223   6.016   3.080
 2058SOL    HW2 7074   0.137   5.980   2.946
 2059SOL     OW 7075   1.760   0.535   6.561
 2059SOL    HW1 7076   1.714   0.534   6.473
 2059SOL    HW2 7077   1.735   0.454   6.614
 2060SOL     OW 7078   1.419   3.043   6.376
 2060SOL    HW1 7079   1.393   3.108   6.448
 2060SOL    HW2 7080   1.385   2.952   6.399
 2061SOL     OW 7081   2.096   2.575   2.255
 2061SOL    HW1 7082   2.075   2.663   2.212
 2061SOL    HW2 7083   2.012   2.534   2.290
 2062SOL     OW 7084   6.895   5.093   4.808
 2062SOL    HW1 7085   6.977   5.109   4.752
 2062SOL    HW2 7086   6.817   5.140   4.767
 2063SOL     OW 7087   0.749   0.827   4.533
 2063SOL    HW1 7088   0.818   0.839   4.605
 2063SOL    HW2 7089   0.739   0.912   4.481
 2064SOL     OW 7090   0.940   3.027   3.544
 2064SOL    HW1 7091   0.844   3.002   3.533
 2064SOL    HW2 7092   0.986   2.957   3.600
 2065SOL     OW 7093   4.287   2.969   5.782
 2065SOL    HW1 7094   4.349   2.896   5.752
 2065SOL    HW2 7095   4.202   2.965   5.730
 2066SOL     OW 7096   6.447   3.295   5.282
 2066SOL    HW1 7097   6.401   3.382   5.268
 2066SOL    HW2 7098   6.494   3.268   5.197
 2067SOL     OW 7099   6.219   5.344   1.159
 2067SOL    HW1 7100   6.196   5.283   1.082
 2067SOL    HW2 7101   6.302   5.311   1.203
 2068SOL     OW 7102   4.206   0.619   4.890
 2068SOL    HW1 7103   4.178   0.560   4.966
 2068SOL    HW2 7104   4.276   0.682   4.922
 2069SOL     OW 7105   0.247   3.044   3.607
 2069SOL    HW1 7106   0.198   3.131   3.607
 2069SOL    HW2 7107   0.287   3.029   3.697
 2070SOL     OW 7108   0.957   4.374   0.757
 2070SOL    HW1 7109   0.999   4.284   0.745
 2070SOL    HW2 7110   1.028   4.442   0.777
 2071SOL     OW 7111   6.811   1.397   5.876
 2071SOL    HW1 7112   6.755   1.332   5.824
 2071SOL    HW2 7113   6.850   1.464   5.813
 2072SOL     OW 7114   4.288   4.408   5.552
 2072SOL    HW1 7115   4.225   4.353   5.606
 2072SOL    HW2 7116   4.353   4.347   5.505
 2073SOL     OW 7117   3.064   5.645   6.557
 2073SOL    HW1 7118   3.128   5.575   6.590
 2073SOL    HW2 7119   3.067   5.724   6.618
 2074SOL     OW 7120   1.141   4.326   5.730
 2074SOL    HW1 7121   1.240   4.325   5.712
 2074SOL    HW2 7122   1.125   4.343   5.827
 2075SOL     OW 7123   6.550   1.575   1.516
 2075SOL    HW1 7124   6.558   1.475   1.508
 2075SOL    HW2 7125   6.553   1.615   1.424
 2076SOL     OW 7126   6.067   6.828   4.705
 2076SOL    HW1 7127   6.036   6.758   4.770
 2076SOL    HW2 7128   6.063   6.790   4.612
 2077SOL     OW 7129   6.620   4.184   0.368
 2077SOL    HW1 7130   6.531   4.162   0.327
 2077SOL    HW2 7131   6.615   4.273   0.412
 2078SOL     OW 7132   0.873   2.794   5.915
 2078SOL    HW1 7133   0.960   2.776   5.961
 2078SOL    HW2 7134   0.809   2.720   5.934
 2079SOL     OW 7135   4.863   2.277   2.582
 2079SOL    HW1 7136   4.838   2.314   2.492
 2079SOL    HW2 7137   4.913   2.191   2.570
 2080SOL     OW 7138   2.482   3.159   5.858
 2080SOL    HW1 7139   2.566   3.143   5.909
 2080SOL    HW2 7140   2.486   3.112   5.770
 2081SOL     OW 7141   5.591   6.476   2.743
 2081SOL    HW1 7142   5.511   6.473   2.803
 2081SOL    HW2 7143   5.653   6.401   2.767
 2082SOL     OW 7144   6.768   5.990   3.633
 2082SOL    HW1 7145   6.690   5.970   3.692
 2082SOL    HW2 7146   6.837   5.917   3.643
 2083SOL     OW 7147   0.401   6.509   4.271
 2083SOL    HW1 7148   0.364   6.418   4.292
 2083SOL    HW2 7149   0.457   6.541   4.348
 2084SOL     OW 7150   6.398   1.740   1.736
 2084SOL    HW1 7151   6.302   1.715   1.749
 2084SOL    HW2 7152   6.441   1.675   1.674
 2085SOL     OW 7153   5.303   5.325   1.082
 2085SOL    HW1 7154   5.270   5.307   1.174
 2085SOL    HW2 7155   5.246   5.396   1.040
 2086SOL     OW 7156   4.652   0.297   6.860
 2086SOL    HW1 7157   4.724   0.324   6.924
 2086SOL    HW2 7158   4.648   0.363   6.785
 2087SOL     OW 7159   3.937   2.204   6.518
 2087SOL    HW1 7160   4.023   2.250   6.495
 2087SOL    HW2 7161   3.873   2.214   6.443
 2088SOL     OW 7162   0.931   5.498   6.066
 2088SOL    HW1 7163   0.876   5.443   6.003
 2088SOL    HW2 7164   0.986   5.437   6.123
 2089SOL     OW 7165   2.889   3.656   0.024
 2089SOL    HW1 7166   2.825   3.714   6.995
 2089SOL    HW2 7167   2.838   3.578   0.062
 2090SOL     OW 7168   4.561   3.011   5.478
 2090SOL    HW1 7169   4.533   3.098   5.436
 2090SOL    HW2 7170   4.661   3.006   5.478
 2091SOL     OW 7171   5.517   6.041   2.050
 2091SOL    HW1 7172   5.541   5.996   2.137
 2091SOL    HW2 7173   5.518   5.974   1.976
 2092SOL     OW 7174   4.549   3.422   1.559
 2092SOL    HW1 7175   4.601   3.434   1.474
 2092SOL    HW2 7176   4.604   3.370   1.624
 2093SOL     OW 7177   3.502   0.992   2.532
 2093SOL    HW1 7178   3.518   0.926   2.459
 2093SOL    HW2 7179   3.451   0.948   2.606
 2094SOL     OW 7180   5.161   2.004   6.287
 2094SOL    HW1 7181   5.107   1.981   6.206
 2094SOL    HW2 7182   5.161   2.104   6.300
 2095SOL     OW 7183   5.125   6.592   3.156
 2095SOL    HW1 7184   5.145   6.574   3.253
 2095SOL    HW2 7185   5.077   6.679   3.148
 2096SOL     OW 7186   5.095   6.846   2.210
 2096SOL    HW1 7187   5.013   6.903   2.216
 2096SOL    HW2 7188   5.153   6.878   2.136
 2097SOL     OW 7189   0.784   5.319   6.276
 2097SOL    HW1 7190   0.851   5.283   6.211
 2097SOL    HW2 7191   0.731   5.243   6.315
 2098SOL     OW 7192   3.019   6.067   3.214
 2098SOL    HW1 7193   2.969   6.063   3.128
 2098SOL    HW2 7194   2.971   6.014   3.284
 2099SOL     OW 7195   4.812   1.263   6.180
 2099SOL    HW1 7196   4.765   1.198   6.239
 2099SOL    HW2 7197   4.881   1.216   6.125
 2100SOL     OW 7198   5.476   0.144   1.442
 2100SOL    HW1 7199   5.526   0.073   1.492
 2100SOL    HW2 7200   5.444   0.108   1.355
 2101SOL     OW 7201   0.010   6.595   1.977
 2101SOL    HW1 7202   0.088   6.539   1.949
 2101SOL    HW2 7203   6.958   6.585   1.910
 2102SOL     OW 7204   3.743   2.654   0.590
 2102SOL    HW1 7205   3.679   2.699   0.653
 2102SOL    HW2 7206   3.823   2.712   0.577
 2103SOL     OW 7207   2.661   5.654   0.250
 2103SOL    HW1 7208   2.609   5.592   0.191
 2103SOL    HW2 7209   2.717   5.714   0.193
 2104SOL     OW 7210   1.540   4.561   3.021
 2104SOL    HW1 7211   1.542   4.620   2.941
 2104SOL    HW2 7212   1.488   4.478   3.000
 2105SOL     OW 7213   6.547   4.452   5.794
 2105SOL    HW1 7214   6.565   4.354   5.792
 2105SOL    HW2 7215   6.606   4.495   5.862
 2106SOL     OW 7216   4.367   3.624   0.895
 2106SOL    HW1 7217   4.273   3.601   0.918
 2106SOL    HW2 7218   4.421   3.635   0.979
 2107SOL     OW 7219   4.834   4.630   5.661
 2107SOL    HW1 7220   4.920   4.583   5.639
 2107SOL    HW2 7221   4.852   4.728   5.675
 2108SOL     OW 7222   5.469   0.417   5.731
 2108SOL    HW1 7223   5.495   0.452   5.641
 2108SOL    HW2 7224   5.475   0.318   5.731
 2109SOL     OW 7225   3.167   6.914   3.263
 2109SOL    HW1 7226   3.083   6.880   3.222
 2109SOL    HW2 7227   3.203   6.846   3.327
 2110SOL     OW 7228   4.095   0.034   0.094
 2110SOL    HW1 7229   4.194   0.024   0.089
 2110SOL    HW2 7230   4.061   0.066   0.006
 2111SOL     OW 7231   0.796   2.407   5.315
 2111SOL    HW1 7232   0.785   2.308   5.319
 2111SOL    HW2 7233   0.890   2.429   5.290
 2112SOL     OW 7234   0.659   0.720   6.622
 2112SOL    HW1 7235   0.670   0.764   6.711
 2112SOL    HW2 7236   0.726   0.646   6.613
 2113SOL     OW 7237   0.750   0.535   4.834
 2113SOL    HW1 7238   0.821   0.472   4.802
 2113SOL    HW2 7239   0.660   0.493   4.821
 2114SOL     OW 7240   1.336   1.762   5.863
 2114SOL    HW1 7241   1.332   1.861   5.847
 2114SOL    HW2 7242   1.389   1.745   5.946
 2115SOL     OW 7243   6.702   5.966   2.860
 2115SOL    HW1 7244   6.758   5.887   2.883
 2115SOL    HW2 7245   6.693   6.025   2.940
 2116SOL     OW 7246   0.855   2.016   0.191
 2116SOL    HW1 7247   0.770   2.051   0.152
 2116SOL    HW2 7248   0.851   2.025   0.291
 2117SOL     OW 7249   6.226   1.454   2.208
 2117SOL    HW1 7250   6.309   1.401   2.191
 2117SOL    HW2 7251   6.208   1.458   2.306
 2118SOL     OW 7252   6.053   2.560   2.285
 2118SOL    HW1 7253   6.107   2.509   2.352
 2118SOL    HW2 7254   6.001   2.496   2.229
 2119SOL     OW 7255   2.345   1.567   0.139
 2119SOL    HW1 7256   2.294   1.524   0.064
 2119SOL    HW2 7257   2.322   1.521   0.225
 2120SOL     OW 7258   5.331   0.856   0.649
 2120SOL    HW1 7259   5.311   0.787   0.719
 2120SOL    HW2 7260   5.250   0.913   0.634
 2121SOL     OW 7261   1.236   0.607   6.903
 2121SOL    HW1 7262   1.244   0.682   6.969
 2121SOL    HW2 7263   1.314   0.546   6.912
 2122SOL     OW 7264   6.282   1.191   4.469
 2122SOL    HW1 7265   6.359   1.175   4.408
 2122SOL    HW2 7266   6.251   1.285   4.459
 2123SOL     OW 7267   1.674   5.676   2.798
 2123SOL    HW1 7268   1.601   5.697   2.732
 2123SOL    HW2 7269   1.668   5.740   2.874
 2124SOL     OW 7270   3.956   3.608   5.959
 2124SOL    HW1 7271   3.941   3.515   5.995
 2124SOL    HW2 7272   3.946   3.607   5.860
 2125SOL     OW 7273   1.567   5.671   3.958
 2125SOL    HW1 7274   1.593   5.763   3.928
 2125SOL    HW2 7275   1.521   5.678   4.047
 2126SOL     OW 7276   3.244   5.031   0.138
 2126SOL    HW1 7277   3.167   5.093   0.126
 2126SOL    HW2 7278   3.235   4.955   0.074
 2127SOL     OW 7279   0.512   2.493   3.846
 2127SOL    HW1 7280   0.464   2.427   3.904
 2127SOL    HW2 7281   0.521   2.456   3.753
 2128SOL     OW 7282   5.244   2.894   1.452
 2128SOL    HW1 7283   5.214   2.983   1.486
 2128SOL    HW2 7284   5.203   2.821   1.507
 2129SOL     OW 7285   5.040   4.462   4.054
 2129SOL    HW1 7286   5.081   4.481   3.965
 2129SOL    HW2 7287   5.072   4.373   4.087
 2130SOL     OW 7288   2.305   0.648   2.861
 2130SOL    HW1 7289   2.253   0.588   2.801
 2130SOL    HW2 7290   2.256   0.734   2.874
 2131SOL     OW 7291   5.578   1.134   5.125
 2131SOL    HW1 7292   5.615   1.225   5.144
 2131SOL    HW2 7293   5.648   1.079   5.080
 2132SOL     OW 7294   2.578   2.651   0.216
 2132SOL    HW1 7295   2.647   2.721   0.230
 2132SOL    HW2 7296   2.622   2.563   0.197
 2133SOL     OW 7297   3.037   1.955   1.783
 2133SOL    HW1 7298   3.004   2.030   1.726
 2133SOL    HW2 7299   3.104   1.989   1.848
 2134SOL     OW 7300   1.666   6.264   4.622
 2134SOL    HW1 7301   1.676   6.358   4.655
 2134SOL    HW2 7302   1.749   6.212   4.644
 2135SOL     OW 7303   1.509   1.085   4.100
 2135SOL    HW1 7304   1.555   1.145   4.035
 2135SOL    HW2 7305   1.526   0.990   4.075
 2136SOL     OW 7306   0.763   3.874   3.458
 2136SOL    HW1 7307   0.840   3.843   3.513
 2136SOL    HW2 7308   0.704   3.797   3.437
 2137SOL     OW 7309   0.870   0.537   5.349
 2137SOL    HW1 7310   0.821   0.451   5.366
 2137SOL    HW2 7311   0.863   0.560   5.252
 2138SOL     OW 7312   1.033   2.711   0.110
 2138SOL    HW1 7313   1.009   2.767   0.189
 2138SOL    HW2 7314   1.104   2.756   0.057
 2139SOL     OW 7315   2.757   1.133   5.303
 2139SOL    HW1 7316   2.740   1.129   5.204
 2139SOL    HW2 7317   2.714   1.055   5.348
 2140SOL     OW 7318   2.037   5.693   3.299
 2140SOL    HW1 7319   2.062   5.603   3.263
 2140SOL    HW2 7320   1.992   5.746   3.228
 2141SOL     OW 7321   5.920   1.795   0.503
 2141SOL    HW1 7322   5.839   1.853   0.500
 2141SOL    HW2 7323   5.993   1.841   0.553
 2142SOL     OW 7324   2.610   2.116   3.386
 2142SOL    HW1 7325   2.653   2.026   3.396
 2142SOL    HW2 7326   2.681   2.187   3.387
 2143SOL     OW 7327   3.738   0.004   0.286
 2143SOL    HW1 7328   3.758   6.991   0.195
 2143SOL    HW2 7329   3.657   0.063   0.282
 2144SOL     OW 7330   6.968   1.123   3.247
 2144SOL    HW1 7331   6.966   1.212   3.201
 2144SOL    HW2 7332   6.941   1.051   3.183
 2145SOL     OW 7333   4.009   5.576   3.003
 2145SOL    HW1 7334   3.987   5.673   3.013
 2145SOL    HW2 7335   3.990   5.547   2.909
 2146SOL     OW 7336   3.495   2.851   2.276
 2146SOL    HW1 7337   3.451   2.929   2.232
 2146SOL    HW2 7338   3.444   2.767   2.253
 2147SOL     OW 7339   0.869   1.271   5.497
 2147SOL    HW1 7340   0.944   1.336   5.488
 2147SOL    HW2 7341   0.906   1.179   5.505
 2148SOL     OW 7342   5.037   2.828   3.225
 2148SOL    HW1 7343   5.054   2.918   3.264
 2148SOL    HW2 7344   5.036   2.835   3.125
 2149SOL     OW 7345   3.316   0.934   3.048
 2149SOL    HW1 7346   3.315   0.913   3.146
 2149SOL    HW2 7347   3.289   0.852   2.997
 2150SOL     OW 7348   3.766   1.918   2.366
 2150SOL    HW1 7349   3.799   1.979   2.294
 2150SOL    HW2 7350   3.668   1.934   2.380
 2151SOL     OW 7351   3.995   2.749   5.949
 2151SOL    HW1 7352   3.914   2.729   6.004
 2151SOL    HW2 7353   4.078   2.737   6.004
 2152SOL     OW 7354   6.649   5.629   1.575
 2152SOL    HW1 7355   6.674   5.715   1.619
 2152SOL    HW2 7356   6.552   5.612   1.587
 2153SOL     OW 7357   4.993   2.649   3.507
 2153SOL    HW1 7358   5.001   2.708   3.427
 2153SOL    HW2 7359   5.074   2.590   3.514
 2154SOL     OW 7360   4.411   6.248   5.249
 2154SOL    HW1 7361   4.482   6.179   5.233
 2154SOL    HW2 7362   4.328   6.204   5.281
 2155SOL     OW 7363   6.666   3.927   0.237
 2155SOL    HW1 7364   6.662   3.996   0.309
 2155SOL    HW2 7365   6.598   3.855   0.257
 2156SOL     OW 7366   1.484   0.608   1.372
 2156SOL    HW1 7367   1.448   0.691   1.330
 2156SOL    HW2 7368   1.533   0.554   1.303
 2157SOL     OW 7369   1.043   1.460   4.791
 2157SOL    HW1 7370   1.046   1.522   4.713
 2157SOL    HW2 7371   0.988   1.380   4.768
 2158SOL     OW 7372   4.256   5.874   2.196
 2158SOL    HW1 7373   4.225   5.779   2.200
 2158SOL    HW2 7374   4.191   5.928   2.144
 2159SOL     OW 7375   2.199   6.022   4.555
 2159SOL    HW1 7376   2.234   6.109   4.520
 2159SOL    HW2 7377   2.237   6.005   4.645
 2160SOL     OW 7378   3.246   3.656   0.950
 2160SOL    HW1 7379   3.198   3.732   0.907
 2160SOL    HW2 7380   3.264   3.585   0.882
 2161SOL     OW 7381   5.582   2.535   3.672
 2161SOL    HW1 7382   5.533   2.470   3.615
 2161SOL    HW2 7383   5.547   2.627   3.655
 2162SOL     OW 7384   0.912   1.408   6.991
 2162SOL    HW1 7385   0.953   1.351   0.041
 2162SOL    HW2 7386   0.876   1.492   0.010
 2163SOL     OW 7387   1.922   2.203   0.491
 2163SOL    HW1 7388   1.990   2.248   0.433
 2163SOL    HW2 7389   1.839   2.185   0.438
 2164SOL     OW 7390   1.167   0.019   1.324
 2164SOL    HW1 7391   1.086   0.067   1.292
 2164SOL    HW2 7392   1.232   0.008   1.248
 2165SOL     OW 7393   2.921   6.299   1.794
 2165SOL    HW1 7394   3.019   6.311   1.780
 2165SOL    HW2 7395   2.893   6.210   1.757
 2166SOL     OW 7396   6.762   1.954   6.633
 2166SOL    HW1 7397   6.737   2.025   6.699
 2166SOL    HW2 7398   6.853   1.972   6.597
 2167SOL     OW 7399   2.621   0.536   2.179
 2167SOL    HW1 7400   2.700   0.562   2.234
 2167SOL    HW2 7401   2.590   0.615   2.126
 2168SOL     OW 7402   5.943   5.283   4.524
 2168SOL    HW1 7403   5.956   5.358   4.589
 2168SOL    HW2 7404   6.028   5.269   4.473
 2169SOL     OW 7405   4.623   2.288   5.225
 2169SOL    HW1 7406   4.643   2.275   5.322
 2169SOL    HW2 7407   4.663   2.212   5.173
 2170SOL     OW 7408   5.163   4.756   4.212
 2170SOL    HW1 7409   5.128   4.663   4.220
 2170SOL    HW2 7410   5.138   4.794   4.123
 2171SOL     OW 7411   6.920   2.388   0.235
 2171SOL    HW1 7412   6.976   2.312   0.268
 2171SOL    HW2 7413   6.869   2.428   0.311
 2172SOL     OW 7414   2.919   1.030   0.765
 2172SOL    HW1 7415   2.857   1.036   0.843
 2172SOL    HW2 7416   2.978   0.950   0.775
 2173SOL     OW 7417   5.694   1.733   5.113
 2173SOL    HW1 7418   5.610   1.784   5.098
 2173SOL    HW2 7419   5.691   1.691   5.204
 2174SOL     OW 7420   0.902   5.891   4.618
 2174SOL    HW1 7421   0.978   5.901   4.554
 2174SOL    HW2 7422   0.828   5.841   4.574
 2175SOL     OW 7423   2.417   6.418   5.440
 2175SOL    HW1 7424   2.480   6.426   5.517
 2175SOL    HW2 7425   2.444   6.340   5.383
 2176SOL     OW 7426   1.510   1.995   2.297
 2176SOL    HW1 7427   1.533   1.920   2.235
 2176SOL    HW2 7428   1.413   2.015   2.291
 2177SOL     OW 7429   6.743   1.677   1.693
 2177SOL    HW1 7430   6.665   1.628   1.655
 2177SOL    HW2 7431   6.824   1.620   1.687
 2178SOL     OW 7432   0.710   5.142   0.520
 2178SOL    HW1 7433   0.763   5.059   0.536
 2178SOL    HW2 7434   0.771   5.221   0.518
 2179SOL     OW 7435   1.114   4.666   3.505
 2179SOL    HW1 7436   1.134   4.701   3.414
 2179SOL    HW2 7437   1.119   4.741   3.572
 2180SOL     OW 7438   3.944   3.020   2.436
 2180SOL    HW1 7439   3.973   3.038   2.342
 2180SOL    HW2 7440   3.869   2.954   2.434
 2181SOL     OW 7441   5.002   5.731   6.260
 2181SOL    HW1 7442   4.918   5.737   6.205
 2181SOL    HW2 7443   4.985   5.674   6.341
 2182SOL     OW 7444   6.159   2.469   0.048
 2182SOL    HW1 7445   6.234   2.499   0.107
 2182SOL    HW2 7446   6.189   2.473   6.974
 2183SOL     OW 7447   2.829   2.988   0.779
 2183SOL    HW1 7448   2.841   2.963   0.875
 2183SOL    HW2 7449   2.736   3.023   0.765
 2184SOL     OW 7450   3.732   2.986   6.394
 2184SOL    HW1 7451   3.799   2.918   6.362
 2184SOL    HW2 7452   3.760   3.021   6.483
 2185SOL     OW 7453   2.023   1.401   1.126
 2185SOL    HW1 7454   1.984   1.387   1.035
 2185SOL    HW2 7455   2.092   1.330   1.144
 2186SOL     OW 7456   0.644   5.702   3.021
 2186SOL    HW1 7457   0.642   5.607   3.051
 2186SOL    HW2 7458   0.560   5.748   3.051
 2187SOL     OW 7459   0.113   1.215   6.695
 2187SOL    HW1 7460   0.204   1.245   6.668
 2187SOL    HW2 7461   0.084   1.138   6.638
 2188SOL     OW 7462   5.485   0.522   2.883
 2188SOL    HW1 7463   5.540   0.443   2.856
 2188SOL    HW2 7464   5.399   0.491   2.924
 2189SOL     OW 7465   2.648   0.410   6.694
 2189SOL    HW1 7466   2.630   0.508   6.698
 2189SOL    HW2 7467   2.620   0.375   6.604
 2190SOL     OW 7468   4.874   1.772   1.709
 2190SOL    HW1 7469   4.923   1.781   1.796
 2190SOL    HW2 7470   4.801   1.840   1.704
 2191SOL     OW 7471   2.874   2.173   0.523
 2191SOL    HW1 7472   2.931   2.226   0.460
 2191SOL    HW2 7473   2.918   2.170   0.613
 2192SOL     OW 7474   4.414   5.902   4.890
 2192SOL    HW1 7475   4.324   5.907   4.848
 2192SOL    HW2 7476   4.472   5.975   4.855
 2193SOL     OW 7477   0.540   4.595   5.996
 2193SOL    HW1 7478   0.600   4.622   5.921
 2193SOL    HW2 7479   0.529   4.671   6.059
 2194SOL     OW 7480   2.589   0.619   1.335
 2194SOL    HW1 7481   2.576   0.654   1.241
 2194SOL    HW2 7482   2.680   0.645   1.367
 2195SOL     OW 7483   1.517   4.246   2.580
 2195SOL    HW1 7484   1.529   4.242   2.679
 2195SOL    HW2 7485   1.433   4.295   2.557
 2196SOL     OW 7486   3.794   3.046   6.652
 2196SOL    HW1 7487   3.716   3.026   6.710
 2196SOL    HW2 7488   3.871   2.988   6.677
 2197SOL     OW 7489   4.223   4.758   0.326
 2197SOL    HW1 7490   4.209   4.855   0.340
 2197SOL    HW2 7491   4.258   4.742   0.234
 2198SOL     OW 7492   5.873   4.930   0.363
 2198SOL    HW1 7493   5.882   4.858   0.294
 2198SOL    HW2 7494   5.962   4.948   0.404
 2199SOL     OW 7495   4.516   0.366   1.888
 2199SOL    HW1 7496   4.536   0.463   1.899
 2199SOL    HW2 7497   4.475   0.351   1.798
 2200SOL     OW 7498   3.018   0.465   4.636
 2200SOL    HW1 7499   3.103   0.479   4.587
 2200SOL    HW2 7500   2.941   0.472   4.573
 2201SOL     OW 7501   4.870   3.944   2.091
 2201SOL    HW1 7502   4.787   3.998   2.106
 2201SOL    HW2 7503   4.853   3.876   2.020
 2202SOL     OW 7504   4.150   6.103   3.326
 2202SOL    HW1 7505   4.162   6.162   3.246
 2202SOL    HW2 7506   4.234   6.101   3.380
 2203SOL     OW 7507   3.346   1.575   3.011
 2203SOL    HW1 7508   3.348   1.481   2.979
 2203SOL    HW2 7509   3.291   1.631   2.949
 2204SOL     OW 7510   2.895   2.950   1.042
 2204SOL    HW1 7511   2.982   2.952   1.092
 2204SOL    HW2 7512   2.819   2.954   1.106
 2205SOL     OW 7513   2.672   0.430   0.119
 2205SOL    HW1 7514   2.619   0.506   0.080
 2205SOL    HW2 7515   2.712   0.376   0.045
 2206SOL     OW 7516   2.229   3.017   6.649
 2206SOL    HW1 7517   2.235   3.058   6.558
 2206SOL    HW2 7518   2.158   2.947   6.649
 2207SOL     OW 7519   1.031   4.457   4.860
 2207SOL    HW1 7520   0.990   4.435   4.772
 2207SOL    HW2 7521   0.964   4.445   4.933
 2208SOL     OW 7522   0.451   4.162   1.856
 2208SOL    HW1 7523   0.379   4.134   1.792
 2208SOL    HW2 7524   0.473   4.085   1.916
 2209SOL     OW 7525   1.276   5.647   0.901
 2209SOL    HW1 7526   1.287   5.640   0.802
 2209SOL    HW2 7527   1.294   5.741   0.930
 2210SOL     OW 7528   0.711   6.098   4.231
 2210SOL    HW1 7529   0.696   6.001   4.253
 2210SOL    HW2 7530   0.794   6.129   4.277
 2211SOL     OW 7531   6.378   1.190   5.903
 2211SOL    HW1 7532   6.339   1.114   5.955
 2211SOL    HW2 7533   6.466   1.161   5.865
 2212SOL     OW 7534   1.808   0.121   6.533
 2212SOL    HW1 7535   1.841   0.060   6.605
 2212SOL    HW2 7536   1.767   0.202   6.574
 2213SOL     OW 7537   3.152   1.033   3.424
 2213SOL    HW1 7538   3.177   0.956   3.365
 2213SOL    HW2 7539   3.185   1.118   3.384
 2214SOL     OW 7540   4.704   0.458   4.994
 2214SOL    HW1 7541   4.663   0.367   5.001
 2214SOL    HW2 7542   4.660   0.520   5.059
 2215SOL     OW 7543   5.776   3.063   5.130
 2215SOL    HW1 7544   5.795   3.001   5.205
 2215SOL    HW2 7545   5.772   3.157   5.164
 2216SOL     OW 7546   2.241   0.443   1.619
 2216SOL    HW1 7547   2.330   0.448   1.666
 2216SOL    HW2 7548   2.169   0.431   1.687
 2217SOL     OW 7549   4.370   0.685   1.257
 2217SOL    HW1 7550   4.324   0.773   1.247
 2217SOL    HW2 7551   4.436   0.673   1.184
 2218SOL     OW 7552   0.934   6.098   1.408
 2218SOL    HW1 7553   0.940   6.158   1.489
 2218SOL    HW2 7554   0.905   6.152   1.329
 2219SOL     OW 7555   1.240   2.430   2.545
 2219SOL    HW1 7556   1.199   2.442   2.636
 2219SOL    HW2 7557   1.291   2.513   2.521
 2220SOL     OW 7558   0.557   6.860   0.700
 2220SOL    HW1 7559   0.563   6.891   0.795
 2220SOL    HW2 7560   0.465   6.824   0.682
 2221SOL     OW 7561   6.999   1.834   0.384
 2221SOL    HW1 7562   6.936   1.837   0.461
 2221SOL    HW2 7563   7.018   1.926   0.351
 2222SOL     OW 7564   5.708   6.232   2.699
 2222SOL    HW1 7565   5.737   6.201   2.609
 2222SOL    HW2 7566   5.623   6.184   2.724
 2223SOL     OW 7567   5.703   5.143   2.043
 2223SOL    HW1 7568   5.745   5.174   1.958
 2223SOL    HW2 7569   5.721   5.045   2.055
 2224SOL     OW 7570   1.015   4.846   1.690
 2224SOL    HW1 7571   1.100   4.878   1.648
 2224SOL    HW2 7572   0.967   4.924   1.731
 2225SOL     OW 7573   6.927   4.739   0.929
 2225SOL    HW1 7574   6.898   4.662   0.872
 2225SOL    HW2 7575   6.858   4.811   0.925
 2226SOL     OW 7576   4.278   3.904   1.720
 2226SOL    HW1 7577   4.346   3.836   1.690
 2226SOL    HW2 7578   4.268   3.974   1.649
 2227SOL     OW 7579   1.119   3.176   3.981
 2227SOL    HW1 7580   1.204   3.187   4.032
 2227SOL    HW2 7581   1.105   3.079   3.960
 2228SOL     OW 7582   2.346   5.118   5.457
 2228SOL    HW1 7583   2.363   5.061   5.538
 2228SOL    HW2 7584   2.404   5.087   5.383
 2229SOL     OW 7585   4.899   0.881   2.837
 2229SOL    HW1 7586   4.909   0.926   2.926
 2229SOL    HW2 7587   4.862   0.789   2.851
 2230SOL     OW 7588   1.553   5.759   0.281
 2230SOL    HW1 7589   1.577   5.693   0.210
 2230SOL    HW2 7590   1.468   5.730   0.326
 2231SOL     OW 7591   3.093   6.340   1.132
 2231SOL    HW1 7592   3.182   6.308   1.165
 2231SOL    HW2 7593   3.022   6.274   1.157
 2232SOL     OW 7594   6.508   3.046   2.791
 2232SOL    HW1 7595   6.468   2.954   2.788
 2232SOL    HW2 7596   6.548   3.061   2.881
 2233SOL     OW 7597   3.533   1.660   0.324
 2233SOL    HW1 7598   3.473   1.683   0.401
 2233SOL    HW2 7599   3.568   1.567   0.337
 2234SOL     OW 7600   2.837   2.419   0.792
 2234SOL    HW1 7601   2.873   2.489   0.729
 2234SOL    HW2 7602   2.817   2.336   0.741
 2235SOL     OW 7603   1.661   0.484   1.164
 2235SOL    HW1 7604   1.732   0.433   1.212
 2235SOL    HW2 7605   1.612   0.423   1.102
 2236SOL     OW 7606   6.658   3.961   6.786
 2236SOL    HW1 7607   6.714   4.042   6.805
 2236SOL    HW2 7608   6.583   3.956   6.851
 2237SOL     OW 7609   6.822   2.330   4.531
 2237SOL    HW1 7610   6.846   2.421   4.498
 2237SOL    HW2 7611   6.808   2.269   4.452
 2238SOL     OW 7612   0.802   5.866   2.061
 2238SOL    HW1 7613   0.875   5.802   2.038
 2238SOL    HW2 7614   0.730   5.861   1.991
 2239SOL     OW 7615   5.111   5.233   3.069
 2239SOL    HW1 7616   5.089   5.208   2.975
 2239SOL    HW2 7617   5.209   5.246   3.078
 2240SOL     OW 7618   5.566   4.035   2.709
 2240SOL    HW1 7619   5.631   4.048   2.634
 2240SOL    HW2 7620   5.497   4.107   2.706
 2241SOL     OW 7621   0.676   0.055   2.440
 2241SOL    HW1 7622   0.597   0.006   2.478
 2241SOL    HW2 7623   0.670   0.151   2.465
 2242SOL     OW 7624   4.894   2.862   2.621
 2242SOL    HW1 7625   4.821   2.799   2.647
 2242SOL    HW2 7626   4.856   2.952   2.602
 2243SOL     OW 7627   2.956   6.047   5.524
 2243SOL    HW1 7628   2.927   6.036   5.429
 2243SOL    HW2 7629   3.002   6.135   5.536
 2244SOL     OW 7630   2.368   1.155   4.948
 2244SOL    HW1 7631   2.335   1.214   4.874
 2244SOL    HW2 7632   2.342   1.060   4.929
 2245SOL     OW 7633   0.602   1.911   1.645
 2245SOL    HW1 7634   0.686   1.957   1.617
 2245SOL    HW2 7635   0.611   1.813   1.629
 2246SOL     OW 7636   1.359   3.703   4.258
 2246SOL    HW1 7637   1.285   3.638   4.244
 2246SOL    HW2 7638   1.321   3.794   4.273
 2247SOL     OW 7639   1.787   1.745   6.024
 2247SOL    HW1 7640   1.826   1.756   5.932
 2247SOL    HW2 7641   1.859   1.759   6.092
 2248SOL     OW 7642   5.110   4.270   5.608
 2248SOL    HW1 7643   5.082   4.279   5.703
 2248SOL    HW2 7644   5.063   4.338   5.552
 2249SOL     OW 7645   4.820   5.684   4.584
 2249SOL    HW1 7646   4.820   5.668   4.682
 2249SOL    HW2 7647   4.864   5.771   4.564
 2250SOL     OW 7648   5.686   5.622   0.310
 2250SOL    HW1 7649   5.629   5.648   0.387
 2250SOL    HW2 7650   5.659   5.530   0.279
 2251SOL     OW 7651   0.004   0.779   0.144
 2251SOL    HW1 7652   7.004   0.750   0.238
 2251SOL    HW2 7653   6.953   0.838   0.110
 2252SOL     OW 7654   3.057   1.274   5.635
 2252SOL    HW1 7655   3.097   1.366   5.629
 2252SOL    HW2 7656   3.033   1.243   5.544
 2253SOL     OW 7657   1.721   2.457   5.859
 2253SOL    HW1 7658   1.735   2.541   5.807
 2253SOL    HW2 7659   1.627   2.454   5.894
 2254SOL     OW 7660   1.772   3.760   6.193
 2254SOL    HW1 7661   1.792   3.830   6.125
 2254SOL    HW2 7662   1.704   3.696   6.157
 2255SOL     OW 7663   5.917   2.093   1.007
 2255SOL    HW1 7664   5.945   2.071   0.914
 2255SOL    HW2 7665   5.821   2.121   1.008
 2256SOL     OW 7666   3.522   5.284   2.144
 2256SOL    HW1 7667   3.479   5.194   2.136
 2256SOL    HW2 7668   3.621   5.274   2.134
 2257SOL     OW 7669   1.929   3.709   3.747
 2257SOL    HW1 7670   1.898   3.642   3.815
 2257SOL    HW2 7671   1.978   3.783   3.793
 2258SOL     OW 7672   2.261   5.663   4.919
 2258SOL    HW1 7673   2.191   5.594   4.940
 2258SOL    HW2 7674   2.310   5.635   4.836
 2259SOL     OW 7675   5.541   3.273   6.551
 2259SOL    HW1 7676   5.617   3.317   6.503
 2259SOL    HW2 7677   5.578   3.201   6.611
 2260SOL     OW 7678   5.164   4.549   0.985
 2260SOL    HW1 7679   5.215   4.630   1.016
 2260SOL    HW2 7680   5.090   4.577   0.924
 2261SOL     OW 7681   4.174   6.768   5.656
 2261SOL    HW1 7682   4.271   6.761   5.631
 2261SOL    HW2 7683   4.160   6.726   5.746
 2262SOL     OW 7684   3.994   1.604   3.424
 2262SOL    HW1 7685   3.932   1.528   3.408
 2262SOL    HW2 7686   3.971   1.679   3.363
 2263SOL     OW 7687   6.712   4.158   6.572
 2263SOL    HW1 7688   6.807   4.129   6.565
 2263SOL    HW2 7689   6.662   4.097   6.633
 2264SOL     OW 7690   3.936   3.342   3.892
 2264SOL    HW1 7691   3.933   3.242   3.902
 2264SOL    HW2 7692   3.983   3.382   3.970
 2265SOL     OW 7693   6.631   0.478   2.355
 2265SOL    HW1 7694   6.637   0.531   2.440
 2265SOL    HW2 7695   6.550   0.420   2.357
 2266SOL     OW 7696   5.936   0.197   0.509
 2266SOL    HW1 7697   5.990   0.250   0.575
 2266SOL    HW2 7698   5.976   0.106   0.498
 2267SOL     OW 7699   5.472   1.495   5.557
 2267SOL    HW1 7700   5.518   1.467   5.641
 2267SOL    HW2 7701   5.389   1.440   5.545
 2268SOL     OW 7702   6.378   5.217   0.678
 2268SOL    HW1 7703   6.373   5.163   0.594
 2268SOL    HW2 7704   6.295   5.272   0.687
 2269SOL     OW 7705   6.934   5.581   5.260
 2269SOL    HW1 7706   6.947   5.670   5.217
 2269SOL    HW2 7707   7.017   5.527   5.252
 2270SOL     OW 7708   4.138   3.281   1.976
 2270SOL    HW1 7709   4.196   3.207   1.941
 2270SOL    HW2 7710   4.117   3.344   1.902
 2271SOL     OW 7711   6.506   4.347   3.006
 2271SOL    HW1 7712   6.529   4.383   3.097
 2271SOL    HW2 7713   6.583   4.361   2.944
 2272SOL     OW 7714   4.483   1.986   5.979
 2272SOL    HW1 7715   4.386   2.010   5.980
 2272SOL    HW2 7716   4.493   1.887   5.988
 2273SOL     OW 7717   1.020   1.535   3.401
 2273SOL    HW1 7718   1.035   1.634   3.402
 2273SOL    HW2 7719   1.042   1.497   3.491
 2274SOL     OW 7720   1.075   3.166   3.170
 2274SOL    HW1 7721   1.174   3.181   3.172
 2274SOL    HW2 7722   1.056   3.070   3.185
 2275SOL     OW 7723   4.963   6.970   3.463
 2275SOL    HW1 7724   4.897   0.017   3.433
 2275SOL    HW2 7725   5.050   6.985   3.416
 2276SOL     OW 7726   3.804   5.268   2.064
 2276SOL    HW1 7727   3.858   5.184   2.066
 2276SOL    HW2 7728   3.813   5.312   1.974
 2277SOL     OW 7729   2.877   3.563   0.741
 2277SOL    HW1 7730   2.799   3.615   0.707
 2277SOL    HW2 7731   2.940   3.545   0.665
 2278SOL     OW 7732   5.463   6.794   0.780
 2278SOL    HW1 7733   5.557   6.824   0.793
 2278SOL    HW2 7734   5.459   6.730   0.703
 2279SOL     OW 7735   4.671   4.696   4.736
 2279SOL    HW1 7736   4.614   4.681   4.655
 2279SOL    HW2 7737   4.766   4.678   4.713
 2280SOL     OW 7738   5.280   6.644   6.136
 2280SOL    HW1 7739   5.315   6.707   6.206
 2280SOL    HW2 7740   5.213   6.692   6.078
 2281SOL     OW 7741   2.558   3.093   0.748
 2281SOL    HW1 7742   2.522   3.082   0.840
 2281SOL    HW2 7743   2.557   3.190   0.723
 2282SOL     OW 7744   4.056   5.543   2.711
 2282SOL    HW1 7745   3.999   5.625   2.708
 2282SOL    HW2 7746   4.083   5.517   2.618
 2283SOL     OW 7747   0.210   3.790   2.408
 2283SOL    HW1 7748   0.182   3.880   2.442
 2283SOL    HW2 7749   0.292   3.760   2.456
 2284SOL     OW 7750   2.631   2.414   2.151
 2284SOL    HW1 7751   2.582   2.491   2.109
 2284SOL    HW2 7752   2.720   2.402   2.106
 2285SOL     OW 7753   2.004   4.081   0.035
 2285SOL    HW1 7754   1.951   4.109   0.115
 2285SOL    HW2 7755   2.064   4.004   0.059
 2286SOL     OW 7756   5.738   6.828   4.937
 2286SOL    HW1 7757   5.742   6.923   4.905
 2286SOL    HW2 7758   5.650   6.788   4.913
 2287SOL     OW 7759   2.390   2.988   1.781
 2287SOL    HW1 7760   2.470   3.048   1.787
 2287SOL    HW2 7761   2.314   3.030   1.831
 2288SOL     OW 7762   1.224   6.182   4.313
 2288SOL    HW1 7763   1.320   6.177   4.283
 2288SOL    HW2 7764   1.207   6.269   4.358
 2289SOL     OW 7765   4.778   2.387   0.696
 2289SOL    HW1 7766   4.687   2.357   0.669
 2289SOL    HW2 7767   4.821   2.317   0.753
 2290SOL     OW 7768   3.571   2.950   2.904
 2290SOL    HW1 7769   3.640   2.933   2.833
 2290SOL    HW2 7770   3.616   2.980   2.988
 2291SOL     OW 7771   1.184   2.040   0.297
 2291SOL    HW1 7772   1.232   2.001   0.375
 2291SOL    HW2 7773   1.250   2.084   0.235
 2292SOL     OW 7774   4.720   2.163   2.779
 2292SOL    HW1 7775   4.646   2.222   2.809
 2292SOL    HW2 7776   4.773   2.209   2.707
 2293SOL     OW 7777   0.271   0.893   0.378
 2293SOL    HW1 7778   0.287   0.962   0.449
 2293SOL    HW2 7779   0.300   0.929   0.289
 2294SOL     OW 7780   6.822   1.514   5.608
 2294SOL    HW1 7781   6.783   1.595   5.564
 2294SOL    HW2 7782   6.860   1.453   5.539
 2295SOL     OW 7783   5.461   6.162   1.155
 2295SOL    HW1 7784   5.502   6.088   1.101
 2295SOL    HW2 7785   5.506   6.248   1.131
 2296SOL     OW 7786   3.673   5.572   4.004
 2296SOL    HW1 7787   3.608   5.504   4.040
 2296SOL    HW2 7788   3.750   5.525   3.962
 2297SOL     OW 7789   4.348   4.098   5.301
 2297SOL    HW1 7790   4.270   4.157   5.321
 2297SOL    HW2 7791   4.432   4.150   5.310
 2298SOL     OW 7792   3.793   3.618   4.928
 2298SOL    HW1 7793   3.740   3.656   4.853
 2298SOL    HW2 7794   3.841   3.536   4.897
 2299SOL     OW 7795   6.011   3.132   4.730
 2299SOL    HW1 7796   5.990   3.047   4.778
 2299SOL    HW2 7797   6.041   3.201   4.797
 2300SOL     OW 7798   4.675   6.374   2.086
 2300SOL    HW1 7799   4.647   6.311   2.158
 2300SOL    HW2 7800   4.621   6.458   2.093
 2301SOL     OW 7801   3.672   3.163   4.790
 2301SOL    HW1 7802   3.586   3.163   4.739
 2301SOL    HW2 7803   3.657   3.198   4.882
 2302SOL     OW 7804   5.817   3.479   0.341
 2302SOL    HW1 7805   5.732   3.456   0.388
 2302SOL    HW2 7806   5.893   3.430   0.383
 2303SOL     OW 7807   3.269   1.788   6.776
 2303SOL    HW1 7808   3.306   1.855   6.712
 2303SOL    HW2 7809   3.342   1.760   6.840
 2304SOL     OW 7810   5.818   5.913   2.812
 2304SOL    HW1 7811   5.844   5.949   2.902
 2304SOL    HW2 7812   5.901   5.901   2.756
 2305SOL     OW 7813   2.512   7.008   4.415
 2305SOL    HW1 7814   2.514   7.015   4.315
 2305SOL    HW2 7815   2.602   0.009   4.452
 2306SOL     OW 7816   0.587   4.740   4.321
 2306SOL    HW1 7817   0.578   4.667   4.388
 2306SOL    HW2 7818   0.497   4.776   4.299
 2307SOL     OW 7819   6.301   3.011   6.189
 2307SOL    HW1 7820   6.258   2.962   6.114
 2307SOL    HW2 7821   6.399   3.023   6.170
 2308SOL     OW 7822   1.794   5.563   2.085
 2308SOL    HW1 7823   1.844   5.476   2.087
 2308SOL    HW2 7824   1.796   5.604   2.176
 2309SOL     OW 7825   2.097   0.225   5.241
 2309SOL    HW1 7826   2.059   0.177   5.162
 2309SOL    HW2 7827   2.059   0.186   5.325
 2310SOL     OW 7828   4.830   6.738   1.442
 2310SOL    HW1 7829   4.904   6.777   1.387
 2310SOL    HW2 7830   4.793   6.809   1.502
 2311SOL     OW 7831   3.350   4.998   1.387
 2311SOL    HW1 7832   3.376   5.044   1.302
 2311SOL    HW2 7833   3.345   5.066   1.461
 2312SOL     OW 7834   3.112   5.176   2.537
 2312SOL    HW1 7835   3.139   5.271   2.516
 2312SOL    HW2 7836   3.152   5.149   2.625
 2313SOL     OW 7837   5.226   5.869   1.635
 2313SOL    HW1 7838   5.183   5.922   1.561
 2313SOL    HW2 7839   5.170   5.875   1.718
 2314SOL     OW 7840   1.442   5.066   4.659
 2314SOL    HW1 7841   1.530   5.023   4.640
 2314SOL    HW2 7842   1.419   5.129   4.585
 2315SOL     OW 7843   4.185   2.688   6.758
 2315SOL    HW1 7844   4.269   2.732   6.728
 2315SOL    HW2 7845   4.161   2.614   6.695
 2316SOL     OW 7846   5.426   4.114   2.316
 2316SOL    HW1 7847   5.364   4.089   2.242
 2316SOL    HW2 7848   5.397   4.201   2.356
 2317SOL     OW 7849   0.237   5.085   3.582
 2317SOL    HW1 7850   0.334   5.068   3.567
 2317SOL    HW2 7851   0.192   5.000   3.608
 2318SOL     OW 7852   0.355   1.235   4.307
 2318SOL    HW1 7853   0.385   1.310   4.366
 2318SOL    HW2 7854   0.348   1.151   4.361
 2319SOL     OW 7855   0.982   4.201   3.478
 2319SOL    HW1 7856   0.959   4.294   3.451
 2319SOL    HW2 7857   0.951   4.184   3.571
 2320SOL     OW 7858   6.172   4.869   4.753
 2320SOL    HW1 7859   6.262   4.861   4.710
 2320SOL    HW2 7860   6.154   4.787   4.807
 2321SOL     OW 7861   2.750   5.412   5.029
 2321SOL    HW1 7862   2.816   5.393   5.102
 2321SOL    HW2 7863   2.659   5.380   5.057
 2322SOL     OW 7864   2.749   0.555   5.842
 2322SOL    HW1 7865   2.828   0.500   5.815
 2322SOL    HW2 7866   2.705   0.593   5.760
 2323SOL     OW 7867   5.307   4.353   2.079
 2323SOL    HW1 7868   5.220   4.399   2.094
 2323SOL    HW2 7869   5.381   4.407   2.120
 2324SOL     OW 7870   7.001   4.717   3.864
 2324SOL    HW1 7871   6.912   4.702   3.908
 2324SOL    HW2 7872   7.019   4.642   3.800
 2325SOL     OW 7873   6.848   2.672   0.594
 2325SOL    HW1 7874   6.825   2.664   0.691
 2325SOL    HW2 7875   6.923   2.738   0.583
 2326SOL     OW 7876   1.923   4.787   6.593
 2326SOL    HW1 7877   2.015   4.786   6.631
 2326SOL    HW2 7878   1.864   4.843   6.651
 2327SOL     OW 7879   5.265   2.033   4.528
 2327SOL    HW1 7880   5.363   2.045   4.546
 2327SOL    HW2 7881   5.252   2.001   4.434
 2328SOL     OW 7882   6.042   6.743   3.455
 2328SOL    HW1 7883   6.029   6.795   3.540
 2328SOL    HW2 7884   6.105   6.667   3.473
 2329SOL     OW 7885   6.845   6.258   3.518
 2329SOL    HW1 7886   6.943   6.273   3.530
 2329SOL    HW2 7887   6.822   6.164   3.543
 2330SOL     OW 7888   7.002   3.618   1.684
 2330SOL    HW1 7889   0.006   3.521   1.693
 2330SOL    HW2 7890   0.051   3.666   1.632
 2331SOL     OW 7891   0.704   4.482   5.559
 2331SOL    HW1 7892   0.719   4.579   5.575
 2331SOL    HW2 7893   0.786   4.441   5.519
 2332SOL     OW 7894   5.965   2.356   4.651
 2332SOL    HW1 7895   6.031   2.355   4.727
 2332SOL    HW2 7896   5.881   2.402   4.681
 2333SOL     OW 7897   1.727   4.675   3.584
 2333SOL    HW1 7898   1.761   4.761   3.622
 2333SOL    HW2 7899   1.631   4.683   3.561
 2334SOL     OW 7900   3.086   0.081   0.989
 2334SOL    HW1 7901   3.102   0.035   0.902
 2334SOL    HW2 7902   3.141   0.165   0.993
 2335SOL     OW 7903   4.654   6.063   4.012
 2335SOL    HW1 7904   4.641   5.972   3.972
 2335SOL    HW2 7905   4.576   6.085   4.071
 2336SOL     OW 7906   4.844   2.389   5.667
 2336SOL    HW1 7907   4.920   2.436   5.621
 2336SOL    HW2 7908   4.815   2.442   5.746
 2337SOL     OW 7909   5.681   0.341   3.304
 2337SOL    HW1 7910   5.750   0.314   3.236
 2337SOL    HW2 7911   5.604   0.277   3.299
 2338SOL     OW 7912   1.416   6.623   6.154
 2338SOL    HW1 7913   1.515   6.630   6.143
 2338SOL    HW2 7914   1.387   6.683   6.229
 2339SOL     OW 7915   3.947   4.740   6.464
 2339SOL    HW1 7916   3.957   4.721   6.562
 2339SOL    HW2 7917   3.926   4.655   6.416
 2340SOL     OW 7918   3.780   5.225   4.087
 2340SOL    HW1 7919   3.839   5.303   4.065
 2340SOL    HW2 7920   3.737   5.240   4.176
 2341SOL     OW 7921   6.486   5.507   0.134
 2341SOL    HW1 7922   6.534   5.440   0.077
 2341SOL    HW2 7923   6.552   5.571   0.173
 2342SOL     OW 7924   5.978   6.997   5.043
 2342SOL    HW1 7925   5.929   0.051   5.087
 2342SOL    HW2 7926   5.962   7.001   4.944
 2343SOL     OW 7927   0.938   6.532   0.562
 2343SOL    HW1 7928   0.900   6.459   0.505
 2343SOL    HW2 7929   0.883   6.614   0.553
 2344SOL     OW 7930   2.152   1.447   2.875
 2344SOL    HW1 7931   2.159   1.396   2.789
 2344SOL    HW2 7932   2.099   1.531   2.860
 2345SOL     OW 7933   2.327   1.244   3.456
 2345SOL    HW1 7934   2.306   1.294   3.372
 2345SOL    HW2 7935   2.421   1.262   3.483
 2346SOL     OW 7936   4.924   3.646   5.662
 2346SOL    HW1 7937   4.961   3.644   5.755
 2346SOL    HW2 7938   4.885   3.557   5.640
 2347SOL     OW 7939   1.195   3.473   1.544
 2347SOL    HW1 7940   1.125   3.435   1.604
 2347SOL    HW2 7941   1.174   3.569   1.524
 2348SOL     OW 7942   2.376   5.795   1.403
 2348SOL    HW1 7943   2.352   5.749   1.488
 2348SOL    HW2 7944   2.312   5.767   1.331
 2349SOL     OW 7945   4.540   5.328   5.757
 2349SOL    HW1 7946   4.609   5.300   5.690
 2349SOL    HW2 7947   4.509   5.247   5.807
 2350SOL     OW 7948   2.585   5.967   5.355
 2350SOL    HW1 7949   2.612   5.871   5.358
 2350SOL    HW2 7950   2.565   5.999   5.448
 2351SOL     OW 7951   1.988   5.757   3.887
 2351SOL    HW1 7952   2.041   5.806   3.818
 2351SOL    HW2 7953   2.001   5.658   3.875
 2352SOL     OW 7954   6.347   3.456   2.047
 2352SOL    HW1 7955   6.284   3.533   2.054
 2352SOL    HW2 7956   6.375   3.427   2.139
 2353SOL     OW 7957   3.215   3.454   5.927
 2353SOL    HW1 7958   3.194   3.514   5.850
 2353SOL    HW2 7959   3.132   3.408   5.958
 2354SOL     OW 7960   4.085   3.021   1.305
 2354SOL    HW1 7961   4.127   2.952   1.245
 2354SOL    HW2 7962   4.098   2.995   1.400
 2355SOL     OW 7963   6.832   0.522   1.040
 2355SOL    HW1 7964   6.743   0.555   1.007
 2355SOL    HW2 7965   6.828   0.512   1.140
 2356SOL     OW 7966   2.860   4.761   3.333
 2356SOL    HW1 7967   2.883   4.827   3.262
 2356SOL    HW2 7968   2.944   4.718   3.367
 2357SOL     OW 7969   6.168   4.898   1.214
 2357SOL    HW1 7970   6.244   4.853   1.168
 2357SOL    HW2 7971   6.113   4.949   1.147
 2358SOL     OW 7972   3.399   1.642   5.773
 2358SOL    HW1 7973   3.496   1.618   5.782
 2358SOL    HW2 7974   3.375   1.710   5.842
 2359SOL     OW 7975   1.957   1.394   5.916
 2359SOL    HW1 7976   1.993   1.452   5.989
 2359SOL    HW2 7977   1.999   1.419   5.829
 2360SOL     OW 7978   3.829   4.081   0.440
 2360SOL    HW1 7979   3.789   4.159   0.488
 2360SOL    HW2 7980   3.825   4.000   0.498
 2361SOL     OW 7981   4.395   5.756   1.842
 2361SOL    HW1 7982   4.300   5.767   1.871
 2361SOL    HW2 7983   4.452   5.824   1.888
 2362SOL     OW 7984   4.563   5.166   3.493
 2362SOL    HW1 7985   4.634   5.114   3.447
 2362SOL    HW2 7986   4.574   5.264   3.473
 2363SOL     OW 7987   2.493   4.368   0.871
 2363SOL    HW1 7988   2.576   4.377   0.927
 2363SOL    HW2 7989   2.517   4.371   0.774
 2364SOL     OW 7990   3.659   1.569   2.434
 2364SOL    HW1 7991   3.668   1.580   2.533
 2364SOL    HW2 7992   3.740   1.606   2.389
 2365SOL     OW 7993   5.029   3.496   3.492
 2365SOL    HW1 7994   4.998   3.405   3.465
 2365SOL    HW2 7995   5.126   3.493   3.515
 2366SOL     OW 7996   2.783   4.851   4.981
 2366SOL    HW1 7997   2.869   4.900   4.995
 2366SOL    HW2 7998   2.789   4.760   5.021
 2367SOL     OW 7999   5.748   4.379   6.327
 2367SOL    HW1 8000   5.828   4.391   6.268
 2367SOL    HW2 8001   5.741   4.283   6.354
 2368SOL     OW 8002   5.612   6.537   4.664
 2368SOL    HW1 8003   5.683   6.477   4.627
 2368SOL    HW2 8004   5.643   6.632   4.658
 2369SOL     OW 8005   3.061   1.945   4.454
 2369SOL    HW1 8006   2.989   2.001   4.414
 2369SOL    HW2 8007   3.039   1.924   4.549
 2370SOL     OW 8008   5.812   2.793   2.062
 2370SOL    HW1 8009   5.903   2.813   2.098
 2370SOL    HW2 8010   5.818   2.777   1.964
 2371SOL     OW 8011   0.621   6.403   3.232
 2371SOL    HW1 8012   0.561   6.446   3.164
 2371SOL    HW2 8013   0.682   6.337   3.186
 2372SOL     OW 8014   5.973   6.922   6.479
 2372SOL    HW1 8015   6.022   7.009   6.488
 2372SOL    HW2 8016   5.900   6.932   6.411
 2373SOL     OW 8017   6.009   5.436   6.424
 2373SOL    HW1 8018   5.983   5.365   6.359
 2373SOL    HW2 8019   5.980   5.410   6.516
 2374SOL     OW 8020   6.641   6.524   2.298
 2374SOL    HW1 8021   6.645   6.490   2.392
 2374SOL    HW2 8022   6.732   6.516   2.256
 2375SOL     OW 8023   1.314   0.117   4.266
 2375SOL    HW1 8024   1.240   0.100   4.331
 2375SOL    HW2 8025   1.283   0.183   4.198
 2376SOL     OW 8026   6.044   1.743   3.734
 2376SOL    HW1 8027   5.982   1.818   3.754
 2376SOL    HW2 8028   6.133   1.779   3.708
 2377SOL     OW 8029   4.717   4.552   5.934
 2377SOL    HW1 8030   4.679   4.642   5.913
 2377SOL    HW2 8031   4.669   4.483   5.880
 2378SOL     OW 8032   6.835   0.947   0.468
 2378SOL    HW1 8033   6.809   1.044   0.468
 2378SOL    HW2 8034   6.767   0.894   0.418
 2379SOL     OW 8035   6.465   5.231   1.297
 2379SOL    HW1 8036   6.485   5.179   1.380
 2379SOL    HW2 8037   6.474   5.171   1.217
 2380SOL     OW 8038   4.792   5.668   5.366
 2380SOL    HW1 8039   4.872   5.665   5.306
 2380SOL    HW2 8040   4.804   5.740   5.435
 2381SOL     OW 8041   2.263   4.628   4.757
 2381SOL    HW1 8042   2.308   4.605   4.843
 2381SOL    HW2 8043   2.333   4.642   4.686
 2382SOL     OW 8044   0.525   6.204   2.377
 2382SOL    HW1 8045   0.453   6.227   2.442
 2382SOL    HW2 8046   0.613   6.201   2.424
 2383SOL     OW 8047   5.340   5.574   5.784
 2383SOL    HW1 8048   5.293   5.662   5.793
 2383SOL    HW2 8049   5.329   5.522   5.869
 2384SOL     OW 8050   0.548   1.585   1.946
 2384SOL    HW1 8051   0.639   1.551   1.922
 2384SOL    HW2 8052   0.488   1.508   1.967
 2385SOL     OW 8053   0.475   1.392   0.672
 2385SOL    HW1 8054   0.527   1.476   0.651
 2385SOL    HW2 8055   0.410   1.374   0.599
 2386SOL     OW 8056   5.705   5.304   3.531
 2386SOL    HW1 8057   5.666   5.396   3.521
 2386SOL    HW2 8058   5.652   5.251   3.597
 2387SOL     OW 8059   1.940   1.721   3.959
 2387SOL    HW1 8060   1.975   1.771   3.881
 2387SOL    HW2 8061   1.881   1.780   4.014
 2388SOL     OW 8062   6.300   2.056   5.038
 2388SOL    HW1 8063   6.276   2.041   5.133
 2388SOL    HW2 8064   6.217   2.071   4.984
 2389SOL     OW 8065   4.866   4.607   4.228
 2389SOL    HW1 8066   4.913   4.547   4.163
 2389SOL    HW2 8067   4.897   4.587   4.321
 2390SOL     OW 8068   4.406   3.469   5.666
 2390SOL    HW1 8069   4.423   3.371   5.675
 2390SOL    HW2 8070   4.379   3.506   5.755
 2391SOL     OW 8071   2.740   5.033   6.212
 2391SOL    HW1 8072   2.719   5.024   6.114
 2391SOL    HW2 8073   2.705   5.119   6.246
 2392SOL     OW 8074   4.355   4.487   5.827
 2392SOL    HW1 8075   4.295   4.566   5.843
 2392SOL    HW2 8076   4.322   4.436   5.748
 2393SOL     OW 8077   4.110   4.528   1.325
 2393SOL    HW1 8078   4.114   4.465   1.247
 2393SOL    HW2 8079   4.203   4.555   1.351
 2394SOL     OW 8080   0.437   2.416   3.232
 2394SOL    HW1 8081   0.407   2.365   3.151
 2394SOL    HW2 8082   0.395   2.507   3.231
 2395SOL     OW 8083   0.771   2.592   4.595
 2395SOL    HW1 8084   0.744   2.529   4.668
 2395SOL    HW2 8085   0.859   2.565   4.558
 2396SOL     OW 8086   6.829   0.482   5.401
 2396SOL    HW1 8087   6.825   0.419   5.324
 2396SOL    HW2 8088   6.768   0.449   5.474
 2397SOL     OW 8089   0.210   4.325   5.387
 2397SOL    HW1 8090   0.168   4.414   5.403
 2397SOL    HW2 8091   0.140   4.254   5.384
 2398SOL     OW 8092   3.735   6.578   4.359
 2398SOL    HW1 8093   3.710   6.508   4.425
 2398SOL    HW2 8094   3.680   6.566   4.276
 2399SOL     OW 8095   3.665   2.123   3.848
 2399SOL    HW1 8096   3.570   2.095   3.840
 2399SOL    HW2 8097   3.683   2.155   3.941
 2400SOL     OW 8098   1.055   3.781   1.008
 2400SOL    HW1 8099   1.108   3.706   0.968
 2400SOL    HW2 8100   1.054   3.772   1.107
 2401SOL     OW 8101   2.465   0.094   5.455
 2401SOL    HW1 8102   2.444   0.190   5.474
 2401SOL    HW2 8103   2.385   0.049   5.415
 2402SOL     OW 8104   1.492   4.407   1.654
 2402SOL    HW1 8105   1.453   4.331   1.602
 2402SOL    HW2 8106   1.587   4.422   1.625
 2403SOL     OW 8107   4.038   3.112   3.626
 2403SOL    HW1 8108   4.072   3.116   3.532
 2403SOL    HW2 8109   4.058   3.199   3.672
 2404SOL     OW 8110   6.044   0.845   1.075
 2404SOL    HW1 8111   6.128   0.840   1.020
 2404SOL    HW2 8112   6.014   0.752   1.097
 2405SOL     OW 8113   2.202   2.996   0.763
 2405SOL    HW1 8114   2.187   2.923   0.697
 2405SOL    HW2 8115   2.114   3.023   0.804
 2406SOL     OW 8116   3.105   6.142   4.643
 2406SOL    HW1 8117   3.052   6.091   4.575
 2406SOL    HW2 8118   3.144   6.224   4.600
 2407SOL     OW 8119   3.052   0.843   3.599
 2407SOL    HW1 8120   3.035   0.763   3.540
 2407SOL    HW2 8121   3.084   0.919   3.542
 2408SOL     OW 8122   3.410   6.212   4.483
 2408SOL    HW1 8123   3.442   6.137   4.425
 2408SOL    HW2 8124   3.329   6.254   4.440
 2409SOL     OW 8125   1.697   3.384   1.562
 2409SOL    HW1 8126   1.606   3.360   1.595
 2409SOL    HW2 8127   1.750   3.300   1.547
 2410SOL     OW 8128   0.924   3.214   4.970
 2410SOL    HW1 8129   0.894   3.297   5.017
 2410SOL    HW2 8130   0.958   3.237   4.879
 2411SOL     OW 8131   2.692   3.582   0.414
 2411SOL    HW1 8132   2.708   3.628   0.502
 2411SOL    HW2 8133   2.678   3.651   0.343
 2412SOL     OW 8134   3.709   1.612   6.911
 2412SOL    HW1 8135   3.677   1.517   6.917
 2412SOL    HW2 8136   3.804   1.614   6.879
 2413SOL     OW 8137   0.439   2.860   6.776
 2413SOL    HW1 8138   0.409   2.883   6.683
 2413SOL    HW2 8139   0.539   2.856   6.778
 2414SOL     OW 8140   6.260   2.024   5.320
 2414SOL    HW1 8141   6.322   1.955   5.359
 2414SOL    HW2 8142   6.177   2.027   5.375
 2415SOL     OW 8143   2.504   5.636   0.477
 2415SOL    HW1 8144   2.417   5.592   0.455
 2415SOL    HW2 8145   2.564   5.634   0.397
 2416SOL     OW 8146   6.946   3.812   1.886
 2416SOL    HW1 8147   6.949   3.740   1.816
 2416SOL    HW2 8148   6.854   3.818   1.924
 2417SOL     OW 8149   3.069   2.722   1.553
 2417SOL    HW1 8150   2.973   2.734   1.579
 2417SOL    HW2 8151   3.103   2.636   1.592
 2418SOL     OW 8152   4.585   3.990   6.786
 2418SOL    HW1 8153   4.587   3.994   6.886
 2418SOL    HW2 8154   4.555   3.899   6.757
 2419SOL     OW 8155   2.440   6.589   3.444
 2419SOL    HW1 8156   2.427   6.647   3.364
 2419SOL    HW2 8157   2.474   6.644   3.520
 2420SOL     OW 8158   1.259   3.939   2.714
 2420SOL    HW1 8159   1.279   3.883   2.633
 2420SOL    HW2 8160   1.344   3.957   2.763
 2421SOL     OW 8161   2.753   6.219   4.362
 2421SOL    HW1 8162   2.699   6.299   4.388
 2421SOL    HW2 8163   2.768   6.161   4.442
 2422SOL     OW 8164   4.609   6.116   1.014
 2422SOL    HW1 8165   4.551   6.194   0.989
 2422SOL    HW2 8166   4.690   6.114   0.956
 2423SOL     OW 8167   2.518   5.229   2.916
 2423SOL    HW1 8168   2.508   5.151   2.854
 2423SOL    HW2 8169   2.615   5.241   2.939
 2424SOL     OW 8170   5.524   0.128   6.232
 2424SOL    HW1 8171   5.569   0.217   6.222
 2424SOL    HW2 8172   5.424   0.141   6.232
 2425SOL     OW 8173   5.273   5.556   4.880
 2425SOL    HW1 8174   5.308   5.549   4.974
 2425SOL    HW2 8175   5.217   5.476   4.860
 2426SOL     OW 8176   2.319   3.686   5.824
 2426SOL    HW1 8177   2.223   3.698   5.798
 2426SOL    HW2 8178   2.338   3.589   5.838
 2427SOL     OW 8179   5.426   0.765   6.982
 2427SOL    HW1 8180   5.521   0.780   6.955
 2427SOL    HW2 8181   5.370   0.843   6.954
 2428SOL     OW 8182   1.228   0.557   3.171
 2428SOL    HW1 8183   1.139   0.524   3.203
 2428SOL    HW2 8184   1.215   0.640   3.116
 2429SOL     OW 8185   5.941   5.183   1.871
 2429SOL    HW1 8186   5.988   5.097   1.892
 2429SOL    HW2 8187   6.007   5.258   1.876
 2430SOL     OW 8188   6.227   1.619   6.895
 2430SOL    HW1 8189   6.231   1.531   6.942
 2430SOL    HW2 8190   6.274   1.612   6.807
 2431SOL     OW 8191   6.753   2.955   1.566
 2431SOL    HW1 8192   6.660   2.958   1.528
 2431SOL    HW2 8193   6.809   2.894   1.511
 2432SOL     OW 8194   2.794   5.181   1.729
 2432SOL    HW1 8195   2.887   5.220   1.734
 2432SOL    HW2 8196   2.793   5.093   1.776
 2433SOL     OW 8197   6.310   4.136   5.649
 2433SOL    HW1 8198   6.344   4.179   5.566
 2433SOL    HW2 8199   6.212   4.120   5.641
 2434SOL     OW 8200   4.780   0.947   2.582
 2434SOL    HW1 8201   4.845   0.995   2.523
 2434SOL    HW2 8202   4.829   0.908   2.660
 2435SOL     OW 8203   5.947   6.488   6.956
 2435SOL    HW1 8204   6.021   6.502   6.890
 2435SOL    HW2 8205   5.949   6.561   0.003
 2436SOL     OW 8206   1.970   1.821   2.224
 2436SOL    HW1 8207   1.899   1.752   2.237
 2436SOL    HW2 8208   2.039   1.786   2.160
 2437SOL     OW 8209   0.181   4.398   2.391
 2437SOL    HW1 8210   0.241   4.452   2.332
 2437SOL    HW2 8211   0.221   4.307   2.404
 2438SOL     OW 8212   3.023   1.116   5.063
 2438SOL    HW1 8213   3.106   1.076   5.023
 2438SOL    HW2 8214   2.968   1.043   5.103
 2439SOL     OW 8215   0.911   0.005   1.649
 2439SOL    HW1 8216   1.007   0.003   1.678
 2439SOL    HW2 8217   0.889   0.096   1.613
 2440SOL     OW 8218   5.779   0.935   5.504
 2440SOL    HW1 8219   5.806   0.851   5.551
 2440SOL    HW2 8220   5.860   0.984   5.473
 2441SOL     OW 8221   6.520   0.002   6.754
 2441SOL    HW1 8222   6.468   0.035   6.675
 2441SOL    HW2 8223   6.608   6.987   6.722
 2442SOL     OW 8224   5.025   3.251   2.116
 2442SOL    HW1 8225   5.112   3.205   2.134
 2442SOL    HW2 8226   4.951   3.198   2.156
 2443SOL     OW 8227   0.497   2.525   1.491
 2443SOL    HW1 8228   0.438   2.452   1.526
 2443SOL    HW2 8229   0.570   2.543   1.557
 2444SOL     OW 8230   3.787   5.808   1.940
 2444SOL    HW1 8231   3.726   5.739   1.979
 2444SOL    HW2 8232   3.881   5.791   1.970
 2445SOL     OW 8233   0.200   2.331   0.998
 2445SOL    HW1 8234   0.109   2.307   0.964
 2445SOL    HW2 8235   0.230   2.417   0.957
 2446SOL     OW 8236   1.377   4.971   1.386
 2446SOL    HW1 8237   1.354   4.997   1.292
 2446SOL    HW2 8238   1.447   5.033   1.421
 2447SOL     OW 8239   2.882   6.606   0.121
 2447SOL    HW1 8240   2.885   6.630   0.218
 2447SOL    HW2 8241   2.975   6.604   0.085
 2448SOL     OW 8242   6.841   1.737   4.567
 2448SOL    HW1 8243   6.846   1.834   4.591
 2448SOL    HW2 8244   6.786   1.727   4.484
 2449SOL     OW 8245   1.390   4.173   1.468
 2449SOL    HW1 8246   1.340   4.097   1.511
 2449SOL    HW2 8247   1.328   4.223   1.408
 2450SOL     OW 8248   1.778   6.611   5.885
 2450SOL    HW1 8249   1.748   6.591   5.792
 2450SOL    HW2 8250   1.725   6.556   5.950
 2451SOL     OW 8251   0.988   6.998   5.193
 2451SOL    HW1 8252   0.953   6.984   5.286
 2451SOL    HW2 8253   1.006   0.073   5.178
 2452SOL     OW 8254   2.719   1.734   3.893
 2452SOL    HW1 8255   2.753   1.783   3.974
 2452SOL    HW2 8256   2.756   1.642   3.892
 2453SOL     OW 8257   1.025   1.542   6.532
 2453SOL    HW1 8258   1.030   1.444   6.514
 2453SOL    HW2 8259   1.061   1.561   6.624
 2454SOL     OW 8260   2.958   5.792   1.203
 2454SOL    HW1 8261   2.983   5.718   1.264
 2454SOL    HW2 8262   2.960   5.760   1.108
 2455SOL     OW 8263   3.726   2.452   1.085
 2455SOL    HW1 8264   3.649   2.509   1.117
 2455SOL    HW2 8265   3.756   2.485   0.996
 2456SOL     OW 8266   1.234   4.318   6.157
 2456SOL    HW1 8267   1.250   4.282   6.065
 2456SOL    HW2 8268   1.192   4.246   6.213
 2457SOL     OW 8269   4.875   2.368   5.038
 2457SOL    HW1 8270   4.962   2.418   5.048
 2457SOL    HW2 8271   4.804   2.415   5.090
 2458SOL     OW 8272   1.576   0.419   1.830
 2458SOL    HW1 8273   1.500   0.374   1.785
 2458SOL    HW2 8274   1.655   0.358   1.831
 2459SOL     OW 8275   2.946   6.164   1.290
 2459SOL    HW1 8276   2.973   6.143   1.384
 2459SOL    HW2 8277   2.851   6.195   1.289
 2460SOL     OW 8278   1.216   1.371   5.245
 2460SOL    HW1 8279   1.190   1.318   5.165
 2460SOL    HW2 8280   1.212   1.469   5.222
 2461SOL     OW 8281   4.441   1.151   3.925
 2461SOL    HW1 8282   4.398   1.121   4.010
 2461SOL    HW2 8283   4.537   1.175   3.943
 2462SOL     OW 8284   0.038   4.113   0.720
 2462SOL    HW1 8285   0.126   4.160   0.723
 2462SOL    HW2 8286   0.037   4.040   0.789
 2463SOL     OW 8287   6.869   0.956   6.993
 2463SOL    HW1 8288   6.810   1.015   6.937
 2463SOL    HW2 8289   6.875   0.865   6.951
 2464SOL     OW 8290   0.128   2.146   2.696
 2464SOL    HW1 8291   0.133   2.128   2.794
 2464SOL    HW2 8292   0.192   2.086   2.648
 2465SOL     OW 8293   0.409   4.685   5.633
 2465SOL    HW1 8294   0.374   4.592   5.644
 2465SOL    HW2 8295   0.508   4.685   5.647
 2466SOL     OW 8296   0.635   2.600   1.758
 2466SOL    HW1 8297   0.572   2.551   1.818
 2466SOL    HW2 8298   0.729   2.571   1.777
 2467SOL     OW 8299   5.472   1.629   6.170
 2467SOL    HW1 8300   5.483   1.654   6.074
 2467SOL    HW2 8301   5.388   1.670   6.206
 2468SOL     OW 8302   3.390   6.519   5.728
 2468SOL    HW1 8303   3.313   6.579   5.748
 2468SOL    HW2 8304   3.361   6.423   5.734
 2469SOL     OW 8305   3.549   2.679   5.955
 2469SOL    HW1 8306   3.496   2.753   5.996
 2469SOL    HW2 8307   3.641   2.678   5.996
 2470SOL     OW 8308   3.142   4.796   6.452
 2470SOL    HW1 8309   3.085   4.749   6.519
 2470SOL    HW2 8310   3.237   4.792   6.480
 2471SOL     OW 8311   3.931   5.789   1.355
 2471SOL    HW1 8312   3.942   5.852   1.279
 2471SOL    HW2 8313   3.857   5.820   1.415
 2472SOL     OW 8314   5.010   1.714   4.058
 2472SOL    HW1 8315   5.043   1.806   4.037
 2472SOL    HW2 8316   5.069   1.646   4.015
 2473SOL     OW 8317   0.465   4.463   4.903
 2473SOL    HW1 8318   0.406   4.447   4.982
 2473SOL    HW2 8319   0.409   4.493   4.825
 2474SOL     OW 8320   1.417   5.642   1.455
 2474SOL    HW1 8321   1.372   5.665   1.369
 2474SOL    HW2 8322   1.434   5.725   1.507
 2475SOL     OW 8323   5.031   0.277   0.843
 2475SOL    HW1 8324   4.943   0.323   0.828
 2475SOL    HW2 8325   5.068   0.246   0.756
 2476SOL     OW 8326   5.474   0.356   0.170
 2476SOL    HW1 8327   5.525   0.287   0.119
 2476SOL    HW2 8328   5.453   0.321   0.261
 2477SOL     OW 8329   3.745   0.217   3.325
 2477SOL    HW1 8330   3.797   0.133   3.343
 2477SOL    HW2 8331   3.691   0.241   3.406
 2478SOL     OW 8332   4.357   0.904   3.471
 2478SOL    HW1 8333   4.424   0.972   3.502
 2478SOL    HW2 8334   4.366   0.821   3.526
 2479SOL     OW 8335   0.633   4.004   0.270
 2479SOL    HW1 8336   0.544   3.976   0.305
 2479SOL    HW2 8337   0.648   3.964   0.180
 2480SOL     OW 8338   3.302   2.863   1.464
 2480SOL    HW1 8339   3.351   2.799   1.404
 2480SOL    HW2 8340   3.217   2.821   1.495
 2481SOL     OW 8341   3.100   0.807   0.823
 2481SOL    HW1 8342   3.163   0.809   0.900
 2481SOL    HW2 8343   3.049   0.721   0.823
 2482SOL     OW 8344   4.993   3.416   0.030
 2482SOL    HW1 8345   4.899   3.382   0.025
 2482SOL    HW2 8346   5.032   3.422   6.960
 2483SOL     OW 8347   0.841   2.130   0.894
 2483SOL    HW1 8348   0.765   2.108   0.834
 2483SOL    HW2 8349   0.926   2.128   0.841
 2484SOL     OW 8350   5.558   1.699   1.836
 2484SOL    HW1 8351   5.513   1.654   1.758
 2484SOL    HW2 8352   5.488   1.725   1.903
 2485SOL     OW 8353   5.049   2.548   5.935
 2485SOL    HW1 8354   5.053   2.593   6.024
 2485SOL    HW2 8355   4.998   2.606   5.871
 2486SOL     OW 8356   0.435   4.067   4.795
 2486SOL    HW1 8357   0.454   4.068   4.893
 2486SOL    HW2 8358   0.497   4.130   4.748
 2487SOL     OW 8359   4.860   6.119   0.051
 2487SOL    HW1 8360   4.764   6.131   0.026
 2487SOL    HW2 8361   4.895   6.036   0.008
 2488SOL     OW 8362   6.966   4.099   1.406
 2488SOL    HW1 8363   6.983   4.196   1.388
 2488SOL    HW2 8364   0.032   4.051   1.411
 2489SOL     OW 8365   0.455   6.062   4.453
 2489SOL    HW1 8366   0.449   6.154   4.492
 2489SOL    HW2 8367   0.527   6.060   4.383
 2490SOL     OW 8368   2.731   5.680   2.254
 2490SOL    HW1 8369   2.679   5.596   2.271
 2490SOL    HW2 8370   2.823   5.656   2.223
 2491SOL     OW 8371   4.110   4.534   1.690
 2491SOL    HW1 8372   4.183   4.500   1.750
 2491SOL    HW2 8373   4.143   4.535   1.595
 2492SOL     OW 8374   5.967   4.140   0.707
 2492SOL    HW1 8375   5.905   4.116   0.633
 2492SOL    HW2 8376   5.918   4.139   0.794
 2493SOL     OW 8377   0.167   6.454   1.550
 2493SOL    HW1 8378   0.265   6.430   1.554
 2493SOL    HW2 8379   0.113   6.370   1.552
 2494SOL     OW 8380   5.848   2.288   1.435
 2494SOL    HW1 8381   5.843   2.310   1.338
 2494SOL    HW2 8382   5.831   2.371   1.489
 2495SOL     OW 8383   6.483   5.641   3.651
 2495SOL    HW1 8384   6.403   5.643   3.592
 2495SOL    HW2 8385   6.559   5.595   3.605
 2496SOL     OW 8386   6.348   5.151   0.088
 2496SOL    HW1 8387   6.291   5.203   0.024
 2496SOL    HW2 8388   6.372   5.208   0.166
 2497SOL     OW 8389   0.254   6.424   2.156
 2497SOL    HW1 8390   0.237   6.414   2.058
 2497SOL    HW2 8391   0.317   6.500   2.172
 2498SOL     OW 8392   2.155   3.115   5.545
 2498SOL    HW1 8393   2.244   3.096   5.503
 2498SOL    HW2 8394   2.133   3.041   5.609
 2499SOL     OW 8395   6.094   3.696   1.604
 2499SOL    HW1 8396   6.089   3.625   1.674
 2499SOL    HW2 8397   6.060   3.782   1.641
 2500SOL     OW 8398   3.443   3.938   6.551
 2500SOL    HW1 8399   3.521   3.908   6.497
 2500SOL    HW2 8400   3.358   3.913   6.505
 2501SOL     OW 8401   5.529   5.548   0.542
 2501SOL    HW1 8402   5.539   5.450   0.527
 2501SOL    HW2 8403   5.432   5.571   0.552
 2502SOL     OW 8404   2.461   5.593   4.267
 2502SOL    HW1 8405   2.477   5.495   4.276
 2502SOL    HW2 8406   2.400   5.624   4.340
 2503SOL     OW 8407   2.903   0.001   5.181
 2503SOL    HW1 8408   2.848   0.012   5.098
 2503SOL    HW2 8409   2.887   6.933   5.220
 2504SOL     OW 8410   2.985   5.541   2.758
 2504SOL    HW1 8411   2.930   5.579   2.832
 2504SOL    HW2 8412   3.074   5.513   2.794
 2505SOL     OW 8413   0.424   5.895   2.584
 2505SOL    HW1 8414   0.340   5.940   2.556
 2505SOL    HW2 8415   0.405   5.801   2.612
 2506SOL     OW 8416   5.998   4.208   6.003
 2506SOL    HW1 8417   5.967   4.276   6.069
 2506SOL    HW2 8418   6.097   4.198   6.008
 2507SOL     OW 8419   6.927   3.517   0.643
 2507SOL    HW1 8420   6.979   3.504   0.559
 2507SOL    HW2 8421   6.862   3.592   0.632
 2508SOL     OW 8422   3.118   1.878   4.992
 2508SOL    HW1 8423   3.146   1.872   5.088
 2508SOL    HW2 8424   3.044   1.945   4.984
 2509SOL     OW 8425   6.420   3.523   6.442
 2509SOL    HW1 8426   6.343   3.562   6.393
 2509SOL    HW2 8427   6.505   3.563   6.409
 2510SOL     OW 8428   3.340   3.843   1.572
 2510SOL    HW1 8429   3.436   3.814   1.573
 2510SOL    HW2 8430   3.334   3.936   1.610
 2511SOL     OW 8431   2.310   0.676   5.086
 2511SOL    HW1 8432   2.275   0.587   5.056
 2511SOL    HW2 8433   2.277   0.748   5.025
 2512SOL     OW 8434   3.755   4.347   5.234
 2512SOL    HW1 8435   3.683   4.283   5.206
 2512SOL    HW2 8436   3.843   4.300   5.237
 2513SOL     OW 8437   2.043   6.677   5.798
 2513SOL    HW1 8438   2.094   6.662   5.883
 2513SOL    HW2 8439   1.951   6.639   5.807
 2514SOL     OW 8440   1.135   2.917   3.897
 2514SOL    HW1 8441   1.078   2.856   3.842
 2514SOL    HW2 8442   1.141   2.882   3.990
 2515SOL     OW 8443   2.053   0.748   1.093
 2515SOL    HW1 8444   1.987   0.748   1.168
 2515SOL    HW2 8445   2.005   0.768   1.007
 2516SOL     OW 8446   5.055   1.439   3.799
 2516SOL    HW1 8447   5.110   1.411   3.878
 2516SOL    HW2 8448   5.105   1.419   3.715
 2517SOL     OW 8449   0.754   1.052   4.768
 2517SOL    HW1 8450   0.714   1.077   4.856
 2517SOL    HW2 8451   0.802   0.965   4.777
 2518SOL     OW 8452   2.560   4.692   1.050
 2518SOL    HW1 8453   2.615   4.776   1.056
 2518SOL    HW2 8454   2.620   4.613   1.040
 2519SOL     OW 8455   2.520   1.266   1.418
 2519SOL    HW1 8456   2.468   1.270   1.504
 2519SOL    HW2 8457   2.504   1.349   1.366
 2520SOL     OW 8458   3.203   2.617   1.030
 2520SOL    HW1 8459   3.245   2.540   0.982
 2520SOL    HW2 8460   3.203   2.697   0.969
 2521SOL     OW 8461   3.958   1.727   5.067
 2521SOL    HW1 8462   4.000   1.637   5.080
 2521SOL    HW2 8463   3.901   1.725   4.985
 2522SOL     OW 8464   0.935   1.688   5.242
 2522SOL    HW1 8465   0.990   1.664   5.163
 2522SOL    HW2 8466   0.856   1.627   5.248
 2523SOL     OW 8467   1.781   4.606   0.734
 2523SOL    HW1 8468   1.746   4.693   0.771
 2523SOL    HW2 8469   1.852   4.570   0.796
 2524SOL     OW 8470   1.484   6.672   4.237
 2524SOL    HW1 8471   1.424   6.680   4.157
 2524SOL    HW2 8472   1.444   6.721   4.314
 2525SOL     OW 8473   0.951   3.058   4.545
 2525SOL    HW1 8474   1.020   3.002   4.498
 2525SOL    HW2 8475   0.935   3.142   4.493
 2526SOL     OW 8476   1.350   5.410   6.909
 2526SOL    HW1 8477   1.299   5.495   6.903
 2526SOL    HW2 8478   1.287   5.333   6.897
 2527SOL     OW 8479   5.429   5.512   5.548
 2527SOL    HW1 8480   5.399   5.520   5.643
 2527SOL    HW2 8481   5.450   5.417   5.527
 2528SOL     OW 8482   4.968   5.120   5.669
 2528SOL    HW1 8483   4.942   5.169   5.752
 2528SOL    HW2 8484   5.060   5.148   5.642
 2529SOL     OW 8485   0.643   0.071   6.409
 2529SOL    HW1 8486   0.583   0.101   6.335
 2529SOL    HW2 8487   0.708   0.003   6.375
 2530SOL     OW 8488   2.621   6.097   5.613
 2530SOL    HW1 8489   2.646   6.086   5.710
 2530SOL    HW2 8490   2.620   6.194   5.591
 2531SOL     OW 8491   5.989   5.770   5.473
 2531SOL    HW1 8492   5.934   5.797   5.552
 2531SOL    HW2 8493   5.977   5.672   5.457
 2532SOL     OW 8494   1.204   6.195   1.237
 2532SOL    HW1 8495   1.169   6.221   1.327
 2532SOL    HW2 8496   1.136   6.140   1.189
 2533SOL     OW 8497   5.012   0.982   3.352
 2533SOL    HW1 8498   5.093   0.938   3.392
 2533SOL    HW2 8499   4.933   0.965   3.412
 2534SOL     OW 8500   4.689   1.560   1.778
 2534SOL    HW1 8501   4.650   1.583   1.867
 2534SOL    HW2 8502   4.736   1.640   1.740
 2535SOL     OW 8503   3.691   2.521   6.686
 2535SOL    HW1 8504   3.747   2.489   6.763
 2535SOL    HW2 8505   3.607   2.562   6.721
 2536SOL     OW 8506   1.851   0.589   0.034
 2536SOL    HW1 8507   1.924   0.656   0.051
 2536SOL    HW2 8508   1.780   0.631   7.000
 2537SOL     OW 8509   3.432   0.551   6.508
 2537SOL    HW1 8510   3.472   0.463   6.482
 2537SOL    HW2 8511   3.505   0.618   6.523
 2538SOL     OW 8512   6.813   3.580   3.436
 2538SOL    HW1 8513   6.737   3.576   3.371
 2538SOL    HW2 8514   6.881   3.645   3.404
 2539SOL     OW 8515   6.052   1.133   3.845
 2539SOL    HW1 8516   6.052   1.162   3.749
 2539SOL    HW2 8517   6.080   1.210   3.902
 2540SOL     OW 8518   4.123   1.822   2.843
 2540SOL    HW1 8519   4.213   1.798   2.878
 2540SOL    HW2 8520   4.128   1.834   2.744
 2541SOL     OW 8521   2.587   0.306   4.671
 2541SOL    HW1 8522   2.668   0.260   4.635
 2541SOL    HW2 8523   2.615   0.377   4.737
 2542SOL     OW 8524   1.804   4.267   6.611
 2542SOL    HW1 8525   1.869   4.253   6.686
 2542SOL    HW2 8526   1.788   4.365   6.600
 2543SOL     OW 8527   0.748   1.832   4.295
 2543SOL    HW1 8528   0.664   1.790   4.262
 2543SOL    HW2 8529   0.823   1.766   4.291
 2544SOL     OW 8530   0.974   5.184   0.981
 2544SOL    HW1 8531   0.909   5.115   1.014
 2544SOL    HW2 8532   0.947   5.214   0.890
 2545SOL     OW 8533   1.697   6.937   2.784
 2545SOL    HW1 8534   1.605   6.898   2.782
 2545SOL    HW2 8535   1.693   0.012   2.764
 2546SOL     OW 8536   5.798   1.540   0.546
 2546SOL    HW1 8537   5.760   1.519   0.456
 2546SOL    HW2 8538   5.865   1.613   0.537
 2547SOL     OW 8539   0.123   3.452   6.456
 2547SOL    HW1 8540   0.202   3.463   6.395
 2547SOL    HW2 8541   0.039   3.450   6.401
 2548SOL     OW 8542   0.978   6.229   4.667
 2548SOL    HW1 8543   1.064   6.260   4.707
 2548SOL    HW2 8544   0.962   6.134   4.691
 2549SOL     OW 8545   0.711   0.464   1.661
 2549SOL    HW1 8546   0.625   0.452   1.710
 2549SOL    HW2 8547   0.712   0.553   1.614
 2550SOL     OW 8548   6.256   6.775   0.561
 2550SOL    HW1 8549   6.324   6.846   0.582
 2550SOL    HW2 8550   6.299   6.685   0.565
 2551SOL     OW 8551   2.709   4.471   6.528
 2551SOL    HW1 8552   2.668   4.414   6.457
 2551SOL    HW2 8553   2.671   4.564   6.523
 2552SOL     OW 8554   2.641   4.649   4.084
 2552SOL    HW1 8555   2.726   4.697   4.103
 2552SOL    HW2 8556   2.607   4.676   3.994
 2553SOL     OW 8557   4.065   3.786   6.183
 2553SOL    HW1 8558   4.164   3.804   6.185
 2553SOL    HW2 8559   4.042   3.736   6.099
 2554SOL     OW 8560   2.253   2.074   0.874
 2554SOL    HW1 8561   2.283   1.989   0.830
 2554SOL    HW2 8562   2.207   2.132   0.806
 2555SOL     OW 8563   5.040   2.864   4.348
 2555SOL    HW1 8564   4.943   2.857   4.372
 2555SOL    HW2 8565   5.088   2.781   4.379
 2556SOL     OW 8566   3.953   5.931   0.738
 2556SOL    HW1 8567   3.980   5.962   0.648
 2556SOL    HW2 8568   3.963   6.005   0.804
 2557SOL     OW 8569   2.088   3.710   6.763
 2557SOL    HW1 8570   2.141   3.633   6.798
 2557SOL    HW2 8571   1.994   3.705   6.798
 2558SOL     OW 8572   5.245   1.579   5.907
 2558SOL    HW1 8573   5.206   1.550   5.820
 2558SOL    HW2 8574   5.184   1.551   5.981
 2559SOL     OW 8575   0.770   4.362   5.789
 2559SOL    HW1 8576   0.696   4.349   5.854
 2559SOL    HW2 8577   0.732   4.391   5.701
 2560SOL     OW 8578   6.320   2.119   6.166
 2560SOL    HW1 8579   6.294   2.201   6.114
 2560SOL    HW2 8580   6.247   2.095   6.229
 2561SOL     OW 8581   3.395   4.912   4.797
 2561SOL    HW1 8582   3.392   5.010   4.776
 2561SOL    HW2 8583   3.336   4.894   4.876
 2562SOL     OW 8584   2.482   4.423   0.589
 2562SOL    HW1 8585   2.566   4.460   0.548
 2562SOL    HW2 8586   2.403   4.472   0.553
 2563SOL     OW 8587   3.007   0.956   6.903
 2563SOL    HW1 8588   3.043   0.872   6.862
 2563SOL    HW2 8589   2.937   0.932   6.971
 2564SOL     OW 8590   1.576   5.674   0.689
 2564SOL    HW1 8591   1.627   5.651   0.772
 2564SOL    HW2 8592   1.641   5.700   0.617
 2565SOL     OW 8593   1.405   1.100   1.082
 2565SOL    HW1 8594   1.382   1.081   0.986
 2565SOL    HW2 8595   1.323   1.134   1.129
 2566SOL     OW 8596   2.409   6.511   0.633
 2566SOL    HW1 8597   2.471   6.439   0.665
 2566SOL    HW2 8598   2.459   6.598   0.629
 2567SOL     OW 8599   1.622   0.309   0.542
 2567SOL    HW1 8600   1.713   0.349   0.555
 2567SOL    HW2 8601   1.625   0.212   0.565
 2568SOL     OW 8602   4.191   1.879   6.876
 2568SOL    HW1 8603   4.091   1.887   6.871
 2568SOL    HW2 8604   4.233   1.934   6.804
 2569SOL     OW 8605   3.818   0.897   3.867
 2569SOL    HW1 8606   3.888   0.825   3.864
 2569SOL    HW2 8607   3.736   0.862   3.911
 2570SOL     OW 8608   5.555   1.114   5.594
 2570SOL    HW1 8609   5.641   1.067   5.576
 2570SOL    HW2 8610   5.537   1.114   5.693
 2571SOL     OW 8611   1.426   5.179   4.089
 2571SOL    HW1 8612   1.334   5.213   4.108
 2571SOL    HW2 8613   1.422   5.080   4.071
 2572SOL     OW 8614   2.741   5.130   3.173
 2572SOL    HW1 8615   2.802   5.191   3.224
 2572SOL    HW2 8616   2.796   5.059   3.129
 2573SOL     OW 8617   0.512   1.442   1.212
 2573SOL    HW1 8618   0.585   1.397   1.160
 2573SOL    HW2 8619   0.428   1.387   1.205
 2574SOL     OW 8620   6.096   3.059   0.699
 2574SOL    HW1 8621   6.092   2.959   0.701
 2574SOL    HW2 8622   6.163   3.088   0.631
 2575SOL     OW 8623   6.408   5.858   6.721
 2575SOL    HW1 8624   6.445   5.864   6.813
 2575SOL    HW2 8625   6.387   5.951   6.688
 2576SOL     OW 8626   4.484   6.451   3.955
 2576SOL    HW1 8627   4.582   6.455   3.975
 2576SOL    HW2 8628   4.448   6.543   3.948
 2577SOL     OW 8629   3.116   4.815   2.222
 2577SOL    HW1 8630   3.125   4.915   2.224
 2577SOL    HW2 8631   3.120   4.780   2.315
 2578SOL     OW 8632   3.806   1.747   4.352
 2578SOL    HW1 8633   3.757   1.705   4.428
 2578SOL    HW2 8634   3.898   1.774   4.383
 2579SOL     OW 8635   0.795   6.607   3.516
 2579SOL    HW1 8636   0.820   6.589   3.421
 2579SOL    HW2 8637   0.876   6.635   3.568
 2580SOL     OW 8638   2.938   3.984   0.139
 2580SOL    HW1 8639   2.872   3.916   0.169
 2580SOL    HW2 8640   2.996   4.011   0.217
 2581SOL     OW 8641   2.699   6.510   5.867
 2581SOL    HW1 8642   2.728   6.463   5.951
 2581SOL    HW2 8643   2.610   6.553   5.882
 2582SOL     OW 8644   6.476   3.368   1.497
 2582SOL    HW1 8645   6.495   3.409   1.586
 2582SOL    HW2 8646   6.401   3.419   1.453
 2583SOL     OW 8647   6.536   6.540   0.913
 2583SOL    HW1 8648   6.609   6.586   0.861
 2583SOL    HW2 8649   6.574   6.499   0.996
 2584SOL     OW 8650   4.463   4.828   5.621
 2584SOL    HW1 8651   4.421   4.902   5.568
 2584SOL    HW2 8652   4.438   4.740   5.580
 2585SOL     OW 8653   3.261   5.508   6.738
 2585SOL    HW1 8654   3.331   5.438   6.723
 2585SOL    HW2 8655   3.236   5.511   6.835
 2586SOL     OW 8656   2.420   0.427   5.336
 2586SOL    HW1 8657   2.326   0.444   5.364
 2586SOL    HW2 8658   2.470   0.514   5.333
 2587SOL     OW 8659   0.217   1.087   2.545
 2587SOL    HW1 8660   0.292   1.021   2.535
 2587SOL    HW2 8661   0.253   1.180   2.533
 2588SOL     OW 8662   4.342   2.036   5.253
 2588SOL    HW1 8663   4.350   2.057   5.155
 2588SOL    HW2 8664   4.247   2.050   5.282
 2589SOL     OW 8665   1.369   6.471   0.157
 2589SOL    HW1 8666   1.364   6.506   0.064
 2589SOL    HW2 8667   1.414   6.382   0.157
 2590SOL     OW 8668   2.703   4.668   0.118
 2590SOL    HW1 8669   2.664   4.758   0.136
 2590SOL    HW2 8670   2.780   4.677   0.054
 2591SOL     OW 8671   6.391   5.501   4.102
 2591SOL    HW1 8672   6.333   5.578   4.076
 2591SOL    HW2 8673   6.400   5.498   4.201
 2592SOL     OW 8674   2.550   4.311   6.344
 2592SOL    HW1 8675   2.629   4.250   6.340
 2592SOL    HW2 8676   2.468   4.258   6.367
 2593SOL     OW 8677   2.674   5.587   0.863
 2593SOL    HW1 8678   2.585   5.542   0.854
 2593SOL    HW2 8679   2.732   5.533   0.924
 2594SOL     OW 8680   1.938   4.207   5.278
 2594SOL    HW1 8681   1.924   4.263   5.196
 2594SOL    HW2 8682   2.007   4.137   5.259
 2595SOL     OW 8683   1.547   1.201   4.341
 2595SOL    HW1 8684   1.561   1.146   4.259
 2595SOL    HW2 8685   1.529   1.296   4.314
 2596SOL     OW 8686   1.685   2.710   1.077
 2596SOL    HW1 8687   1.720   2.736   0.987
 2596SOL    HW2 8688   1.608   2.647   1.066
 2597SOL     OW 8689   0.915   6.150   6.258
 2597SOL    HW1 8690   1.005   6.128   6.219
 2597SOL    HW2 8691   0.858   6.067   6.259
 2598SOL     OW 8692   5.912   1.996   2.037
 2598SOL    HW1 8693   6.006   1.966   2.027
 2598SOL    HW2 8694   5.878   2.028   1.948
 2599SOL     OW 8695   3.027   6.881   2.083
 2599SOL    HW1 8696   3.035   6.798   2.028
 2599SOL    HW2 8697   2.961   6.866   2.156
 2600SOL     OW 8698   6.462   4.359   4.296
 2600SOL    HW1 8699   6.493   4.302   4.219
 2600SOL    HW2 8700   6.499   4.322   4.381
 2601SOL     OW 8701   1.099   2.095   2.535
 2601SOL    HW1 8702   1.096   2.188   2.573
 2601SOL    HW2 8703   1.007   2.056   2.534
 2602SOL     OW 8704   2.128   4.898   4.719
 2602SOL    HW1 8705   2.177   4.813   4.734
 2602SOL    HW2 8706   2.174   4.951   4.648
 2603SOL     OW 8707   2.655   1.089   2.615
 2603SOL    HW1 8708   2.631   1.186   2.612
 2603SOL    HW2 8709   2.641   1.048   2.525
 2604SOL     OW 8710   5.525   1.845   2.289
 2604SOL    HW1 8711   5.577   1.930   2.291
 2604SOL    HW2 8712   5.496   1.827   2.195
 2605SOL     OW 8713   1.080   3.637   1.990
 2605SOL    HW1 8714   1.158   3.696   1.966
 2605SOL    HW2 8715   1.096   3.546   1.953
 2606SOL     OW 8716   4.361   4.024   1.077
 2606SOL    HW1 8717   4.343   4.115   1.040
 2606SOL    HW2 8718   4.459   4.013   1.091
 2607SOL     OW 8719   1.739   2.097   0.940
 2607SOL    HW1 8720   1.827   2.062   0.970
 2607SOL    HW2 8721   1.751   2.152   0.857
 2608SOL     OW 8722   2.859   6.036   6.593
 2608SOL    HW1 8723   2.799   5.986   6.531
 2608SOL    HW2 8724   2.813   6.118   6.626
 2609SOL     OW 8725   0.674   0.559   0.967
 2609SOL    HW1 8726   0.611   0.613   0.910
 2609SOL    HW2 8727   0.724   0.494   0.910
 2610SOL     OW 8728   1.066   4.963   4.447
 2610SOL    HW1 8729   1.046   5.048   4.496
 2610SOL    HW2 8730   1.036   4.885   4.502
 2611SOL     OW 8731   5.309   6.519   6.776
 2611SOL    HW1 8732   5.350   6.429   6.792
 2611SOL    HW2 8733   5.217   6.521   6.814
 2612SOL     OW 8734   5.684   0.423   5.036
 2612SOL    HW1 8735   5.764   0.460   5.083
 2612SOL    HW2 8736   5.660   0.482   4.959
 2613SOL     OW 8737   0.961   5.915   6.499
 2613SOL    HW1 8738   0.888   5.847   6.491
 2613SOL    HW2 8739   0.921   6.005   6.518
 2614SOL     OW 8740   6.709   0.593   6.560
 2614SOL    HW1 8741   6.719   0.514   6.500
 2614SOL    HW2 8742   6.794   0.609   6.609
 2615SOL     OW 8743   1.418   3.588   0.728
 2615SOL    HW1 8744   1.460   3.659   0.784
 2615SOL    HW2 8745   1.320   3.581   0.750
 2616SOL     OW 8746   1.654   0.422   5.449
 2616SOL    HW1 8747   1.671   0.519   5.465
 2616SOL    HW2 8748   1.565   0.411   5.404
 2617SOL     OW 8749   5.409   0.495   0.709
 2617SOL    HW1 8750   5.310   0.486   0.696
 2617SOL    HW2 8751   5.432   0.591   0.722
 2618SOL     OW 8752   2.056   6.148   5.949
 2618SOL    HW1 8753   2.035   6.199   6.033
 2618SOL    HW2 8754   2.130   6.194   5.900
 2619SOL     OW 8755   4.299   1.781   1.819
 2619SOL    HW1 8756   4.339   1.782   1.727
 2619SOL    HW2 8757   4.358   1.730   1.881
 2620SOL     OW 8758   0.188   6.423   1.897
 2620SOL    HW1 8759   0.150   6.352   1.838
 2620SOL    HW2 8760   0.240   6.488   1.843
 2621SOL     OW 8761   1.334   6.297   2.929
 2621SOL    HW1 8762   1.343   6.219   2.991
 2621SOL    HW2 8763   1.333   6.381   2.982
 2622SOL     OW 8764   3.252   3.629   6.688
 2622SOL    HW1 8765   3.237   3.700   6.621
 2622SOL    HW2 8766   3.219   3.659   6.777
 2623SOL     OW 8767   0.994   0.076   4.362
 2623SOL    HW1 8768   1.055   7.019   4.363
 2623SOL    HW2 8769   0.905   0.049   4.324
 2624SOL     OW 8770   0.334   2.671   4.225
 2624SOL    HW1 8771   0.424   2.714   4.232
 2624SOL    HW2 8772   0.263   2.740   4.235
 2625SOL     OW 8773   2.046   5.502   5.512
 2625SOL    HW1 8774   2.052   5.421   5.570
 2625SOL    HW2 8775   2.132   5.514   5.463
 2626SOL     OW 8776   6.514   5.416   6.064
 2626SOL    HW1 8777   6.485   5.374   6.150
 2626SOL    HW2 8778   6.436   5.461   6.021
 2627SOL     OW 8779   1.463   6.891   5.803
 2627SOL    HW1 8780   1.550   6.873   5.849
 2627SOL    HW2 8781   1.454   6.989   5.786
 2628SOL     OW 8782   1.481   4.081   1.988
 2628SOL    HW1 8783   1.405   4.016   1.993
 2628SOL    HW2 8784   1.513   4.103   2.080
 2629SOL     OW 8785   3.621   4.079   3.504
 2629SOL    HW1 8786   3.606   4.074   3.405
 2629SOL    HW2 8787   3.537   4.107   3.549
 2630SOL     OW 8788   3.438   1.056   4.181
 2630SOL    HW1 8789   3.443   1.060   4.082
 2630SOL    HW2 8790   3.513   1.109   4.221
 2631SOL     OW 8791   6.153   0.852   0.349
 2631SOL    HW1 8792   6.182   0.767   0.393
 2631SOL    HW2 8793   6.061   0.876   0.382
 2632SOL     OW 8794   5.542   4.675   2.076
 2632SOL    HW1 8795   5.613   4.718   2.020
 2632SOL    HW2 8796   5.452   4.699   2.040
 2633SOL     OW 8797   0.018   3.112   5.998
 2633SOL    HW1 8798   6.991   3.136   6.082
 2633SOL    HW2 8799   0.021   3.192   5.937
 2634SOL     OW 8800   6.498   0.520   5.543
 2634SOL    HW1 8801   6.399   0.507   5.539
 2634SOL    HW2 8802   6.522   0.606   5.498
 2635SOL     OW 8803   5.873   5.348   3.766
 2635SOL    HW1 8804   5.840   5.329   3.674
 2635SOL    HW2 8805   5.826   5.429   3.802
 2636SOL     OW 8806   4.377   6.763   6.411
 2636SOL    HW1 8807   4.285   6.743   6.443
 2636SOL    HW2 8808   4.375   6.842   6.350
 2637SOL     OW 8809   1.952   1.643   3.228
 2637SOL    HW1 8810   1.937   1.728   3.179
 2637SOL    HW2 8811   1.916   1.566   3.175
 2638SOL     OW 8812   1.362   6.826   4.453
 2638SOL    HW1 8813   1.391   6.917   4.484
 2638SOL    HW2 8814   1.281   6.797   4.504
 2639SOL     OW 8815   4.177   4.841   5.008
 2639SOL    HW1 8816   4.182   4.899   4.926
 2639SOL    HW2 8817   4.221   4.753   4.989
 2640SOL     OW 8818   1.350   6.558   4.766
 2640SOL    HW1 8819   1.439   6.601   4.752
 2640SOL    HW2 8820   1.350   6.468   4.724
 2641SOL     OW 8821   5.328   2.125   6.489
 2641SOL    HW1 8822   5.268   2.199   6.459
 2641SOL    HW2 8823   5.275   2.059   6.542
 2642SOL     OW 8824   0.111   1.297   3.843
 2642SOL    HW1 8825   0.152   1.282   3.933
 2642SOL    HW2 8826   0.014   1.272   3.846
 2643SOL     OW 8827   1.390   4.139   3.703
 2643SOL    HW1 8828   1.379   4.075   3.627
 2643SOL    HW2 8829   1.455   4.210   3.676
 2644SOL     OW 8830   5.213   5.237   4.692
 2644SOL    HW1 8831   5.223   5.320   4.638
 2644SOL    HW2 8832   5.156   5.256   4.772
 2645SOL     OW 8833   5.253   4.898   2.935
 2645SOL    HW1 8834   5.211   4.845   2.861
 2645SOL    HW2 8835   5.291   4.835   3.003
 2646SOL     OW 8836   0.046   3.368   5.833
 2646SOL    HW1 8837   0.051   3.330   5.740
 2646SOL    HW2 8838   0.102   3.451   5.838
 2647SOL     OW 8839   4.874   6.995   2.170
 2647SOL    HW1 8840   4.777   6.977   2.159
 2647SOL    HW2 8841   4.913   0.004   2.083
 2648SOL     OW 8842   0.376   0.142   5.414
 2648SOL    HW1 8843   0.444   0.202   5.457
 2648SOL    HW2 8844   0.285   0.164   5.448
 2649SOL     OW 8845   5.026   2.200   1.923
 2649SOL    HW1 8846   5.083   2.121   1.902
 2649SOL    HW2 8847   4.931   2.171   1.931
 2650SOL     OW 8848   3.816   6.378   4.713
 2650SOL    HW1 8849   3.721   6.384   4.682
 2650SOL    HW2 8850   3.844   6.466   4.752
 2651SOL     OW 8851   3.975   2.137   5.023
 2651SOL    HW1 8852   4.025   2.185   5.095
 2651SOL    HW2 8853   4.029   2.058   4.992
 2652SOL     OW 8854   4.996   4.466   5.847
 2652SOL    HW1 8855   4.914   4.518   5.823
 2652SOL    HW2 8856   5.076   4.524   5.839
 2653SOL     OW 8857   3.192   6.693   0.070
 2653SOL    HW1 8858   3.270   6.703   0.132
 2653SOL    HW2 8859   3.224   6.659   7.004
 2654SOL     OW 8860   5.854   0.623   0.777
 2654SOL    HW1 8861   5.797   0.649   0.700
 2654SOL    HW2 8862   5.797   0.611   0.859
 2655SOL     OW 8863   4.966   5.419   2.716
 2655SOL    HW1 8864   4.879   5.417   2.666
 2655SOL    HW2 8865   5.023   5.494   2.681
 2656SOL     OW 8866   3.858   5.815   3.621
 2656SOL    HW1 8867   3.886   5.890   3.562
 2656SOL    HW2 8868   3.933   5.790   3.682
 2657SOL     OW 8869   1.619   3.495   6.989
 2657SOL    HW1 8870   1.580   3.403   6.988
 2657SOL    HW2 8871   1.719   3.489   6.989
 2658SOL     OW 8872   3.770   5.344   6.586
 2658SOL    HW1 8873   3.670   5.339   6.591
 2658SOL    HW2 8874   3.805   5.270   6.529
 2659SOL     OW 8875   6.875   2.561   4.408
 2659SOL    HW1 8876   6.931   2.635   4.444
 2659SOL    HW2 8877   6.920   2.522   4.328
 2660SOL     OW 8878   0.640   2.191   1.958
 2660SOL    HW1 8879   0.561   2.193   2.020
 2660SOL    HW2 8880   0.706   2.260   1.986
 2661SOL     OW 8881   2.091   1.331   0.826
 2661SOL    HW1 8882   2.014   1.266   0.825
 2661SOL    HW2 8883   2.055   1.424   0.835
 2662SOL     OW 8884   2.966   0.574   2.158
 2662SOL    HW1 8885   2.982   0.477   2.140
 2662SOL    HW2 8886   2.915   0.584   2.244
 2663SOL     OW 8887   4.229   6.636   0.067
 2663SOL    HW1 8888   4.230   6.599   0.160
 2663SOL    HW2 8889   4.316   6.681   0.048
 2664SOL     OW 8890   4.291   2.671   6.072
 2664SOL    HW1 8891   4.232   2.596   6.045
 2664SOL    HW2 8892   4.370   2.675   6.011
 2665SOL     OW 8893   1.957   3.808   5.325
 2665SOL    HW1 8894   2.000   3.823   5.414
 2665SOL    HW2 8895   2.021   3.759   5.265
 2666SOL     OW 8896   2.075   4.005   2.030
 2666SOL    HW1 8897   2.140   4.081   2.027
 2666SOL    HW2 8898   2.117   3.926   2.075
 2667SOL     OW 8899   6.418   3.468   4.563
 2667SOL    HW1 8900   6.492   3.504   4.506
 2667SOL    HW2 8901   6.333   3.466   4.511
 2668SOL     OW 8902   6.403   1.113   4.056
 2668SOL    HW1 8903   6.368   1.052   3.986
 2668SOL    HW2 8904   6.370   1.206   4.038
 2669SOL     OW 8905   2.718   0.938   0.339
 2669SOL    HW1 8906   2.741   0.973   0.431
 2669SOL    HW2 8907   2.646   0.869   0.347
 2670SOL     OW 8908   0.311   0.181   6.538
 2670SOL    HW1 8909   0.312   0.214   6.444
 2670SOL    HW2 8910   0.394   0.212   6.585
 2671SOL     OW 8911   3.864   4.838   6.031
 2671SOL    HW1 8912   3.840   4.746   6.061
 2671SOL    HW2 8913   3.938   4.874   6.087
 2672SOL     OW 8914   3.677   0.641   2.136
 2672SOL    HW1 8915   3.642   0.570   2.076
 2672SOL    HW2 8916   3.614   0.719   2.136
 2673SOL     OW 8917   4.542   0.351   2.466
 2673SOL    HW1 8918   4.566   0.324   2.560
 2673SOL    HW2 8919   4.532   0.450   2.462
 2674SOL     OW 8920   0.615   4.714   2.192
 2674SOL    HW1 8921   0.561   4.661   2.257
 2674SOL    HW2 8922   0.685   4.766   2.241
 2675SOL     OW 8923   5.613   0.579   4.813
 2675SOL    HW1 8924   5.605   0.678   4.827
 2675SOL    HW2 8925   5.673   0.561   4.734
 2676SOL     OW 8926   3.712   4.016   3.021
 2676SOL    HW1 8927   3.812   4.010   3.012
 2676SOL    HW2 8928   3.673   3.924   3.024
 2677SOL     OW 8929   2.168   5.316   1.492
 2677SOL    HW1 8930   2.111   5.398   1.483
 2677SOL    HW2 8931   2.118   5.245   1.541
 2678SOL     OW 8932   5.496   2.270   2.805
 2678SOL    HW1 8933   5.521   2.363   2.831
 2678SOL    HW2 8934   5.457   2.269   2.713
 2679SOL     OW 8935   2.065   4.426   3.671
 2679SOL    HW1 8936   2.098   4.520   3.679
 2679SOL    HW2 8937   1.991   4.422   3.603
 2680SOL     OW 8938   0.118   2.056   0.376
 2680SOL    HW1 8939   0.154   1.973   0.417
 2680SOL    HW2 8940   0.170   2.078   0.294
 2681SOL     OW 8941   1.928   2.496   5.326
 2681SOL    HW1 8942   1.842   2.546   5.310
 2681SOL    HW2 8943   2.002   2.562   5.342
 2682SOL     OW 8944   4.190   4.098   1.550
 2682SOL    HW1 8945   4.185   4.090   1.451
 2682SOL    HW2 8946   4.103   4.133   1.585
 2683SOL     OW 8947   2.630   4.710   2.644
 2683SOL    HW1 8948   2.711   4.755   2.607
 2683SOL    HW2 8949   2.551   4.731   2.588
 2684SOL     OW 8950   5.818   6.580   2.936
 2684SOL    HW1 8951   5.879   6.531   2.873
 2684SOL    HW2 8952   5.731   6.598   2.890
 2685SOL     OW 8953   1.112   6.166   5.569
 2685SOL    HW1 8954   1.201   6.121   5.569
 2685SOL    HW2 8955   1.051   6.118   5.632
 2686SOL     OW 8956   0.942   1.238   4.697
 2686SOL    HW1 8957   0.988   1.204   4.615
 2686SOL    HW2 8958   0.860   1.183   4.715
 2687SOL     OW 8959   3.854   1.391   1.614
 2687SOL    HW1 8960   3.817   1.411   1.524
 2687SOL    HW2 8961   3.844   1.472   1.673
 2688SOL     OW 8962   3.508   3.213   6.021
 2688SOL    HW1 8963   3.445   3.282   6.056
 2688SOL    HW2 8964   3.497   3.205   5.922
 2689SOL     OW 8965   1.215   3.608   2.651
 2689SOL    HW1 8966   1.126   3.586   2.612
 2689SOL    HW2 8967   1.265   3.668   2.589
 2690SOL     OW 8968   3.645   1.572   5.898
 2690SOL    HW1 8969   3.670   1.495   5.839
 2690SOL    HW2 8970   3.590   1.539   5.974
 2691SOL     OW 8971   6.811   4.227   4.061
 2691SOL    HW1 8972   6.733   4.244   4.001
 2691SOL    HW2 8973   6.841   4.313   4.102
 2692SOL     OW 8974   3.102   5.910   2.959
 2692SOL    HW1 8975   3.181   5.850   2.974
 2692SOL    HW2 8976   3.127   5.982   2.895
 2693SOL     OW 8977   1.792   5.607   3.452
 2693SOL    HW1 8978   1.888   5.632   3.434
 2693SOL    HW2 8979   1.781   5.508   3.442
 2694SOL     OW 8980   3.839   6.858   3.810
 2694SOL    HW1 8981   3.911   6.790   3.823
 2694SOL    HW2 8982   3.760   6.834   3.866
 2695SOL     OW 8983   7.014   5.220   3.670
 2695SOL    HW1 8984   0.070   5.221   3.607
 2695SOL    HW2 8985   6.979   5.127   3.679
 2696SOL     OW 8986   4.846   4.427   6.831
 2696SOL    HW1 8987   4.943   4.445   6.814
 2696SOL    HW2 8988   4.823   4.335   6.799
 2697SOL     OW 8989   3.617   2.105   0.333
 2697SOL    HW1 8990   3.670   2.020   0.335
 2697SOL    HW2 8991   3.599   2.134   0.427
 2698SOL     OW 8992   1.847   4.030   6.103
 2698SOL    HW1 8993   1.917   4.023   6.032
 2698SOL    HW2 8994   1.756   4.027   6.060
 2699SOL     OW 8995   3.249   6.377   2.098
 2699SOL    HW1 8996   3.319   6.316   2.062
 2699SOL    HW2 8997   3.214   6.435   2.025
 2700SOL     OW 8998   3.461   2.022   2.086
 2700SOL    HW1 8999   3.414   2.052   2.168
 2700SOL    HW2 9000   3.532   2.089   2.062
 2701SOL     OW 9001   5.267   3.191   4.802
 2701SOL    HW1 9002   5.353   3.240   4.821
 2701SOL    HW2 9003   5.264   3.165   4.706
 2702SOL     OW 9004   2.275   1.392   4.890
 2702SOL    HW1 9005   2.349   1.391   4.822
 2702SOL    HW2 9006   2.310   1.430   4.976
 2703SOL     OW 9007   1.009   0.023   2.082
 2703SOL    HW1 9008   1.056   0.073   2.156
 2703SOL    HW2 9009   0.981   0.088   2.011
 2704SOL     OW 9010   5.628   0.181   4.627
 2704SOL    HW1 9011   5.647   0.169   4.529
 2704SOL    HW2 9012   5.710   0.159   4.680
 2705SOL     OW 9013   6.591   6.970   5.167
 2705SOL    HW1 9014   6.575   0.008   5.245
 2705SOL    HW2 9015   6.662   7.009   5.108
 2706SOL     OW 9016   6.792   3.345   3.169
 2706SOL    HW1 9017   6.844   3.429   3.153
 2706SOL    HW2 9018   6.853   3.275   3.206
 2707SOL     OW 9019   3.911   0.484   3.382
 2707SOL    HW1 9020   3.887   0.570   3.337
 2707SOL    HW2 9021   3.856   0.410   3.345
 2708SOL     OW 9022   5.917   3.160   0.508
 2708SOL    HW1 9023   5.968   3.186   0.427
 2708SOL    HW2 9024   5.978   3.156   0.587
 2709SOL     OW 9025   4.540   1.230   4.285
 2709SOL    HW1 9026   4.461   1.193   4.237
 2709SOL    HW2 9027   4.567   1.317   4.242
 2710SOL     OW 9028   1.185   2.481   4.016
 2710SOL    HW1 9029   1.266   2.464   4.073
 2710SOL    HW2 9030   1.203   2.451   3.923
 2711SOL     OW 9031   3.303   2.113   2.287
 2711SOL    HW1 9032   3.246   2.045   2.333
 2711SOL    HW2 9033   3.269   2.205   2.309
 2712SOL     OW 9034   4.120   5.735   1.864
 2712SOL    HW1 9035   4.109   5.636   1.874
 2712SOL    HW2 9036   4.103   5.761   1.768
 2713SOL     OW 9037   3.422   4.717   6.471
 2713SOL    HW1 9038   3.491   4.682   6.534
 2713SOL    HW2 9039   3.449   4.696   6.377
 2714SOL     OW 9040   2.412   4.657   6.751
 2714SOL    HW1 9041   2.422   4.641   6.849
 2714SOL    HW2 9042   2.502   4.660   6.708
 2715SOL     OW 9043   4.504   1.054   0.994
 2715SOL    HW1 9044   4.533   1.149   0.990
 2715SOL    HW2 9045   4.453   1.030   0.912
 2716SOL     OW 9046   3.998   2.002   3.029
 2716SOL    HW1 9047   4.035   1.915   2.996
 2716SOL    HW2 9048   4.021   2.074   2.963
 2717SOL     OW 9049   0.819   0.864   2.805
 2717SOL    HW1 9050   0.767   0.922   2.743
 2717SOL    HW2 9051   0.787   0.878   2.899
 2718SOL     OW 9052   0.321   0.131   5.934
 2718SOL    HW1 9053   0.365   0.108   5.847
 2718SOL    HW2 9054   0.353   0.069   6.005
 2719SOL     OW 9055   2.057   3.603   2.469
 2719SOL    HW1 9056   2.063   3.533   2.398
 2719SOL    HW2 9057   2.136   3.664   2.463
 2720SOL     OW 9058   2.113   6.836   5.591
 2720SOL    HW1 9059   2.055   6.768   5.636
 2720SOL    HW2 9060   2.189   6.860   5.651
 2721SOL     OW 9061   3.375   5.914   1.454
 2721SOL    HW1 9062   3.425   5.887   1.536
 2721SOL    HW2 9063   3.291   5.861   1.448
 2722SOL     OW 9064   5.091   5.622   6.825
 2722SOL    HW1 9065   5.013   5.590   6.772
 2722SOL    HW2 9066   5.162   5.658   6.764
 2723SOL     OW 9067   3.089   6.886   0.573
 2723SOL    HW1 9068   3.008   6.867   0.517
 2723SOL    HW2 9069   3.089   6.826   0.653
 2724SOL     OW 9070   1.194   5.907   1.021
 2724SOL    HW1 9071   1.229   5.943   0.935
 2724SOL    HW2 9072   1.106   5.950   1.042
 2725SOL     OW 9073   5.545   3.807   5.309
 2725SOL    HW1 9074   5.589   3.870   5.372
 2725SOL    HW2 9075   5.484   3.858   5.248
 2726SOL     OW 9076   0.044   1.299   1.791
 2726SOL    HW1 9077   0.037   1.244   1.707
 2726SOL    HW2 9078   0.140   1.324   1.805
 2727SOL     OW 9079   1.888   4.073   4.592
 2727SOL    HW1 9080   1.928   3.984   4.570
 2727SOL    HW2 9081   1.903   4.136   4.516
 2728SOL     OW 9082   5.836   6.065   5.990
 2728SOL    HW1 9083   5.844   6.137   6.058
 2728SOL    HW2 9084   5.852   5.976   6.032
 2729SOL     OW 9085   5.484   5.827   6.048
 2729SOL    HW1 9086   5.387   5.814   6.029
 2729SOL    HW2 9087   5.496   5.851   6.145
 2730SOL     OW 9088   1.226   5.660   2.161
 2730SOL    HW1 9089   1.266   5.605   2.235
 2730SOL    HW2 9090   1.129   5.673   2.178
 2731SOL     OW 9091   3.310   3.429   4.236
 2731SOL    HW1 9092   3.221   3.408   4.277
 2731SOL    HW2 9093   3.380   3.369   4.275
 2732SOL     OW 9094   5.638   1.395   2.003
 2732SOL    HW1 9095   5.648   1.471   2.068
 2732SOL    HW2 9096   5.707   1.403   1.932
 2733SOL     OW 9097   1.051   0.191   5.947
 2733SOL    HW1 9098   1.142   0.183   5.987
 2733SOL    HW2 9099   0.983   0.197   6.020
 2734SOL     OW 9100   2.955   6.094   1.554
 2734SOL    HW1 9101   3.044   6.083   1.599
 2734SOL    HW2 9102   2.907   6.006   1.554
 2735SOL     OW 9103   0.576   1.065   1.706
 2735SOL    HW1 9104   0.648   1.126   1.672
 2735SOL    HW2 9105   0.487   1.102   1.682
 2736SOL     OW 9106   5.092   4.970   3.563
 2736SOL    HW1 9107   5.172   5.031   3.561
 2736SOL    HW2 9108   5.028   4.997   3.492
 2737SOL     OW 9109   2.500   2.420   6.821
 2737SOL    HW1 9110   2.414   2.405   6.772
 2737SOL    HW2 9111   2.532   2.513   6.805
 2738SOL     OW 9112   5.784   6.898   1.685
 2738SOL    HW1 9113   5.738   6.909   1.773
 2738SOL    HW2 9114   5.838   6.980   1.665
 2739SOL     OW 9115   1.013   5.496   2.017
 2739SOL    HW1 9116   0.958   5.413   2.025
 2739SOL    HW2 9117   1.105   5.479   2.054
 2740SOL     OW 9118   6.531   6.219   3.511
 2740SOL    HW1 9119   6.627   6.205   3.537
 2740SOL    HW2 9120   6.526   6.282   3.434
 2741SOL     OW 9121   1.196   1.257   4.943
 2741SOL    HW1 9122   1.206   1.181   4.879
 2741SOL    HW2 9123   1.184   1.342   4.892
 2742SOL     OW 9124   3.321   5.106   1.730
 2742SOL    HW1 9125   3.413   5.145   1.734
 2742SOL    HW2 9126   3.323   5.011   1.762
 2743SOL     OW 9127   5.728   4.042   2.958
 2743SOL    HW1 9128   5.753   4.136   2.982
 2743SOL    HW2 9129   5.712   4.035   2.860
 2744SOL     OW 9130   3.548   4.101   3.234
 2744SOL    HW1 9131   3.461   4.123   3.191
 2744SOL    HW2 9132   3.620   4.097   3.165
 2745SOL     OW 9133   0.001   0.514   6.124
 2745SOL    HW1 9134   0.071   0.542   6.190
 2745SOL    HW2 9135   6.973   0.436   6.160
 2746SOL     OW 9136   1.812   0.912   4.027
 2746SOL    HW1 9137   1.847   0.890   3.936
 2746SOL    HW2 9138   1.792   1.010   4.033
 2747SOL     OW 9139   3.840   5.702   0.612
 2747SOL    HW1 9140   3.812   5.761   0.537
 2747SOL    HW2 9141   3.897   5.753   0.676
 2748SOL     OW 9142   4.592   6.638   1.713
 2748SOL    HW1 9143   4.573   6.723   1.664
 2748SOL    HW2 9144   4.672   6.650   1.771
 2749SOL     OW 9145   1.968   3.137   7.015
 2749SOL    HW1 9146   2.032   3.068   0.025
 2749SOL    HW2 9147   1.935   3.112   6.924
 2750SOL     OW 9148   2.160   5.617   2.441
 2750SOL    HW1 9149   2.139   5.521   2.422
 2750SOL    HW2 9150   2.114   5.645   2.526
 2751SOL     OW 9151   0.088   3.432   0.835
 2751SOL    HW1 9152   0.010   3.478   0.794
 2751SOL    HW2 9153   0.173   3.472   0.800
 2752SOL     OW 9154   3.527   5.018   6.568
 2752SOL    HW1 9155   3.569   4.958   6.500
 2752SOL    HW2 9156   3.512   4.967   6.653
 2753SOL     OW 9157   6.268   5.966   5.200
 2753SOL    HW1 9158   6.348   6.011   5.242
 2753SOL    HW2 9159   6.192   5.967   5.265
 2754SOL     OW 9160   1.322   0.149   6.059
 2754SOL    HW1 9161   1.326   0.182   6.153
 2754SOL    HW2 9162   1.323   0.049   6.059
 2755SOL     OW 9163   2.842   0.037   2.462
 2755SOL    HW1 9164   2.797   0.080   2.384
 2755SOL    HW2 9165   2.861   0.105   2.532
 2756SOL     OW 9166   5.179   6.077   0.158
 2756SOL    HW1 9167   5.146   6.058   0.066
 2756SOL    HW2 9168   5.258   6.138   0.154
 2757SOL     OW 9169   0.746   5.026   1.464
 2757SOL    HW1 9170   0.809   5.103   1.475
 2757SOL    HW2 9171   0.667   5.038   1.525
 2758SOL     OW 9172   5.098   0.599   5.484
 2758SOL    HW1 9173   5.197   0.615   5.478
 2758SOL    HW2 9174   5.064   0.633   5.572
 2759SOL     OW 9175   5.791   6.339   4.411
 2759SOL    HW1 9176   5.754   6.271   4.474
 2759SOL    HW2 9177   5.839   6.293   4.337
 2760SOL     OW 9178   2.401   5.211   2.379
 2760SOL    HW1 9179   2.488   5.182   2.418
 2760SOL    HW2 9180   2.405   5.308   2.355
 2761SOL     OW 9181   2.149   5.867   2.899
 2761SOL    HW1 9182   2.246   5.874   2.923
 2761SOL    HW2 9183   2.094   5.859   2.983
 2762SOL     OW 9184   0.951   6.977   5.462
 2762SOL    HW1 9185   0.894   6.978   5.545
 2762SOL    HW2 9186   1.045   6.998   5.487
 2763SOL     OW 9187   5.339   1.943   3.607
 2763SOL    HW1 9188   5.437   1.952   3.624
 2763SOL    HW2 9189   5.317   1.847   3.589
 2764SOL     OW 9190   6.374   1.176   2.354
 2764SOL    HW1 9191   6.376   1.079   2.377
 2764SOL    HW2 9192   6.395   1.188   2.257
 2765SOL     OW 9193   6.022   1.383   2.046
 2765SOL    HW1 9194   6.112   1.391   2.089
 2765SOL    HW2 9195   5.954   1.432   2.101
 2766SOL     OW 9196   5.881   1.113   1.924
 2766SOL    HW1 9197   5.786   1.123   1.953
 2766SOL    HW2 9198   5.884   1.063   1.837
 2767SOL     OW 9199   5.870   4.279   6.607
 2767SOL    HW1 9200   5.864   4.212   6.533
 2767SOL    HW2 9201   5.801   4.349   6.594
 2768SOL     OW 9202   4.860   1.477   6.623
 2768SOL    HW1 9203   4.771   1.492   6.664
 2768SOL    HW2 9204   4.929   1.532   6.670
 2769SOL     OW 9205   6.951   4.575   1.750
 2769SOL    HW1 9206   7.019   4.649   1.750
 2769SOL    HW2 9207   6.997   4.487   1.739
 2770SOL     OW 9208   0.828   5.012   1.857
 2770SOL    HW1 9209   0.790   5.088   1.804
 2770SOL    HW2 9210   0.808   4.926   1.811
 2771SOL     OW 9211   5.453   1.429   0.988
 2771SOL    HW1 9212   5.538   1.380   0.969
 2771SOL    HW2 9213   5.375   1.366   0.980
 2772SOL     OW 9214   3.475   2.778   6.986
 2772SOL    HW1 9215   3.392   2.810   6.942
 2772SOL    HW2 9216   3.452   2.726   0.047
 2773SOL     OW 9217   3.698   4.356   6.782
 2773SOL    HW1 9218   3.768   4.375   6.852
 2773SOL    HW2 9219   3.687   4.257   6.773
 2774SOL     OW 9220   5.547   3.184   1.911
 2774SOL    HW1 9221   5.519   3.102   1.862
 2774SOL    HW2 9222   5.644   3.200   1.897
 2775SOL     OW 9223   0.312   5.703   1.823
 2775SOL    HW1 9224   0.341   5.614   1.786
 2775SOL    HW2 9225   0.277   5.759   1.748
 2776SOL     OW 9226   3.196   6.303   6.489
 2776SOL    HW1 9227   3.179   6.217   6.442
 2776SOL    HW2 9228   3.108   6.346   6.512
 2777SOL     OW 9229   3.246   1.561   2.535
 2777SOL    HW1 9230   3.310   1.494   2.498
 2777SOL    HW2 9231   3.159   1.555   2.486
 2778SOL     OW 9232   2.378   2.136   5.596
 2778SOL    HW1 9233   2.426   2.200   5.657
 2778SOL    HW2 9234   2.334   2.187   5.522
 2779SOL     OW 9235   5.283   0.395   6.409
 2779SOL    HW1 9236   5.254   0.434   6.497
 2779SOL    HW2 9237   5.279   0.465   6.338
 2780SOL     OW 9238   5.292   5.422   6.506
 2780SOL    HW1 9239   5.368   5.370   6.468
 2780SOL    HW2 9240   5.290   5.513   6.465
 2781SOL     OW 9241   5.788   4.777   0.986
 2781SOL    HW1 9242   5.720   4.747   0.920
 2781SOL    HW2 9243   5.855   4.703   1.001
 2782SOL     OW 9244   3.096   2.627   6.349
 2782SOL    HW1 9245   3.119   2.724   6.341
 2782SOL    HW2 9246   3.130   2.578   6.268
 2783SOL     OW 9247   6.699   4.726   5.162
 2783SOL    HW1 9248   6.728   4.820   5.142
 2783SOL    HW2 9249   6.771   4.663   5.134
 2784SOL     OW 9250   2.092   2.190   1.600
 2784SOL    HW1 9251   2.131   2.120   1.660
 2784SOL    HW2 9252   2.100   2.280   1.644
 2785SOL     OW 9253   6.659   0.466   0.705
 2785SOL    HW1 9254   6.704   0.383   0.738
 2785SOL    HW2 9255   6.564   0.446   0.680
 2786SOL     OW 9256   3.864   6.421   0.931
 2786SOL    HW1 9257   3.881   6.398   1.027
 2786SOL    HW2 9258   3.951   6.424   0.882
 2787SOL     OW 9259   2.280   2.853   5.735
 2787SOL    HW1 9260   2.349   2.922   5.717
 2787SOL    HW2 9261   2.318   2.781   5.793
 2788SOL     OW 9262   2.281   4.621   0.522
 2788SOL    HW1 9263   2.233   4.689   0.576
 2788SOL    HW2 9264   2.221   4.543   0.504
 2789SOL     OW 9265   0.422   2.220   3.972
 2789SOL    HW1 9266   0.492   2.150   3.988
 2789SOL    HW2 9267   0.400   2.265   4.059
 2790SOL     OW 9268   3.892   5.118   2.887
 2790SOL    HW1 9269   3.979   5.145   2.929
 2790SOL    HW2 9270   3.872   5.179   2.810
 2791SOL     OW 9271   1.468   3.535   4.653
 2791SOL    HW1 9272   1.414   3.619   4.653
 2791SOL    HW2 9273   1.566   3.558   4.652
 2792SOL     OW 9274   0.423   1.112   5.014
 2792SOL    HW1 9275   0.398   1.030   4.963
 2792SOL    HW2 9276   0.521   1.131   5.001
 2793SOL     OW 9277   5.108   1.881   2.682
 2793SOL    HW1 9278   5.031   1.821   2.703
 2793SOL    HW2 9279   5.075   1.959   2.628
 2794SOL     OW 9280   0.628   0.572   0.601
 2794SOL    HW1 9281   0.558   0.560   0.530
 2794SOL    HW2 9282   0.713   0.601   0.559
 2795SOL     OW 9283   2.940   3.866   1.589
 2795SOL    HW1 9284   3.026   3.825   1.560
 2795SOL    HW2 9285   2.881   3.881   1.510
 2796SOL     OW 9286   5.400   4.286   2.944
 2796SOL    HW1 9287   5.441   4.378   2.944
 2796SOL    HW2 9288   5.402   4.249   2.851
 2797SOL     OW 9289   5.092   5.314   4.941
 2797SOL    HW1 9290   4.995   5.292   4.945
 2797SOL    HW2 9291   5.140   5.272   5.018
 2798SOL     OW 9292   1.037   3.251   3.435
 2798SOL    HW1 9293   0.999   3.174   3.486
 2798SOL    HW2 9294   1.049   3.225   3.339
 2799SOL     OW 9295   6.628   4.900   6.498
 2799SOL    HW1 9296   6.585   4.830   6.442
 2799SOL    HW2 9297   6.558   4.967   6.526
 2800SOL     OW 9298   2.901   4.911   6.676
 2800SOL    HW1 9299   2.927   4.931   6.582
 2800SOL    HW2 9300   2.928   4.818   6.700
 2801SOL     OW 9301   5.458   5.792   1.908
 2801SOL    HW1 9302   5.475   5.696   1.884
 2801SOL    HW2 9303   5.431   5.842   1.826
 2802SOL     OW 9304   4.224   1.801   5.812
 2802SOL    HW1 9305   4.302   1.809   5.750
 2802SOL    HW2 9306   4.234   1.865   5.888
 2803SOL     OW 9307   2.828   6.831   6.072
 2803SOL    HW1 9308   2.818   6.753   6.133
 2803SOL    HW2 9309   2.738   6.868   6.049
 2804SOL     OW 9310   6.627   4.604   3.648
 2804SOL    HW1 9311   6.657   4.547   3.571
 2804SOL    HW2 9312   6.673   4.692   3.644
 2805SOL     OW 9313   5.112   3.097   0.922
 2805SOL    HW1 9314   5.120   3.177   0.864
 2805SOL    HW2 9315   5.134   3.121   1.017
 2806SOL     OW 9316   6.587   5.556   2.908
 2806SOL    HW1 9317   6.499   5.519   2.879
 2806SOL    HW2 9318   6.621   5.503   2.986
 2807SOL     OW 9319   3.577   4.959   3.435
 2807SOL    HW1 9320   3.655   4.953   3.497
 2807SOL    HW2 9321   3.611   4.971   3.341
 2808SOL     OW 9322   5.408   1.342   3.859
 2808SOL    HW1 9323   5.488   1.330   3.799
 2808SOL    HW2 9324   5.326   1.348   3.803
 2809SOL     OW 9325   5.362   2.301   0.615
 2809SOL    HW1 9326   5.435   2.322   0.680
 2809SOL    HW2 9327   5.387   2.221   0.561
 2810SOL     OW 9328   2.348   0.241   5.141
 2810SOL    HW1 9329   2.253   0.211   5.146
 2810SOL    HW2 9330   2.376   0.278   5.230
 2811SOL     OW 9331   0.805   1.115   3.467
 2811SOL    HW1 9332   0.769   1.027   3.437
 2811SOL    HW2 9333   0.738   1.161   3.525
 2812SOL     OW 9334   4.867   3.725   2.510
 2812SOL    HW1 9335   4.782   3.777   2.513
 2812SOL    HW2 9336   4.852   3.641   2.458
 2813SOL     OW 9337   5.701   0.045   6.414
 2813SOL    HW1 9338   5.775   0.039   6.347
 2813SOL    HW2 9339   5.618   0.078   6.370
 2814SOL     OW 9340   4.166   4.064   5.876
 2814SOL    HW1 9341   4.251   4.103   5.910
 2814SOL    HW2 9342   4.123   4.127   5.811
 2815SOL     OW 9343   6.843   1.176   4.676
 2815SOL    HW1 9344   6.867   1.269   4.650
 2815SOL    HW2 9345   6.926   1.121   4.684
 2816SOL     OW 9346   5.872   0.281   4.193
 2816SOL    HW1 9347   5.918   0.364   4.223
 2816SOL    HW2 9348   5.932   0.229   4.132
 2817SOL     OW 9349   1.931   1.004   1.574
 2817SOL    HW1 9350   1.979   0.972   1.656
 2817SOL    HW2 9351   1.861   1.070   1.600
 2818SOL     OW 9352   6.971   4.494   6.117
 2818SOL    HW1 9353   6.900   4.457   6.057
 2818SOL    HW2 9354   7.002   4.423   6.180
 2819SOL     OW 9355   0.239   3.313   6.923
 2819SOL    HW1 9356   0.297   3.350   6.850
 2819SOL    HW2 9357   0.246   3.213   6.924
 2820SOL     OW 9358   0.119   2.533   3.162
 2820SOL    HW1 9359   0.110   2.534   3.062
 2820SOL    HW2 9360   0.208   2.569   3.187
 2821SOL     OW 9361   1.723   4.819   4.876
 2821SOL    HW1 9362   1.818   4.790   4.870
 2821SOL    HW2 9363   1.665   4.753   4.828
 2822SOL     OW 9364   5.195   2.320   0.037
 2822SOL    HW1 9365   5.218   2.411   0.002
 2822SOL    HW2 9366   5.277   2.263   0.035
 2823SOL     OW 9367   2.192   6.898   2.436
 2823SOL    HW1 9368   2.189   6.822   2.501
 2823SOL    HW2 9369   2.202   6.862   2.344
 2824SOL     OW 9370   2.702   1.318   5.491
 2824SOL    HW1 9371   2.607   1.311   5.522
 2824SOL    HW2 9372   2.717   1.255   5.415
 2825SOL     OW 9373   6.580   6.640   1.339
 2825SOL    HW1 9374   6.485   6.634   1.368
 2825SOL    HW2 9375   6.598   6.731   1.301
 2826SOL     OW 9376   5.058   1.846   4.945
 2826SOL    HW1 9377   5.031   1.750   4.936
 2826SOL    HW2 9378   5.096   1.878   4.858
 2827SOL     OW 9379   5.708   1.424   5.411
 2827SOL    HW1 9380   5.679   1.418   5.316
 2827SOL    HW2 9381   5.628   1.433   5.470
 2828SOL     OW 9382   4.333   0.542   5.712
 2828SOL    HW1 9383   4.413   0.586   5.671
 2828SOL    HW2 9384   4.357   0.450   5.743
 2829SOL     OW 9385   3.653   6.294   6.261
 2829SOL    HW1 9386   3.594   6.281   6.181
 2829SOL    HW2 9387   3.733   6.348   6.235
 2830SOL     OW 9388   4.243   3.547   6.628
 2830SOL    HW1 9389   4.307   3.509   6.695
 2830SOL    HW2 9390   4.234   3.646   6.643
 2831SOL     OW 9391   5.758   6.380   3.784
 2831SOL    HW1 9392   5.665   6.402   3.754
 2831SOL    HW2 9393   5.766   6.397   3.882
 2832SOL     OW 9394   0.318   1.178   1.615
 2832SOL    HW1 9395   0.225   1.163   1.581
 2832SOL    HW2 9396   0.364   1.246   1.558
 2833SOL     OW 9397   5.798   2.420   2.076
 2833SOL    HW1 9398   5.770   2.363   1.998
 2833SOL    HW2 9399   5.732   2.495   2.087
 2834SOL     OW 9400   3.451   1.815   5.530
 2834SOL    HW1 9401   3.471   1.806   5.628
 2834SOL    HW2 9402   3.389   1.742   5.502
 2835SOL     OW 9403   0.367   6.569   2.497
 2835SOL    HW1 9404   0.284   6.625   2.495
 2835SOL    HW2 9405   0.435   6.609   2.436
 2836SOL     OW 9406   0.080   6.962   1.664
 2836SOL    HW1 9407   0.105   6.869   1.637
 2836SOL    HW2 9408   0.125   6.984   1.751
 2837SOL     OW 9409   5.298   3.986   3.858
 2837SOL    HW1 9410   5.389   4.023   3.878
 2837SOL    HW2 9411   5.232   4.061   3.851
 2838SOL     OW 9412   2.799   4.961   1.887
 2838SOL    HW1 9413   2.754   4.972   1.976
 2838SOL    HW2 9414   2.884   4.911   1.899
 2839SOL     OW 9415   5.681   1.840   1.280
 2839SOL    HW1 9416   5.706   1.767   1.216
 2839SOL    HW2 9417   5.606   1.894   1.241
 2840SOL     OW 9418   6.695   1.379   5.237
 2840SOL    HW1 9419   6.696   1.313   5.162
 2840SOL    HW2 9420   6.779   1.371   5.290
 2841SOL     OW 9421   0.920   5.676   1.085
 2841SOL    HW1 9422   0.967   5.597   1.125
 2841SOL    HW2 9423   0.930   5.755   1.146
 2842SOL     OW 9424   6.749   3.266   3.797
 2842SOL    HW1 9425   6.683   3.286   3.725
 2842SOL    HW2 9426   6.821   3.207   3.761
 2843SOL     OW 9427   3.526   1.007   4.885
 2843SOL    HW1 9428   3.604   1.055   4.846
 2843SOL    HW2 9429   3.496   0.936   4.822
 2844SOL     OW 9430   0.950   4.113   6.855
 2844SOL    HW1 9431   0.892   4.181   6.899
 2844SOL    HW2 9432   0.986   4.051   6.925
 2845SOL     OW 9433   0.544   4.443   6.575
 2845SOL    HW1 9434   0.502   4.386   6.504
 2845SOL    HW2 9435   0.493   4.432   6.660
 2846SOL     OW 9436   4.839   1.563   6.376
 2846SOL    HW1 9437   4.762   1.519   6.328
 2846SOL    HW2 9438   4.852   1.520   6.465
 2847SOL     OW 9439   6.142   4.736   3.844
 2847SOL    HW1 9440   6.185   4.823   3.870
 2847SOL    HW2 9441   6.051   4.731   3.885
 2848SOL     OW 9442   0.580   5.132   4.673
 2848SOL    HW1 9443   0.573   5.220   4.720
 2848SOL    HW2 9444   0.638   5.070   4.727
 2849SOL     OW 9445   2.816   1.883   0.516
 2849SOL    HW1 9446   2.719   1.865   0.534
 2849SOL    HW2 9447   2.828   1.979   0.490
 2850SOL     OW 9448   3.769   0.187   0.856
 2850SOL    HW1 9449   3.751   0.168   0.952
 2850SOL    HW2 9450   3.742   0.109   0.800
 2851SOL     OW 9451   0.987   4.380   5.531
 2851SOL    HW1 9452   1.046   4.337   5.599
 2851SOL    HW2 9453   0.979   4.477   5.551
 2852SOL     OW 9454   6.686   3.288   6.443
 2852SOL    HW1 9455   6.727   3.364   6.494
 2852SOL    HW2 9456   6.590   3.308   6.425
 2853SOL     OW 9457   3.558   2.648   1.137
 2853SOL    HW1 9458   3.481   2.623   1.195
 2853SOL    HW2 9459   3.570   2.748   1.138
 2854SOL     OW 9460   2.670   0.347   4.273
 2854SOL    HW1 9461   2.576   0.356   4.240
 2854SOL    HW2 9462   2.709   0.261   4.241
 2855SOL     OW 9463   1.759   0.967   5.326
 2855SOL    HW1 9464   1.660   0.977   5.328
 2855SOL    HW2 9465   1.789   0.939   5.235
 2856SOL     OW 9466   2.525   2.803   5.320
 2856SOL    HW1 9467   2.495   2.749   5.241
 2856SOL    HW2 9468   2.533   2.899   5.293
 2857SOL     OW 9469   2.888   2.423   1.406
 2857SOL    HW1 9470   2.936   2.380   1.330
 2857SOL    HW2 9471   2.853   2.512   1.376
 2858SOL     OW 9472   6.123   2.677   2.679
 2858SOL    HW1 9473   6.092   2.585   2.701
 2858SOL    HW2 9474   6.066   2.715   2.606
 2859SOL     OW 9475   4.672   0.863   0.848
 2859SOL    HW1 9476   4.623   0.900   0.927
 2859SOL    HW2 9477   4.747   0.925   0.824
 2860SOL     OW 9478   4.078   1.823   1.596
 2860SOL    HW1 9479   4.081   1.735   1.643
 2860SOL    HW2 9480   4.158   1.833   1.537
 2861SOL     OW 9481   3.818   5.582   5.366
 2861SOL    HW1 9482   3.881   5.557   5.439
 2861SOL    HW2 9483   3.753   5.650   5.401
 2862SOL     OW 9484   5.397   1.069   3.921
 2862SOL    HW1 9485   5.478   1.014   3.899
 2862SOL    HW2 9486   5.422   1.165   3.926
 2863SOL     OW 9487   6.239   2.081   6.940
 2863SOL    HW1 9488   6.167   2.061   6.874
 2863SOL    HW2 9489   6.320   2.026   6.919
 2864SOL     OW 9490   3.957   0.350   1.391
 2864SOL    HW1 9491   3.974   0.433   1.337
 2864SOL    HW2 9492   3.862   0.350   1.422
 2865SOL     OW 9493   4.542   4.347   5.242
 2865SOL    HW1 9494   4.463   4.400   5.210
 2865SOL    HW2 9495   4.605   4.332   5.166
 2866SOL     OW 9496   0.254   5.815   6.165
 2866SOL    HW1 9497   0.196   5.755   6.221
 2866SOL    HW2 9498   0.213   5.906   6.160
 2867SOL     OW 9499   6.184   5.013   2.999
 2867SOL    HW1 9500   6.251   5.063   2.944
 2867SOL    HW2 9501   6.092   5.032   2.964
 2868SOL     OW 9502   1.354   4.482   4.926
 2868SOL    HW1 9503   1.256   4.468   4.910
 2868SOL    HW2 9504   1.370   4.491   5.024
 2869SOL     OW 9505   5.579   0.529   1.939
 2869SOL    HW1 9506   5.642   0.521   1.862
 2869SOL    HW2 9507   5.535   0.441   1.955
 2870SOL     OW 9508   6.397   2.237   3.532
 2870SOL    HW1 9509   6.348   2.317   3.498
 2870SOL    HW2 9510   6.403   2.168   3.460
 2871SOL     OW 9511   1.973   1.736   6.430
 2871SOL    HW1 9512   1.979   1.788   6.345
 2871SOL    HW2 9513   2.017   1.787   6.503
 2872SOL     OW 9514   2.818   0.455   4.037
 2872SOL    HW1 9515   2.824   0.402   4.122
 2872SOL    HW2 9516   2.888   0.422   3.973
 2873SOL     OW 9517   1.256   5.569   2.662
 2873SOL    HW1 9518   1.251   5.668   2.678
 2873SOL    HW2 9519   1.289   5.552   2.569
 2874SOL     OW 9520   5.821   3.796   2.693
 2874SOL    HW1 9521   5.723   3.778   2.684
 2874SOL    HW2 9522   5.835   3.895   2.701
 2875SOL     OW 9523   3.980   6.046   6.188
 2875SOL    HW1 9524   3.922   6.027   6.267
 2875SOL    HW2 9525   3.982   5.966   6.128
 2876SOL     OW 9526   1.038   0.928   1.172
 2876SOL    HW1 9527   1.124   0.888   1.142
 2876SOL    HW2 9528   0.962   0.867   1.148
 2877SOL     OW 9529   2.884   2.651   5.450
 2877SOL    HW1 9530   2.895   2.728   5.386
 2877SOL    HW2 9531   2.969   2.599   5.453
 2878SOL     OW 9532   2.410   4.844   4.956
 2878SOL    HW1 9533   2.390   4.918   4.892
 2878SOL    HW2 9534   2.492   4.795   4.928
 2879SOL     OW 9535   5.264   4.882   0.445
 2879SOL    HW1 9536   5.169   4.877   0.414
 2879SOL    HW2 9537   5.325   4.861   0.369
 2880SOL     OW 9538   0.663   5.991   1.438
 2880SOL    HW1 9539   0.593   5.976   1.369
 2880SOL    HW2 9540   0.741   6.038   1.398
 2881SOL     OW 9541   6.686   6.286   0.937
 2881SOL    HW1 9542   6.637   6.336   0.866
 2881SOL    HW2 9543   6.624   6.221   0.981
 2882SOL     OW 9544   6.852   3.272   2.260
 2882SOL    HW1 9545   6.761   3.303   2.233
 2882SOL    HW2 9546   6.876   3.191   2.206
 2883SOL     OW 9547   3.603   6.718   2.431
 2883SOL    HW1 9548   3.702   6.708   2.425
 2883SOL    HW2 9549   3.581   6.784   2.503
 2884SOL     OW 9550   0.813   6.230   3.121
 2884SOL    HW1 9551   0.849   6.230   3.028
 2884SOL    HW2 9552   0.871   6.173   3.179
 2885SOL     OW 9553   0.563   2.109   2.502
 2885SOL    HW1 9554   0.571   2.138   2.598
 2885SOL    HW2 9555   0.649   2.065   2.474
 2886SOL     OW 9556   2.348   2.166   6.665
 2886SOL    HW1 9557   2.391   2.110   6.595
 2886SOL    HW2 9558   2.348   2.262   6.636
 2887SOL     OW 9559   1.574   6.907   4.732
 2887SOL    HW1 9560   1.633   6.981   4.699
 2887SOL    HW2 9561   1.484   6.914   4.689
 2888SOL     OW 9562   6.175   4.922   6.645
 2888SOL    HW1 9563   6.166   4.910   6.744
 2888SOL    HW2 9564   6.271   4.931   6.621
 2889SOL     OW 9565   0.876   0.444   1.947
 2889SOL    HW1 9566   0.876   0.537   1.985
 2889SOL    HW2 9567   0.791   0.430   1.896
 2890SOL     OW 9568   4.072   0.535   1.219
 2890SOL    HW1 9569   4.169   0.540   1.194
 2890SOL    HW2 9570   4.017   0.578   1.147
 2891SOL     OW 9571   1.727   4.217   3.839
 2891SOL    HW1 9572   1.753   4.166   3.757
 2891SOL    HW2 9573   1.799   4.208   3.908
 2892SOL     OW 9574   3.919   4.270   6.514
 2892SOL    HW1 9575   3.927   4.322   6.600
 2892SOL    HW2 9576   3.828   4.284   6.475
 2893SOL     OW 9577   2.756   0.012   4.959
 2893SOL    HW1 9578   2.753   6.949   4.907
 2893SOL    HW2 9579   2.667   0.029   5.000
 2894SOL     OW 9580   2.993   3.245   0.194
 2894SOL    HW1 9581   2.948   3.207   0.113
 2894SOL    HW2 9582   2.923   3.270   0.261
 2895SOL     OW 9583   4.022   3.443   6.941
 2895SOL    HW1 9584   4.023   3.371   6.871
 2895SOL    HW2 9585   3.938   3.435   6.995
 2896SOL     OW 9586   2.177   5.567   6.845
 2896SOL    HW1 9587   2.119   5.563   6.763
 2896SOL    HW2 9588   2.163   5.655   6.891
 2897SOL     OW 9589   2.418   6.152   3.059
 2897SOL    HW1 9590   2.449   6.244   3.033
 2897SOL    HW2 9591   2.323   6.140   3.030
 2898SOL     OW 9592   4.378   5.190   1.913
 2898SOL    HW1 9593   4.391   5.271   1.970
 2898SOL    HW2 9594   4.450   5.123   1.933
 2899SOL     OW 9595   0.037   0.077   6.534
 2899SOL    HW1 9596   0.097   0.152   6.508
 2899SOL    HW2 9597   0.086   0.014   6.595
 2900SOL     OW 9598   1.354   5.265   5.836
 2900SOL    HW1 9599   1.422   5.242   5.767
 2900SOL    HW2 9600   1.389   5.241   5.927
 2901SOL     OW 9601   2.937   0.761   1.943
 2901SOL    HW1 9602   2.910   0.745   2.038
 2901SOL    HW2 9603   2.860   0.739   1.883
 2902SOL     OW 9604   5.395   6.121   0.855
 2902SOL    HW1 9605   5.479   6.075   0.881
 2902SOL    HW2 9606   5.320   6.091   0.914
 2903SOL     OW 9607   2.810   1.463   2.048
 2903SOL    HW1 9608   2.722   1.440   2.007
 2903SOL    HW2 9609   2.884   1.437   1.986
 2904SOL     OW 9610   2.204   3.200   5.253
 2904SOL    HW1 9611   2.186   3.138   5.329
 2904SOL    HW2 9612   2.256   3.153   5.182
 2905SOL     OW 9613   1.492   1.549   1.878
 2905SOL    HW1 9614   1.456   1.480   1.941
 2905SOL    HW2 9615   1.516   1.631   1.929
 2906SOL     OW 9616   5.656   5.647   2.255
 2906SOL    HW1 9617   5.564   5.638   2.294
 2906SOL    HW2 9618   5.674   5.568   2.197
 2907SOL     OW 9619   0.088   1.555   5.321
 2907SOL    HW1 9620   0.003   1.570   5.269
 2907SOL    HW2 9621   0.140   1.641   5.323
 2908SOL     OW 9622   4.403   6.027   4.177
 2908SOL    HW1 9623   4.445   6.069   4.258
 2908SOL    HW2 9624   4.332   6.087   4.142
 2909SOL     OW 9625   1.150   5.334   4.174
 2909SOL    HW1 9626   1.177   5.376   4.087
 2909SOL    HW2 9627   1.211   5.364   4.247
 2910SOL     OW 9628   4.225   6.599   4.943
 2910SOL    HW1 9629   4.191   6.671   5.003
 2910SOL    HW2 9630   4.243   6.516   4.997
 2911SOL     OW 9631   2.352   4.194   3.626
 2911SOL    HW1 9632   2.333   4.166   3.720
 2911SOL    HW2 9633   2.265   4.207   3.577
 2912SOL     OW 9634   2.962   6.011   0.382
 2912SOL    HW1 9635   2.876   5.969   0.409
 2912SOL    HW2 9636   3.030   5.940   0.363
 2913SOL     OW 9637   1.593   3.615   2.601
 2913SOL    HW1 9638   1.589   3.521   2.568
 2913SOL    HW2 9639   1.505   3.660   2.585
 2914SOL     OW 9640   5.520   4.728   5.897
 2914SOL    HW1 9641   5.567   4.783   5.827
 2914SOL    HW2 9642   5.565   4.640   5.906
 2915SOL     OW 9643   4.332   1.487   4.115
 2915SOL    HW1 9644   4.251   1.432   4.136
 2915SOL    HW2 9645   4.352   1.482   4.017
 2916SOL     OW 9646   5.994   5.001   5.024
 2916SOL    HW1 9647   6.014   5.041   5.114
 2916SOL    HW2 9648   6.044   5.050   4.954
 2917SOL     OW 9649   4.413   0.383   1.614
 2917SOL    HW1 9650   4.485   0.444   1.581
 2917SOL    HW2 9651   4.345   0.370   1.543
 2918SOL     OW 9652   0.412   3.840   3.589
 2918SOL    HW1 9653   0.329   3.789   3.613
 2918SOL    HW2 9654   0.492   3.787   3.613
 2919SOL     OW 9655   6.020   6.177   0.728
 2919SOL    HW1 9656   6.062   6.090   0.754
 2919SOL    HW2 9657   6.074   6.252   0.766
 2920SOL     OW 9658   3.935   2.015   2.548
 2920SOL    HW1 9659   3.976   2.087   2.492
 2920SOL    HW2 9660   3.863   1.969   2.496
 2921SOL     OW 9661   0.385   1.033   3.116
 2921SOL    HW1 9662   0.315   0.967   3.143
 2921SOL    HW2 9663   0.342   1.121   3.095
 2922SOL     OW 9664   4.879   0.074   5.649
 2922SOL    HW1 9665   4.876   0.151   5.585
 2922SOL    HW2 9666   4.788   0.033   5.657
 2923SOL     OW 9667   6.621   5.112   2.104
 2923SOL    HW1 9668   6.592   5.090   2.197
 2923SOL    HW2 9669   6.543   5.102   2.042
 2924SOL     OW 9670   0.565   1.170   5.780
 2924SOL    HW1 9671   0.574   1.210   5.689
 2924SOL    HW2 9672   0.618   1.225   5.846
 2925SOL     OW 9673   5.275   3.177   1.456
 2925SOL    HW1 9674   5.331   3.127   1.390
 2925SOL    HW2 9675   5.189   3.205   1.413
 2926SOL     OW 9676   6.784   2.247   4.784
 2926SOL    HW1 9677   6.712   2.315   4.798
 2926SOL    HW2 9678   6.831   2.265   4.697
 2927SOL     OW 9679   1.477   2.187   2.037
 2927SOL    HW1 9680   1.468   2.286   2.024
 2927SOL    HW2 9681   1.574   2.164   2.050
 2928SOL     OW 9682   6.336   0.604   0.148
 2928SOL    HW1 9683   6.419   0.641   0.190
 2928SOL    HW2 9684   6.359   0.520   0.098
 2929SOL     OW 9685   0.969   0.107   6.661
 2929SOL    HW1 9686   0.981   0.206   6.652
 2929SOL    HW2 9687   0.960   0.067   6.570
 2930SOL     OW 9688   5.155   0.941   4.687
 2930SOL    HW1 9689   5.133   0.944   4.589
 2930SOL    HW2 9690   5.098   0.872   4.731
 2931SOL     OW 9691   4.687   6.257   6.470
 2931SOL    HW1 9692   4.657   6.181   6.413
 2931SOL    HW2 9693   4.624   6.334   6.458
 2932SOL     OW 9694   0.956   4.019   1.419
 2932SOL    HW1 9695   1.020   3.981   1.352
 2932SOL    HW2 9696   0.993   4.105   1.455
 2933SOL     OW 9697   5.494   2.864   3.849
 2933SOL    HW1 9698   5.456   2.819   3.929
 2933SOL    HW2 9699   5.570   2.809   3.813
 2934SOL     OW 9700   2.949   0.697   0.010
 2934SOL    HW1 9701   2.975   0.703   6.936
 2934SOL    HW2 9702   2.849   0.687   0.017
 2935SOL     OW 9703   6.013   4.042   0.995
 2935SOL    HW1 9704   5.936   3.978   0.996
 2935SOL    HW2 9705   6.093   3.997   0.956
 2936SOL     OW 9706   4.855   5.664   0.258
 2936SOL    HW1 9707   4.766   5.633   0.225
 2936SOL    HW2 9708   4.915   5.684   0.180
 2937SOL     OW 9709   3.719   5.451   0.620
 2937SOL    HW1 9710   3.780   5.531   0.620
 2937SOL    HW2 9711   3.692   5.431   0.526
 2938SOL     OW 9712   4.992   5.650   5.133
 2938SOL    HW1 9713   4.959   5.636   5.039
 2938SOL    HW2 9714   5.091   5.660   5.132
 2939SOL     OW 9715   6.263   6.701   5.083
 2939SOL    HW1 9716   6.353   6.692   5.126
 2939SOL    HW2 9717   6.228   6.794   5.099
 2940SOL     OW 9718   5.744   0.051   5.478
 2940SOL    HW1 9719   5.760   0.149   5.470
 2940SOL    HW2 9720   5.741   0.025   5.574
 2941SOL     OW 9721   0.359   2.153   5.331
 2941SOL    HW1 9722   0.448   2.155   5.376
 2941SOL    HW2 9723   0.359   2.079   5.263
 2942SOL     OW 9724   3.434   0.313   2.314
 2942SOL    HW1 9725   3.509   0.248   2.300
 2942SOL    HW2 9726   3.409   0.354   2.227
 2943SOL     OW 9727   5.954   3.186   3.320
 2943SOL    HW1 9728   5.945   3.286   3.328
 2943SOL    HW2 9729   5.879   3.151   3.263
 2944SOL     OW 9730   3.633   4.957   4.974
 2944SOL    HW1 9731   3.591   5.007   5.050
 2944SOL    HW2 9732   3.561   4.915   4.918
 2945SOL     OW 9733   3.240   3.608   3.538
 2945SOL    HW1 9734   3.147   3.622   3.504
 2945SOL    HW2 9735   3.236   3.583   3.635
 2946SOL     OW 9736   6.814   5.654   5.928
 2946SOL    HW1 9737   6.756   5.649   5.847
 2946SOL    HW2 9738   6.758   5.636   6.010
 2947SOL     OW 9739   6.557   3.691   6.705
 2947SOL    HW1 9740   6.611   3.772   6.730
 2947SOL    HW2 9741   6.575   3.667   6.610
 2948SOL     OW 9742   6.378   4.254   4.824
 2948SOL    HW1 9743   6.329   4.173   4.792
 2948SOL    HW2 9744   6.379   4.323   4.752
 2949SOL     OW 9745   1.491   6.787   0.591
 2949SOL    HW1 9746   1.461   6.881   0.608
 2949SOL    HW2 9747   1.555   6.786   0.514
 2950SOL     OW 9748   5.974   3.627   4.347
 2950SOL    HW1 9749   6.003   3.721   4.331
 2950SOL    HW2 9750   6.043   3.580   4.402
 2951SOL     OW 9751   0.489   1.232   0.937
 2951SOL    HW1 9752   0.424   1.234   1.013
 2951SOL    HW2 9753   0.447   1.274   0.856
 2952SOL     OW 9754   1.321   4.379   3.040
 2952SOL    HW1 9755   1.252   4.371   2.967
 2952SOL    HW2 9756   1.277   4.373   3.129
 2953SOL     OW 9757   4.622   2.451   1.867
 2953SOL    HW1 9758   4.701   2.497   1.826
 2953SOL    HW2 9759   4.623   2.466   1.966
 2954SOL     OW 9760   6.846   6.639   2.525
 2954SOL    HW1 9761   6.848   6.701   2.604
 2954SOL    HW2 9762   6.777   6.569   2.540
 2955SOL     OW 9763   0.533   3.288   0.889
 2955SOL    HW1 9764   0.614   3.230   0.898
 2955SOL    HW2 9765   0.537   3.337   0.802
 2956SOL     OW 9766   0.244   5.129   3.031
 2956SOL    HW1 9767   0.321   5.190   3.013
 2956SOL    HW2 9768   0.256   5.085   3.120
 2957SOL     OW 9769   0.384   3.551   1.346
 2957SOL    HW1 9770   0.392   3.501   1.433
 2957SOL    HW2 9771   0.311   3.509   1.291
 2958SOL     OW 9772   1.698   4.462   5.305
 2958SOL    HW1 9773   1.677   4.373   5.265
 2958SOL    HW2 9774   1.717   4.528   5.232
 2959SOL     OW 9775   4.899   5.436   6.208
 2959SOL    HW1 9776   4.848   5.522   6.200
 2959SOL    HW2 9777   4.975   5.436   6.144
 2960SOL     OW 9778   2.523   2.262   0.009
 2960SOL    HW1 9779   2.559   2.320   0.081
 2960SOL    HW2 9780   2.526   2.310   6.944
 2961SOL     OW 9781   5.692   3.709   4.081
 2961SOL    HW1 9782   5.770   3.765   4.055
 2961SOL    HW2 9783   5.676   3.639   4.011
 2962SOL     OW 9784   4.267   1.205   3.569
 2962SOL    HW1 9785   4.299   1.292   3.532
 2962SOL    HW2 9786   4.272   1.134   3.498
 2963SOL     OW 9787   1.467   1.410   5.376
 2963SOL    HW1 9788   1.531   1.397   5.300
 2963SOL    HW2 9789   1.373   1.409   5.341
 2964SOL     OW 9790   1.868   6.310   1.700
 2964SOL    HW1 9791   1.944   6.368   1.670
 2964SOL    HW2 9792   1.882   6.283   1.795
 2965SOL     OW 9793   0.240   1.569   5.905
 2965SOL    HW1 9794   0.290   1.654   5.888
 2965SOL    HW2 9795   0.177   1.553   5.830
 2966SOL     OW 9796   5.416   4.599   3.939
 2966SOL    HW1 9797   5.421   4.647   4.027
 2966SOL    HW2 9798   5.323   4.606   3.903
 2967SOL     OW 9799   5.717   2.725   3.798
 2967SOL    HW1 9800   5.709   2.770   3.710
 2967SOL    HW2 9801   5.686   2.630   3.790
 2968SOL     OW 9802   0.684   3.973   4.235
 2968SOL    HW1 9803   0.646   4.021   4.156
 2968SOL    HW2 9804   0.651   4.015   4.319
 2969SOL     OW 9805   5.730   2.122   4.301
 2969SOL    HW1 9806   5.650   2.142   4.245
 2969SOL    HW2 9807   5.811   2.163   4.259
 2970SOL     OW 9808   0.673   4.329   6.051
 2970SOL    HW1 9809   0.602   4.397   6.033
 2970SOL    HW2 9810   0.734   4.363   6.122
 2971SOL     OW 9811   6.071   2.902   3.585
 2971SOL    HW1 9812   6.062   2.840   3.664
 2971SOL    HW2 9813   6.071   2.996   3.617
 2972SOL     OW 9814   6.216   3.696   6.354
 2972SOL    HW1 9815   6.118   3.695   6.337
 2972SOL    HW2 9816   6.234   3.732   6.446
 2973SOL     OW 9817   5.317   6.832   3.628
 2973SOL    HW1 9818   5.324   6.784   3.716
 2973SOL    HW2 9819   5.267   6.917   3.640
 2974SOL     OW 9820   6.881   4.626   3.053
 2974SOL    HW1 9821   6.795   4.664   3.085
 2974SOL    HW2 9822   6.931   4.695   3.001
 2975SOL     OW 9823   0.501   0.781   5.562
 2975SOL    HW1 9824   0.568   0.838   5.609
 2975SOL    HW2 9825   0.409   0.812   5.587
 2976SOL     OW 9826   4.204   1.305   2.408
 2976SOL    HW1 9827   4.219   1.342   2.317
 2976SOL    HW2 9828   4.116   1.336   2.443
 2977SOL     OW 9829   3.036   6.651   4.044
 2977SOL    HW1 9830   3.035   6.710   3.964
 2977SOL    HW2 9831   3.095   6.691   4.115
 2978SOL     OW 9832   4.861   5.222   0.256
 2978SOL    HW1 9833   4.946   5.239   0.307
 2978SOL    HW2 9834   4.799   5.168   0.312
 2979SOL     OW 9835   3.991   0.459   2.995
 2979SOL    HW1 9836   3.980   0.558   3.000
 2979SOL    HW2 9837   4.071   0.432   3.049
 2980SOL     OW 9838   1.066   6.087   4.104
 2980SOL    HW1 9839   1.144   6.125   4.153
 2980SOL    HW2 9840   1.031   6.007   4.153
 2981SOL     OW 9841   1.468   0.694   5.754
 2981SOL    HW1 9842   1.553   0.641   5.754
 2981SOL    HW2 9843   1.445   0.720   5.660
 2982SOL     OW 9844   4.216   6.047   2.771
 2982SOL    HW1 9845   4.177   6.043   2.679
 2982SOL    HW2 9846   4.184   6.129   2.818
 2983SOL     OW 9847   6.843   0.615   4.464
 2983SOL    HW1 9848   6.756   0.660   4.447
 2983SOL    HW2 9849   6.839   0.566   4.551
 2984SOL     OW 9850   6.087   5.467   2.027
 2984SOL    HW1 9851   6.056   5.491   2.119
 2984SOL    HW2 9852   6.054   5.536   1.963
 2985SOL     OW 9853   0.306   1.929   3.726
 2985SOL    HW1 9854   0.266   1.897   3.640
 2985SOL    HW2 9855   0.310   2.029   3.726
 2986SOL     OW 9856   1.432   3.751   5.161
 2986SOL    HW1 9857   1.426   3.796   5.072
 2986SOL    HW2 9858   1.501   3.679   5.158
 2987SOL     OW 9859   4.363   1.576   4.721
 2987SOL    HW1 9860   4.294   1.554   4.790
 2987SOL    HW2 9861   4.381   1.494   4.665
 2988SOL     OW 9862   1.025   0.482   1.626
 2988SOL    HW1 9863   1.055   0.540   1.702
 2988SOL    HW2 9864   0.931   0.505   1.601
 2989SOL     OW 9865   6.440   5.135   1.049
 2989SOL    HW1 9866   6.474   5.216   1.002
 2989SOL    HW2 9867   6.342   5.124   1.032
 2990SOL     OW 9868   3.418   1.448   1.785
 2990SOL    HW1 9869   3.492   1.381   1.787
 2990SOL    HW2 9870   3.391   1.471   1.879
 2991SOL     OW 9871   0.266   4.157   0.160
 2991SOL    HW1 9872   0.226   4.071   0.127
 2991SOL    HW2 9873   0.307   4.142   0.250
 2992SOL     OW 9874   3.482   5.712   6.308
 2992SOL    HW1 9875   3.426   5.785   6.346
 2992SOL    HW2 9876   3.566   5.750   6.269
 2993SOL     OW 9877   1.695   5.202   1.112
 2993SOL    HW1 9878   1.607   5.249   1.107
 2993SOL    HW2 9879   1.723   5.193   1.207
 2994SOL     OW 9880   4.898   0.279   0.319
 2994SOL    HW1 9881   4.915   0.376   0.337
 2994SOL    HW2 9882   4.807   0.267   0.281
 2995SOL     OW 9883   1.216   2.197   6.789
 2995SOL    HW1 9884   1.150   2.239   6.727
 2995SOL    HW2 9885   1.168   2.145   6.860
 2996SOL     OW 9886   3.618   4.860   5.650
 2996SOL    HW1 9887   3.631   4.885   5.746
 2996SOL    HW2 9888   3.689   4.796   5.622
 2997SOL     OW 9889   5.307   6.430   0.982
 2997SOL    HW1 9890   5.277   6.344   0.941
 2997SOL    HW2 9891   5.278   6.506   0.924
 2998SOL     OW 9892   5.670   6.138   3.663
 2998SOL    HW1 9893   5.636   6.156   3.571
 2998SOL    HW2 9894   5.737   6.208   3.689
 2999SOL     OW 9895   3.574   6.891   2.640
 2999SOL    HW1 9896   3.648   6.936   2.690
 2999SOL    HW2 9897   3.491   6.893   2.696
 3000SOL     OW 9898   1.427   3.133   6.103
 3000SOL    HW1 9899   1.454   3.088   6.188
 3000SOL    HW2 9900   1.491   3.208   6.084
 3001SOL     OW 9901   4.603   0.845   5.339
 3001SOL    HW1 9902   4.552   0.874   5.259
 3001SOL    HW2 9903   4.701   0.848   5.320
 3002SOL     OW 9904   4.625   0.020   5.466
 3002SOL    HW1 9905   4.631   0.039   5.368
 3002SOL    HW2 9906   4.615   0.106   5.516
 3003SOL     OW 9907   2.924   6.344   5.806
 3003SOL    HW1 9908   2.847   6.405   5.785
 3003SOL    HW2 9909   2.902   6.291   5.887
 3004SOL     OW 9910   6.106   3.637   3.870
 3004SOL    HW1 9911   6.125   3.720   3.922
 3004SOL    HW2 9912   6.033   3.585   3.915
 3005SOL     OW 9913   3.663   2.909   1.193
 3005SOL    HW1 9914   3.734   2.883   1.259
 3005SOL    HW2 9915   3.599   2.972   1.237
 3006SOL     OW 9916   5.250   1.241   0.949
 3006SOL    HW1 9917   5.162   1.227   0.994
 3006SOL    HW2 9918   5.236   1.254   0.851
 3007SOL     OW 9919   6.504   4.880   2.937
 3007SOL    HW1 9920   6.433   4.944   2.909
 3007SOL    HW2 9921   6.462   4.796   2.972
 3008SOL     OW 9922   3.409   6.424   6.329
 3008SOL    HW1 9923   3.345   6.377   6.389
 3008SOL    HW2 9924   3.501   6.387   6.343
 3009SOL     OW 9925   1.287   0.285   2.503
 3009SOL    HW1 9926   1.276   0.368   2.559
 3009SOL    HW2 9927   1.200   0.261   2.462
 3010SOL     OW 9928   3.231   5.463   2.873
 3010SOL    HW1 9929   3.306   5.453   2.808
 3010SOL    HW2 9930   3.216   5.376   2.920
 3011SOL     OW 9931   6.370   0.377   6.999
 3011SOL    HW1 9932   6.375   0.383   6.900
 3011SOL    HW2 9933   6.418   0.296   0.009
 3012SOL     OW 9934   0.213   3.829   3.187
 3012SOL    HW1 9935   0.159   3.806   3.268
 3012SOL    HW2 9936   0.208   3.927   3.169
 3013SOL     OW 9937   6.037   5.626   2.296
 3013SOL    HW1 9938   5.988   5.690   2.237
 3013SOL    HW2 9939   5.978   5.599   2.372
 3014SOL     OW 9940   5.397   1.772   3.987
 3014SOL    HW1 9941   5.416   1.763   4.085
 3014SOL    HW2 9942   5.458   1.710   3.936
 3015SOL     OW 9943   2.705   2.585   0.541
 3015SOL    HW1 9944   2.804   2.598   0.530
 3015SOL    HW2 9945   2.663   2.671   0.569
 3016SOL     OW 9946   3.568   6.338   3.609
 3016SOL    HW1 9947   3.587   6.397   3.687
 3016SOL    HW2 9948   3.470   6.340   3.589
 3017SOL     OW 9949   1.191   6.264   1.508
 3017SOL    HW1 9950   1.172   6.361   1.524
 3017SOL    HW2 9951   1.128   6.208   1.562
 3018SOL     OW 9952   3.930   6.735   6.703
 3018SOL    HW1 9953   3.944   6.693   6.792
 3018SOL    HW2 9954   3.895   6.828   6.714
 3019SOL     OW 9955   3.348   6.104   0.873
 3019SOL    HW1 9956   3.293   6.133   0.795
 3019SOL    HW2 9957   3.306   6.024   0.915
 3020SOL     OW 9958   2.993   3.543   1.464
 3020SOL    HW1 9959   3.049   3.491   1.399
 3020SOL    HW2 9960   3.050   3.568   1.543
 3021SOL     OW 9961   2.091   2.186   6.877
 3021SOL    HW1 9962   2.182   2.206   6.841
 3021SOL    HW2 9963   2.098   2.119   6.950
 3022SOL     OW 9964   4.619   6.475   2.930
 3022SOL    HW1 9965   4.621   6.408   2.856
 3022SOL    HW2 9966   4.551   6.546   2.909
 3023SOL     OW 9967   4.193   5.796   3.335
 3023SOL    HW1 9968   4.225   5.782   3.428
 3023SOL    HW2 9969   4.205   5.891   3.309
 3024SOL     OW 9970   3.316   1.309   0.132
 3024SOL    HW1 9971   3.335   1.235   0.067
 3024SOL    HW2 9972   3.249   1.372   0.092
 3025SOL     OW 9973   2.022   3.142   1.282
 3025SOL    HW1 9974   1.957   3.071   1.312
 3025SOL    HW2 9975   2.000   3.228   1.329
 3026SOL     OW 9976   1.812   3.383   1.093
 3026SOL    HW1 9977   1.755   3.377   1.011
 3026SOL    HW2 9978   1.861   3.297   1.106
 3027SOL     OW 9979   2.333   1.020   2.579
 3027SOL    HW1 9980   2.405   0.997   2.513
 3027SOL    HW2 9981   2.352   0.975   2.666
 3028SOL     OW 9982   1.513   5.843   6.448
 3028SOL    HW1 9983   1.599   5.794   6.461
 3028SOL    HW2 9984   1.466   5.852   6.536
 3029SOL     OW 9985   5.915   5.263   4.917
 3029SOL    HW1 9986   5.850   5.187   4.913
 3029SOL    HW2 9987   5.967   5.268   4.832
 3030SOL     OW 9988   1.259   1.287   5.652
 3030SOL    HW1 9989   1.182   1.333   5.695
 3030SOL    HW2 9990   1.344   1.335   5.675
 3031SOL     OW 9991   0.661   3.905   6.419
 3031SOL    HW1 9992   0.562   3.914   6.409
 3031SOL    HW2 9993   0.707   3.938   6.337
 3032SOL     OW 9994   4.806   0.603   6.030
 3032SOL    HW1 9995   4.815   0.572   6.125
 3032SOL    HW2 9996   4.748   0.684   6.026
 3033SOL     OW 9997   0.373   4.011   6.750
 3033SOL    HW1 9998   0.401   4.066   6.829
 3033SOL    HW2 9999   0.292   3.958   6.774
 3034SOL     OW10000   3.236   6.372   3.872
 3034SOL    HW110001   3.249   6.273   3.872
 3034SOL    HW210002   3.142   6.393   3.899
 3035SOL     OW10003   5.895   1.290   0.123
 3035SOL    HW110004   5.971   1.253   0.070
 3035SOL    HW210005   5.821   1.318   0.061
 3036SOL     OW10006   1.038   3.923   6.651
 3036SOL    HW110007   1.136   3.944   6.651
 3036SOL    HW210008   0.986   4.007   6.667
 3037SOL     OW10009   6.775   6.073   4.920
 3037SOL    HW110010   6.834   6.140   4.965
 3037SOL    HW210011   6.682   6.080   4.955
 3038SOL     OW10012   5.083   6.987   5.813
 3038SOL    HW110013   5.155   0.035   5.811
 3038SOL    HW210014   5.015   7.007   5.743
 3039SOL     OW10015   0.094   4.359   1.735
 3039SOL    HW110016   0.143   4.350   1.822
 3039SOL    HW210017   0.082   4.269   1.694
 3040SOL     OW10018   3.014   3.703   6.046
 3040SOL    HW110019   3.109   3.672   6.054
 3040SOL    HW210020   2.988   3.754   6.128
 3041SOL     OW10021   1.902   2.279   5.047
 3041SOL    HW110022   1.972   2.243   5.109
 3041SOL    HW210023   1.895   2.378   5.059
 3042SOL     OW10024   4.739   0.254   2.278
 3042SOL    HW110025   4.831   0.232   2.308
 3042SOL    HW210026   4.684   0.284   2.356
 3043SOL     OW10027   1.154   5.812   0.006
 3043SOL    HW110028   1.067   5.817   6.980
 3043SOL    HW210029   1.143   5.846   0.099
 3044SOL     OW10030   3.329   4.031   5.816
 3044SOL    HW110031   3.327   3.955   5.751
 3044SOL    HW210032   3.241   4.079   5.814
 3045SOL     OW10033   4.925   1.675   2.448
 3045SOL    HW110034   4.947   1.595   2.392
 3045SOL    HW210035   4.929   1.758   2.393
 3046SOL     OW10036   1.417   3.033   5.731
 3046SOL    HW110037   1.321   3.006   5.744
 3046SOL    HW210038   1.422   3.131   5.717
 3047SOL     OW10039   6.280   5.667   2.437
 3047SOL    HW110040   6.187   5.652   2.403
 3047SOL    HW210041   6.277   5.715   2.525
 3048SOL     OW10042   3.884   3.354   1.679
 3048SOL    HW110043   3.979   3.382   1.697
 3048SOL    HW210044   3.823   3.432   1.691
 3049SOL     OW10045   1.194   0.639   1.816
 3049SOL    HW110046   1.232   0.666   1.904
 3049SOL    HW210047   1.267   0.629   1.749
 3050SOL     OW10048   4.049   5.784   3.812
 3050SOL    HW110049   4.056   5.726   3.892
 3050SOL    HW210050   4.005   5.870   3.836
 3051SOL     OW10051   2.871   5.487   6.666
 3051SOL    HW110052   2.884   5.396   6.626
 3051SOL    HW210053   2.921   5.555   6.612
 3052SOL     OW10054   3.681   0.270   2.852
 3052SOL    HW110055   3.717   0.359   2.826
 3052SOL    HW210056   3.679   0.262   2.951
 3053SOL     OW10057   5.946   0.043   0.214
 3053SOL    HW110058   6.021   0.073   0.154
 3053SOL    HW210059   5.935   0.109   0.289
 3054SOL     OW10060   0.564   3.436   0.325
 3054SOL    HW110061   0.572   3.517   0.267
 3054SOL    HW210062   0.539   3.357   0.268
 3055SOL     OW10063   5.930   6.614   3.210
 3055SOL    HW110064   5.831   6.614   3.200
 3055SOL    HW210065   5.970   6.682   3.150
 3056SOL     OW10066   0.033   0.143   6.966
 3056SOL    HW110067   0.081   0.226   6.993
 3056SOL    HW210068   0.078   0.102   6.887
 3057SOL     OW10069   6.371   4.505   2.390
 3057SOL    HW110070   6.418   4.497   2.479
 3057SOL    HW210071   6.279   4.469   2.398
 3058SOL     OW10072   6.255   5.778   0.741
 3058SOL    HW110073   6.235   5.869   0.777
 3058SOL    HW210074   6.229   5.774   0.644
 3059SOL     OW10075   0.506   2.841   4.889
 3059SOL    HW110076   0.583   2.903   4.903
 3059SOL    HW210077   0.503   2.812   4.794
 3060SOL     OW10078   0.312   6.227   1.185
 3060SOL    HW110079   0.288   6.324   1.183
 3060SOL    HW210080   0.275   6.182   1.103
 3061SOL     OW10081   6.973   0.828   5.083
 3061SOL    HW110082   6.991   0.925   5.067
 3061SOL    HW210083   0.037   0.778   5.087
 3062SOL     OW10084   2.666   6.208   1.286
 3062SOL    HW110085   2.669   6.194   1.187
 3062SOL    HW210086   2.586   6.163   1.325
 3063SOL     OW10087   1.567   5.157   1.486
 3063SOL    HW110088   1.649   5.182   1.435
 3063SOL    HW210089   1.590   5.144   1.582
 3064SOL     OW10090   6.318   3.835   3.286
 3064SOL    HW110091   6.295   3.819   3.190
 3064SOL    HW210092   6.294   3.929   3.310
 3065SOL     OW10093   1.504   0.771   0.113
 3065SOL    HW110094   1.405   0.771   0.096
 3065SOL    HW210095   1.550   0.723   0.039
 3066SOL     OW10096   6.177   4.498   0.949
 3066SOL    HW110097   6.100   4.523   0.890
 3066SOL    HW210098   6.186   4.398   0.951
 3067SOL     OW10099   4.638   0.251   4.480
 3067SOL    HW110100   4.668   0.322   4.544
 3067SOL    HW210101   4.538   0.245   4.481
 3068SOL     OW10102   5.718   5.757   1.653
 3068SOL    HW110103   5.770   5.683   1.611
 3068SOL    HW210104   5.685   5.727   1.742
 3069SOL     OW10105   0.939   5.646   1.814
 3069SOL    HW110106   0.963   5.595   1.896
 3069SOL    HW210107   0.992   5.732   1.812
 3070SOL     OW10108   2.235   1.634   3.091
 3070SOL    HW110109   2.272   1.543   3.071
 3070SOL    HW210110   2.204   1.676   3.006
 3071SOL     OW10111   6.229   6.987   4.002
 3071SOL    HW110112   6.324   6.982   3.971
 3071SOL    HW210113   6.221   0.032   4.076
 3072SOL     OW10114   0.583   6.294   2.095
 3072SOL    HW110115   0.518   6.370   2.087
 3072SOL    HW210116   0.598   6.273   2.192
 3073SOL     OW10117   1.166   3.588   5.593
 3073SOL    HW110118   1.161   3.686   5.573
 3073SOL    HW210119   1.253   3.551   5.560
 3074SOL     OW10120   4.608   2.950   6.835
 3074SOL    HW110121   4.708   2.961   6.831
 3074SOL    HW210122   4.586   2.863   6.878
 3075SOL     OW10123   1.946   6.422   1.218
 3075SOL    HW110124   2.013   6.464   1.279
 3075SOL    HW210125   1.903   6.493   1.162
 3076SOL     OW10126   6.177   0.529   5.034
 3076SOL    HW110127   6.140   0.437   5.045
 3076SOL    HW210128   6.147   0.566   4.947
 3077SOL     OW10129   6.025   4.204   4.640
 3077SOL    HW110130   6.069   4.167   4.722
 3077SOL    HW210131   6.088   4.264   4.592
 3078SOL     OW10132   1.857   3.734   2.088
 3078SOL    HW110133   1.955   3.745   2.107
 3078SOL    HW210134   1.807   3.812   2.126
 3079SOL     OW10135   0.139   2.354   5.103
 3079SOL    HW110136   0.172   2.268   5.144
 3079SOL    HW210137   0.207   2.387   5.038
 3080SOL     OW10138   5.897   5.130   1.261
 3080SOL    HW110139   5.921   5.219   1.300
 3080SOL    HW210140   5.914   5.131   1.162
 3081SOL     OW10141   0.361   4.149   5.609
 3081SOL    HW110142   0.339   4.194   5.523
 3081SOL    HW210143   0.433   4.081   5.594
 3082SOL     OW10144   3.372   0.069   2.730
 3082SOL    HW110145   3.409   0.126   2.656
 3082SOL    HW210146   3.422   0.086   2.814
 3083SOL     OW10147   3.585   0.484   1.906
 3083SOL    HW110148   3.610   0.413   1.840
 3083SOL    HW210149   3.576   0.572   1.860
 3084SOL     OW10150   5.271   5.128   4.358
 3084SOL    HW110151   5.346   5.113   4.423
 3084SOL    HW210152   5.259   5.227   4.344
 3085SOL     OW10153   6.800   5.410   2.687
 3085SOL    HW110154   6.822   5.508   2.688
 3085SOL    HW210155   6.711   5.396   2.730
 3086SOL     OW10156   5.231   1.605   2.600
 3086SOL    HW110157   5.201   1.537   2.667
 3086SOL    HW210158   5.187   1.692   2.618
 3087SOL     OW10159   6.105   4.362   3.185
 3087SOL    HW110160   6.162   4.377   3.265
 3087SOL    HW210161   6.046   4.283   3.199
 3088SOL     OW10162   2.522   4.543   5.136
 3088SOL    HW110163   2.498   4.635   5.167
 3088SOL    HW210164   2.611   4.546   5.090
 3089SOL     OW10165   0.802   2.650   6.958
 3089SOL    HW110166   0.838   2.565   6.918
 3089SOL    HW210167   0.871   2.689   7.019
 3090SOL     OW10168   1.537   1.425   1.158
 3090SOL    HW110169   1.468   1.419   1.229
 3090SOL    HW210170   1.621   1.379   1.189
 3091SOL     OW10171   2.114   6.518   0.920
 3091SOL    HW110172   2.188   6.481   0.976
 3091SOL    HW210173   2.138   6.508   0.823
 3092SOL     OW10174   6.945   6.566   0.428
 3092SOL    HW110175   7.018   6.564   0.497
 3092SOL    HW210176   6.878   6.494   0.449
 3093SOL     OW10177   6.162   5.502   5.490
 3093SOL    HW110178   6.202   5.555   5.415
 3093SOL    HW210179   6.062   5.504   5.483
 3094SOL     OW10180   3.213   5.521   4.958
 3094SOL    HW110181   3.264   5.552   5.038
 3094SOL    HW210182   3.139   5.585   4.938
 3095SOL     OW10183   2.550   4.825   4.285
 3095SOL    HW110184   2.617   4.819   4.359
 3095SOL    HW210185   2.570   4.755   4.216
 3096SOL     OW10186   6.927   7.000   5.347
 3096SOL    HW110187   7.006   6.940   5.357
 3096SOL    HW210188   6.952   0.057   5.291
 3097SOL     OW10189   0.615   2.766   0.523
 3097SOL    HW110190   0.635   2.834   0.593
 3097SOL    HW210191   0.517   2.765   0.504
 3098SOL     OW10192   2.710   3.743   0.642
 3098SOL    HW110193   2.733   3.830   0.685
 3098SOL    HW210194   2.622   3.710   0.678
 3099SOL     OW10195   0.452   6.104   5.425
 3099SOL    HW110196   0.540   6.151   5.421
 3099SOL    HW210197   0.400   6.124   5.342
 3100SOL     OW10198   6.662   6.334   6.381
 3100SOL    HW110199   6.685   6.369   6.472
 3100SOL    HW210200   6.745   6.330   6.325
 3101SOL     OW10201   4.853   6.452   6.176
 3101SOL    HW110202   4.869   6.359   6.143
 3101SOL    HW210203   4.817   6.509   6.101
 3102SOL     OW10204   1.686   4.152   1.234
 3102SOL    HW110205   1.607   4.201   1.197
 3102SOL    HW210206   1.749   4.217   1.276
 3103SOL     OW10207   4.158   2.745   0.755
 3103SOL    HW110208   4.094   2.818   0.732
 3103SOL    HW210209   4.124   2.659   0.718
 3104SOL     OW10210   5.383   5.683   4.064
 3104SOL    HW110211   5.418   5.589   4.054
 3104SOL    HW210212   5.283   5.682   4.064
 3105SOL     OW10213   5.639   6.823   4.173
 3105SOL    HW110214   5.643   6.730   4.209
 3105SOL    HW210215   5.574   6.877   4.227
 3106SOL     OW10216   6.427   2.712   3.081
 3106SOL    HW110217   6.512   2.693   3.130
 3106SOL    HW210218   6.396   2.805   3.101
 3107SOL     OW10219   3.038   0.355   3.897
 3107SOL    HW110220   3.122   0.404   3.922
 3107SOL    HW210221   3.045   0.322   3.803
 3108SOL     OW10222   2.167   0.989   4.274
 3108SOL    HW110223   2.240   0.930   4.309
 3108SOL    HW210224   2.167   1.076   4.322
 3109SOL     OW10225   4.912   6.134   3.231
 3109SOL    HW110226   4.926   6.203   3.161
 3109SOL    HW210227   4.867   6.175   3.310
 3110SOL     OW10228   0.239   3.406   2.613
 3110SOL    HW110229   0.208   3.497   2.587
 3110SOL    HW210230   0.191   3.337   2.558
 3111SOL     OW10231   6.947   4.961   3.697
 3111SOL    HW110232   6.883   4.895   3.659
 3111SOL    HW210233   7.014   4.914   3.755
 3112SOL     OW10234   4.494   3.759   6.671
 3112SOL    HW110235   4.397   3.738   6.686
 3112SOL    HW210236   4.515   3.751   6.574
 3113SOL     OW10237   2.125   6.824   3.667
 3113SOL    HW110238   2.183   6.769   3.728
 3113SOL    HW210239   2.060   6.764   3.619
 3114SOL     OW10240   5.483   4.563   0.544
 3114SOL    HW110241   5.414   4.557   0.472
 3114SOL    HW210242   5.487   4.656   0.578
 3115SOL     OW10243   3.792   3.771   0.451
 3115SOL    HW110244   3.810   3.723   0.537
 3115SOL    HW210245   3.700   3.749   0.419
 3116SOL     OW10246   6.131   2.330   6.382
 3116SOL    HW110247   6.155   2.336   6.479
 3116SOL    HW210248   6.098   2.238   6.361
 3117SOL     OW10249   4.169   3.127   5.355
 3117SOL    HW110250   4.121   3.041   5.369
 3117SOL    HW210251   4.130   3.197   5.415
 3118SOL     OW10252   0.101   4.777   0.646
 3118SOL    HW110253   0.045   4.694   0.648
 3118SOL    HW210254   0.189   4.758   0.691
 3119SOL     OW10255   1.713   4.419   4.851
 3119SOL    HW110256   1.736   4.326   4.822
 3119SOL    HW210257   1.655   4.462   4.782
 3120SOL     OW10258   2.747   5.236   4.622
 3120SOL    HW110259   2.710   5.175   4.691
 3120SOL    HW210260   2.752   5.189   4.534
 3121SOL     OW10261   6.881   1.115   2.229
 3121SOL    HW110262   6.909   1.109   2.133
 3121SOL    HW210263   6.861   1.210   2.253
 3122SOL     OW10264   2.606   5.854   6.445
 3122SOL    HW110265   2.606   5.813   6.354
 3122SOL    HW210266   2.611   5.782   6.514
 3123SOL     OW10267   3.988   0.036   4.216
 3123SOL    HW110268   3.899   0.022   4.171
 3123SOL    HW210269   4.026   0.124   4.186
 3124SOL     OW10270   4.218   1.506   5.350
 3124SOL    HW110271   4.292   1.513   5.284
 3124SOL    HW210272   4.159   1.429   5.326
 3125SOL     OW10273   6.651   1.666   5.466
 3125SOL    HW110274   6.585   1.656   5.392
 3125SOL    HW210275   6.617   1.733   5.532
 3126SOL     OW10276   4.619   5.867   6.575
 3126SOL    HW110277   4.597   5.948   6.521
 3126SOL    HW210278   4.628   5.788   6.515
 3127SOL     OW10279   1.051   2.068   4.074
 3127SOL    HW110280   1.002   2.118   4.145
 3127SOL    HW210281   1.146   2.054   4.102
 3128SOL     OW10282   2.345   1.365   0.792
 3128SOL    HW110283   2.246   1.359   0.798
 3128SOL    HW210284   2.376   1.336   0.702
 3129SOL     OW10285   6.798   4.294   5.419
 3129SOL    HW110286   6.870   4.347   5.375
 3129SOL    HW210287   6.810   4.197   5.397
 3130SOL     OW10288   2.183   4.529   2.356
 3130SOL    HW110289   2.100   4.491   2.315
 3130SOL    HW210290   2.245   4.454   2.381
 3131SOL     OW10291   6.557   3.796   2.468
 3131SOL    HW110292   6.646   3.752   2.463
 3131SOL    HW210293   6.509   3.764   2.550
 3132SOL     OW10294   5.632   6.083   5.794
 3132SOL    HW110295   5.691   6.049   5.868
 3132SOL    HW210296   5.542   6.106   5.831
 3133SOL     OW10297   3.053   1.785   3.301
 3133SOL    HW110298   3.109   1.774   3.383
 3133SOL    HW210299   3.098   1.847   3.238
 3134SOL     OW10300   4.790   3.001   1.517
 3134SOL    HW110301   4.712   2.946   1.486
 3134SOL    HW210302   4.851   3.017   1.440
 3135SOL     OW10303   4.001   2.150   3.399
 3135SOL    HW110304   3.940   2.156   3.478
 3135SOL    HW210305   4.096   2.139   3.431
 3136SOL     OW10306   6.076   5.918   5.942
 3136SOL    HW110307   6.127   5.995   5.903
 3136SOL    HW210308   6.019   5.877   5.871
 3137SOL     OW10309   5.631   1.762   4.422
 3137SOL    HW110310   5.664   1.775   4.328
 3137SOL    HW210311   5.679   1.684   4.463
 3138SOL     OW10312   6.063   1.026   4.744
 3138SOL    HW110313   6.110   1.003   4.659
 3138SOL    HW210314   6.071   1.125   4.761
 3139SOL     OW10315   4.994   5.916   5.255
 3139SOL    HW110316   5.008   5.827   5.211
 3139SOL    HW210317   5.064   5.929   5.326
 3140SOL     OW10318   6.860   6.184   6.646
 3140SOL    HW110319   6.887   6.205   6.740
 3140SOL    HW210320   6.885   6.089   6.625
 3141SOL     OW10321   1.384   6.049   0.233
 3141SOL    HW110322   1.383   6.128   0.172
 3141SOL    HW210323   1.432   5.973   0.189
 3142SOL     OW10324   4.229   6.147   5.848
 3142SOL    HW110325   4.293   6.192   5.911
 3142SOL    HW210326   4.158   6.212   5.821
 3143SOL     OW10327   6.802   2.030   0.131
 3143SOL    HW110328   6.784   2.026   0.033
 3143SOL    HW210329   6.878   2.092   0.149
 3144SOL     OW10330   1.838   4.000   6.604
 3144SOL    HW110331   1.819   4.096   6.623
 3144SOL    HW210332   1.875   3.990   6.511
 3145SOL     OW10333   2.587   5.408   3.103
 3145SOL    HW110334   2.527   5.340   3.060
 3145SOL    HW210335   2.534   5.490   3.126
 3146SOL     OW10336   1.186   0.382   3.468
 3146SOL    HW110337   1.126   0.301   3.473
 3146SOL    HW210338   1.170   0.440   3.548
 3147SOL     OW10339   4.890   3.886   0.781
 3147SOL    HW110340   4.813   3.941   0.748
 3147SOL    HW210341   4.974   3.920   0.739
 3148SOL     OW10342   3.930   5.563   4.453
 3148SOL    HW110343   3.833   5.556   4.478
 3148SOL    HW210344   3.985   5.507   4.515
 3149SOL     OW10345   3.484   0.077   5.583
 3149SOL    HW110346   3.564   0.108   5.532
 3149SOL    HW210347   3.419   0.035   5.520
 3150SOL     OW10348   6.334   6.597   4.609
 3150SOL    HW110349   6.381   6.571   4.525
 3150SOL    HW210350   6.401   6.615   4.681
 3151SOL     OW10351   4.195   1.527   5.833
 3151SOL    HW110352   4.273   1.492   5.884
 3151SOL    HW210353   4.208   1.625   5.815
 3152SOL     OW10354   0.852   5.684   1.380
 3152SOL    HW110355   0.849   5.610   1.313
 3152SOL    HW210356   0.924   5.749   1.354
 3153SOL     OW10357   6.163   4.318   2.492
 3153SOL    HW110358   6.078   4.335   2.442
 3153SOL    HW210359   6.145   4.257   2.569
 3154SOL     OW10360   5.800   2.675   5.863
 3154SOL    HW110361   5.723   2.631   5.815
 3154SOL    HW210362   5.782   2.774   5.871
 3155SOL     OW10363   5.467   5.758   0.870
 3155SOL    HW110364   5.494   5.695   0.943
 3155SOL    HW210365   5.373   5.788   0.885
 3156SOL     OW10366   3.745   3.892   3.666
 3156SOL    HW110367   3.679   3.955   3.627
 3156SOL    HW210368   3.764   3.917   3.761
 3157SOL     OW10369   2.038   3.737   4.183
 3157SOL    HW110370   1.939   3.746   4.174
 3157SOL    HW210371   2.072   3.808   4.245
 3158SOL     OW10372   4.975   6.525   1.282
 3158SOL    HW110373   4.878   6.502   1.281
 3158SOL    HW210374   4.986   6.624   1.273
 3159SOL     OW10375   4.841   5.530   6.790
 3159SOL    HW110376   4.769   5.577   6.740
 3159SOL    HW210377   4.801   5.461   6.850
 3160SOL     OW10378   4.627   4.553   6.997
 3160SOL    HW110379   4.700   4.500   6.956
 3160SOL    HW210380   4.614   4.525   0.070
 3161SOL     OW10381   1.507   1.077   3.003
 3161SOL    HW110382   1.590   1.077   2.947
 3161SOL    HW210383   1.427   1.073   2.944
 3162SOL     OW10384   0.339   5.005   6.204
 3162SOL    HW110385   0.266   5.036   6.266
 3162SOL    HW210386   0.310   5.019   6.109
 3163SOL     OW10387   3.797   3.725   6.560
 3163SOL    HW110388   3.797   3.674   6.646
 3163SOL    HW210389   3.881   3.705   6.510
 3164SOL     OW10390   5.466   4.244   0.302
 3164SOL    HW110391   5.551   4.268   0.349
 3164SOL    HW210392   5.455   4.145   0.301
 3165SOL     OW10393   0.352   1.324   2.468
 3165SOL    HW110394   0.445   1.287   2.478
 3165SOL    HW210395   0.331   1.334   2.371
 3166SOL     OW10396   5.364   3.698   6.392
 3166SOL    HW110397   5.369   3.795   6.415
 3166SOL    HW210398   5.371   3.643   6.475
 3167SOL     OW10399   0.711   5.223   1.720
 3167SOL    HW110400   0.726   5.320   1.704
 3167SOL    HW210401   0.644   5.188   1.655
 3168SOL     OW10402   5.627   3.344   1.223
 3168SOL    HW110403   5.709   3.382   1.265
 3168SOL    HW210404   5.547   3.397   1.252
 3169SOL     OW10405   0.897   2.840   4.731
 3169SOL    HW110406   0.948   2.908   4.678
 3169SOL    HW210407   0.870   2.765   4.671
 3170SOL     OW10408   4.355   1.173   0.169
 3170SOL    HW110409   4.367   1.226   0.085
 3170SOL    HW210410   4.275   1.115   0.161
 3171SOL     OW10411   5.085   6.386   2.768
 3171SOL    HW110412   5.174   6.414   2.803
 3171SOL    HW210413   5.056   6.451   2.698
 3172SOL     OW10414   6.359   0.040   5.032
 3172SOL    HW110415   6.410   6.988   5.077
 3172SOL    HW210416   6.424   0.112   5.003
 3173SOL     OW10417   2.417   0.744   1.834
 3173SOL    HW110418   2.322   0.717   1.844
 3173SOL    HW210419   2.456   0.702   1.752
 3174SOL     OW10420   2.705   3.160   5.986
 3174SOL    HW110421   2.787   3.113   6.020
 3174SOL    HW210422   2.725   3.256   5.970
 3175SOL     OW10423   1.331   6.647   0.752
 3175SOL    HW110424   1.393   6.656   0.673
 3175SOL    HW210425   1.304   6.551   0.763
 3176SOL     OW10426   0.969   4.170   6.583
 3176SOL    HW110427   0.975   4.168   6.682
 3176SOL    HW210428   1.009   4.255   6.549
 3177SOL     OW10429   6.129   5.727   6.140
 3177SOL    HW110430   6.043   5.695   6.180
 3177SOL    HW210431   6.111   5.798   6.072
 3178SOL     OW10432   0.569   4.316   1.658
 3178SOL    HW110433   0.537   4.244   1.719
 3178SOL    HW210434   0.637   4.372   1.706
 3179SOL     OW10435   1.367   1.385   2.080
 3179SOL    HW110436   1.365   1.475   2.123
 3179SOL    HW210437   1.384   1.315   2.149
 3180SOL     OW10438   5.553   0.537   5.971
 3180SOL    HW110439   5.516   0.624   6.006
 3180SOL    HW210440   5.505   0.512   5.887
 3181SOL     OW10441   1.126   0.855   3.408
 3181SOL    HW110442   1.217   0.845   3.367
 3181SOL    HW210443   1.135   0.878   3.505
 3182SOL     OW10444   1.980   5.741   5.316
 3182SOL    HW110445   1.893   5.728   5.268
 3182SOL    HW210446   1.963   5.746   5.415
 3183SOL     OW10447   4.056   3.673   1.178
 3183SOL    HW110448   4.098   3.757   1.144
 3183SOL    HW210449   4.115   3.632   1.248
 3184SOL     OW10450   2.727   1.949   2.236
 3184SOL    HW110451   2.724   1.907   2.145
 3184SOL    HW210452   2.784   2.031   2.234
 3185SOL     OW10453   6.642   6.940   6.092
 3185SOL    HW110454   6.695   6.947   6.177
 3185SOL    HW210455   6.549   6.909   6.113
 3186SOL     OW10456   3.199   0.922   2.551
 3186SOL    HW110457   3.111   0.962   2.579
 3186SOL    HW210458   3.237   0.869   2.627
 3187SOL     OW10459   3.464   4.566   0.488
 3187SOL    HW110460   3.382   4.586   0.435
 3187SOL    HW210461   3.439   4.513   0.569
 3188SOL     OW10462   3.965   6.352   3.625
 3188SOL    HW110463   3.891   6.295   3.661
 3188SOL    HW210464   3.974   6.338   3.527
 3189SOL     OW10465   1.352   6.572   3.048
 3189SOL    HW110466   1.344   6.638   3.122
 3189SOL    HW210467   1.262   6.554   3.009
 3190SOL     OW10468   1.146   6.210   2.693
 3190SOL    HW110469   1.235   6.228   2.734
 3190SOL    HW210470   1.156   6.141   2.621
 3191SOL     OW10471   4.301   0.914   0.877
 3191SOL    HW110472   4.278   0.939   0.972
 3191SOL    HW210473   4.255   0.829   0.853
 3192SOL     OW10474   6.871   2.963   1.816
 3192SOL    HW110475   6.837   2.979   1.723
 3192SOL    HW210476   6.798   2.929   1.874
 3193SOL     OW10477   4.801   2.820   6.058
 3193SOL    HW110478   4.878   2.862   6.106
 3193SOL    HW210479   4.766   2.743   6.112
 3194SOL     OW10480   0.682   3.514   5.854
 3194SOL    HW110481   0.753   3.545   5.918
 3194SOL    HW210482   0.724   3.486   5.768
 3195SOL     OW10483   0.874   3.185   2.993
 3195SOL    HW110484   0.935   3.179   3.073
 3195SOL    HW210485   0.911   3.130   2.919
 3196SOL     OW10486   6.709   0.399   5.666
 3196SOL    HW110487   6.616   0.405   5.630
 3196SOL    HW210488   6.730   0.304   5.688
 3197SOL     OW10489   1.241   4.513   3.870
 3197SOL    HW110490   1.152   4.537   3.832
 3197SOL    HW210491   1.240   4.419   3.902
 3198SOL     OW10492   0.239   2.071   6.465
 3198SOL    HW110493   0.219   2.050   6.369
 3198SOL    HW210494   0.325   2.121   6.471
 3199SOL     OW10495   4.637   1.929   1.676
 3199SOL    HW110496   4.573   1.852   1.668
 3199SOL    HW210497   4.586   2.014   1.681
 3200SOL     OW10498   6.939   1.877   0.794
 3200SOL    HW110499   0.014   1.896   0.776
 3200SOL    HW210500   6.932   1.819   0.875
 3201SOL     OW10501   4.512   4.499   3.277
 3201SOL    HW110502   4.520   4.471   3.373
 3201SOL    HW210503   4.499   4.419   3.219
 3202SOL     OW10504   1.750   5.554   1.809
 3202SOL    HW110505   1.748   5.569   1.908
 3202SOL    HW210506   1.751   5.642   1.762
 3203SOL     OW10507   6.646   0.193   1.575
 3203SOL    HW110508   6.616   0.242   1.494
 3203SOL    HW210509   6.574   0.194   1.644
 3204SOL     OW10510   6.346   5.560   2.064
 3204SOL    HW110511   6.384   5.585   2.153
 3204SOL    HW210512   6.252   5.528   2.076
 3205SOL     OW10513   0.561   3.631   3.698
 3205SOL    HW110514   0.587   3.610   3.603
 3205SOL    HW210515   0.491   3.566   3.728
 3206SOL     OW10516   1.620   6.822   6.586
 3206SOL    HW110517   1.718   6.833   6.602
 3206SOL    HW210518   1.594   6.869   6.502
 3207SOL     OW10519   0.393   0.941   4.416
 3207SOL    HW110520   0.375   0.863   4.476
 3207SOL    HW210521   0.479   0.985   4.443
 3208SOL     OW10522   4.950   6.663   4.671
 3208SOL    HW110523   5.044   6.674   4.638
 3208SOL    HW210524   4.890   6.642   4.594
 3209SOL     OW10525   2.577   0.601   4.032
 3209SOL    HW110526   2.556   0.630   4.125
 3209SOL    HW210527   2.667   0.557   4.030
 3210SOL     OW10528   7.014   4.579   2.623
 3210SOL    HW110529   0.060   4.605   2.554
 3210SOL    HW210530   0.010   4.629   2.708
 3211SOL     OW10531   1.627   4.154   2.228
 3211SOL    HW110532   1.691   4.218   2.186
 3211SOL    HW210533   1.677   4.072   2.258
 3212SOL     OW10534   4.783   2.064   6.353
 3212SOL    HW110535   4.768   2.067   6.452
 3212SOL    HW210536   4.797   1.969   6.324
 3213SOL     OW10537   5.908   6.360   1.966
 3213SOL    HW110538   5.835   6.416   1.926
 3213SOL    HW210539   5.890   6.348   2.064
 3214SOL     OW10540   4.568   5.857   5.857
 3214SOL    HW110541   4.526   5.766   5.850
 3214SOL    HW210542   4.532   5.916   5.784
 3215SOL     OW10543   5.803   1.901   6.760
 3215SOL    HW110544   5.753   1.848   6.829
 3215SOL    HW210545   5.898   1.913   6.790
 3216SOL     OW10546   5.796   6.802   3.660
 3216SOL    HW110547   5.733   6.855   3.603
 3216SOL    HW210548   5.797   6.840   3.753
 3217SOL     OW10549   6.644   4.312   1.859
 3217SOL    HW110550   6.694   4.327   1.773
 3217SOL    HW210551   6.577   4.239   1.846
 3218SOL     OW10552   3.363   0.585   3.166
 3218SOL    HW110553   3.427   0.516   3.133
 3218SOL    HW210554   3.320   0.631   3.089
 3219SOL     OW10555   6.351   0.409   3.985
 3219SOL    HW110556   6.328   0.359   3.901
 3219SOL    HW210557   6.402   0.491   3.961
 3220SOL     OW10558   6.379   3.481   5.797
 3220SOL    HW110559   6.416   3.439   5.715
 3220SOL    HW210560   6.407   3.577   5.801
 3221SOL     OW10561   2.814   7.004   3.132
 3221SOL    HW110562   2.775   6.912   3.139
 3221SOL    HW210563   2.748   0.049   3.166
 3222SOL     OW10564   5.932   2.511   2.796
 3222SOL    HW110565   5.935   2.412   2.784
 3222SOL    HW210566   5.934   2.532   2.894
 3223SOL     OW10567   2.106   5.283   5.215
 3223SOL    HW110568   2.006   5.278   5.217
 3223SOL    HW210569   2.141   5.225   5.142
 3224SOL     OW10570   3.844   5.001   6.893
 3224SOL    HW110571   3.944   4.997   6.902
 3224SOL    HW210572   3.817   5.095   6.872
 3225SOL     OW10573   2.461   3.740   6.790
 3225SOL    HW110574   2.473   3.767   6.695
 3225SOL    HW210575   2.426   3.646   6.793
 3226SOL     OW10576   1.549   0.841   4.036
 3226SOL    HW110577   1.648   0.854   4.022
 3226SOL    HW210578   1.531   0.746   4.057
 3227SOL     OW10579   2.843   1.427   6.424
 3227SOL    HW110580   2.862   1.512   6.374
 3227SOL    HW210581   2.744   1.414   6.431
 3228SOL     OW10582   5.604   3.610   4.646
 3228SOL    HW110583   5.660   3.572   4.720
 3228SOL    HW210584   5.656   3.680   4.597
 3229SOL     OW10585   4.073   2.272   5.244
 3229SOL    HW110586   4.072   2.371   5.232
 3229SOL    HW210587   4.131   2.248   5.322
 3230SOL     OW10588   1.132   0.829   4.005
 3230SOL    HW110589   1.158   0.733   3.992
 3230SOL    HW210590   1.134   0.851   4.103
 3231SOL     OW10591   5.929   6.015   1.521
 3231SOL    HW110592   5.954   5.954   1.445
 3231SOL    HW210593   5.896   6.102   1.485
 3232SOL     OW10594   1.786   5.255   3.948
 3232SOL    HW110595   1.715   5.226   4.012
 3232SOL    HW210596   1.870   5.205   3.967
 3233SOL     OW10597   0.460   4.188   1.094
 3233SOL    HW110598   0.394   4.226   1.028
 3233SOL    HW210599   0.510   4.262   1.138
 3234SOL     OW10600   0.554   1.826   5.692
 3234SOL    HW110601   0.646   1.865   5.699
 3234SOL    HW210602   0.560   1.733   5.656
 3235SOL     OW10603   5.410   0.173   2.677
 3235SOL    HW110604   5.345   0.240   2.641
 3235SOL    HW210605   5.496   0.218   2.700
 3236SOL     OW10606   0.281   3.158   1.720
 3236SOL    HW110607   0.377   3.181   1.709
 3236SOL    HW210608   0.239   3.145   1.630
 3237SOL     OW10609   3.430   0.280   4.548
 3237SOL    HW110610   3.461   0.276   4.644
 3237SOL    HW210611   3.377   0.364   4.534
 3238SOL     OW10612   0.219   6.413   6.525
 3238SOL    HW110613   0.152   6.475   6.484
 3238SOL    HW210614   0.197   6.319   6.502
 3239SOL     OW10615   6.561   6.965   5.699
 3239SOL    HW110616   6.594   6.901   5.768
 3239SOL    HW210617   6.541   6.916   5.614
 3240SOL     OW10618   1.048   1.594   4.561
 3240SOL    HW110619   1.043   1.523   4.490
 3240SOL    HW210620   0.960   1.640   4.569
 3241SOL     OW10621   5.645   0.627   4.041
 3241SOL    HW110622   5.555   0.591   4.017
 3241SOL    HW210623   5.716   0.571   3.999
 3242SOL     OW10624   3.895   6.826   0.387
 3242SOL    HW110625   3.849   6.910   0.361
 3242SOL    HW210626   3.880   6.807   0.484
 3243SOL     OW10627   3.354   5.253   0.529
 3243SOL    HW110628   3.443   5.226   0.492
 3243SOL    HW210629   3.290   5.178   0.519
 3244SOL     OW10630   3.050   5.895   6.697
 3244SOL    HW110631   2.977   5.949   6.658
 3244SOL    HW210632   3.109   5.953   6.753
 3245SOL     OW10633   3.824   2.600   6.470
 3245SOL    HW110634   3.771   2.586   6.554
 3245SOL    HW210635   3.781   2.552   6.394
 3246SOL     OW10636   5.663   6.343   3.470
 3246SOL    HW110637   5.586   6.301   3.423
 3246SOL    HW210638   5.643   6.439   3.488
 3247SOL     OW10639   0.582   2.786   4.218
 3247SOL    HW110640   0.654   2.728   4.256
 3247SOL    HW210641   0.610   2.881   4.224
 3248SOL     OW10642   6.217   3.860   2.113
 3248SOL    HW110643   6.178   3.935   2.059
 3248SOL    HW210644   6.169   3.775   2.091
 3249SOL     OW10645   2.218   4.254   4.886
 3249SOL    HW110646   2.222   4.159   4.918
 3249SOL    HW210647   2.215   4.316   4.964
 3250SOL     OW10648   4.286   6.317   1.819
 3250SOL    HW110649   4.380   6.313   1.785
 3250SOL    HW210650   4.287   6.323   1.918
 3251SOL     OW10651   3.266   0.671   2.910
 3251SOL    HW110652   3.292   0.577   2.888
 3251SOL    HW210653   3.171   0.686   2.879
 3252SOL     OW10654   3.230   2.115   3.181
 3252SOL    HW110655   3.326   2.142   3.174
 3252SOL    HW210656   3.202   2.065   3.099
 3253SOL     OW10657   4.688   3.248   1.286
 3253SOL    HW110658   4.603   3.201   1.265
 3253SOL    HW210659   4.745   3.253   1.204
 3254SOL     OW10660   5.016   4.587   2.568
 3254SOL    HW110661   4.930   4.543   2.595
 3254SOL    HW210662   5.021   4.591   2.469
 3255SOL     OW10663   4.428   4.810   0.564
 3255SOL    HW110664   4.527   4.817   0.576
 3255SOL    HW210665   4.401   4.865   0.485
 3256SOL     OW10666   6.642   5.926   5.271
 3256SOL    HW110667   6.618   5.945   5.366
 3256SOL    HW210668   6.739   5.945   5.257
 3257SOL     OW10669   2.104   2.040   0.582
 3257SOL    HW110670   2.026   2.093   0.550
 3257SOL    HW210671   2.189   2.083   0.550
 3258SOL     OW10672   6.218   0.325   1.654
 3258SOL    HW110673   6.184   0.337   1.561
 3258SOL    HW210674   6.190   0.402   1.711
 3259SOL     OW10675   5.177   6.730   3.418
 3259SOL    HW110676   5.092   6.740   3.469
 3259SOL    HW210677   5.254   6.729   3.481
 3260SOL     OW10678   1.595   2.486   6.711
 3260SOL    HW110679   1.527   2.454   6.646
 3260SOL    HW210680   1.684   2.447   6.688
 3261SOL     OW10681   4.246   0.292   2.590
 3261SOL    HW110682   4.258   0.268   2.494
 3261SOL    HW210683   4.154   0.266   2.620
 3262SOL     OW10684   4.044   1.582   2.894
 3262SOL    HW110685   4.064   1.678   2.878
 3262SOL    HW210686   3.954   1.573   2.937
 3263SOL     OW10687   3.815   5.885   1.655
 3263SOL    HW110688   3.809   5.861   1.752
 3263SOL    HW210689   3.902   5.853   1.618
 3264SOL     OW10690   5.055   5.259   6.542
 3264SOL    HW110691   5.129   5.317   6.510
 3264SOL    HW210692   5.067   5.240   6.639
 3265SOL     OW10693   4.613   0.092   6.569
 3265SOL    HW110694   4.669   0.073   6.650
 3265SOL    HW210695   4.590   0.007   6.523
 3266SOL     OW10696   0.340   1.446   6.220
 3266SOL    HW110697   0.417   1.490   6.173
 3266SOL    HW210698   0.258   1.501   6.207
 3267SOL     OW10699   3.332   2.635   1.282
 3267SOL    HW110700   3.269   2.615   1.207
 3267SOL    HW210701   3.329   2.561   1.349
 3268SOL     OW10702   0.396   4.342   6.366
 3268SOL    HW110703   0.312   4.314   6.414
 3268SOL    HW210704   0.405   4.288   6.282
 3269SOL     OW10705   4.741   3.235   0.734
 3269SOL    HW110706   4.697   3.317   0.699
 3269SOL    HW210707   4.839   3.251   0.745
 3270SOL     OW10708   1.180   6.492   5.008
 3270SOL    HW110709   1.239   6.536   4.941
 3270SOL    HW210710   1.143   6.561   5.070
 3271SOL     OW10711   6.022   1.855   0.939
 3271SOL    HW110712   5.963   1.779   0.915
 3271SOL    HW210713   5.981   1.908   1.014
 3272SOL     OW10714   5.173   0.246   0.264
 3272SOL    HW110715   5.077   0.246   0.289
 3272SOL    HW210716   5.224   0.186   0.326
 3273SOL     OW10717   6.410   6.622   2.193
 3273SOL    HW110718   6.416   6.721   2.201
 3273SOL    HW210719   6.490   6.580   2.235
 3274SOL     OW10720   3.482   2.109   6.466
 3274SOL    HW110721   3.492   2.087   6.563
 3274SOL    HW210722   3.520   2.200   6.449
 3275SOL     OW10723   2.911   1.477   6.725
 3275SOL    HW110724   2.954   1.434   6.804
 3275SOL    HW210725   2.940   1.430   6.641
 3276SOL     OW10726   3.098   6.481   0.337
 3276SOL    HW110727   3.137   6.441   0.420
 3276SOL    HW210728   3.169   6.487   0.266
 3277SOL     OW10729   6.869   6.731   5.234
 3277SOL    HW110730   6.872   6.738   5.333
 3277SOL    HW210731   6.817   6.808   5.197
 3278SOL     OW10732   1.184   0.949   6.710
 3278SOL    HW110733   1.247   0.932   6.787
 3278SOL    HW210734   1.208   1.037   6.668
 3279SOL     OW10735   1.677   0.111   1.029
 3279SOL    HW110736   1.602   0.121   1.094
 3279SOL    HW210737   1.760   0.083   1.078
 3280SOL     OW10738   1.520   4.655   5.940
 3280SOL    HW110739   1.587   4.647   6.013
 3280SOL    HW210740   1.531   4.579   5.876
 3281SOL     OW10741   2.643   5.915   0.088
 3281SOL    HW110742   2.725   5.864   0.061
 3281SOL    HW210743   2.670   6.003   0.128
 3282SOL     OW10744   2.147   5.630   2.756
 3282SOL    HW110745   2.145   5.719   2.801
 3282SOL    HW210746   2.220   5.574   2.795
 3283SOL     OW10747   2.383   0.480   3.623
 3283SOL    HW110748   2.479   0.485   3.596
 3283SOL    HW210749   2.337   0.409   3.569
 3284SOL     OW10750   6.485   3.571   6.967
 3284SOL    HW110751   6.529   3.632   6.901
 3284SOL    HW210752   6.394   3.545   6.934
 3285SOL     OW10753   0.169   2.009   4.128
 3285SOL    HW110754   0.100   2.008   4.055
 3285SOL    HW210755   0.242   1.945   4.106
 3286SOL     OW10756   3.306   4.108   5.464
 3286SOL    HW110757   3.255   4.026   5.439
 3286SOL    HW210758   3.399   4.083   5.490
 3287SOL     OW10759   1.305   5.232   0.770
 3287SOL    HW110760   1.270   5.297   0.703
 3287SOL    HW210761   1.282   5.262   0.862
 3288SOL     OW10762   0.459   6.425   6.666
 3288SOL    HW110763   0.378   6.428   6.607
 3288SOL    HW210764   0.529   6.366   6.626
 3289SOL     OW10765   1.981   5.549   4.518
 3289SOL    HW110766   1.935   5.495   4.448
 3289SOL    HW210767   2.031   5.489   4.581
 3290SOL     OW10768   6.863   5.099   1.251
 3290SOL    HW110769   6.806   5.022   1.224
 3290SOL    HW210770   6.878   5.158   1.172
 3291SOL     OW10771   1.973   6.780   1.305
 3291SOL    HW110772   2.027   6.800   1.386
 3291SOL    HW210773   2.028   6.730   1.239
 3292SOL     OW10774   0.762   6.233   5.883
 3292SOL    HW110775   0.744   6.228   5.784
 3292SOL    HW210776   0.796   6.325   5.905
 3293SOL     OW10777   0.102   1.053   2.924
 3293SOL    HW110778   0.121   1.065   3.022
 3293SOL    HW210779   0.134   0.964   2.895
 3294SOL     OW10780   0.597   0.234   0.157
 3294SOL    HW110781   0.584   0.324   0.197
 3294SOL    HW210782   0.652   0.177   0.219
 3295SOL     OW10783   1.113   2.645   6.480
 3295SOL    HW110784   1.026   2.622   6.523
 3295SOL    HW210785   1.155   2.563   6.443
 3296SOL     OW10786   0.753   6.762   2.708
 3296SOL    HW110787   0.846   6.759   2.671
 3296SOL    HW210788   0.747   6.699   2.786
 3297SOL     OW10789   3.409   2.653   6.554
 3297SOL    HW110790   3.405   2.611   6.644
 3297SOL    HW210791   3.367   2.592   6.487
 3298SOL     OW10792   6.216   3.401   3.275
 3298SOL    HW110793   6.313   3.401   3.301
 3298SOL    HW210794   6.168   3.471   3.327
 3299SOL     OW10795   2.330   6.913   4.955
 3299SOL    HW110796   2.308   6.817   4.973
 3299SOL    HW210797   2.257   6.953   4.899
 3300SOL     OW10798   6.320   7.009   4.773
 3300SOL    HW110799   6.245   6.949   4.743
 3300SOL    HW210800   6.316   7.018   4.873
 3301SOL     OW10801   0.445   3.759   2.554
 3301SOL    HW110802   0.470   3.700   2.631
 3301SOL    HW210803   0.513   3.832   2.545
 3302SOL     OW10804   0.986   4.511   3.721
 3302SOL    HW110805   1.055   4.562   3.670
 3302SOL    HW210806   0.924   4.575   3.766
 3303SOL     OW10807   3.640   3.676   3.021
 3303SOL    HW110808   3.554   3.640   2.988
 3303SOL    HW210809   3.633   3.696   3.119
 3304SOL     OW10810   0.818   6.033   4.831
 3304SOL    HW110811   0.838   5.954   4.772
 3304SOL    HW210812   0.771   6.103   4.777
 3305SOL     OW10813   1.737   1.066   2.122
 3305SOL    HW110814   1.637   1.065   2.123
 3305SOL    HW210815   1.770   0.989   2.176
 3306SOL     OW10816   1.041   3.447   2.968
 3306SOL    HW110817   1.038   3.365   3.025
 3306SOL    HW210818   1.027   3.422   2.872
 3307SOL     OW10819   0.648   6.095   0.038
 3307SOL    HW110820   0.612   6.184   0.065
 3307SOL    HW210821   0.611   6.070   6.970
 3308SOL     OW10822   4.230   5.879   0.581
 3308SOL    HW110823   4.248   5.976   0.565
 3308SOL    HW210824   4.315   5.833   0.605
 3309SOL     OW10825   0.252   4.817   3.250
 3309SOL    HW110826   0.215   4.907   3.272
 3309SOL    HW210827   0.178   4.750   3.249
 3310SOL     OW10828   1.342   6.615   1.794
 3310SOL    HW110829   1.380   6.595   1.704
 3310SOL    HW210830   1.243   6.627   1.786
 3311SOL     OW10831   4.070   6.357   0.756
 3311SOL    HW110832   4.153   6.414   0.754
 3311SOL    HW210833   4.065   6.304   0.671
 3312SOL     OW10834   2.712   3.487   0.119
 3312SOL    HW110835   2.754   3.408   0.164
 3312SOL    HW210836   2.624   3.506   0.162
 3313SOL     OW10837   6.789   5.144   4.414
 3313SOL    HW110838   6.837   5.230   4.429
 3313SOL    HW210839   6.855   5.072   4.394
 3314SOL     OW10840   0.708   3.307   5.602
 3314SOL    HW110841   0.741   3.217   5.632
 3314SOL    HW210842   0.619   3.297   5.557
 3315SOL     OW10843   6.805   2.020   2.950
 3315SOL    HW110844   6.748   2.092   2.988
 3315SOL    HW210845   6.827   2.041   2.855
 3316SOL     OW10846   4.785   1.179   0.337
 3316SOL    HW110847   4.697   1.227   0.346
 3316SOL    HW210848   4.844   1.229   0.274
 3317SOL     OW10849   4.083   2.656   1.550
 3317SOL    HW110850   4.123   2.634   1.461
 3317SOL    HW210851   3.995   2.610   1.559
 3318SOL     OW10852   2.935   5.503   4.815
 3318SOL    HW110853   2.877   5.467   4.889
 3318SOL    HW210854   2.979   5.427   4.768
 3319SOL     OW10855   0.277   5.834   5.114
 3319SOL    HW110856   0.235   5.746   5.096
 3319SOL    HW210857   0.369   5.820   5.151
 3320SOL     OW10858   0.217   0.877   6.590
 3320SOL    HW110859   0.259   0.810   6.651
 3320SOL    HW210860   0.282   0.904   6.520
 3321SOL     OW10861   3.600   4.135   3.799
 3321SOL    HW110862   3.652   4.195   3.738
 3321SOL    HW210863   3.641   4.137   3.890
 3322SOL     OW10864   4.394   1.814   1.563
 3322SOL    HW110865   4.390   1.887   1.495
 3322SOL    HW210866   4.440   1.734   1.524
 3323SOL     OW10867   2.103   5.089   0.420
 3323SOL    HW110868   2.071   5.102   0.514
 3323SOL    HW210869   2.080   5.169   0.366
 3324SOL     OW10870   0.553   2.126   0.465
 3324SOL    HW110871   0.507   2.203   0.422
 3324SOL    HW210872   0.555   2.048   0.401
 3325SOL     OW10873   1.901   3.127   0.831
 3325SOL    HW110874   1.804   3.101   0.826
 3325SOL    HW210875   1.927   3.177   0.749
 3326SOL     OW10876   6.605   0.825   1.813
 3326SOL    HW110877   6.587   0.881   1.894
 3326SOL    HW210878   6.694   0.779   1.824
 3327SOL     OW10879   3.001   5.932   2.109
 3327SOL    HW110880   3.004   6.013   2.168
 3327SOL    HW210881   2.996   5.850   2.166
 3328SOL     OW10882   4.352   0.948   2.488
 3328SOL    HW110883   4.345   0.907   2.397
 3328SOL    HW210884   4.319   1.042   2.485
 3329SOL     OW10885   5.229   0.855   5.178
 3329SOL    HW110886   5.212   0.765   5.139
 3329SOL    HW210887   5.322   0.859   5.214
 3330SOL     OW10888   6.909   5.646   2.669
 3330SOL    HW110889   6.873   5.695   2.748
 3330SOL    HW210890   7.009   5.643   2.674
 3331SOL     OW10891   2.150   3.397   2.939
 3331SOL    HW110892   2.179   3.361   2.851
 3331SOL    HW210893   2.155   3.497   2.938
 3332SOL     OW10894   3.406   5.043   1.105
 3332SOL    HW110895   3.402   4.965   1.042
 3332SOL    HW210896   3.407   5.128   1.052
 3333SOL     OW10897   2.623   3.113   1.744
 3333SOL    HW110898   2.717   3.085   1.766
 3333SOL    HW210899   2.616   3.213   1.750
 3334SOL     OW10900   2.140   1.932   2.446
 3334SOL    HW110901   2.230   1.910   2.407
 3334SOL    HW210902   2.068   1.896   2.387
 3335SOL     OW10903   3.919   4.271   5.529
 3335SOL    HW110904   3.878   4.192   5.574
 3335SOL    HW210905   3.941   4.248   5.434
 3336SOL     OW10906   5.078   5.579   3.753
 3336SOL    HW110907   5.111   5.578   3.848
 3336SOL    HW210908   5.155   5.593   3.691
 3337SOL     OW10909   3.376   3.433   3.191
 3337SOL    HW110910   3.348   3.338   3.208
 3337SOL    HW210911   3.441   3.434   3.115
 3338SOL     OW10912   2.810   2.700   1.632
 3338SOL    HW110913   2.772   2.700   1.539
 3338SOL    HW210914   2.777   2.619   1.681
 3339SOL     OW10915   1.707   6.870   5.916
 3339SOL    HW110916   1.761   6.919   5.848
 3339SOL    HW210917   1.730   6.773   5.912
 3340SOL     OW10918   3.865   0.910   4.371
 3340SOL    HW110919   3.895   0.870   4.284
 3340SOL    HW210920   3.839   1.006   4.356
 3341SOL     OW10921   1.757   3.904   2.894
 3341SOL    HW110922   1.787   3.975   2.957
 3341SOL    HW210923   1.757   3.815   2.940
 3342SOL     OW10924   0.137   0.610   1.978
 3342SOL    HW110925   0.204   0.548   1.937
 3342SOL    HW210926   0.154   0.616   2.076
 3343SOL     OW10927   4.810   5.165   6.199
 3343SOL    HW110928   4.865   5.083   6.215
 3343SOL    HW210929   4.863   5.246   6.224
 3344SOL     OW10930   0.160   3.087   2.287
 3344SOL    HW110931   0.200   3.134   2.208
 3344SOL    HW210932   0.106   3.152   2.341
 3345SOL     OW10933   6.150   5.162   0.370
 3345SOL    HW110934   6.172   5.259   0.361
 3345SOL    HW210935   6.221   5.107   0.326
 3346SOL     OW10936   1.844   1.246   0.666
 3346SOL    HW110937   1.859   1.306   0.745
 3346SOL    HW210938   1.906   1.169   0.670
 3347SOL     OW10939   0.367   3.611   6.077
 3347SOL    HW110940   0.461   3.631   6.050
 3347SOL    HW210941   0.367   3.541   6.149
 3348SOL     OW10942   3.554   3.695   6.231
 3348SOL    HW110943   3.594   3.683   6.140
 3348SOL    HW210944   3.586   3.781   6.270
 3349SOL     OW10945   1.630   4.547   3.850
 3349SOL    HW110946   1.561   4.576   3.916
 3349SOL    HW210947   1.621   4.450   3.832
 3350SOL     OW10948   1.258   4.401   4.593
 3350SOL    HW110949   1.167   4.431   4.566
 3350SOL    HW210950   1.327   4.442   4.534
 3351SOL     OW10951   4.755   0.888   1.544
 3351SOL    HW110952   4.793   0.868   1.453
 3351SOL    HW210953   4.824   0.872   1.614
 3352SOL     OW10954   6.370   1.394   6.963
 3352SOL    HW110955   6.420   1.460   7.019
 3352SOL    HW210956   6.374   1.304   7.007
 3353SOL     OW10957   3.019   7.018   1.258
 3353SOL    HW110958   3.010   0.072   1.322
 3353SOL    HW210959   3.069   0.027   1.177
 3354SOL     OW10960   2.922   4.571   6.359
 3354SOL    HW110961   2.850   4.527   6.413
 3354SOL    HW210962   3.011   4.551   6.399
 3355SOL     OW10963   1.768   0.846   5.071
 3355SOL    HW110964   1.851   0.873   5.022
 3355SOL    HW210965   1.688   0.861   5.012
 3356SOL     OW10966   1.755   0.295   5.745
 3356SOL    HW110967   1.736   0.269   5.650
 3356SOL    HW210968   1.853   0.308   5.757
 3357SOL     OW10969   3.074   3.153   1.939
 3357SOL    HW110970   3.142   3.151   1.866
 3357SOL    HW210971   3.025   3.240   1.936
 3358SOL     OW10972   6.721   0.532   1.292
 3358SOL    HW110973   6.650   0.464   1.272
 3358SOL    HW210974   6.753   0.520   1.386
 3359SOL     OW10975   0.261   6.667   4.534
 3359SOL    HW110976   0.212   6.580   4.528
 3359SOL    HW210977   0.311   6.684   4.449
 3360SOL     OW10978   1.013   3.262   4.354
 3360SOL    HW110979   1.047   3.179   4.310
 3360SOL    HW210980   0.961   3.317   4.288
 3361SOL     OW10981   6.607   6.815   4.768
 3361SOL    HW110982   6.564   6.900   4.740
 3361SOL    HW210983   6.539   6.754   4.810
 3362SOL     OW10984   4.001   0.830   4.153
 3362SOL    HW110985   3.993   0.734   4.127
 3362SOL    HW210986   4.046   0.881   4.080
 3363SOL     OW10987   5.865   3.942   6.955
 3363SOL    HW110988   5.829   4.000   6.882
 3363SOL    HW210989   5.955   3.907   6.928
 3364SOL     OW10990   1.834   3.455   3.256
 3364SOL    HW110991   1.789   3.423   3.339
 3364SOL    HW210992   1.816   3.391   3.182
 3365SOL     OW10993   2.262   4.075   3.279
 3365SOL    HW110994   2.289   3.982   3.304
 3365SOL    HW210995   2.195   4.109   3.345
 3366SOL     OW10996   5.963   4.119   4.170
 3366SOL    HW110997   5.973   4.124   4.269
 3366SOL    HW210998   6.051   4.138   4.126
 3367SOL     OW10999   3.712   3.573   3.633
 3367SOL    HW111000   3.704   3.546   3.729
 3367SOL    HW211001   3.719   3.673   3.627
 3368SOL     OW11002   1.577   0.097   2.105
 3368SOL    HW111003   1.563   0.054   2.016
 3368SOL    HW211004   1.673   0.085   2.132
 3369SOL     OW11005   5.091   2.098   0.601
 3369SOL    HW111006   5.141   2.143   0.526
 3369SOL    HW211007   5.151   2.031   0.645
 3370SOL     OW11008   1.001   5.489   2.765
 3370SOL    HW111009   0.984   5.583   2.795
 3370SOL    HW211010   1.093   5.481   2.729
 3371SOL     OW11011   2.249   2.779   2.548
 3371SOL    HW111012   2.162   2.815   2.513
 3371SOL    HW211013   2.302   2.740   2.473
 3372SOL     OW11014   6.272   3.607   2.834
 3372SOL    HW111015   6.236   3.525   2.789
 3372SOL    HW211016   6.343   3.648   2.776
 3373SOL     OW11017   6.498   3.090   1.498
 3373SOL    HW111018   6.507   3.185   1.469
 3373SOL    HW211019   6.439   3.084   1.578
 3374SOL     OW11020   0.382   6.935   4.057
 3374SOL    HW111021   0.410   6.839   4.054
 3374SOL    HW211022   0.383   6.967   4.151
 3375SOL     OW11023   6.799   4.613   5.844
 3375SOL    HW111024   6.728   4.682   5.826
 3375SOL    HW211025   6.882   4.658   5.876
 3376SOL     OW11026   3.081   3.409   4.357
 3376SOL    HW111027   3.008   3.472   4.330
 3376SOL    HW211028   3.053   3.359   4.439
 3377SOL     OW11029   6.477   5.033   3.416
 3377SOL    HW111030   6.426   4.968   3.360
 3377SOL    HW211031   6.428   5.120   3.419
 3378SOL     OW11032   1.291   6.284   0.561
 3378SOL    HW111033   1.342   6.369   0.545
 3378SOL    HW211034   1.355   6.208   0.571
 3379SOL     OW11035   6.895   4.040   3.412
 3379SOL    HW111036   6.806   4.030   3.366
 3379SOL    HW211037   6.966   4.056   3.344
 3380SOL     OW11038   2.938   4.617   0.297
 3380SOL    HW111039   2.840   4.624   0.283
 3380SOL    HW211040   2.962   4.524   0.322
 3381SOL     OW11041   1.675   3.456   6.376
 3381SOL    HW111042   1.658   3.473   6.279
 3381SOL    HW211043   1.769   3.483   6.398
 3382SOL     OW11044   0.082   3.501   0.422
 3382SOL    HW111045   0.155   3.504   0.491
 3382SOL    HW211046   0.111   3.443   0.346
 3383SOL     OW11047   4.454   5.465   0.419
 3383SOL    HW111048   4.356   5.446   0.432
 3383SOL    HW211049   4.508   5.389   0.456
 3384SOL     OW11050   3.010   4.213   6.501
 3384SOL    HW111051   3.057   4.158   6.432
 3384SOL    HW211052   2.915   4.184   6.507
 3385SOL     OW11053   0.310   2.207   3.731
 3385SOL    HW111054   0.294   2.297   3.692
 3385SOL    HW211055   0.345   2.217   3.825
 3386SOL     OW11056   0.740   4.544   4.964
 3386SOL    HW111057   0.648   4.506   4.953
 3386SOL    HW211058   0.754   4.568   5.060
 3387SOL     OW11059   6.166   0.756   3.110
 3387SOL    HW111060   6.130   0.732   3.201
 3387SOL    HW211061   6.201   0.673   3.066
 3388SOL     OW11062   6.640   4.039   0.892
 3388SOL    HW111063   6.603   3.961   0.842
 3388SOL    HW211064   6.600   4.041   0.984
 3389SOL     OW11065   5.733   6.254   0.147
 3389SOL    HW111066   5.685   6.316   0.086
 3389SOL    HW211067   5.753   6.168   0.100
 3390SOL     OW11068   2.830   6.188   6.016
 3390SOL    HW111069   2.827   6.197   6.116
 3390SOL    HW211070   2.787   6.102   5.989
 3391SOL     OW11071   5.684   3.517   4.276
 3391SOL    HW111072   5.777   3.524   4.313
 3391SOL    HW211073   5.671   3.586   4.205
 3392SOL     OW11074   4.713   6.856   5.855
 3392SOL    HW111075   4.701   6.948   5.892
 3392SOL    HW211076   4.624   6.809   5.855
 3393SOL     OW11077   5.175   5.835   0.831
 3393SOL    HW111078   5.108   5.816   0.903
 3393SOL    HW211079   5.129   5.833   0.742
 3394SOL     OW11080   2.476   5.416   0.764
 3394SOL    HW111081   2.471   5.379   0.672
 3394SOL    HW211082   2.385   5.441   0.796
 3395SOL     OW11083   2.280   0.205   3.412
 3395SOL    HW111084   2.220   0.284   3.408
 3395SOL    HW211085   2.251   0.137   3.344
 3396SOL     OW11086   5.052   1.363   4.483
 3396SOL    HW111087   4.969   1.340   4.432
 3396SOL    HW211088   5.029   1.374   4.580
 3397SOL     OW11089   2.391   5.801   0.184
 3397SOL    HW111090   2.403   5.829   0.279
 3397SOL    HW211091   2.475   5.823   0.133
 3398SOL     OW11092   6.588   2.438   4.920
 3398SOL    HW111093   6.495   2.447   4.884
 3398SOL    HW211094   6.586   2.389   5.007
 3399SOL     OW11095   6.529   5.909   1.680
 3399SOL    HW111096   6.513   6.004   1.707
 3399SOL    HW211097   6.442   5.860   1.677
 3400SOL     OW11098   5.032   1.968   6.036
 3400SOL    HW111099   4.961   2.024   5.993
 3400SOL    HW211100   5.077   1.913   5.966
 3401SOL     OW11101   5.970   3.423   5.524
 3401SOL    HW111102   6.026   3.417   5.606
 3401SOL    HW211103   5.901   3.493   5.535
 3402SOL     OW11104   5.859   3.431   1.368
 3402SOL    HW111105   5.924   3.460   1.298
 3402SOL    HW211106   5.811   3.511   1.403
 3403SOL     OW11107   5.330   6.589   6.495
 3403SOL    HW111108   5.415   6.536   6.491
 3403SOL    HW211109   5.305   6.605   6.590
 3404SOL     OW11110   4.949   4.269   5.107
 3404SOL    HW111111   4.992   4.330   5.040
 3404SOL    HW211112   4.993   4.179   5.103
 3405SOL     OW11113   5.277   6.237   6.822
 3405SOL    HW111114   5.364   6.247   6.869
 3405SOL    HW211115   5.232   6.152   6.851
 3406SOL     OW11116   2.402   5.441   1.621
 3406SOL    HW111117   2.367   5.533   1.639
 3406SOL    HW211118   2.337   5.392   1.563
 3407SOL     OW11119   1.045   3.727   6.845
 3407SOL    HW111120   1.116   3.672   6.801
 3407SOL    HW211121   1.008   3.793   6.779
 3408SOL     OW11122   4.888   1.008   3.090
 3408SOL    HW111123   4.831   1.090   3.098
 3408SOL    HW211124   4.943   0.998   3.172
 3409SOL     OW11125   4.295   0.374   1.149
 3409SOL    HW111126   4.394   0.379   1.162
 3409SOL    HW211127   4.274   0.319   1.068
 3410SOL     OW11128   6.287   0.519   3.523
 3410SOL    HW111129   6.368   0.526   3.581
 3410SOL    HW211130   6.217   0.467   3.571
 3411SOL     OW11131   5.630   2.998   6.971
 3411SOL    HW111132   5.608   3.092   6.944
 3411SOL    HW211133   5.698   2.998   0.023
 3412SOL     OW11134   5.611   3.035   2.141
 3412SOL    HW111135   5.584   3.066   2.050
 3412SOL    HW211136   5.703   2.994   2.135
 3413SOL     OW11137   6.986   1.937   6.890
 3413SOL    HW111138   6.930   2.010   6.850
 3413SOL    HW211139   7.016   1.875   6.818
 3414SOL     OW11140   3.093   4.313   1.218
 3414SOL    HW111141   3.123   4.260   1.296
 3414SOL    HW211142   3.014   4.268   1.175
 3415SOL     OW11143   1.610   1.426   6.511
 3415SOL    HW111144   1.661   1.487   6.451
 3415SOL    HW211145   1.673   1.373   6.567
 3416SOL     OW11146   6.003   0.031   6.830
 3416SOL    HW111147   6.026   0.128   6.826
 3416SOL    HW211148   5.924   0.013   6.771
 3417SOL     OW11149   5.276   6.422   3.585
 3417SOL    HW111150   5.322   6.358   3.524
 3417SOL    HW211151   5.183   6.438   3.552
 3418SOL     OW11152   4.431   5.344   1.098
 3418SOL    HW111153   4.457   5.248   1.107
 3418SOL    HW211154   4.454   5.378   1.007
 3419SOL     OW11155   2.520   5.477   5.368
 3419SOL    HW111156   2.487   5.538   5.295
 3419SOL    HW211157   2.443   5.427   5.407
 3420SOL     OW11158   4.592   2.223   2.288
 3420SOL    HW111159   4.676   2.271   2.312
 3420SOL    HW211160   4.513   2.277   2.318
 3421SOL     OW11161   0.041   2.716   4.017
 3421SOL    HW111162   0.093   2.769   4.083
 3421SOL    HW211163   6.993   2.774   3.975
 3422SOL     OW11164   2.144   6.525   0.645
 3422SOL    HW111165   2.122   6.428   0.631
 3422SOL    HW211166   2.243   6.538   0.644
 3423SOL     OW11167   1.427   4.315   5.691
 3423SOL    HW111168   1.436   4.282   5.597
 3423SOL    HW211169   1.498   4.382   5.710
 3424SOL     OW11170   4.255   0.945   1.847
 3424SOL    HW111171   4.282   0.878   1.778
 3424SOL    HW211172   4.320   1.021   1.846
 3425SOL     OW11173   6.118   3.886   6.868
 3425SOL    HW111174   6.152   3.966   6.918
 3425SOL    HW211175   6.146   3.802   6.915
 3426SOL     OW11176   5.418   3.498   6.604
 3426SOL    HW111177   5.489   3.542   6.660
 3426SOL    HW211178   5.452   3.409   6.572
 3427SOL     OW11179   1.011   2.606   0.834
 3427SOL    HW111180   0.952   2.594   0.913
 3427SOL    HW211181   1.071   2.527   0.825
 3428SOL     OW11182   4.948   6.267   5.213
 3428SOL    HW111183   4.871   6.205   5.226
 3428SOL    HW211184   4.926   6.334   5.143
 3429SOL     OW11185   6.152   0.060   1.175
 3429SOL    HW111186   6.098   0.089   1.096
 3429SOL    HW211187   6.110   7.001   1.216
 3430SOL     OW11188   2.284   4.593   5.324
 3430SOL    HW111189   2.335   4.530   5.265
 3430SOL    HW211190   2.333   4.605   5.411
 3431SOL     OW11191   0.505   4.493   2.592
 3431SOL    HW111192   0.431   4.452   2.645
 3431SOL    HW211193   0.589   4.438   2.604
 3432SOL     OW11194   1.437   4.160   0.047
 3432SOL    HW111195   1.343   4.188   0.067
 3432SOL    HW211196   1.497   4.239   0.050
 3433SOL     OW11197   2.788   1.759   6.767
 3433SOL    HW111198   2.730   1.764   6.685
 3433SOL    HW211199   2.824   1.666   6.776
 3434SOL     OW11200   3.679   2.595   1.748
 3434SOL    HW111201   3.681   2.665   1.820
 3434SOL    HW211202   3.702   2.506   1.788
 3435SOL     OW11203   2.595   1.060   1.005
 3435SOL    HW111204   2.600   1.056   1.105
 3435SOL    HW211205   2.608   1.154   0.974
 3436SOL     OW11206   3.928   6.928   6.391
 3436SOL    HW111207   3.915   0.004   6.406
 3436SOL    HW211208   3.950   6.912   6.295
 3437SOL     OW11209   1.562   0.073   6.375
 3437SOL    HW111210   1.649   0.080   6.424
 3437SOL    HW211211   1.491   0.122   6.426
 3438SOL     OW11212   1.607   3.626   1.214
 3438SOL    HW111213   1.631   3.531   1.197
 3438SOL    HW211214   1.655   3.685   1.149
 3439SOL     OW11215   2.313   5.526   1.914
 3439SOL    HW111216   2.393   5.489   1.960
 3439SOL    HW211217   2.269   5.594   1.973
 3440SOL     OW11218   3.734   3.737   4.682
 3440SOL    HW111219   3.829   3.771   4.685
 3440SOL    HW211220   3.672   3.811   4.708
 3441SOL     OW11221   5.681   4.892   5.721
 3441SOL    HW111222   5.735   4.967   5.759
 3441SOL    HW211223   5.683   4.896   5.621
 3442SOL     OW11224   2.899   3.211   1.191
 3442SOL    HW111225   2.883   3.125   1.142
 3442SOL    HW211226   2.877   3.198   1.288
 3443SOL     OW11227   0.911   5.921   2.442
 3443SOL    HW111228   0.818   5.906   2.411
 3443SOL    HW211229   0.911   5.937   2.541
 3444SOL     OW11230   5.824   3.632   6.673
 3444SOL    HW111231   5.826   3.560   6.742
 3444SOL    HW211232   5.907   3.686   6.679
 3445SOL     OW11233   6.158   4.689   3.452
 3445SOL    HW111234   6.078   4.672   3.509
 3445SOL    HW211235   6.235   4.717   3.510
 3446SOL     OW11236   4.990   0.968   1.381
 3446SOL    HW111237   5.053   0.955   1.458
 3446SOL    HW211238   4.995   1.063   1.350
 3447SOL     OW11239   4.845   0.700   6.355
 3447SOL    HW111240   4.750   0.688   6.384
 3447SOL    HW211241   4.903   0.638   6.408
 3448SOL     OW11242   1.884   5.110   5.101
 3448SOL    HW111243   1.813   5.040   5.101
 3448SOL    HW211244   1.843   5.200   5.092
 3449SOL     OW11245   7.020   4.538   5.344
 3449SOL    HW111246   7.005   4.591   5.427
 3449SOL    HW211247   0.002   4.599   5.265
 3450SOL     OW11248   2.558   6.062   1.722
 3450SOL    HW111249   2.533   6.061   1.625
 3450SOL    HW211250   2.625   5.990   1.741
 3451SOL     OW11251   2.217   1.689   1.799
 3451SOL    HW111252   2.223   1.700   1.700
 3451SOL    HW211253   2.276   1.613   1.828
 3452SOL     OW11254   4.438   1.376   4.579
 3452SOL    HW111255   4.493   1.422   4.510
 3452SOL    HW211256   4.460   1.278   4.580
 3453SOL     OW11257   4.099   6.585   6.148
 3453SOL    HW111258   4.142   6.548   6.231
 3453SOL    HW211259   4.094   6.685   6.155
 3454SOL     OW11260   0.144   2.882   1.015
 3454SOL    HW111261   0.210   2.907   0.945
 3454SOL    HW211262   0.057   2.927   0.996
 3455SOL     OW11263   0.672   3.002   5.315
 3455SOL    HW111264   0.611   3.062   5.265
 3455SOL    HW211265   0.666   2.909   5.279
 3456SOL     OW11266   5.641   5.588   3.520
 3456SOL    HW111267   5.655   5.604   3.618
 3456SOL    HW211268   5.627   5.676   3.474
 3457SOL     OW11269   2.983   4.644   6.667
 3457SOL    HW111270   3.029   4.577   6.610
 3457SOL    HW211271   2.896   4.607   6.699
 3458SOL     OW11272   4.073   1.143   1.736
 3458SOL    HW111273   4.134   1.069   1.763
 3458SOL    HW211274   4.071   1.150   1.636
 3459SOL     OW11275   4.574   6.102   2.494
 3459SOL    HW111276   4.591   6.025   2.555
 3459SOL    HW211277   4.476   6.120   2.490
 3460SOL     OW11278   3.776   1.989   4.704
 3460SOL    HW111279   3.823   2.066   4.746
 3460SOL    HW211280   3.798   1.985   4.607
 3461SOL     OW11281   5.678   5.403   4.784
 3461SOL    HW111282   5.708   5.339   4.855
 3461SOL    HW211283   5.612   5.358   4.724
 3462SOL     OW11284   1.061   3.751   6.155
 3462SOL    HW111285   1.051   3.749   6.254
 3462SOL    HW211286   1.126   3.681   6.126
 3463SOL     OW11287   4.822   4.064   1.478
 3463SOL    HW111288   4.842   4.161   1.489
 3463SOL    HW211289   4.887   4.024   1.412
 3464SOL     OW11290   0.250   4.588   5.099
 3464SOL    HW111291   0.280   4.494   5.116
 3464SOL    HW211292   0.325   4.651   5.120
 3465SOL     OW11293   0.890   1.216   1.927
 3465SOL    HW111294   0.983   1.188   1.903
 3465SOL    HW211295   0.831   1.206   1.847
 3466SOL     OW11296   6.439   3.892   5.449
 3466SOL    HW111297   6.368   3.918   5.514
 3466SOL    HW211298   6.429   3.946   5.366
 3467SOL     OW11299   2.094   2.813   6.847
 3467SOL    HW111300   2.079   2.829   6.750
 3467SOL    HW211301   2.006   2.810   6.895
 3468SOL     OW11302   3.876   6.342   3.030
 3468SOL    HW111303   3.798   6.282   3.051
 3468SOL    HW211304   3.842   6.432   3.004
 3469SOL     OW11305   4.900   3.399   2.747
 3469SOL    HW111306   4.909   3.394   2.847
 3469SOL    HW211307   4.942   3.484   2.714
 3470SOL     OW11308   7.017   5.382   1.320
 3470SOL    HW111309   0.031   5.360   1.411
 3470SOL    HW211310   0.015   5.307   1.257
 3471SOL     OW11311   4.364   0.305   4.799
 3471SOL    HW111312   4.279   0.348   4.769
 3471SOL    HW211313   4.377   0.323   4.897
 3472SOL     OW11314   3.775   0.859   5.494
 3472SOL    HW111315   3.681   0.824   5.492
 3472SOL    HW211316   3.839   0.783   5.481
 3473SOL     OW11317   4.985   0.687   4.724
 3473SOL    HW111318   4.922   0.622   4.682
 3473SOL    HW211319   5.075   0.644   4.735
 3474SOL     OW11320   4.702   4.559   0.521
 3474SOL    HW111321   4.717   4.468   0.559
 3474SOL    HW211322   4.636   4.554   0.446
 3475SOL     OW11323   2.104   6.122   5.136
 3475SOL    HW111324   2.124   6.025   5.125
 3475SOL    HW211325   2.059   6.138   5.224
 3476SOL     OW11326   4.844   1.637   4.281
 3476SOL    HW111327   4.899   1.668   4.203
 3476SOL    HW211328   4.787   1.712   4.313
 3477SOL     OW11329   4.631   5.922   1.604
 3477SOL    HW111330   4.680   5.869   1.535
 3477SOL    HW211331   4.653   5.887   1.695
 3478SOL     OW11332   4.012   5.097   6.670
 3478SOL    HW111333   3.985   5.110   6.574
 3478SOL    HW211334   3.978   5.008   6.701
 3479SOL     OW11335   0.521   0.427   1.858
 3479SOL    HW111336   0.457   0.383   1.921
 3479SOL    HW211337   0.537   0.521   1.888
 3480SOL     OW11338   1.643   1.236   3.898
 3480SOL    HW111339   1.729   1.213   3.851
 3480SOL    HW211340   1.600   1.314   3.852
 3481SOL     OW11341   2.539   6.932   6.520
 3481SOL    HW111342   2.638   6.942   6.534
 3481SOL    HW211343   2.520   6.921   6.423
 3482SOL     OW11344   1.191   1.822   0.991
 3482SOL    HW111345   1.137   1.903   1.015
 3482SOL    HW211346   1.166   1.746   1.052
 3483SOL     OW11347   4.009   0.938   0.835
 3483SOL    HW111348   4.063   0.854   0.827
 3483SOL    HW211349   4.040   0.989   0.915
 3484SOL     OW11350   2.972   3.677   3.391
 3484SOL    HW111351   2.958   3.660   3.488
 3484SOL    HW211352   2.988   3.775   3.376
 3485SOL     OW11353   0.007   1.451   4.943
 3485SOL    HW111354   6.963   1.412   4.879
 3485SOL    HW211355   6.982   1.512   5.007
 3486SOL     OW11356   4.599   1.607   2.549
 3486SOL    HW111357   4.601   1.699   2.588
 3486SOL    HW211358   4.521   1.556   2.585
 3487SOL     OW11359   0.376   0.727   6.773
 3487SOL    HW111360   0.461   0.767   6.806
 3487SOL    HW211361   0.317   0.705   6.851
 3488SOL     OW11362   6.122   3.273   4.061
 3488SOL    HW111363   6.221   3.284   4.051
 3488SOL    HW211364   6.080   3.363   4.070
 3489SOL     OW11365   2.655   6.645   0.900
 3489SOL    HW111366   2.740   6.695   0.916
 3489SOL    HW211367   2.581   6.689   0.950
 3490SOL     OW11368   3.577   3.032   0.694
 3490SOL    HW111369   3.569   3.026   0.793
 3490SOL    HW211370   3.544   2.947   0.652
 3491SOL     OW11371   0.030   3.231   5.090
 3491SOL    HW111372   7.012   3.227   4.999
 3491SOL    HW211373   0.130   3.227   5.083
 3492SOL     OW11374   5.729   5.057   6.452
 3492SOL    HW111375   5.694   5.066   6.359
 3492SOL    HW211376   5.699   5.135   6.507
 3493SOL     OW11377   6.723   5.160   0.426
 3493SOL    HW111378   6.703   5.234   0.490
 3493SOL    HW211379   6.818   5.166   0.397
 3494SOL     OW11380   3.342   6.720   1.306
 3494SOL    HW111381   3.380   6.672   1.385
 3494SOL    HW211382   3.243   6.724   1.313
 3495SOL     OW11383   5.180   4.877   0.713
 3495SOL    HW111384   5.251   4.876   0.784
 3495SOL    HW211385   5.222   4.866   0.623
 3496SOL     OW11386   1.589   4.376   0.358
 3496SOL    HW111387   1.525   4.388   0.282
 3496SOL    HW211388   1.546   4.405   0.443
 3497SOL     OW11389   4.666   6.609   3.735
 3497SOL    HW111390   4.680   6.534   3.800
 3497SOL    HW211391   4.689   6.696   3.779
 3498SOL     OW11392   2.084   1.221   1.784
 3498SOL    HW111393   1.991   1.201   1.814
 3498SOL    HW211394   2.082   1.257   1.690
 3499SOL     OW11395   5.911   3.762   3.605
 3499SOL    HW111396   5.812   3.756   3.598
 3499SOL    HW211397   5.940   3.727   3.694
 3500SOL     OW11398   6.326   2.906   0.865
 3500SOL    HW111399   6.338   2.922   0.963
 3500SOL    HW211400   6.349   2.989   0.815
 3501SOL     OW11401   0.904   4.400   4.179
 3501SOL    HW111402   1.001   4.424   4.182
 3501SOL    HW211403   0.894   4.302   4.191
 3502SOL     OW11404   1.083   3.714   1.554
 3502SOL    HW111405   1.139   3.783   1.600
 3502SOL    HW211406   0.993   3.710   1.597
 3503SOL     OW11407   4.770   5.963   3.622
 3503SOL    HW111408   4.791   6.058   3.642
 3503SOL    HW211409   4.855   5.910   3.618
 3504SOL     OW11410   2.147   3.340   2.675
 3504SOL    HW111411   2.209   3.408   2.637
 3504SOL    HW211412   2.055   3.354   2.638
 3505SOL     OW11413   4.807   5.376   4.770
 3505SOL    HW111414   4.708   5.375   4.754
 3505SOL    HW211415   4.836   5.469   4.792
 3506SOL     OW11416   5.829   4.972   2.380
 3506SOL    HW111417   5.744   4.942   2.336
 3506SOL    HW211418   5.887   5.019   2.313
 3507SOL     OW11419   0.771   0.753   6.187
 3507SOL    HW111420   0.696   0.814   6.161
 3507SOL    HW211421   0.817   0.791   6.268
 3508SOL     OW11422   6.023   3.177   6.628
 3508SOL    HW111423   6.064   3.135   6.547
 3508SOL    HW211424   5.942   3.229   6.601
 3509SOL     OW11425   6.983   6.633   1.083
 3509SOL    HW111426   6.982   6.534   1.065
 3509SOL    HW211427   6.994   6.683   0.997
 3510SOL     OW11428   1.699   2.903   1.638
 3510SOL    HW111429   1.611   2.920   1.683
 3510SOL    HW211430   1.709   2.966   1.561
 3511SOL     OW11431   0.519   0.879   5.191
 3511SOL    HW111432   0.435   0.900   5.241
 3511SOL    HW211433   0.552   0.962   5.146
 3512SOL     OW11434   3.558   3.470   1.448
 3512SOL    HW111435   3.534   3.481   1.352
 3512SOL    HW211436   3.476   3.446   1.500
 3513SOL     OW11437   5.999   4.518   1.319
 3513SOL    HW111438   5.939   4.541   1.242
 3513SOL    HW211439   6.027   4.603   1.365
 3514SOL     OW11440   1.485   0.019   1.580
 3514SOL    HW111441   1.565   6.986   1.556
 3514SOL    HW211442   1.403   6.985   1.569
 3515SOL     OW11443   3.039   6.312   3.348
 3515SOL    HW111444   3.041   6.228   3.294
 3515SOL    HW211445   3.016   6.290   3.443
 3516SOL     OW11446   3.458   1.133   0.761
 3516SOL    HW111447   3.401   1.053   0.744
 3516SOL    HW211448   3.401   1.214   0.769
 3517SOL     OW11449   1.164   0.695   6.646
 3517SOL    HW111450   1.173   0.792   6.666
 3517SOL    HW211451   1.206   0.641   6.719
 3518SOL     OW11452   4.610   3.070   6.180
 3518SOL    HW111453   4.512   3.052   6.170
 3518SOL    HW211454   4.651   3.076   6.089
 3519SOL     OW11455   2.522   6.888   0.999
 3519SOL    HW111456   2.559   6.959   1.059
 3519SOL    HW211457   2.476   6.931   0.921
 3520SOL     OW11458   3.707   5.607   1.477
 3520SOL    HW111459   3.705   5.569   1.385
 3520SOL    HW211460   3.728   5.705   1.473
 3521SOL     OW11461   5.425   2.421   0.225
 3521SOL    HW111462   5.345   2.427   0.286
 3521SOL    HW211463   5.463   2.512   0.212
 3522SOL     OW11464   3.148   5.438   1.552
 3522SOL    HW111465   3.116   5.457   1.459
 3522SOL    HW211466   3.122   5.345   1.578
 3523SOL     OW11467   1.999   4.698   5.538
 3523SOL    HW111468   1.960   4.606   5.542
 3523SOL    HW211469   1.977   4.740   5.450
 3524SOL     OW11470   2.759   6.521   1.842
 3524SOL    HW111471   2.704   6.465   1.904
 3524SOL    HW211472   2.824   6.463   1.793
 3525SOL     OW11473   1.575   2.908   2.469
 3525SOL    HW111474   1.645   2.837   2.476
 3525SOL    HW211475   1.519   2.909   2.552
 3526SOL     OW11476   2.678   0.235   3.185
 3526SOL    HW111477   2.763   0.288   3.187
 3526SOL    HW211478   2.626   0.258   3.103
 3527SOL     OW11479   4.732   3.477   5.917
 3527SOL    HW111480   4.808   3.428   5.959
 3527SOL    HW211481   4.648   3.458   5.966
 3528SOL     OW11482   1.171   6.377   4.477
 3528SOL    HW111483   1.212   6.353   4.565
 3528SOL    HW211484   1.111   6.456   4.489
 3529SOL     OW11485   3.501   5.993   0.426
 3529SOL    HW111486   3.461   5.944   0.503
 3529SOL    HW211487   3.428   6.033   0.371
 3530SOL     OW11488   1.405   5.488   2.891
 3530SOL    HW111489   1.338   5.508   2.819
 3530SOL    HW211490   1.496   5.514   2.859
 3531SOL     OW11491   4.164   3.823   6.694
 3531SOL    HW111492   4.172   3.920   6.714
 3531SOL    HW211493   4.087   3.785   6.746
 3532SOL     OW11494   1.948   6.861   0.414
 3532SOL    HW111495   2.029   6.813   0.381
 3532SOL    HW211496   1.943   6.854   0.514
 3533SOL     OW11497   1.567   1.541   3.780
 3533SOL    HW111498   1.495   1.497   3.727
 3533SOL    HW211499   1.655   1.530   3.734
 3534SOL     OW11500   5.347   0.974   4.890
 3534SOL    HW111501   5.294   0.970   4.806
 3534SOL    HW211502   5.418   0.903   4.887
 3535SOL     OW11503   4.225   5.785   0.098
 3535SOL    HW111504   4.137   5.739   0.087
 3535SOL    HW211505   4.226   5.835   0.184
 3536SOL     OW11506   0.862   4.360   3.153
 3536SOL    HW111507   0.832   4.267   3.177
 3536SOL    HW211508   0.914   4.399   3.228
 3537SOL     OW11509   2.366   5.059   0.468
 3537SOL    HW111510   2.271   5.092   0.460
 3537SOL    HW211511   2.381   5.023   0.560
 3538SOL     OW11512   2.930   0.651   4.208
 3538SOL    HW111513   2.869   0.730   4.201
 3538SOL    HW211514   2.909   0.585   4.136
 3539SOL     OW11515   5.404   6.249   6.573
 3539SOL    HW111516   5.353   6.233   6.657
 3539SOL    HW211517   5.500   6.267   6.595
 3540SOL     OW11518   2.755   4.107   6.507
 3540SOL    HW111519   2.767   4.024   6.562
 3540SOL    HW211520   2.736   4.082   6.412
 3541SOL     OW11521   1.960   3.015   1.630
 3541SOL    HW111522   1.886   2.980   1.687
 3541SOL    HW211523   2.015   3.079   1.682
 3542SOL     OW11524   5.628   1.231   6.257
 3542SOL    HW111525   5.550   1.200   6.202
 3542SOL    HW211526   5.644   1.328   6.241
 3543SOL     OW11527   0.361   2.048   3.447
 3543SOL    HW111528   0.407   2.047   3.536
 3543SOL    HW211529   0.315   2.136   3.436
 3544SOL     OW11530   3.134   4.010   6.736
 3544SOL    HW111531   3.193   3.986   6.813
 3544SOL    HW211532   3.066   4.078   6.766
 3545SOL     OW11533   3.880   6.632   1.435
 3545SOL    HW111534   3.950   6.567   1.465
 3545SOL    HW211535   3.836   6.673   1.515
 3546SOL     OW11536   6.946   4.415   2.317
 3546SOL    HW111537   0.024   4.419   2.331
 3546SOL    HW211538   6.926   4.365   2.233
 3547SOL     OW11539   0.622   3.558   5.008
 3547SOL    HW111540   0.599   3.488   4.940
 3547SOL    HW211541   0.709   3.535   5.052
 3548SOL     OW11542   5.556   0.437   5.479
 3548SOL    HW111543   5.648   0.398   5.472
 3548SOL    HW211544   5.514   0.440   5.388
 3549SOL     OW11545   2.797   6.917   0.557
 3549SOL    HW111546   2.773   6.913   0.654
 3549SOL    HW211547   2.747   6.992   0.514
 3550SOL     OW11548   5.733   0.830   5.256
 3550SOL    HW111549   5.744   0.875   5.345
 3550SOL    HW211550   5.759   0.893   5.183
 3551SOL     OW11551   4.678   2.123   4.467
 3551SOL    HW111552   4.594   2.090   4.510
 3551SOL    HW211553   4.744   2.048   4.461
 3552SOL     OW11554   6.560   6.970   3.371
 3552SOL    HW111555   6.464   6.983   3.349
 3552SOL    HW211556   6.568   6.932   3.464
 3553SOL     OW11557   5.437   5.860   6.803
 3553SOL    HW111558   5.460   5.957   6.810
 3553SOL    HW211559   5.520   5.805   6.816
 3554SOL     OW11560   5.750   4.031   0.489
 3554SOL    HW111561   5.715   4.123   0.471
 3554SOL    HW211562   5.818   4.006   0.420
 3555SOL     OW11563   3.047   2.146   4.877
 3555SOL    HW111564   3.117   2.206   4.916
 3555SOL    HW211565   2.977   2.201   4.831
 3556SOL     OW11566   5.444   1.166   5.907
 3556SOL    HW111567   5.501   1.113   5.970
 3556SOL    HW211568   5.405   1.245   5.955
 3557SOL     OW11569   5.972   0.468   1.121
 3557SOL    HW111570   5.960   0.540   1.189
 3557SOL    HW211571   5.884   0.427   1.099
 3558SOL     OW11572   3.358   5.515   2.089
 3558SOL    HW111573   3.410   5.431   2.104
 3558SOL    HW211574   3.311   5.511   2.002
 3559SOL     OW11575   4.857   6.745   5.653
 3559SOL    HW111576   4.797   6.795   5.715
 3559SOL    HW211577   4.811   6.730   5.566
 3560SOL     OW11578   1.845   4.927   3.640
 3560SOL    HW111579   1.850   5.027   3.644
 3560SOL    HW211580   1.899   4.894   3.563
 3561SOL     OW11581   4.621   3.728   5.359
 3561SOL    HW111582   4.535   3.703   5.403
 3561SOL    HW211583   4.637   3.667   5.281
 3562SOL     OW11584   2.249   1.712   6.022
 3562SOL    HW111585   2.167   1.664   6.054
 3562SOL    HW211586   2.305   1.649   5.968
 3563SOL     OW11587   6.131   2.761   5.307
 3563SOL    HW111588   6.120   2.762   5.407
 3563SOL    HW211589   6.115   2.853   5.271
 3564SOL     OW11590   6.042   3.486   1.771
 3564SOL    HW111591   5.952   3.477   1.729
 3564SOL    HW211592   6.055   3.413   1.839
 3565SOL     OW11593   3.703   6.248   3.974
 3565SOL    HW111594   3.719   6.333   4.024
 3565SOL    HW211595   3.632   6.195   4.020
 3566SOL     OW11596   1.700   6.649   5.249
 3566SOL    HW111597   1.634   6.697   5.307
 3566SOL    HW211598   1.792   6.681   5.269
 3567SOL     OW11599   6.770   3.185   6.183
 3567SOL    HW111600   6.699   3.127   6.144
 3567SOL    HW211601   6.757   3.193   6.282
 3568SOL     OW11602   5.511   4.075   6.295
 3568SOL    HW111603   5.466   4.148   6.244
 3568SOL    HW211604   5.443   4.022   6.346
 3569SOL     OW11605   1.872   1.414   4.342
 3569SOL    HW111606   1.959   1.375   4.372
 3569SOL    HW211607   1.836   1.475   4.413
 3570SOL     OW11608   6.288   2.043   4.055
 3570SOL    HW111609   6.263   2.133   4.019
 3570SOL    HW211610   6.339   2.054   4.140
 3571SOL     OW11611   6.250   6.214   5.590
 3571SOL    HW111612   6.191   6.289   5.562
 3571SOL    HW211613   6.269   6.221   5.688
 3572SOL     OW11614   6.311   5.863   3.938
 3572SOL    HW111615   6.314   5.900   3.845
 3572SOL    HW211616   6.382   5.905   3.993
 3573SOL     OW11617   1.381   2.010   2.733
 3573SOL    HW111618   1.419   1.961   2.654
 3573SOL    HW211619   1.424   2.099   2.741
 3574SOL     OW11620   6.812   4.226   0.732
 3574SOL    HW111621   6.908   4.202   0.715
 3574SOL    HW211622   6.768   4.152   0.783
 3575SOL     OW11623   6.385   5.625   1.659
 3575SOL    HW111624   6.353   5.537   1.624
 3575SOL    HW211625   6.407   5.616   1.756
 3576SOL     OW11626   0.258   1.751   6.358
 3576SOL    HW111627   0.232   1.685   6.288
 3576SOL    HW211628   0.245   1.844   6.324
 3577SOL     OW11629   1.533   2.877   0.024
 3577SOL    HW111630   1.485   2.900   6.961
 3577SOL    HW211631   1.576   2.959   0.061
 3578SOL     OW11632   3.658   5.233   0.782
 3578SOL    HW111633   3.644   5.161   0.713
 3578SOL    HW211634   3.682   5.318   0.736
 3579SOL     OW11635   0.214   4.513   4.681
 3579SOL    HW111636   0.166   4.460   4.751
 3579SOL    HW211637   0.149   4.569   4.630
 3580SOL     OW11638   6.630   1.985   1.854
 3580SOL    HW111639   6.542   1.938   1.843
 3580SOL    HW211640   6.654   2.031   1.768
 3581SOL     OW11641   6.708   0.668   2.855
 3581SOL    HW111642   6.702   0.601   2.929
 3581SOL    HW211643   6.748   0.753   2.890
 3582SOL     OW11644   0.787   0.711   5.920
 3582SOL    HW111645   0.775   0.675   6.013
 3582SOL    HW211646   0.858   0.660   5.873
 3583SOL     OW11647   1.731   5.792   0.490
 3583SOL    HW111648   1.660   5.814   0.423
 3583SOL    HW211649   1.809   5.751   0.443
 3584SOL     OW11650   4.538   6.241   5.842
 3584SOL    HW111651   4.517   6.158   5.790
 3584SOL    HW211652   4.625   6.278   5.810
 3585SOL     OW11653   2.664   5.059   3.679
 3585SOL    HW111654   2.693   4.966   3.653
 3585SOL    HW211655   2.741   5.107   3.722
 3586SOL     OW11656   6.875   2.220   6.122
 3586SOL    HW111657   6.891   2.121   6.127
 3586SOL    HW211658   6.831   2.252   6.206
 3587SOL     OW11659   4.129   6.846   6.158
 3587SOL    HW111660   4.225   6.873   6.163
 3587SOL    HW211661   4.072   6.927   6.150
 3588SOL     OW11662   1.784   1.339   5.574
 3588SOL    HW111663   1.743   1.365   5.661
 3588SOL    HW211664   1.830   1.250   5.584
 3589SOL     OW11665   3.304   0.581   5.148
 3589SOL    HW111666   3.386   0.635   5.165
 3589SOL    HW211667   3.327   0.484   5.150
 3590SOL     OW11668   1.780   5.285   6.063
 3590SOL    HW111669   1.870   5.330   6.068
 3590SOL    HW211670   1.786   5.207   6.001
 3591SOL     OW11671   5.330   2.632   5.217
 3591SOL    HW111672   5.298   2.726   5.208
 3591SOL    HW211673   5.377   2.605   5.133
 3592SOL     OW11674   4.766   2.771   1.977
 3592SOL    HW111675   4.710   2.730   1.906
 3592SOL    HW211676   4.743   2.867   1.987
 3593SOL     OW11677   1.782   5.353   3.157
 3593SOL    HW111678   1.832   5.267   3.147
 3593SOL    HW211679   1.763   5.370   3.253
 3594SOL     OW11680   2.949   1.197   4.160
 3594SOL    HW111681   2.916   1.246   4.240
 3594SOL    HW211682   2.871   1.166   4.105
 3595SOL     OW11683   3.194   5.793   5.397
 3595SOL    HW111684   3.118   5.764   5.454
 3595SOL    HW211685   3.208   5.891   5.407
 3596SOL     OW11686   6.882   2.835   3.049
 3596SOL    HW111687   6.902   2.748   3.003
 3596SOL    HW211688   6.795   2.828   3.097
 3597SOL     OW11689   3.650   5.830   4.082
 3597SOL    HW111690   3.666   5.740   4.042
 3597SOL    HW211691   3.637   5.898   4.009
 3598SOL     OW11692   0.822   6.856   6.819
 3598SOL    HW111693   0.766   6.827   6.741
 3598SOL    HW211694   0.888   6.925   6.788
 3599SOL     OW11695   0.513   1.756   4.164
 3599SOL    HW111696   0.451   1.760   4.086
 3599SOL    HW211697   0.480   1.817   4.237
 3600SOL     OW11698   5.577   0.997   0.636
 3600SOL    HW111699   5.573   1.087   0.593
 3600SOL    HW211700   5.485   0.957   0.637
 3601SOL     OW11701   6.312   3.756   6.102
 3601SOL    HW111702   6.276   3.828   6.041
 3601SOL    HW211703   6.267   3.763   6.191
 3602SOL     OW11704   2.051   1.421   0.314
 3602SOL    HW111705   1.977   1.377   0.366
 3602SOL    HW211706   2.036   1.519   0.311
 3603SOL     OW11707   4.078   5.027   4.714
 3603SOL    HW111708   3.987   5.006   4.750
 3603SOL    HW211709   4.094   4.976   4.630
 3604SOL     OW11710   0.571   2.862   3.248
 3604SOL    HW111711   0.584   2.907   3.337
 3604SOL    HW211712   0.641   2.894   3.184
 3605SOL     OW11713   6.047   3.791   6.615
 3605SOL    HW111714   6.074   3.830   6.703
 3605SOL    HW211715   6.109   3.717   6.591
 3606SOL     OW11716   0.698   4.630   4.611
 3606SOL    HW111717   0.719   4.721   4.646
 3606SOL    HW211718   0.602   4.628   4.581
 3607SOL     OW11719   4.756   0.032   6.791
 3607SOL    HW111720   4.837   0.090   6.782
 3607SOL    HW211721   4.725   0.034   6.886
 3608SOL     OW11722   0.994   2.395   2.440
 3608SOL    HW111723   1.091   2.393   2.465
 3608SOL    HW211724   0.938   2.376   2.520
 3609SOL     OW11725   6.823   0.318   5.156
 3609SOL    HW111726   6.885   0.382   5.110
 3609SOL    HW211727   6.849   0.224   5.134
 3610SOL     OW11728   1.151   6.646   5.226
 3610SOL    HW111729   1.058   6.668   5.197
 3610SOL    HW211730   1.150   6.561   5.278
 3611SOL     OW11731   3.506   5.608   5.494
 3611SOL    HW111732   3.520   5.676   5.421
 3611SOL    HW211733   3.483   5.520   5.452
 3612SOL     OW11734   0.988   0.239   1.508
 3612SOL    HW111735   1.067   0.179   1.515
 3612SOL    HW211736   1.012   0.330   1.544
 3613SOL     OW11737   5.007   5.604   6.525
 3613SOL    HW111738   5.084   5.636   6.580
 3613SOL    HW211739   5.000   5.505   6.532
 3614SOL     OW11740   3.501   2.945   3.491
 3614SOL    HW111741   3.458   2.922   3.403
 3614SOL    HW211742   3.579   2.884   3.506
 3615SOL     OW11743   6.338   6.242   6.494
 3615SOL    HW111744   6.436   6.256   6.484
 3615SOL    HW211745   6.289   6.314   6.445
 3616SOL     OW11746   0.120   1.907   5.735
 3616SOL    HW111747   0.194   1.887   5.671
 3616SOL    HW211748   0.034   1.872   5.698
 3617SOL     OW11749   6.733   1.181   6.230
 3617SOL    HW111750   6.765   1.191   6.324
 3617SOL    HW211751   6.660   1.112   6.226
 3618SOL     OW11752   2.446   2.107   6.373
 3618SOL    HW111753   2.445   2.126   6.274
 3618SOL    HW211754   2.537   2.074   6.399
 3619SOL     OW11755   5.989   2.182   4.235
 3619SOL    HW111756   6.022   2.261   4.287
 3619SOL    HW211757   6.002   2.199   4.138
 3620SOL     OW11758   5.984   6.661   5.362
 3620SOL    HW111759   6.022   6.748   5.330
 3620SOL    HW211760   5.884   6.664   5.358
 3621SOL     OW11761   1.678   3.553   5.655
 3621SOL    HW111762   1.771   3.525   5.631
 3621SOL    HW211763   1.683   3.629   5.720
 3622SOL     OW11764   0.379   2.858   1.388
 3622SOL    HW111765   0.410   2.822   1.476
 3622SOL    HW211766   0.284   2.831   1.372
 3623SOL     OW11767   5.970   4.649   3.633
 3623SOL    HW111768   6.015   4.637   3.721
 3623SOL    HW211769   5.903   4.723   3.639
 3624SOL     OW11770   2.815   6.852   2.277
 3624SOL    HW111771   2.838   6.921   2.346
 3624SOL    HW211772   2.760   6.780   2.319
 3625SOL     OW11773   6.774   3.563   5.107
 3625SOL    HW111774   6.763   3.470   5.141
 3625SOL    HW211775   6.859   3.570   5.055
 3626SOL     OW11776   2.443   3.771   5.324
 3626SOL    HW111777   2.429   3.855   5.271
 3626SOL    HW211778   2.384   3.699   5.289
 3627SOL     OW11779   2.956   3.818   3.133
 3627SOL    HW111780   2.949   3.738   3.192
 3627SOL    HW211781   2.866   3.839   3.094
 3628SOL     OW11782   2.406   4.805   1.908
 3628SOL    HW111783   2.376   4.863   1.832
 3628SOL    HW211784   2.422   4.862   1.989
 3629SOL     OW11785   6.006   2.143   5.371
 3629SOL    HW111786   5.960   2.232   5.362
 3629SOL    HW211787   5.988   2.089   5.289
 3630SOL     OW11788   6.179   1.918   4.400
 3630SOL    HW111789   6.241   1.964   4.336
 3630SOL    HW211790   6.128   1.987   4.451
 3631SOL     OW11791   2.011   0.994   4.766
 3631SOL    HW111792   1.945   0.965   4.696
 3631SOL    HW211793   2.095   1.025   4.722
 3632SOL     OW11794   4.604   0.795   0.326
 3632SOL    HW111795   4.567   0.887   0.314
 3632SOL    HW211796   4.550   0.746   0.396
 3633SOL     OW11797   1.965   3.091   6.021
 3633SOL    HW111798   2.055   3.117   5.984
 3633SOL    HW211799   1.934   3.007   5.976
 3634SOL     OW11800   1.612   6.448   5.020
 3634SOL    HW111801   1.608   6.540   5.059
 3634SOL    HW211802   1.569   6.384   5.083
 3635SOL     OW11803   2.422   1.399   5.650
 3635SOL    HW111804   2.477   1.482   5.651
 3635SOL    HW211805   2.341   1.413   5.592
 3636SOL     OW11806   0.905   5.285   5.799
 3636SOL    HW111807   0.867   5.297   5.707
 3636SOL    HW211808   0.986   5.227   5.794
 3637SOL     OW11809   5.348   1.107   1.785
 3637SOL    HW111810   5.368   1.122   1.689
 3637SOL    HW211811   5.263   1.154   1.809
 3638SOL     OW11812   0.228   4.292   3.586
 3638SOL    HW111813   0.187   4.203   3.569
 3638SOL    HW211814   0.317   4.280   3.630
 3639SOL     OW11815   2.511   4.932   0.705
 3639SOL    HW111816   2.479   4.837   0.704
 3639SOL    HW211817   2.504   4.968   0.798
 3640SOL     OW11818   3.598   6.076   1.089
 3640SOL    HW111819   3.568   6.003   1.150
 3640SOL    HW211820   3.615   6.039   0.997
 3641SOL     OW11821   2.427   1.385   4.677
 3641SOL    HW111822   2.499   1.398   4.746
 3641SOL    HW211823   2.470   1.365   4.589
 3642SOL     OW11824   5.373   0.516   3.985
 3642SOL    HW111825   5.305   0.479   3.922
 3642SOL    HW211826   5.328   0.543   4.070
 3643SOL     OW11827   2.781   4.929   4.713
 3643SOL    HW111828   2.772   4.892   4.805
 3643SOL    HW211829   2.877   4.952   4.696
 3644SOL     OW11830   6.895   0.825   0.738
 3644SOL    HW111831   6.892   0.866   0.646
 3644SOL    HW211832   6.963   0.752   0.740
 3645SOL     OW11833   4.172   0.506   3.467
 3645SOL    HW111834   4.078   0.508   3.432
 3645SOL    HW211835   4.231   0.559   3.407
 3646SOL     OW11836   6.884   5.040   5.392
 3646SOL    HW111837   6.936   5.099   5.453
 3646SOL    HW211838   6.816   5.095   5.342
 3647SOL     OW11839   1.844   2.984   1.400
 3647SOL    HW111840   1.889   2.992   1.489
 3647SOL    HW211841   1.860   2.892   1.363
 3648SOL     OW11842   3.456   5.860   2.262
 3648SOL    HW111843   3.452   5.846   2.163
 3648SOL    HW211844   3.412   5.946   2.286
 3649SOL     OW11845   4.011   3.222   0.630
 3649SOL    HW111846   4.084   3.287   0.609
 3649SOL    HW211847   3.941   3.227   0.559
 3650SOL     OW11848   0.317   6.092   1.639
 3650SOL    HW111849   0.383   6.091   1.714
 3650SOL    HW211850   0.276   6.001   1.629
 3651SOL     OW11851   1.670   5.908   2.964
 3651SOL    HW111852   1.624   5.972   2.902
 3651SOL    HW211853   1.619   5.904   3.050
 3652SOL     OW11854   4.513   5.593   3.115
 3652SOL    HW111855   4.416   5.613   3.127
 3652SOL    HW211856   4.524   5.520   3.047
 3653SOL     OW11857   0.360   1.625   2.852
 3653SOL    HW111858   0.285   1.563   2.828
 3653SOL    HW211859   0.373   1.625   2.951
 3654SOL     OW11860   1.262   6.818   1.470
 3654SOL    HW111861   1.352   6.819   1.425
 3654SOL    HW211862   1.211   6.900   1.443
 3655SOL     OW11863   1.967   0.628   4.802
 3655SOL    HW111864   1.992   0.559   4.870
 3655SOL    HW211865   1.868   0.628   4.790
 3656SOL     OW11866   2.060   2.785   1.847
 3656SOL    HW111867   2.146   2.741   1.822
 3656SOL    HW211868   1.985   2.742   1.797
 3657SOL     OW11869   3.961   5.970   1.143
 3657SOL    HW111870   3.879   5.929   1.104
 3657SOL    HW211871   3.940   6.062   1.177
 3658SOL     OW11872   1.083   5.957   5.865
 3658SOL    HW111873   0.984   5.969   5.866
 3658SOL    HW211874   1.104   5.860   5.875
 3659SOL     OW11875   2.342   4.377   6.672
 3659SOL    HW111876   2.391   4.464   6.673
 3659SOL    HW211877   2.408   4.302   6.667
 3660SOL     OW11878   4.603   5.583   1.919
 3660SOL    HW111879   4.678   5.587   1.853
 3660SOL    HW211880   4.527   5.639   1.887
 3661SOL     OW11881   4.843   0.918   0.384
 3661SOL    HW111882   4.764   0.862   0.357
 3661SOL    HW211883   4.822   1.014   0.367
 3662SOL     OW11884   3.059   0.218   5.490
 3662SOL    HW111885   2.987   0.190   5.553
 3662SOL    HW211886   3.045   0.174   5.402
 3663SOL     OW11887   1.436   2.545   6.908
 3663SOL    HW111888   1.503   2.519   6.839
 3663SOL    HW211889   1.420   2.644   6.903
 3664SOL     OW11890   4.867   1.533   0.611
 3664SOL    HW111891   4.840   1.536   0.515
 3664SOL    HW211892   4.907   1.621   0.637
 3665SOL     OW11893   0.431   0.316   5.056
 3665SOL    HW111894   0.490   0.388   5.020
 3665SOL    HW211895   0.370   0.282   4.984
 3666SOL     OW11896   1.958   4.222   4.368
 3666SOL    HW111897   1.940   4.249   4.274
 3666SOL    HW211898   2.024   4.285   4.409
 3667SOL     OW11899   6.324   1.064   6.569
 3667SOL    HW111900   6.255   1.135   6.554
 3667SOL    HW211901   6.412   1.107   6.590
 3668SOL     OW11902   1.007   6.698   2.480
 3668SOL    HW111903   1.104   6.723   2.483
 3668SOL    HW211904   0.996   6.603   2.507
 3669SOL     OW11905   6.800   2.894   3.339
 3669SOL    HW111906   6.711   2.849   3.339
 3669SOL    HW211907   6.788   2.993   3.340
 3670SOL     OW11908   2.030   5.700   5.764
 3670SOL    HW111909   1.944   5.737   5.728
 3670SOL    HW211910   2.080   5.772   5.811
 3671SOL     OW11911   0.945   0.501   3.244
 3671SOL    HW111912   0.898   0.580   3.205
 3671SOL    HW211913   0.944   0.506   3.343
 3672SOL     OW11914   6.925   0.668   0.394
 3672SOL    HW111915   6.868   0.744   0.424
 3672SOL    HW211916   6.886   0.581   0.427
 3673SOL     OW11917   4.703   0.565   0.134
 3673SOL    HW111918   4.767   0.527   0.066
 3673SOL    HW211919   4.753   0.591   0.216
 3674SOL     OW11920   1.204   6.624   0.402
 3674SOL    HW111921   1.171   6.705   0.353
 3674SOL    HW211922   1.159   6.619   0.491
 3675SOL     OW11923   2.184   2.294   5.446
 3675SOL    HW111924   2.087   2.289   5.468
 3675SOL    HW211925   2.223   2.378   5.483
 3676SOL     OW11926   3.106   5.326   3.675
 3676SOL    HW111927   3.119   5.402   3.612
 3676SOL    HW211928   3.011   5.323   3.705
 3677SOL     OW11929   6.327   6.342   4.079
 3677SOL    HW111930   6.287   6.415   4.024
 3677SOL    HW211931   6.420   6.323   4.046
 3678SOL     OW11932   1.329   1.915   3.592
 3678SOL    HW111933   1.406   1.881   3.645
 3678SOL    HW211934   1.306   2.008   3.620
 3679SOL     OW11935   0.315   0.950   2.125
 3679SOL    HW111936   0.228   1.000   2.131
 3679SOL    HW211937   0.366   0.983   2.045
 3680SOL     OW11938   0.064   3.346   4.133
 3680SOL    HW111939   7.004   3.311   4.179
 3680SOL    HW211940   0.141   3.286   4.151
 3681SOL     OW11941   0.239   6.716   6.147
 3681SOL    HW111942   0.158   6.701   6.090
 3681SOL    HW211943   0.217   6.779   6.222
 3682SOL     OW11944   6.346   1.889   5.975
 3682SOL    HW111945   6.334   1.977   6.020
 3682SOL    HW211946   6.440   1.858   5.988
 3683SOL     OW11947   6.040   6.708   4.445
 3683SOL    HW111948   5.991   6.781   4.398
 3683SOL    HW211949   6.136   6.708   4.417
 3684SOL     OW11950   1.223   3.395   1.996
 3684SOL    HW111951   1.241   3.299   2.013
 3684SOL    HW211952   1.293   3.433   1.936
 3685SOL     OW11953   6.036   6.224   0.117
 3685SOL    HW111954   5.972   6.279   0.171
 3685SOL    HW211955   6.095   6.285   0.064
 3686SOL     OW11956   6.504   4.668   1.561
 3686SOL    HW111957   6.513   4.572   1.534
 3686SOL    HW211958   6.524   4.727   1.482
 3687SOL     OW11959   3.642   0.619   6.906
 3687SOL    HW111960   3.565   0.682   6.913
 3687SOL    HW211961   3.726   0.670   6.892
 3688SOL     OW11962   1.644   3.380   0.254
 3688SOL    HW111963   1.643   3.427   0.166
 3688SOL    HW211964   1.599   3.436   0.323
 3689SOL     OW11965   1.256   0.703   4.311
 3689SOL    HW111966   1.241   0.791   4.266
 3689SOL    HW211967   1.326   0.653   4.262
 3690SOL     OW11968   5.432   6.969   5.893
 3690SOL    HW111969   5.498   6.910   5.939
 3690SOL    HW211970   5.404   6.927   5.807
 3691SOL     OW11971   2.432   3.411   0.206
 3691SOL    HW111972   2.379   3.328   0.187
 3691SOL    HW211973   2.403   3.449   0.293
 3692SOL     OW11974   2.057   0.117   4.999
 3692SOL    HW111975   1.983   0.176   4.966
 3692SOL    HW211976   2.120   0.097   4.924
 3693SOL     OW11977   2.960   2.177   3.213
 3693SOL    HW111978   3.056   2.150   3.219
 3693SOL    HW211979   2.929   2.214   3.300
 3694SOL     OW11980   2.096   5.934   3.686
 3694SOL    HW111981   2.027   6.005   3.672
 3694SOL    HW211982   2.187   5.974   3.677
 3695SOL     OW11983   2.137   1.945   2.707
 3695SOL    HW111984   2.167   2.035   2.737
 3695SOL    HW211985   2.138   1.940   2.608
 3696SOL     OW11986   4.373   7.012   5.832
 3696SOL    HW111987   4.325   0.076   5.817
 3696SOL    HW211988   4.331   6.963   5.909
 3697SOL     OW11989   6.535   6.976   3.928
 3697SOL    HW111990   6.555   0.014   4.005
 3697SOL    HW211991   6.567   7.018   3.843
 3698SOL     OW11992   3.090   6.962   5.650
 3698SOL    HW111993   3.159   6.967   5.723
 3698SOL    HW211994   3.010   7.015   5.677
 3699SOL     OW11995   6.975   3.903   2.890
 3699SOL    HW111996   7.019   3.988   2.918
 3699SOL    HW211997   6.997   3.830   2.954
 3700SOL     OW11998   0.033   0.239   4.349
 3700SOL    HW111999   0.118   0.269   4.392
 3700SOL    HW212000   0.051   0.161   4.290
 3701SOL     OW12001   6.139   0.982   4.492
 3701SOL    HW112002   6.177   1.072   4.470
 3701SOL    HW212003   6.146   0.922   4.412
 3702SOL     OW12004   3.882   1.013   0.601
 3702SOL    HW112005   3.925   0.991   0.689
 3702SOL    HW212006   3.886   0.933   0.541
 3703SOL     OW12007   3.533   4.268   6.429
 3703SOL    HW112008   3.602   4.335   6.456
 3703SOL    HW212009   3.477   4.243   6.508
 3704SOL     OW12010   2.768   0.482   2.856
 3704SOL    HW112011   2.743   0.424   2.933
 3704SOL    HW212012   2.850   0.446   2.812
 3705SOL     OW12013   5.184   0.344   3.862
 3705SOL    HW112014   5.126   0.292   3.924
 3705SOL    HW212015   5.195   0.293   3.776
 3706SOL     OW12016   1.883   2.656   4.241
 3706SOL    HW112017   1.902   2.635   4.337
 3706SOL    HW212018   1.796   2.615   4.214
 3707SOL     OW12019   5.383   2.750   5.860
 3707SOL    HW112020   5.308   2.703   5.906
 3707SOL    HW212021   5.352   2.780   5.769
 3708SOL     OW12022   6.132   0.682   6.710
 3708SOL    HW112023   6.132   0.677   6.610
 3708SOL    HW212024   6.227   0.682   6.743
 3709SOL     OW12025   3.703   0.488   6.250
 3709SOL    HW112026   3.786   0.526   6.210
 3709SOL    HW212027   3.623   0.534   6.210
 3710SOL     OW12028   6.793   5.165   0.771
 3710SOL    HW112029   6.743   5.090   0.815
 3710SOL    HW212030   6.730   5.222   0.719
 3711SOL     OW12031   6.726   5.517   2.401
 3711SOL    HW112032   6.773   5.604   2.418
 3711SOL    HW212033   6.789   5.441   2.420
 3712SOL     OW12034   1.519   6.673   6.786
 3712SOL    HW112035   1.556   6.743   6.725
 3712SOL    HW212036   1.578   6.663   6.866
 3713SOL     OW12037   3.797   6.005   5.861
 3713SOL    HW112038   3.893   5.988   5.836
 3713SOL    HW212039   3.749   6.044   5.782
 3714SOL     OW12040   4.146   0.422   4.697
 3714SOL    HW112041   4.154   0.503   4.754
 3714SOL    HW212042   4.165   0.446   4.602
 3715SOL     OW12043   5.411   4.842   4.672
 3715SOL    HW112044   5.352   4.845   4.591
 3715SOL    HW212045   5.484   4.776   4.656
 3716SOL     OW12046   6.944   0.105   4.585
 3716SOL    HW112047   6.966   0.192   4.542
 3716SOL    HW212048   7.001   0.033   4.545
 3717SOL     OW12049   5.859   6.262   1.405
 3717SOL    HW112050   5.816   6.286   1.318
 3717SOL    HW212051   5.899   6.344   1.446
 3718SOL     OW12052   1.463   6.052   6.909
 3718SOL    HW112053   1.439   5.965   6.952
 3718SOL    HW212054   1.493   6.117   6.980
 3719SOL     OW12055   4.089   4.974   6.130
 3719SOL    HW112056   4.181   4.944   6.106
 3719SOL    HW212057   4.091   5.022   6.217
 3720SOL     OW12058   5.904   1.168   6.044
 3720SOL    HW112059   5.901   1.144   6.141
 3720SOL    HW212060   5.958   1.251   6.031
 3721SOL     OW12061   5.501   4.854   0.591
 3721SOL    HW112062   5.405   4.873   0.567
 3721SOL    HW212063   5.548   4.940   0.609
 3722SOL     OW12064   6.644   6.421   2.563
 3722SOL    HW112065   6.589   6.346   2.525
 3722SOL    HW212066   6.583   6.488   2.605
 3723SOL     OW12067   4.569   0.368   1.137
 3723SOL    HW112068   4.574   0.466   1.120
 3723SOL    HW212069   4.655   0.325   1.110
 3724SOL     OW12070   1.408   5.747   7.008
 3724SOL    HW112071   1.309   5.746   0.002
 3724SOL    HW212072   1.446   5.656   0.001
 3725SOL     OW12073   6.825   5.895   6.309
 3725SOL    HW112074   6.836   5.919   6.213
 3725SOL    HW212075   6.779   5.806   6.317
 3726SOL     OW12076   5.514   3.579   1.883
 3726SOL    HW112077   5.495   3.481   1.891
 3726SOL    HW212078   5.444   3.630   1.934
 3727SOL     OW12079   1.573   3.065   4.762
 3727SOL    HW112080   1.634   3.109   4.697
 3727SOL    HW212081   1.608   3.077   4.855
 3728SOL     OW12082   1.953   3.081   6.745
 3728SOL    HW112083   2.034   3.139   6.738
 3728SOL    HW212084   1.878   3.121   6.693
 3729SOL     OW12085   1.307   2.096   3.233
 3729SOL    HW112086   1.314   2.000   3.263
 3729SOL    HW212087   1.243   2.145   3.292
 3730SOL     OW12088   3.331   1.309   6.763
 3730SOL    HW112089   3.327   1.228   6.705
 3730SOL    HW212090   3.294   1.387   6.714
 3731SOL     OW12091   5.078   0.237   0.564
 3731SOL    HW112092   5.084   0.140   0.589
 3731SOL    HW212093   5.008   0.249   0.494
 3732SOL     OW12094   2.242   3.572   5.211
 3732SOL    HW112095   2.252   3.651   5.151
 3732SOL    HW212096   2.190   3.501   5.163
 3733SOL     OW12097   2.938   4.125   1.596
 3733SOL    HW112098   3.032   4.157   1.608
 3733SOL    HW212099   2.934   4.027   1.611
 3734SOL     OW12100   4.725   0.773   2.307
 3734SOL    HW112101   4.666   0.853   2.320
 3734SOL    HW212102   4.802   0.777   2.371
 3735SOL     OW12103   2.686   2.322   2.403
 3735SOL    HW112104   2.735   2.242   2.369
 3735SOL    HW212105   2.690   2.395   2.335
 3736SOL     OW12106   6.182   2.263   0.890
 3736SOL    HW112107   6.231   2.205   0.955
 3736SOL    HW212108   6.092   2.286   0.927
 3737SOL     OW12109   4.797   0.152   3.433
 3737SOL    HW112110   4.806   0.237   3.382
 3737SOL    HW212111   4.701   0.126   3.438
 3738SOL     OW12112   6.747   6.519   3.515
 3738SOL    HW112113   6.649   6.532   3.522
 3738SOL    HW212114   6.766   6.427   3.482
 3739SOL     OW12115   0.647   4.014   2.259
 3739SOL    HW112116   0.552   4.029   2.287
 3739SOL    HW212117   0.666   3.916   2.260
 3740SOL     OW12118   5.566   1.478   6.786
 3740SOL    HW112119   5.467   1.476   6.771
 3740SOL    HW212120   5.590   1.415   6.860
 3741SOL     OW12121   4.574   2.970   0.287
 3741SOL    HW112122   4.596   3.020   0.371
 3741SOL    HW212123   4.653   2.973   0.225
 3742SOL     OW12124   3.680   2.481   5.822
 3742SOL    HW112125   3.647   2.482   5.728
 3742SOL    HW212126   3.626   2.544   5.877
 3743SOL     OW12127   6.714   5.042   6.760
 3743SOL    HW112128   6.807   5.080   6.755
 3743SOL    HW212129   6.718   4.950   6.799
 3744SOL     OW12130   0.362   5.268   4.000
 3744SOL    HW112131   0.403   5.344   3.950
 3744SOL    HW212132   0.389   5.181   3.958
 3745SOL     OW12133   3.447   5.672   2.735
 3745SOL    HW112134   3.429   5.583   2.693
 3745SOL    HW212135   3.516   5.662   2.807
 3746SOL     OW12136   4.616   1.667   2.000
 3746SOL    HW112137   4.668   1.752   2.007
 3746SOL    HW212138   4.620   1.618   2.086
 3747SOL     OW12139   3.421   1.127   6.949
 3747SOL    HW112140   3.384   1.199   6.891
 3747SOL    HW212141   3.512   1.101   6.916
 3748SOL     OW12142   5.724   0.649   2.968
 3748SOL    HW112143   5.749   0.736   2.924
 3748SOL    HW212144   5.632   0.622   2.939
 3749SOL     OW12145   1.888   6.696   4.766
 3749SOL    HW112146   1.917   6.669   4.674
 3749SOL    HW212147   1.903   6.794   4.778
 3750SOL     OW12148   0.133   3.737   0.784
 3750SOL    HW112149   0.086   3.700   0.864
 3750SOL    HW212150   0.231   3.745   0.803
 3751SOL     OW12151   0.289   4.387   2.689
 3751SOL    HW112152   0.339   4.308   2.653
 3751SOL    HW212153   0.194   4.361   2.706
 3752SOL     OW12154   6.490   0.767   6.563
 3752SOL    HW112155   6.570   0.710   6.547
 3752SOL    HW212156   6.412   0.730   6.512
 3753SOL     OW12157   6.705   0.475   4.243
 3753SOL    HW112158   6.761   0.474   4.326
 3753SOL    HW212159   6.618   0.429   4.260
 3754SOL     OW12160   1.926   1.949   1.098
 3754SOL    HW112161   1.968   2.016   1.160
 3754SOL    HW212162   1.978   1.864   1.101
 3755SOL     OW12163   2.698   4.690   3.594
 3755SOL    HW112164   2.602   4.693   3.567
 3755SOL    HW212165   2.756   4.707   3.514
 3756SOL     OW12166   2.818   6.698   6.835
 3756SOL    HW112167   2.875   6.683   6.916
 3756SOL    HW212168   2.876   6.723   6.758
 3757SOL     OW12169   6.070   5.210   1.567
 3757SOL    HW112170   6.119   5.154   1.500
 3757SOL    HW212171   6.133   5.235   1.641
 3758SOL     OW12172   1.919   0.419   3.539
 3758SOL    HW112173   1.975   0.475   3.478
 3758SOL    HW212174   1.961   0.328   3.548
 3759SOL     OW12175   5.302   0.173   4.525
 3759SOL    HW112176   5.353   0.140   4.605
 3759SOL    HW212177   5.274   0.268   4.541
 3760SOL     OW12178   0.557   0.607   3.274
 3760SOL    HW112179   0.628   0.540   3.253
 3760SOL    HW212180   0.572   0.690   3.220
 3761SOL     OW12181   4.947   1.015   3.834
 3761SOL    HW112182   4.958   1.092   3.896
 3761SOL    HW212183   5.035   0.970   3.820
 3762SOL     OW12184   0.449   3.015   2.004
 3762SOL    HW112185   0.496   3.008   1.916
 3762SOL    HW212186   0.425   3.110   2.022
 3763SOL     OW12187   0.649   4.770   0.634
 3763SOL    HW112188   0.589   4.778   0.713
 3763SOL    HW212189   0.720   4.840   0.639
 3764SOL     OW12190   1.998   0.250   2.833
 3764SOL    HW112191   1.971   0.204   2.918
 3764SOL    HW212192   2.014   0.347   2.852
 3765SOL     OW12193   6.034   2.674   1.715
 3765SOL    HW112194   6.097   2.698   1.788
 3765SOL    HW212195   5.957   2.738   1.715
 3766SOL     OW12196   0.687   3.361   2.968
 3766SOL    HW112197   0.659   3.376   3.063
 3766SOL    HW212198   0.758   3.290   2.965
 3767SOL     OW12199   1.691   4.447   5.760
 3767SOL    HW112200   1.711   4.539   5.795
 3767SOL    HW212201   1.746   4.380   5.810
 3768SOL     OW12202   1.089   0.330   4.306
 3768SOL    HW112203   1.030   0.264   4.261
 3768SOL    HW212204   1.033   0.404   4.344
 3769SOL     OW12205   5.603   5.862   4.647
 3769SOL    HW112206   5.591   5.927   4.572
 3769SOL    HW212207   5.593   5.769   4.611
 3770SOL     OW12208   1.512   0.989   0.767
 3770SOL    HW112209   1.417   0.985   0.797
 3770SOL    HW212210   1.563   1.052   0.826
 3771SOL     OW12211   6.552   4.685   0.725
 3771SOL    HW112212   6.460   4.671   0.688
 3771SOL    HW212213   6.600   4.754   0.670
 3772SOL     OW12214   1.741   5.983   0.696
 3772SOL    HW112215   1.695   6.069   0.673
 3772SOL    HW212216   1.737   5.922   0.618
 3773SOL     OW12217   5.198   4.076   6.160
 3773SOL    HW112218   5.231   3.983   6.177
 3773SOL    HW212219   5.106   4.086   6.198
 3774SOL     OW12220   6.346   5.412   1.493
 3774SOL    HW112221   6.371   5.332   1.439
 3774SOL    HW212222   6.276   5.464   1.445
 3775SOL     OW12223   4.248   5.121   4.183
 3775SOL    HW112224   4.303   5.059   4.239
 3775SOL    HW212225   4.293   5.133   4.094
 3776SOL     OW12226   3.591   2.902   6.758
 3776SOL    HW112227   3.567   2.832   6.825
 3776SOL    HW212228   3.517   2.968   6.750
 3777SOL     OW12229   2.960   6.521   4.374
 3777SOL    HW112230   2.929   6.481   4.288
 3777SOL    HW212231   3.006   6.608   4.356
 3778SOL     OW12232   2.961   5.446   5.682
 3778SOL    HW112233   2.983   5.355   5.717
 3778SOL    HW212234   2.886   5.439   5.616
 3779SOL     OW12235   6.794   4.844   0.107
 3779SOL    HW112236   6.859   4.903   0.059
 3779SOL    HW212237   6.779   4.761   0.054
 3780SOL     OW12238   5.534   4.056   1.522
 3780SOL    HW112239   5.633   4.060   1.505
 3780SOL    HW212240   5.503   4.145   1.557
 3781SOL     OW12241   2.933   5.823   5.104
 3781SOL    HW112242   2.844   5.807   5.061
 3781SOL    HW212243   2.927   5.901   5.166
 3782SOL     OW12244   5.017   6.163   1.900
 3782SOL    HW112245   5.066   6.227   1.841
 3782SOL    HW212246   4.921   6.189   1.905
 3783SOL     OW12247   5.121   4.941   4.783
 3783SOL    HW112248   5.058   5.007   4.743
 3783SOL    HW212249   5.215   4.976   4.777
 3784SOL     OW12250   5.960   1.705   4.421
 3784SOL    HW112251   5.906   1.713   4.505
 3784SOL    HW212252   6.029   1.778   4.419
 3785SOL     OW12253   1.423   3.809   4.675
 3785SOL    HW112254   1.450   3.845   4.765
 3785SOL    HW212255   1.504   3.785   4.623
 3786SOL     OW12256   2.457   2.452   4.918
 3786SOL    HW112257   2.515   2.518   4.964
 3786SOL    HW212258   2.472   2.457   4.819
 3787SOL     OW12259   4.231   0.078   3.019
 3787SOL    HW112260   4.196   0.125   2.939
 3787SOL    HW212261   4.232   0.141   3.097
 3788SOL     OW12262   6.590   3.691   5.503
 3788SOL    HW112263   6.641   3.712   5.586
 3788SOL    HW212264   6.533   3.769   5.478
 3789SOL     OW12265   1.503   2.516   2.419
 3789SOL    HW112266   1.593   2.542   2.383
 3789SOL    HW212267   1.479   2.574   2.496
 3790SOL     OW12268   0.889   6.580   1.309
 3790SOL    HW112269   0.973   6.630   1.286
 3790SOL    HW212270   0.910   6.483   1.318
 3791SOL     OW12271   5.007   1.116   5.983
 3791SOL    HW112272   4.962   1.028   5.981
 3791SOL    HW212273   5.088   1.114   5.924
 3792SOL     OW12274   0.012   0.684   4.022
 3792SOL    HW112275   6.988   0.595   4.025
 3792SOL    HW212276   0.110   0.671   4.034
 3793SOL     OW12277   4.825   5.386   0.044
 3793SOL    HW112278   4.829   5.299   0.093
 3793SOL    HW212279   4.731   5.421   0.046
 3794SOL     OW12280   1.481   3.999   6.401
 3794SOL    HW112281   1.455   3.910   6.363
 3794SOL    HW212282   1.499   3.989   6.499
 3795SOL     OW12283   1.841   5.799   1.960
 3795SOL    HW112284   1.831   5.716   2.015
 3795SOL    HW212285   1.768   5.863   1.983
 3796SOL     OW12286   4.277   1.630   6.767
 3796SOL    HW112287   4.269   1.626   6.667
 3796SOL    HW212288   4.278   1.725   6.796
 3797SOL     OW12289   1.109   4.441   2.875
 3797SOL    HW112290   1.030   4.493   2.908
 3797SOL    HW212291   1.083   4.391   2.793
 3798SOL     OW12292   1.622   0.120   3.354
 3798SOL    HW112293   1.616   0.030   3.398
 3798SOL    HW212294   1.633   0.191   3.424
 3799SOL     OW12295   0.070   1.768   2.661
 3799SOL    HW112296   6.992   1.773   2.660
 3799SOL    HW212297   0.105   1.763   2.568
 3800SOL     OW12298   5.852   2.076   2.979
 3800SOL    HW112299   5.901   2.102   2.897
 3800SOL    HW212300   5.758   2.052   2.956
 3801SOL     OW12301   5.269   0.533   1.911
 3801SOL    HW112302   5.307   0.454   1.960
 3801SOL    HW212303   5.326   0.613   1.928
 3802SOL     OW12304   6.141   1.994   2.387
 3802SOL    HW112305   6.128   1.954   2.296
 3802SOL    HW212306   6.108   2.088   2.387
 3803SOL     OW12307   2.878   3.687   3.896
 3803SOL    HW112308   2.935   3.744   3.955
 3803SOL    HW212309   2.802   3.650   3.950
 3804SOL     OW12310   3.382   5.989   3.545
 3804SOL    HW112311   3.332   5.958   3.465
 3804SOL    HW212312   3.442   5.916   3.577
 3805SOL     OW12313   2.726   3.028   6.902
 3805SOL    HW112314   2.691   2.939   6.875
 3805SOL    HW212315   2.708   3.042   7.000
 3806SOL     OW12316   3.692   4.384   1.019
 3806SOL    HW112317   3.702   4.380   1.118
 3806SOL    HW212318   3.747   4.313   0.976
 3807SOL     OW12319   1.896   4.335   4.084
 3807SOL    HW112320   1.985   4.294   4.063
 3807SOL    HW212321   1.876   4.409   4.020
 3808SOL     OW12322   3.752   6.550   6.931
 3808SOL    HW112323   3.714   6.560   0.001
 3808SOL    HW212324   3.703   6.610   6.868
 3809SOL     OW12325   5.074   2.322   1.443
 3809SOL    HW112326   5.080   2.236   1.493
 3809SOL    HW212327   5.154   2.378   1.464
 3810SOL     OW12328   6.382   2.065   1.423
 3810SOL    HW112329   6.306   2.013   1.383
 3810SOL    HW212330   6.382   2.053   1.522
 3811SOL     OW12331   0.172   5.437   5.237
 3811SOL    HW112332   0.229   5.357   5.257
 3811SOL    HW212333   0.206   5.515   5.289
 3812SOL     OW12334   4.872   6.852   0.779
 3812SOL    HW112335   4.858   6.753   0.786
 3812SOL    HW212336   4.906   6.887   0.866
 3813SOL     OW12337   6.645   4.412   0.582
 3813SOL    HW112338   6.557   4.392   0.624
 3813SOL    HW212339   6.717   4.361   0.629
 3814SOL     OW12340   6.571   0.059   4.677
 3814SOL    HW112341   6.576   0.037   4.580
 3814SOL    HW212342   6.475   0.071   4.703
 3815SOL     OW12343   5.577   3.685   6.829
 3815SOL    HW112344   5.566   3.730   6.917
 3815SOL    HW212345   5.664   3.711   6.787
 3816SOL     OW12346   1.249   6.172   5.946
 3816SOL    HW112347   1.203   6.099   5.896
 3816SOL    HW212348   1.346   6.152   5.953
 3817SOL     OW12349   5.142   3.525   2.407
 3817SOL    HW112350   5.051   3.546   2.372
 3817SOL    HW212351   5.140   3.438   2.457
 3818SOL     OW12352   6.813   0.531   1.547
 3818SOL    HW112353   6.837   0.616   1.595
 3818SOL    HW212354   6.762   0.471   1.608
 3819SOL     OW12355   6.529   3.909   4.119
 3819SOL    HW112356   6.606   3.958   4.159
 3819SOL    HW212357   6.521   3.819   4.161
 3820SOL     OW12358   5.258   0.179   4.837
 3820SOL    HW112359   5.198   0.195   4.916
 3820SOL    HW212360   5.317   0.259   4.824
 3821SOL     OW12361   1.559   0.330   0.252
 3821SOL    HW112362   1.485   0.264   0.265
 3821SOL    HW212363   1.575   0.380   0.337
 3822SOL     OW12364   5.096   1.328   1.207
 3822SOL    HW112365   5.040   1.272   1.268
 3822SOL    HW212366   5.087   1.424   1.232
 3823SOL     OW12367   4.904   5.212   5.915
 3823SOL    HW112368   4.943   5.158   5.989
 3823SOL    HW212369   4.943   5.304   5.916
 3824SOL     OW12370   1.880   3.478   7.013
 3824SOL    HW112371   1.951   3.445   6.951
 3824SOL    HW212372   1.903   3.451   0.085
 3825SOL     OW12373   1.447   4.240   5.423
 3825SOL    HW112374   1.512   4.209   5.353
 3825SOL    HW212375   1.373   4.173   5.430
 3826SOL     OW12376   5.707   4.130   3.264
 3826SOL    HW112377   5.738   4.133   3.169
 3826SOL    HW212378   5.727   4.039   3.302
 3827SOL     OW12379   1.720   1.171   1.620
 3827SOL    HW112380   1.700   1.196   1.715
 3827SOL    HW212381   1.761   1.248   1.572
 3828SOL     OW12382   3.717   3.626   4.433
 3828SOL    HW112383   3.728   3.646   4.530
 3828SOL    HW212384   3.675   3.704   4.387
 3829SOL     OW12385   0.629   3.954   2.620
 3829SOL    HW112386   0.680   3.934   2.704
 3829SOL    HW212387   0.577   4.038   2.632
 3830SOL     OW12388   6.976   1.292   4.385
 3830SOL    HW112389   0.001   1.223   4.441
 3830SOL    HW212390   6.908   1.247   4.327
 3831SOL     OW12391   4.318   1.747   3.270
 3831SOL    HW112392   4.277   1.832   3.235
 3831SOL    HW212393   4.284   1.670   3.218
 3832SOL     OW12394   0.216   0.774   2.843
 3832SOL    HW112395   0.294   0.752   2.900
 3832SOL    HW212396   0.200   0.700   2.777
 3833SOL     OW12397   0.684   0.928   5.704
 3833SOL    HW112398   0.742   0.878   5.768
 3833SOL    HW212399   0.655   1.014   5.745
 3834SOL     OW12400   4.774   4.191   0.418
 3834SOL    HW112401   4.790   4.257   0.491
 3834SOL    HW212402   4.856   4.183   0.362
 3835SOL     OW12403   4.125   5.868   4.705
 3835SOL    HW112404   4.038   5.886   4.751
 3835SOL    HW212405   4.159   5.778   4.732
 3836SOL     OW12406   0.067   5.587   5.873
 3836SOL    HW112407   6.991   5.605   5.889
 3836SOL    HW212408   0.114   5.672   5.851
 3837SOL     OW12409   4.334   4.929   5.209
 3837SOL    HW112410   4.277   4.913   5.128
 3837SOL    HW212411   4.294   5.002   5.264
 3838SOL     OW12412   1.334   1.827   3.327
 3838SOL    HW112413   1.417   1.795   3.283
 3838SOL    HW212414   1.356   1.865   3.417
 3839SOL     OW12415   3.951   0.752   3.020
 3839SOL    HW112416   3.883   0.788   2.955
 3839SOL    HW212417   4.040   0.794   3.002
 3840SOL     OW12418   2.791   0.971   0.069
 3840SOL    HW112419   2.776   0.965   0.168
 3840SOL    HW212420   2.723   0.915   0.021
 3841SOL     OW12421   6.905   4.332   3.337
 3841SOL    HW112422   6.861   4.294   3.256
 3841SOL    HW212423   7.002   4.305   3.339
 3842SOL     OW12424   2.322   2.991   5.380
 3842SOL    HW112425   2.359   3.009   5.289
 3842SOL    HW212426   2.341   2.896   5.406
 3843SOL     OW12427   5.255   2.456   0.433
 3843SOL    HW112428   5.306   2.407   0.504
 3843SOL    HW212429   5.261   2.554   0.449
 3844SOL     OW12430   1.625   5.463   0.254
 3844SOL    HW112431   1.564   5.434   0.327
 3844SOL    HW212432   1.604   5.413   0.170
 3845SOL     OW12433   2.768   6.410   0.928
 3845SOL    HW112434   2.864   6.440   0.922
 3845SOL    HW212435   2.708   6.489   0.914
 3846SOL     OW12436   1.135   2.501   3.736
 3846SOL    HW112437   1.194   2.526   3.659
 3846SOL    HW212438   1.061   2.567   3.745
 3847SOL     OW12439   6.420   0.909   5.794
 3847SOL    HW112440   6.411   0.982   5.727
 3847SOL    HW212441   6.493   0.932   5.858
 3848SOL     OW12442   5.356   3.687   2.552
 3848SOL    HW112443   5.323   3.781   2.540
 3848SOL    HW212444   5.295   3.624   2.504
 3849SOL     OW12445   0.016   5.992   6.488
 3849SOL    HW112446   7.003   5.947   6.406
 3849SOL    HW212447   0.020   6.091   6.473
 3850SOL     OW12448   2.510   2.627   1.269
 3850SOL    HW112449   2.449   2.551   1.290
 3850SOL    HW212450   2.506   2.648   1.172
 3851SOL     OW12451   0.240   5.485   3.117
 3851SOL    HW112452   0.308   5.483   3.190
 3851SOL    HW212453   0.286   5.470   3.029
 3852SOL     OW12454   3.584   5.752   5.291
 3852SOL    HW112455   3.542   5.826   5.344
 3852SOL    HW212456   3.614   5.788   5.202
 3853SOL     OW12457   2.580   0.981   3.708
 3853SOL    HW112458   2.572   1.079   3.726
 3853SOL    HW212459   2.532   0.958   3.624
 3854SOL     OW12460   1.763   2.687   2.515
 3854SOL    HW112461   1.783   2.589   2.514
 3854SOL    HW212462   1.753   2.717   2.610
 3855SOL     OW12463   4.439   6.599   0.512
 3855SOL    HW112464   4.433   6.586   0.413
 3855SOL    HW212465   4.472   6.691   0.532
 3856SOL     OW12466   0.520   1.883   6.373
 3856SOL    HW112467   0.437   1.830   6.388
 3856SOL    HW212468   0.538   1.890   6.275
 3857SOL     OW12469   1.953   0.908   5.770
 3857SOL    HW112470   1.857   0.933   5.760
 3857SOL    HW212471   1.980   0.915   5.866
 3858SOL     OW12472   3.844   1.439   5.005
 3858SOL    HW112473   3.908   1.387   4.948
 3858SOL    HW212474   3.759   1.454   4.956
 3859SOL     OW12475   5.362   0.427   1.130
 3859SOL    HW112476   5.304   0.379   1.196
 3859SOL    HW212477   5.303   0.479   1.067
 3860SOL     OW12478   1.770   0.675   4.379
 3860SOL    HW112479   1.785   0.709   4.472
 3860SOL    HW212480   1.824   0.728   4.314
 3861SOL     OW12481   4.283   5.504   1.475
 3861SOL    HW112482   4.307   5.599   1.495
 3861SOL    HW212483   4.300   5.447   1.555
 3862SOL     OW12484   1.051   6.666   4.074
 3862SOL    HW112485   0.985   6.673   3.999
 3862SOL    HW212486   1.113   6.589   4.057
 3863SOL     OW12487   4.493   0.666   0.719
 3863SOL    HW112488   4.549   0.741   0.756
 3863SOL    HW212489   4.414   0.705   0.671
 3864SOL     OW12490   2.199   0.299   4.578
 3864SOL    HW112491   2.249   0.357   4.512
 3864SOL    HW212492   2.239   0.311   4.669
 3865SOL     OW12493   4.381   0.411   6.950
 3865SOL    HW112494   4.387   0.317   6.916
 3865SOL    HW212495   4.433   0.472   6.890
 3866SOL     OW12496   2.631   2.907   6.314
 3866SOL    HW112497   2.729   2.913   6.332
 3866SOL    HW212498   2.582   2.885   6.399
 3867SOL     OW12499   0.891   4.020   2.562
 3867SOL    HW112500   0.804   3.982   2.591
 3867SOL    HW212501   0.928   3.967   2.486
 3868SOL     OW12502   3.790   0.811   0.161
 3868SOL    HW112503   3.723   0.738   0.176
 3868SOL    HW212504   3.788   0.839   0.066
 3869SOL     OW12505   6.313   3.096   3.772
 3869SOL    HW112506   6.280   3.147   3.693
 3869SOL    HW212507   6.348   3.161   3.841
 3870SOL     OW12508   6.409   0.119   3.598
 3870SOL    HW112509   6.443   0.196   3.544
 3870SOL    HW212510   6.317   0.094   3.567
 3871SOL     OW12511   3.084   5.926   4.052
 3871SOL    HW112512   3.047   5.836   4.027
 3871SOL    HW212513   3.184   5.920   4.057
 3872SOL     OW12514   3.380   2.894   4.207
 3872SOL    HW112515   3.453   2.961   4.221
 3872SOL    HW212516   3.330   2.916   4.123
 3873SOL     OW12517   4.942   2.479   0.488
 3873SOL    HW112518   5.034   2.486   0.527
 3873SOL    HW212519   4.878   2.453   0.560
 3874SOL     OW12520   3.965   6.910   0.840
 3874SOL    HW112521   4.027   6.969   0.892
 3874SOL    HW212522   3.889   6.881   0.899
 3875SOL     OW12523   1.717   2.084   5.074
 3875SOL    HW112524   1.663   2.130   5.145
 3875SOL    HW212525   1.784   2.148   5.036
 3876SOL     OW12526   4.589   6.419   0.984
 3876SOL    HW112527   4.495   6.384   0.984
 3876SOL    HW212528   4.620   6.430   1.078
 3877SOL     OW12529   6.803   1.837   0.556
 3877SOL    HW112530   6.736   1.765   0.574
 3877SOL    HW212531   6.846   1.866   0.641
 3878SOL     OW12532   5.048   0.346   4.701
 3878SOL    HW112533   5.129   0.399   4.677
 3878SOL    HW212534   5.076   0.258   4.740
 3879SOL     OW12535   4.998   4.744   6.685
 3879SOL    HW112536   4.917   4.725   6.741
 3879SOL    HW212537   5.055   4.812   6.731
 3880SOL     OW12538   5.548   4.307   4.824
 3880SOL    HW112539   5.473   4.275   4.881
 3880SOL    HW212540   5.534   4.404   4.802
 3881SOL     OW12541   1.123   3.809   0.541
 3881SOL    HW112542   1.210   3.858   0.530
 3881SOL    HW212543   1.054   3.850   0.482
 3882SOL     OW12544   1.125   1.125   0.651
 3882SOL    HW112545   1.181   1.136   0.733
 3882SOL    HW212546   1.052   1.060   0.670
 3883SOL     OW12547   4.551   0.285   2.992
 3883SOL    HW112548   4.494   0.254   2.916
 3883SOL    HW212549   4.503   0.268   3.079
 3884SOL     OW12550   0.626   6.150   3.491
 3884SOL    HW112551   0.567   6.204   3.549
 3884SOL    HW212552   0.715   6.196   3.480
 3885SOL     OW12553   5.774   6.885   3.310
 3885SOL    HW112554   5.871   6.912   3.308
 3885SOL    HW212555   5.726   6.941   3.377
 3886SOL     OW12556   4.563   6.531   5.587
 3886SOL    HW112557   4.481   6.492   5.545
 3886SOL    HW212558   4.549   6.628   5.606
 3887SOL     OW12559   0.645   6.234   0.972
 3887SOL    HW112560   0.615   6.285   1.053
 3887SOL    HW212561   0.743   6.249   0.958
 3888SOL     OW12562   5.864   6.252   4.133
 3888SOL    HW112563   5.794   6.217   4.070
 3888SOL    HW212564   5.947   6.273   4.081
 3889SOL     OW12565   5.966   2.716   6.904
 3889SOL    HW112566   5.928   2.751   6.818
 3889SOL    HW212567   6.066   2.710   6.897
 3890SOL     OW12568   5.337   4.498   4.693
 3890SOL    HW112569   5.331   4.507   4.594
 3890SOL    HW212570   5.285   4.572   4.736
 3891SOL     OW12571   5.514   4.146   3.921
 3891SOL    HW112572   5.581   4.166   3.993
 3891SOL    HW212573   5.487   4.232   3.876
 3892SOL     OW12574   6.904   2.492   1.007
 3892SOL    HW112575   6.927   2.418   0.944
 3892SOL    HW212576   6.959   2.483   1.090
 3893SOL     OW12577   4.604   3.599   1.071
 3893SOL    HW112578   4.688   3.652   1.073
 3893SOL    HW212579   4.623   3.506   1.040
 3894SOL     OW12580   5.075   0.826   6.213
 3894SOL    HW112581   5.151   0.764   6.232
 3894SOL    HW212582   4.992   0.794   6.259
 3895SOL     OW12583   1.433   0.052   5.266
 3895SOL    HW112584   1.348   0.003   5.245
 3895SOL    HW212585   1.411   0.134   5.319
 3896SOL     OW12586   0.829   1.220   6.794
 3896SOL    HW112587   0.847   1.300   6.851
 3896SOL    HW212588   0.882   1.142   6.827
 3897SOL     OW12589   4.382   5.733   1.565
 3897SOL    HW112590   4.394   5.716   1.663
 3897SOL    HW212591   4.444   5.806   1.537
 3898SOL     OW12592   3.889   2.523   0.096
 3898SOL    HW112593   3.964   2.501   0.033
 3898SOL    HW212594   3.923   2.521   0.190
 3899SOL     OW12595   4.666   6.603   6.021
 3899SOL    HW112596   4.722   6.582   5.941
 3899SOL    HW212597   4.571   6.575   6.003
 3900SOL     OW12598   5.288   3.865   4.101
 3900SOL    HW112599   5.225   3.916   4.160
 3900SOL    HW212600   5.274   3.894   4.006
 3901SOL     OW12601   3.448   0.294   6.042
 3901SOL    HW112602   3.543   0.322   6.027
 3901SOL    HW212603   3.426   0.218   5.981
 3902SOL     OW12604   5.746   3.181   2.502
 3902SOL    HW112605   5.746   3.281   2.501
 3902SOL    HW212606   5.661   3.148   2.460
 3903SOL     OW12607   4.046   6.475   0.304
 3903SOL    HW112608   3.964   6.514   0.262
 3903SOL    HW212609   4.053   6.507   0.399
 3904SOL     OW12610   0.962   0.710   6.470
 3904SOL    HW112611   0.927   0.802   6.488
 3904SOL    HW212612   1.032   0.687   6.537
 3905SOL     OW12613   6.701   6.390   6.699
 3905SOL    HW112614   6.735   6.481   6.726
 3905SOL    HW212615   6.778   6.331   6.678
 3906SOL     OW12616   5.471   6.124   6.173
 3906SOL    HW112617   5.568   6.142   6.159
 3906SOL    HW212618   5.430   6.097   6.086
 3907SOL     OW12619   5.611   1.656   3.820
 3907SOL    HW112620   5.669   1.608   3.887
 3907SOL    HW212621   5.616   1.609   3.732
 3908SOL     OW12622   0.914   2.404   6.899
 3908SOL    HW112623   1.005   2.444   6.892
 3908SOL    HW212624   0.921   2.311   6.937
 3909SOL     OW12625   5.130   5.705   4.453
 3909SOL    HW112626   5.058   5.775   4.449
 3909SOL    HW212627   5.155   5.689   4.549
 3910SOL     OW12628   3.567   4.166   2.581
 3910SOL    HW112629   3.542   4.177   2.678
 3910SOL    HW212630   3.666   4.167   2.572
 3911SOL     OW12631   6.335   1.626   4.995
 3911SOL    HW112632   6.281   1.542   5.003
 3911SOL    HW212633   6.333   1.658   4.900
 3912SOL     OW12634   5.091   2.170   4.982
 3912SOL    HW112635   5.091   2.072   4.999
 3912SOL    HW212636   5.013   2.212   5.028
 3913SOL     OW12637   1.714   0.337   6.717
 3913SOL    HW112638   1.800   0.313   6.764
 3913SOL    HW212639   1.643   0.355   6.785
 3914SOL     OW12640   3.017   0.326   0.277
 3914SOL    HW112641   3.104   0.287   0.247
 3914SOL    HW212642   2.950   0.253   0.287
 3915SOL     OW12643   5.795   5.766   1.173
 3915SOL    HW112644   5.723   5.813   1.224
 3915SOL    HW212645   5.767   5.672   1.154
 3916SOL     OW12646   0.961   0.153   3.002
 3916SOL    HW112647   1.008   0.232   2.961
 3916SOL    HW212648   0.921   0.180   3.090
 3917SOL     OW12649   1.319   6.549   6.919
 3917SOL    HW112650   1.378   6.582   6.845
 3917SOL    HW212651   1.224   6.557   6.892
 3918SOL     OW12652   5.303   5.036   1.459
 3918SOL    HW112653   5.360   5.064   1.537
 3918SOL    HW212654   5.259   5.117   1.420
 3919SOL     OW12655   4.027   0.090   0.629
 3919SOL    HW112656   3.984   0.086   0.539
 3919SOL    HW212657   3.974   0.036   0.694
 3920SOL     OW12658   2.360   3.516   0.470
 3920SOL    HW112659   2.346   3.473   0.559
 3920SOL    HW212660   2.420   3.595   0.480
 3921SOL     OW12661   0.311   3.974   1.188
 3921SOL    HW112662   0.362   4.056   1.164
 3921SOL    HW212663   0.375   3.898   1.204
 3922SOL     OW12664   6.854   4.042   2.153
 3922SOL    HW112665   6.830   3.981   2.077
 3922SOL    HW212666   6.905   3.991   2.221
 3923SOL     OW12667   0.500   0.682   0.791
 3923SOL    HW112668   0.552   0.637   0.718
 3923SOL    HW212669   0.403   0.660   0.781
 3924SOL     OW12670   5.962   4.598   4.227
 3924SOL    HW112671   6.042   4.564   4.178
 3924SOL    HW212672   5.980   4.598   4.326
 3925SOL     OW12673   1.166   4.532   1.515
 3925SOL    HW112674   1.243   4.589   1.543
 3925SOL    HW212675   1.184   4.495   1.424
 3926SOL     OW12676   4.420   4.991   2.229
 3926SOL    HW112677   4.354   4.921   2.201
 3926SOL    HW212678   4.511   4.951   2.233
 3927SOL     OW12679   6.357   2.284   5.319
 3927SOL    HW112680   6.433   2.279   5.254
 3927SOL    HW212681   6.306   2.198   5.317
 3928SOL     OW12682   4.518   6.201   6.709
 3928SOL    HW112683   4.523   6.297   6.737
 3928SOL    HW212684   4.541   6.193   6.613
 3929SOL     OW12685   1.183   0.366   4.975
 3929SOL    HW112686   1.254   0.427   5.012
 3929SOL    HW212687   1.216   0.323   4.891
 3930SOL     OW12688   2.702   2.262   4.545
 3930SOL    HW112689   2.801   2.258   4.561
 3930SOL    HW212690   2.685   2.298   4.453
 3931SOL     OW12691   1.055   1.377   1.565
 3931SOL    HW112692   1.142   1.389   1.613
 3931SOL    HW212693   0.980   1.399   1.627
 3932SOL     OW12694   0.800   3.392   3.492
 3932SOL    HW112695   0.852   3.403   3.576
 3932SOL    HW212696   0.852   3.338   3.426
 3933SOL     OW12697   2.505   6.925   6.260
 3933SOL    HW112698   2.502   7.005   6.201
 3933SOL    HW212699   2.501   6.842   6.204
 3934SOL     OW12700   6.186   6.788   6.346
 3934SOL    HW112701   6.156   6.814   6.254
 3934SOL    HW212702   6.116   6.812   6.412
 3935SOL     OW12703   3.797   6.920   0.046
 3935SOL    HW112704   3.819   6.986   6.996
 3935SOL    HW212705   3.865   6.847   0.045
 3936SOL     OW12706   6.660   5.196   4.679
 3936SOL    HW112707   6.573   5.150   4.701
 3936SOL    HW212708   6.685   5.176   4.585
 3937SOL     OW12709   0.328   2.008   2.579
 3937SOL    HW112710   0.335   1.955   2.664
 3937SOL    HW212711   0.418   2.043   2.554
 3938SOL     OW12712   1.314   1.355   3.364
 3938SOL    HW112713   1.352   1.415   3.294
 3938SOL    HW212714   1.215   1.347   3.352
 3939SOL     OW12715   2.631   2.418   2.710
 3939SOL    HW112716   2.649   2.475   2.630
 3939SOL    HW212717   2.699   2.345   2.716
 3940SOL     OW12718   4.107   3.892   1.025
 3940SOL    HW112719   4.200   3.928   1.019
 3940SOL    HW212720   4.082   3.850   0.938
 3941SOL     OW12721   5.060   4.981   6.055
 3941SOL    HW112722   5.131   5.043   6.091
 3941SOL    HW212723   5.040   4.911   6.124
 3942SOL     OW12724   0.222   5.746   6.935
 3942SOL    HW112725   0.132   5.707   6.956
 3942SOL    HW212726   0.222   5.779   6.840
 3943SOL     OW12727   0.921   2.830   4.324
 3943SOL    HW112728   1.000   2.841   4.385
 3943SOL    HW212729   0.879   2.740   4.340
 3944SOL     OW12730   4.822   2.811   5.027
 3944SOL    HW112731   4.859   2.904   5.029
 3944SOL    HW212732   4.768   2.795   5.110
 3945SOL     OW12733   0.300   1.863   0.453
 3945SOL    HW112734   0.364   1.910   0.392
 3945SOL    HW212735   0.308   1.902   0.545
 3946SOL     OW12736   5.166   4.210   4.084
 3946SOL    HW112737   5.105   4.131   4.080
 3946SOL    HW212738   5.251   4.185   4.131
 3947SOL     OW12739   4.874   6.189   6.673
 3947SOL    HW112740   4.953   6.199   6.612
 3947SOL    HW212741   4.792   6.223   6.627
 3948SOL     OW12742   6.983   4.759   2.054
 3948SOL    HW112743   6.890   4.764   2.017
 3948SOL    HW212744   7.008   4.664   2.069
 3949SOL     OW12745   5.140   5.513   2.955
 3949SOL    HW112746   5.104   5.423   2.979
 3949SOL    HW212747   5.171   5.513   2.860
 3950SOL     OW12748   1.060   5.155   0.325
 3950SOL    HW112749   1.114   5.202   0.255
 3950SOL    HW212750   1.116   5.085   0.369
 3951SOL     OW12751   5.178   0.429   1.681
 3951SOL    HW112752   5.199   0.482   1.763
 3951SOL    HW212753   5.134   0.343   1.707
 3952SOL     OW12754   0.256   2.551   1.312
 3952SOL    HW112755   0.265   2.452   1.299
 3952SOL    HW212756   0.324   2.583   1.378
 3953SOL     OW12757   3.916   4.077   1.139
 3953SOL    HW112758   3.960   3.999   1.094
 3953SOL    HW212759   3.897   4.055   1.234
 3954SOL     OW12760   3.869   5.574   5.831
 3954SOL    HW112761   3.863   5.503   5.901
 3954SOL    HW212762   3.778   5.607   5.808
 3955SOL     OW12763   2.862   1.276   6.178
 3955SOL    HW112764   2.797   1.306   6.248
 3955SOL    HW212765   2.873   1.177   6.183
 3956SOL     OW12766   1.430   0.976   2.297
 3956SOL    HW112767   1.518   0.952   2.336
 3956SOL    HW212768   1.357   0.952   2.361
 3957SOL     OW12769   3.945   0.407   4.347
 3957SOL    HW112770   3.879   0.370   4.412
 3957SOL    HW212771   4.003   0.475   4.392
 3958SOL     OW12772   6.198   1.636   4.011
 3958SOL    HW112773   6.297   1.650   4.014
 3958SOL    HW212774   6.156   1.704   3.952
 3959SOL     OW12775   5.663   5.093   0.274
 3959SOL    HW112776   5.583   5.045   0.239
 3959SOL    HW212777   5.734   5.027   0.298
 3960SOL     OW12778   5.158   1.659   5.395
 3960SOL    HW112779   5.185   1.585   5.333
 3960SOL    HW212780   5.220   1.737   5.384
 3961SOL     OW12781   4.964   0.710   3.190
 3961SOL    HW112782   4.921   0.638   3.245
 3961SOL    HW212783   4.982   0.789   3.249
 3962SOL     OW12784   1.331   4.847   6.121
 3962SOL    HW112785   1.328   4.752   6.087
 3962SOL    HW212786   1.415   4.890   6.089
 3963SOL     OW12787   4.458   5.734   2.348
 3963SOL    HW112788   4.438   5.638   2.332
 3963SOL    HW212789   4.410   5.791   2.281
 3964SOL     OW12790   4.928   4.527   3.433
 3964SOL    HW112791   4.855   4.473   3.393
 3964SOL    HW212792   4.912   4.624   3.414
 3965SOL     OW12793   4.960   3.422   4.336
 3965SOL    HW112794   5.059   3.407   4.325
 3965SOL    HW212795   4.912   3.375   4.262
 3966SOL     OW12796   3.742   6.099   6.956
 3966SOL    HW112797   3.804   6.175   6.977
 3966SOL    HW212798   3.670   6.094   0.003
 3967SOL     OW12799   2.098   4.290   1.830
 3967SOL    HW112800   2.136   4.378   1.802
 3967SOL    HW212801   2.071   4.238   1.748
 3968SOL     OW12802   4.818   0.445   0.811
 3968SOL    HW112803   4.744   0.435   0.878
 3968SOL    HW212804   4.858   0.536   0.819
 3969SOL     OW12805   1.155   4.805   2.100
 3969SOL    HW112806   1.121   4.725   2.050
 3969SOL    HW212807   1.197   4.869   2.036
 3970SOL     OW12808   5.261   6.025   2.656
 3970SOL    HW112809   5.283   5.928   2.669
 3970SOL    HW212810   5.189   6.033   2.588
 3971SOL     OW12811   2.680   5.724   4.507
 3971SOL    HW112812   2.593   5.772   4.505
 3971SOL    HW212813   2.718   5.720   4.415
 3972SOL     OW12814   1.577   3.997   6.682
 3972SOL    HW112815   1.670   3.966   6.662
 3972SOL    HW212816   1.560   3.989   6.780
 3973SOL     OW12817   0.930   5.383   0.741
 3973SOL    HW112818   0.895   5.476   0.735
 3973SOL    HW212819   0.926   5.340   0.651
 3974SOL     OW12820   2.036   0.494   5.994
 3974SOL    HW112821   1.958   0.546   6.028
 3974SOL    HW212822   2.004   0.421   5.934
 3975SOL     OW12823   5.121   1.572   6.417
 3975SOL    HW112824   5.021   1.569   6.425
 3975SOL    HW212825   5.156   1.480   6.402
 3976SOL     OW12826   2.061   6.438   3.018
 3976SOL    HW112827   2.137   6.501   3.005
 3976SOL    HW212828   1.981   6.471   2.967
 3977SOL     OW12829   1.114   3.432   6.474
 3977SOL    HW112830   1.014   3.425   6.478
 3977SOL    HW212831   1.148   3.383   6.394
 3978SOL     OW12832   6.511   4.522   3.229
 3978SOL    HW112833   6.424   4.483   3.257
 3978SOL    HW212834   6.502   4.621   3.221
 3979SOL     OW12835   3.753   1.452   6.231
 3979SOL    HW112836   3.799   1.394   6.163
 3979SOL    HW212837   3.665   1.484   6.194
 3980SOL     OW12838   5.603   6.460   6.534
 3980SOL    HW112839   5.597   6.469   6.435
 3980SOL    HW212840   5.615   6.551   6.574
 3981SOL     OW12841   4.670   5.951   0.670
 3981SOL    HW112842   4.621   6.037   0.664
 3981SOL    HW212843   4.681   5.911   0.579
 3982SOL     OW12844   2.428   0.034   2.682
 3982SOL    HW112845   2.346   0.089   2.696
 3982SOL    HW212846   2.510   0.091   2.689
 3983SOL     OW12847   5.341   5.037   3.882
 3983SOL    HW112848   5.411   5.022   3.952
 3983SOL    HW212849   5.255   4.996   3.912
 3984SOL     OW12850   6.334   0.908   2.516
 3984SOL    HW112851   6.259   0.947   2.571
 3984SOL    HW212852   6.414   0.895   2.575
 3985SOL     OW12853   3.498   5.373   6.872
 3985SOL    HW112854   3.475   5.342   6.780
 3985SOL    HW212855   3.417   5.367   6.931
 3986SOL     OW12856   4.823   1.963   2.936
 3986SOL    HW112857   4.760   1.888   2.954
 3986SOL    HW212858   4.773   2.040   2.896
 3987SOL     OW12859   3.439   4.906   4.388
 3987SOL    HW112860   3.452   4.933   4.293
 3987SOL    HW212861   3.473   4.813   4.402
 3988SOL     OW12862   3.982   5.250   0.060
 3988SOL    HW112863   3.930   5.273   6.999
 3988SOL    HW212864   3.948   5.164   0.098
 3989SOL     OW12865   6.518   2.262   6.887
 3989SOL    HW112866   6.433   2.240   6.841
 3989SOL    HW212867   6.503   2.267   6.986
 3990SOL     OW12868   5.124   2.406   1.780
 3990SOL    HW112869   5.048   2.467   1.759
 3990SOL    HW212870   5.089   2.325   1.829
 3991SOL     OW12871   0.309   1.440   1.773
 3991SOL    HW112872   0.347   1.531   1.755
 3991SOL    HW212873   0.284   1.397   1.686
 3992SOL     OW12874   3.094   2.216   0.954
 3992SOL    HW112875   3.013   2.185   1.004
 3992SOL    HW212876   3.088   2.184   0.859
 3993SOL     OW12877   1.537   2.445   1.940
 3993SOL    HW112878   1.634   2.464   1.928
 3993SOL    HW212879   1.500   2.501   2.014
 3994SOL     OW12880   2.945   0.421   5.695
 3994SOL    HW112881   2.993   0.355   5.636
 3994SOL    HW212882   3.011   0.461   5.759
 3995SOL     OW12883   1.712   3.167   5.746
 3995SOL    HW112884   1.682   3.082   5.789
 3995SOL    HW212885   1.800   3.194   5.784
 3996SOL     OW12886   0.610   6.831   5.815
 3996SOL    HW112887   0.577   6.899   5.750
 3996SOL    HW212888   0.665   6.763   5.767
 3997SOL     OW12889   5.830   1.439   4.412
 3997SOL    HW112890   5.871   1.492   4.338
 3997SOL    HW212891   5.759   1.379   4.374
 3998SOL     OW12892   3.361   1.441   4.293
 3998SOL    HW112893   3.382   1.492   4.210
 3998SOL    HW212894   3.300   1.496   4.351
 3999SOL     OW12895   5.942   2.661   4.284
 3999SOL    HW112896   6.009   2.719   4.237
 3999SOL    HW212897   5.849   2.690   4.259
 4000SOL     OW12898   3.412   6.754   3.703
 4000SOL    HW112899   3.478   6.775   3.631
 4000SOL    HW212900   3.343   6.825   3.707
 4001SOL     OW12901   2.409   1.906   4.033
 4001SOL    HW112902   2.361   1.974   3.977
 4001SOL    HW212903   2.483   1.951   4.083
 4002SOL     OW12904   2.614   3.756   1.628
 4002SOL    HW112905   2.634   3.692   1.553
 4002SOL    HW212906   2.672   3.735   1.706
 4003SOL     OW12907   3.155   0.115   4.206
 4003SOL    HW112908   3.174   0.073   4.118
 4003SOL    HW212909   3.057   0.134   4.213
 4004SOL     OW12910   6.571   2.176   4.512
 4004SOL    HW112911   6.639   2.195   4.583
 4004SOL    HW212912   6.522   2.260   4.489
 4005SOL     OW12913   4.771   5.994   5.965
 4005SOL    HW112914   4.698   5.946   5.916
 4005SOL    HW212915   4.742   6.087   5.987
 4006SOL     OW12916   3.675   5.108   2.402
 4006SOL    HW112917   3.649   5.041   2.332
 4006SOL    HW212918   3.601   5.117   2.469
 4007SOL     OW12919   0.222   2.693   6.792
 4007SOL    HW112920   0.155   2.714   6.863
 4007SOL    HW212921   0.293   2.764   6.792
 4008SOL     OW12922   2.747   2.253   4.857
 4008SOL    HW112923   2.785   2.269   4.766
 4008SOL    HW212924   2.647   2.253   4.852
 4009SOL     OW12925   4.141   3.518   2.467
 4009SOL    HW112926   4.117   3.451   2.397
 4009SOL    HW212927   4.166   3.470   2.551
 4010SOL     OW12928   2.553   3.127   1.416
 4010SOL    HW112929   2.475   3.189   1.430
 4010SOL    HW212930   2.572   3.078   1.501
 4011SOL     OW12931   0.848   2.064   1.642
 4011SOL    HW112932   0.936   2.063   1.689
 4011SOL    HW212933   0.845   2.141   1.578
 4012SOL     OW12934   6.717   4.535   2.320
 4012SOL    HW112935   6.801   4.481   2.310
 4012SOL    HW212936   6.715   4.607   2.251
 4013SOL     OW12937   4.434   2.068   4.113
 4013SOL    HW112938   4.353   2.115   4.079
 4013SOL    HW212939   4.470   2.116   4.193
 4014SOL     OW12940   5.995   6.567   2.726
 4014SOL    HW112941   5.985   6.552   2.628
 4014SOL    HW212942   6.091   6.557   2.752
 4015SOL     OW12943   4.605   4.221   6.131
 4015SOL    HW112944   4.703   4.240   6.130
 4015SOL    HW212945   4.555   4.301   6.164
 4016SOL     OW12946   3.186   6.057   5.803
 4016SOL    HW112947   3.216   5.973   5.757
 4016SOL    HW212948   3.140   6.033   5.889
 4017SOL     OW12949   6.991   5.644   6.989
 4017SOL    HW112950   6.920   5.637   6.919
 4017SOL    HW212951   6.973   5.576   0.039
 4018SOL     OW12952   4.111   5.817   1.580
 4018SOL    HW112953   4.209   5.807   1.600
 4018SOL    HW212954   4.098   5.824   1.482
 4019SOL     OW12955   5.686   4.368   2.648
 4019SOL    HW112956   5.650   4.462   2.652
 4019SOL    HW212957   5.779   4.367   2.683
 4020SOL     OW12958   5.042   2.600   5.112
 4020SOL    HW112959   5.137   2.628   5.123
 4020SOL    HW212960   4.988   2.676   5.075
 4021SOL     OW12961   3.173   5.000   5.405
 4021SOL    HW112962   3.078   4.969   5.399
 4021SOL    HW212963   3.197   5.051   5.323
 4022SOL     OW12964   5.321   1.026   0.163
 4022SOL    HW112965   5.309   1.091   0.238
 4022SOL    HW212966   5.310   0.933   0.198
 4023SOL     OW12967   6.354   1.754   5.423
 4023SOL    HW112968   6.391   1.662   5.429
 4023SOL    HW212969   6.318   1.781   5.512
 4024SOL     OW12970   4.015   5.024   4.077
 4024SOL    HW112971   3.939   5.089   4.070
 4024SOL    HW212972   4.098   5.072   4.104
 4025SOL     OW12973   0.613   4.256   3.746
 4025SOL    HW112974   0.577   4.186   3.686
 4025SOL    HW212975   0.700   4.290   3.709
 4026SOL     OW12976   5.314   6.254   4.015
 4026SOL    HW112977   5.392   6.246   3.954
 4026SOL    HW212978   5.318   6.184   4.086
 4027SOL     OW12979   4.107   4.959   1.800
 4027SOL    HW112980   4.153   5.031   1.747
 4027SOL    HW212981   4.171   4.884   1.816
 4028SOL     OW12982   2.503   1.603   4.089
 4028SOL    HW112983   2.554   1.522   4.116
 4028SOL    HW212984   2.546   1.643   4.007
 4029SOL     OW12985   1.765   4.655   5.116
 4029SOL    HW112986   1.846   4.709   5.136
 4029SOL    HW212987   1.753   4.646   5.017
 4030SOL     OW12988   0.594   1.913   5.230
 4030SOL    HW112989   0.589   1.968   5.314
 4030SOL    HW212990   0.689   1.884   5.215
 4031SOL     OW12991   3.944   5.483   4.200
 4031SOL    HW112992   4.018   5.522   4.146
 4031SOL    HW212993   3.932   5.537   4.284
 4032SOL     OW12994   5.715   0.148   4.364
 4032SOL    HW112995   5.748   0.192   4.281
 4032SOL    HW212996   5.792   0.116   4.419
 4033SOL     OW12997   2.950   3.770   5.366
 4033SOL    HW112998   2.857   3.806   5.369
 4033SOL    HW212999   2.956   3.688   5.424
 4034SOL     OW13000   0.027   2.382   3.830
 4034SOL    HW113001   6.986   2.435   3.888
 4034SOL    HW213002   0.010   2.285   3.843
 4035SOL     OW13003   0.226   4.897   7.006
 4035SOL    HW113004   0.253   4.801   7.014
 4035SOL    HW213005   0.303   4.955   0.012
 4036SOL     OW13006   6.429   0.046   2.808
 4036SOL    HW113007   6.468   0.078   2.722
 4036SOL    HW213008   6.503   0.021   2.871
 4037SOL     OW13009   0.340   3.748   0.004
 4037SOL    HW113010   0.289   3.665   0.026
 4037SOL    HW213011   0.277   3.817   6.989
 4038SOL     OW13012   5.874   4.329   3.724
 4038SOL    HW113013   5.825   4.414   3.705
 4038SOL    HW213014   5.817   4.251   3.701
 4039SOL     OW13015   5.425   6.190   0.221
 4039SOL    HW113016   5.427   6.258   0.147
 4039SOL    HW213017   5.421   6.236   0.309
 4040SOL     OW13018   3.539   6.450   1.234
 4040SOL    HW113019   3.483   6.471   1.314
 4040SOL    HW213020   3.483   6.404   1.165
 4041SOL     OW13021   1.372   6.283   3.910
 4041SOL    HW113022   1.333   6.312   3.822
 4041SOL    HW213023   1.383   6.183   3.909
 4042SOL     OW13024   6.236   5.233   2.128
 4042SOL    HW113025   6.215   5.278   2.042
 4042SOL    HW213026   6.152   5.215   2.178
 4043SOL     OW13027   6.257   1.613   1.283
 4043SOL    HW113028   6.354   1.637   1.273
 4043SOL    HW213029   6.237   1.531   1.229
 4044SOL     OW13030   5.988   6.481   3.688
 4044SOL    HW113031   5.907   6.438   3.726
 4044SOL    HW213032   5.964   6.569   3.647
 4045SOL     OW13033   2.478   5.844   5.945
 4045SOL    HW113034   2.520   5.801   6.025
 4045SOL    HW213035   2.379   5.848   5.958
 4046SOL     OW13036   0.719   3.611   1.234
 4046SOL    HW113037   0.677   3.541   1.177
 4046SOL    HW213038   0.649   3.675   1.265
 4047SOL     OW13039   2.730   3.597   1.429
 4047SOL    HW113040   2.828   3.590   1.446
 4047SOL    HW213041   2.714   3.617   1.332
 4048SOL     OW13042   5.232   0.734   0.869
 4048SOL    HW113043   5.301   0.738   0.941
 4048SOL    HW213044   5.164   0.805   0.884
 4049SOL     OW13045   5.232   0.130   5.194
 4049SOL    HW113046   5.256   0.075   5.274
 4049SOL    HW213047   5.312   0.181   5.163
 4050SOL     OW13048   2.830   0.199   1.058
 4050SOL    HW113049   2.901   0.131   1.043
 4050SOL    HW213050   2.826   0.261   0.980
 4051SOL     OW13051   3.188   3.894   1.353
 4051SOL    HW113052   3.156   3.833   1.280
 4051SOL    HW213053   3.265   3.851   1.401
 4052SOL     OW13054   0.848   0.093   0.911
 4052SOL    HW113055   0.782   0.157   0.948
 4052SOL    HW213056   0.867   0.022   0.980
 4053SOL     OW13057   3.448   4.966   3.689
 4053SOL    HW113058   3.502   4.945   3.771
 4053SOL    HW213059   3.500   4.940   3.607
 4054SOL     OW13060   4.698   2.078   0.610
 4054SOL    HW113061   4.671   2.173   0.594
 4054SOL    HW213062   4.745   2.043   0.528
 4055SOL     OW13063   3.504   1.814   6.902
 4055SOL    HW113064   3.569   1.738   6.905
 4055SOL    HW213065   3.545   1.895   6.944
 4056SOL     OW13066   4.222   3.390   0.506
 4056SOL    HW113067   4.216   3.490   0.510
 4056SOL    HW213068   4.286   3.358   0.576
 4057SOL     OW13069   5.039   3.336   6.692
 4057SOL    HW113070   4.968   3.281   6.648
 4057SOL    HW213071   5.067   3.291   6.777
 4058SOL     OW13072   1.271   1.125   5.431
 4058SOL    HW113073   1.262   1.198   5.364
 4058SOL    HW213074   1.269   1.163   5.524
 4059SOL     OW13075   0.366   2.376   4.188
 4059SOL    HW113076   0.392   2.358   4.283
 4059SOL    HW213077   0.329   2.468   4.181
 4060SOL     OW13078   4.695   5.066   4.073
 4060SOL    HW113079   4.645   5.006   4.009
 4060SOL    HW213080   4.727   5.012   4.150
 4061SOL     OW13081   3.193   3.183   1.557
 4061SOL    HW113082   3.223   3.101   1.605
 4061SOL    HW213083   3.105   3.166   1.513
 4062SOL     OW13084   2.387   7.018   3.020
 4062SOL    HW113085   2.334   6.950   2.970
 4062SOL    HW213086   2.413   0.070   2.957
 4063SOL     OW13087   2.892   5.218   6.548
 4063SOL    HW113088   2.810   5.229   6.604
 4063SOL    HW213089   2.891   5.128   6.505
 4064SOL     OW13090   0.154   6.928   3.889
 4064SOL    HW113091   0.106   7.014   3.872
 4064SOL    HW213092   0.244   6.947   3.928
 4065SOL     OW13093   5.944   5.333   6.669
 4065SOL    HW113094   5.973   5.328   6.764
 4065SOL    HW213095   5.859   5.282   6.657
 4066SOL     OW13096   6.016   4.426   1.692
 4066SOL    HW113097   5.967   4.510   1.716
 4066SOL    HW213098   6.023   4.367   1.772
 4067SOL     OW13099   5.727   0.788   1.913
 4067SOL    HW113100   5.646   0.827   1.955
 4067SOL    HW213101   5.770   0.723   1.976
 4068SOL     OW13102   6.461   0.640   3.874
 4068SOL    HW113103   6.556   0.608   3.865
 4068SOL    HW213104   6.444   0.713   3.808
 4069SOL     OW13105   6.632   5.353   0.643
 4069SOL    HW113106   6.624   5.448   0.673
 4069SOL    HW213107   6.543   5.309   0.647
 4070SOL     OW13108   1.449   3.035   2.657
 4070SOL    HW113109   1.460   3.134   2.659
 4070SOL    HW213110   1.453   2.999   2.750
 4071SOL     OW13111   1.701   6.510   4.173
 4071SOL    HW113112   1.620   6.565   4.196
 4071SOL    HW213113   1.691   6.473   4.081
 4072SOL     OW13114   0.574   0.625   4.533
 4072SOL    HW113115   0.644   0.696   4.536
 4072SOL    HW213116   0.611   0.542   4.490
 4073SOL     OW13117   2.019   5.243   6.635
 4073SOL    HW113118   2.033   5.163   6.694
 4073SOL    HW213119   1.979   5.317   6.690
 4074SOL     OW13120   1.948   2.774   0.488
 4074SOL    HW113121   1.921   2.861   0.447
 4074SOL    HW213122   1.877   2.706   0.471
 4075SOL     OW13123   4.832   0.928   3.579
 4075SOL    HW113124   4.888   0.958   3.656
 4075SOL    HW213125   4.736   0.923   3.607
 4076SOL     OW13126   1.687   2.502   3.946
 4076SOL    HW113127   1.678   2.554   4.031
 4076SOL    HW213128   1.764   2.538   3.893
 4077SOL     OW13129   2.336   1.776   1.092
 4077SOL    HW113130   2.355   1.861   1.043
 4077SOL    HW213131   2.394   1.703   1.055
 4078SOL     OW13132   5.546   3.765   2.160
 4078SOL    HW113133   5.578   3.753   2.066
 4078SOL    HW213134   5.447   3.765   2.163
 4079SOL     OW13135   0.529   1.479   3.675
 4079SOL    HW113136   0.612   1.476   3.620
 4079SOL    HW213137   0.453   1.515   3.620
 4080SOL     OW13138   3.434   3.075   1.903
 4080SOL    HW113139   3.487   3.026   1.833
 4080SOL    HW213140   3.463   3.170   1.907
 4081SOL     OW13141   2.854   2.445   6.035
 4081SOL    HW113142   2.918   2.482   5.967
 4081SOL    HW213143   2.872   2.488   6.123
 4082SOL     OW13144   1.295   2.551   5.043
 4082SOL    HW113145   1.200   2.562   5.012
 4082SOL    HW213146   1.304   2.587   5.136
 4083SOL     OW13147   5.798   4.959   3.374
 4083SOL    HW113148   5.811   5.019   3.452
 4083SOL    HW213149   5.886   4.918   3.348
 4084SOL     OW13150   4.845   0.447   3.616
 4084SOL    HW113151   4.769   0.475   3.675
 4084SOL    HW213152   4.888   0.366   3.654
 4085SOL     OW13153   3.922   5.004   2.394
 4085SOL    HW113154   3.847   5.071   2.392
 4085SOL    HW213155   3.985   5.028   2.468
 4086SOL     OW13156   5.911   5.052   6.176
 4086SOL    HW113157   5.972   5.023   6.103
 4086SOL    HW213158   5.958   5.044   6.264
 4087SOL     OW13159   1.908   0.386   2.116
 4087SOL    HW113160   1.844   0.441   2.061
 4087SOL    HW213161   1.889   0.289   2.101
 4088SOL     OW13162   0.357   1.951   5.113
 4088SOL    HW113163   0.328   1.892   5.038
 4088SOL    HW213164   0.457   1.948   5.122
 4089SOL     OW13165   1.367   0.720   3.359
 4089SOL    HW113166   1.392   0.779   3.282
 4089SOL    HW213167   1.298   0.654   3.331
 4090SOL     OW13168   2.596   1.251   6.294
 4090SOL    HW113169   2.606   1.275   6.197
 4090SOL    HW213170   2.500   1.232   6.313
 4091SOL     OW13171   3.152   5.999   1.246
 4091SOL    HW113172   3.091   6.077   1.256
 4091SOL    HW213173   3.098   5.918   1.223
 4092SOL     OW13174   5.897   2.877   3.963
 4092SOL    HW113175   5.897   2.976   3.948
 4092SOL    HW213176   5.832   2.835   3.900
 4093SOL     OW13177   5.176   4.557   3.806
 4093SOL    HW113178   5.187   4.517   3.715
 4093SOL    HW213179   5.119   4.639   3.798
 4094SOL     OW13180   0.166   5.218   6.781
 4094SOL    HW113181   0.209   5.227   6.870
 4094SOL    HW213182   0.228   5.252   6.710
 4095SOL     OW13183   0.658   5.248   6.901
 4095SOL    HW113184   0.663   5.157   6.859
 4095SOL    HW213185   0.724   5.254   6.976
 4096SOL     OW13186   0.558   1.396   6.999
 4096SOL    HW113187   0.463   1.394   0.009
 4096SOL    HW213188   0.617   1.425   0.053
 4097SOL     OW13189   6.138   4.637   5.142
 4097SOL    HW113190   6.219   4.607   5.091
 4097SOL    HW213191   6.160   4.721   5.192
 4098SOL     OW13192   2.101   4.435   3.344
 4098SOL    HW113193   2.106   4.519   3.289
 4098SOL    HW213194   2.009   4.428   3.384
 4099SOL     OW13195   4.490   4.480   6.487
 4099SOL    HW113196   4.440   4.430   6.557
 4099SOL    HW213197   4.444   4.469   6.399
 4100SOL     OW13198   1.490   0.265   3.779
 4100SOL    HW113199   1.515   0.294   3.687
 4100SOL    HW213200   1.457   0.343   3.831
 4101SOL     OW13201   6.102   6.016   0.268
 4101SOL    HW113202   6.032   5.946   0.255
 4101SOL    HW213203   6.076   6.100   0.221
 4102SOL     OW13204   1.398   0.481   0.093
 4102SOL    HW113205   1.458   0.422   0.146
 4102SOL    HW213206   1.306   0.482   0.133
 4103SOL     OW13207   1.738   6.488   3.648
 4103SOL    HW113208   1.820   6.432   3.658
 4103SOL    HW213209   1.680   6.449   3.576
 4104SOL     OW13210   2.266   5.657   4.475
 4104SOL    HW113211   2.255   5.615   4.565
 4104SOL    HW213212   2.181   5.702   4.448
 4105SOL     OW13213   4.817   1.093   1.059
 4105SOL    HW113214   4.814   1.039   1.143
 4105SOL    HW213215   4.736   1.152   1.055
 4106SOL     OW13216   1.502   1.148   3.405
 4106SOL    HW113217   1.452   1.205   3.340
 4106SOL    HW213218   1.458   1.153   3.495
 4107SOL     OW13219   0.834   6.872   0.067
 4107SOL    HW113220   0.851   6.899   6.993
 4107SOL    HW213221   0.744   6.830   0.074
 4108SOL     OW13222   6.747   6.136   5.553
 4108SOL    HW113223   6.676   6.195   5.516
 4108SOL    HW213224   6.738   6.129   5.652
 4109SOL     OW13225   5.739   6.141   3.096
 4109SOL    HW113226   5.684   6.177   3.021
 4109SOL    HW213227   5.789   6.217   3.139
 4110SOL     OW13228   5.041   2.733   0.677
 4110SOL    HW113229   4.978   2.656   0.678
 4110SOL    HW213230   5.081   2.743   0.586
 4111SOL     OW13231   6.460   3.993   3.832
 4111SOL    HW113232   6.476   3.955   3.923
 4111SOL    HW213233   6.412   3.926   3.776
 4112SOL     OW13234   5.043   6.407   4.835
 4112SOL    HW113235   5.130   6.428   4.792
 4112SOL    HW213236   5.026   6.472   4.909
 4113SOL     OW13237   4.271   5.420   4.968
 4113SOL    HW113238   4.263   5.419   5.068
 4113SOL    HW213239   4.335   5.348   4.940
 4114SOL     OW13240   0.397   1.402   1.488
 4114SOL    HW113241   0.391   1.498   1.513
 4114SOL    HW213242   0.457   1.392   1.408
 4115SOL     OW13243   4.315   5.783   4.077
 4115SOL    HW113244   4.383   5.715   4.052
 4115SOL    HW213245   4.360   5.864   4.114
 4116SOL     OW13246   5.008   3.631   2.713
 4116SOL    HW113247   4.956   3.660   2.632
 4116SOL    HW213248   5.033   3.712   2.767
 4117SOL     OW13249   1.513   1.815   3.763
 4117SOL    HW113250   1.593   1.859   3.804
 4117SOL    HW213251   1.495   1.728   3.809
 4118SOL     OW13252   0.538   6.043   6.810
 4118SOL    HW113253   0.535   5.949   6.777
 4118SOL    HW213254   0.581   6.101   6.740
 4119SOL     OW13255   0.596   0.594   4.231
 4119SOL    HW113256   0.645   0.520   4.277
 4119SOL    HW213257   0.522   0.626   4.291
 4120SOL     OW13258   1.965   0.531   6.310
 4120SOL    HW113259   1.897   0.504   6.242
 4120SOL    HW213260   1.940   0.620   6.348
 4121SOL     OW13261   6.182   0.108   2.286
 4121SOL    HW113262   6.169   0.018   2.329
 4121SOL    HW213263   6.236   0.098   2.203
 4122SOL     OW13264   6.805   4.209   2.776
 4122SOL    HW113265   6.889   4.202   2.722
 4122SOL    HW213266   6.726   4.212   2.714
 4123SOL     OW13267   4.679   4.684   1.698
 4123SOL    HW113268   4.678   4.597   1.748
 4123SOL    HW213269   4.735   4.750   1.748
 4124SOL     OW13270   6.025   5.590   0.150
 4124SOL    HW113271   5.930   5.620   0.140
 4124SOL    HW213272   6.054   5.601   0.245
 4125SOL     OW13273   5.952   1.539   1.370
 4125SOL    HW113274   5.890   1.469   1.407
 4125SOL    HW213275   6.024   1.495   1.317
 4126SOL     OW13276   1.967   2.857   2.425
 4126SOL    HW113277   1.910   2.775   2.421
 4126SOL    HW213278   2.024   2.862   2.342
 4127SOL     OW13279   4.422   2.022   4.594
 4127SOL    HW113280   4.362   2.089   4.639
 4127SOL    HW213281   4.367   1.944   4.564
 4128SOL     OW13282   1.332   3.449   0.018
 4128SOL    HW113283   1.376   3.359   0.017
 4128SOL    HW213284   1.235   3.438   0.038
 4129SOL     OW13285   2.561   2.848   0.608
 4129SOL    HW113286   2.565   2.932   0.661
 4129SOL    HW213287   2.469   2.809   0.613
 4130SOL     OW13288   6.407   3.210   0.766
 4130SOL    HW113289   6.339   3.245   0.830
 4130SOL    HW213290   6.361   3.183   0.681
 4131SOL     OW13291   4.538   6.984   3.515
 4131SOL    HW113292   4.496   0.053   3.511
 4131SOL    HW213293   4.539   6.943   3.424
 4132SOL     OW13294   0.712   5.289   4.095
 4132SOL    HW113295   0.632   5.322   4.146
 4132SOL    HW213296   0.790   5.280   4.157
 4133SOL     OW13297   5.286   0.968   3.003
 4133SOL    HW113298   5.385   0.953   3.001
 4133SOL    HW213299   5.239   0.882   3.022
 4134SOL     OW13300   1.409   3.697   1.682
 4134SOL    HW113301   1.329   3.744   1.646
 4134SOL    HW213302   1.470   3.672   1.607
 4135SOL     OW13303   6.553   1.289   1.724
 4135SOL    HW113304   6.474   1.338   1.761
 4135SOL    HW213305   6.629   1.292   1.790
 4136SOL     OW13306   1.405   4.691   1.436
 4136SOL    HW113307   1.411   4.781   1.394
 4136SOL    HW213308   1.427   4.620   1.368
 4137SOL     OW13309   1.350   2.537   0.691
 4137SOL    HW113310   1.293   2.460   0.719
 4137SOL    HW213311   1.296   2.621   0.689
 4138SOL     OW13312   5.036   0.713   0.568
 4138SOL    HW113313   4.993   0.735   0.656
 4138SOL    HW213314   5.085   0.793   0.534
 4139SOL     OW13315   2.149   3.686   2.837
 4139SOL    HW113316   2.193   3.776   2.826
 4139SOL    HW213317   2.111   3.656   2.750
 4140SOL     OW13318   1.944   1.038   6.473
 4140SOL    HW113319   1.896   0.953   6.452
 4140SOL    HW213320   2.018   1.019   6.538
 4141SOL     OW13321   4.706   0.068   6.002
 4141SOL    HW113322   4.676   0.143   5.942
 4141SOL    HW213323   4.800   0.085   6.031
 4142SOL     OW13324   0.906   4.559   2.684
 4142SOL    HW113325   0.868   4.546   2.776
 4142SOL    HW213326   0.858   4.500   2.620
 4143SOL     OW13327   5.532   3.456   0.399
 4143SOL    HW113328   5.561   3.399   0.476
 4143SOL    HW213329   5.482   3.400   0.334
 4144SOL     OW13330   6.199   0.680   0.553
 4144SOL    HW113331   6.154   0.724   0.631
 4144SOL    HW213332   6.242   0.594   0.583
 4145SOL     OW13333   0.161   6.716   1.657
 4145SOL    HW113334   0.137   6.632   1.608
 4145SOL    HW213335   0.241   6.698   1.715
 4146SOL     OW13336   4.371   6.260   3.158
 4146SOL    HW113337   4.389   6.183   3.218
 4146SOL    HW213338   4.456   6.287   3.111
 4147SOL     OW13339   4.894   4.559   6.147
 4147SOL    HW113340   4.910   4.653   6.179
 4147SOL    HW213341   4.849   4.561   6.058
 4148SOL     OW13342   2.764   1.437   5.971
 4148SOL    HW113343   2.795   1.381   6.048
 4148SOL    HW213344   2.777   1.387   5.886
 4149SOL     OW13345   2.545   3.486   6.205
 4149SOL    HW113346   2.597   3.462   6.123
 4149SOL    HW213347   2.547   3.585   6.218
 4150SOL     OW13348   5.263   1.744   6.263
 4150SOL    HW113349   5.192   1.697   6.315
 4150SOL    HW213350   5.243   1.842   6.259
 4151SOL     OW13351   3.051   6.168   4.221
 4151SOL    HW113352   3.032   6.110   4.142
 4151SOL    HW213353   3.013   6.259   4.206
 4152SOL     OW13354   2.705   4.450   1.029
 4152SOL    HW113355   2.803   4.468   1.025
 4152SOL    HW213356   2.678   4.432   1.124
 4153SOL     OW13357   0.091   5.651   1.329
 4153SOL    HW113358   0.036   5.709   1.389
 4153SOL    HW213359   0.049   5.560   1.322
 4154SOL     OW13360   1.056   6.460   3.788
 4154SOL    HW113361   1.069   6.397   3.711
 4154SOL    HW213362   1.009   6.412   3.862
 4155SOL     OW13363   0.575   1.008   1.373
 4155SOL    HW113364   0.604   0.926   1.421
 4155SOL    HW213365   0.655   1.055   1.336
 4156SOL     OW13366   0.103   5.293   5.795
 4156SOL    HW113367   0.006   5.270   5.779
 4156SOL    HW213368   0.117   5.391   5.777
 4157SOL     OW13369   6.567   6.412   1.550
 4157SOL    HW113370   6.585   6.343   1.479
 4157SOL    HW213371   6.618   6.495   1.529
 4158SOL     OW13372   0.823   2.845   1.471
 4158SOL    HW113373   0.881   2.925   1.488
 4158SOL    HW213374   0.853   2.770   1.530
 4159SOL     OW13375   3.435   1.064   3.918
 4159SOL    HW113376   3.440   1.037   3.822
 4159SOL    HW213377   3.371   1.140   3.928
 4160SOL     OW13378   6.475   6.486   6.633
 4160SOL    HW113379   6.407   6.486   6.706
 4160SOL    HW213380   6.563   6.454   6.669
 4161SOL     OW13381   3.881   3.179   2.002
 4161SOL    HW113382   3.818   3.256   2.011
 4161SOL    HW213383   3.972   3.208   2.032
 4162SOL     OW13384   4.804   5.837   2.002
 4162SOL    HW113385   4.716   5.847   1.956
 4162SOL    HW213386   4.794   5.862   2.099
 4163SOL     OW13387   3.433   6.511   1.510
 4163SOL    HW113388   3.463   6.564   1.589
 4163SOL    HW213389   3.333   6.501   1.512
 4164SOL     OW13390   6.507   0.370   5.239
 4164SOL    HW113391   6.564   0.441   5.197
 4164SOL    HW213392   6.451   0.411   5.311
 4165SOL     OW13393   4.072   1.266   4.893
 4165SOL    HW113394   4.104   1.218   4.812
 4165SOL    HW213395   4.077   1.205   4.972
 4166SOL     OW13396   5.859   1.316   1.529
 4166SOL    HW113397   5.773   1.284   1.490
 4166SOL    HW213398   5.913   1.238   1.560
 4167SOL     OW13399   4.099   5.269   4.359
 4167SOL    HW113400   4.140   5.189   4.315
 4167SOL    HW213401   4.113   5.349   4.300
 4168SOL     OW13402   4.770   4.187   6.734
 4168SOL    HW113403   4.690   4.128   6.723
 4168SOL    HW213404   4.850   4.131   6.758
 4169SOL     OW13405   5.189   3.682   5.141
 4169SOL    HW113406   5.206   3.593   5.183
 4169SOL    HW213407   5.243   3.690   5.057
 4170SOL     OW13408   0.570   3.215   3.794
 4170SOL    HW113409   0.565   3.206   3.695
 4170SOL    HW213410   0.657   3.178   3.827
 4171SOL     OW13411   0.673   2.933   0.739
 4171SOL    HW113412   0.704   3.028   0.738
 4171SOL    HW213413   0.652   2.905   0.833
 4172SOL     OW13414   2.904   4.580   0.716
 4172SOL    HW113415   2.975   4.549   0.653
 4172SOL    HW213416   2.929   4.555   0.810
 4173SOL     OW13417   4.845   2.960   5.454
 4173SOL    HW113418   4.875   3.037   5.399
 4173SOL    HW213419   4.908   2.947   5.531
 4174SOL     OW13420   3.547   0.307   4.812
 4174SOL    HW113421   3.615   0.372   4.779
 4174SOL    HW213422   3.486   0.353   4.877
 4175SOL     OW13423   1.260   4.321   6.719
 4175SOL    HW113424   1.212   4.362   6.796
 4175SOL    HW213425   1.213   4.343   6.634
 4176SOL     OW13426   4.967   0.076   6.093
 4176SOL    HW113427   5.022   0.128   6.158
 4176SOL    HW213428   5.017   7.016   6.065
 4177SOL     OW13429   4.634   4.636   3.022
 4177SOL    HW113430   4.649   4.732   3.048
 4177SOL    HW213431   4.585   4.589   3.096
 4178SOL     OW13432   3.944   5.294   1.509
 4178SOL    HW113433   3.952   5.218   1.445
 4178SOL    HW213434   3.968   5.379   1.462
 4179SOL     OW13435   5.561   3.125   4.798
 4179SOL    HW113436   5.579   3.211   4.751
 4179SOL    HW213437   5.634   3.108   4.865
 4180SOL     OW13438   4.295   4.100   0.280
 4180SOL    HW113439   4.223   4.067   0.340
 4180SOL    HW213440   4.363   4.150   0.334
 4181SOL     OW13441   4.747   0.067   4.868
 4181SOL    HW113442   4.738   0.047   4.770
 4181SOL    HW213443   4.814   0.006   4.909
 4182SOL     OW13444   0.236   6.336   3.893
 4182SOL    HW113445   0.142   6.370   3.891
 4182SOL    HW213446   0.236   6.238   3.872
 4183SOL     OW13447   3.689   2.218   1.410
 4183SOL    HW113448   3.769   2.254   1.362
 4183SOL    HW213449   3.665   2.128   1.372
 4184SOL     OW13450   3.368   5.223   3.759
 4184SOL    HW113451   3.414   5.141   3.725
 4184SOL    HW213452   3.275   5.228   3.721
 4185SOL     OW13453   6.113   3.347   3.027
 4185SOL    HW113454   6.143   3.361   3.121
 4185SOL    HW213455   6.168   3.403   2.965
 4186SOL     OW13456   1.467   6.012   0.493
 4186SOL    HW113457   1.428   6.015   0.401
 4186SOL    HW213458   1.464   5.918   0.527
 4187SOL     OW13459   1.378   3.743   6.357
 4187SOL    HW113460   1.280   3.726   6.368
 4187SOL    HW213461   1.427   3.709   6.438
 4188SOL     OW13462   4.928   7.007   0.361
 4188SOL    HW113463   4.886   6.939   0.421
 4188SOL    HW213464   4.869   0.066   0.357
 4189SOL     OW13465   5.259   5.201   3.686
 4189SOL    HW113466   5.281   5.145   3.766
 4189SOL    HW213467   5.205   5.280   3.715
 4190SOL     OW13468   6.880   6.141   0.754
 4190SOL    HW113469   6.834   6.205   0.815
 4190SOL    HW213470   6.932   6.075   0.807
 4191SOL     OW13471   4.564   4.496   6.192
 4191SOL    HW113472   4.546   4.575   6.249
 4191SOL    HW213473   4.625   4.522   6.117
 4192SOL     OW13474   1.037   3.195   1.887
 4192SOL    HW113475   1.107   3.125   1.893
 4192SOL    HW213476   1.031   3.229   1.793
 4193SOL     OW13477   0.046   6.791   0.855
 4193SOL    HW113478   0.112   6.722   0.824
 4193SOL    HW213479   0.054   6.872   0.796
 4194SOL     OW13480   4.375   1.487   5.078
 4194SOL    HW113481   4.292   1.514   5.031
 4194SOL    HW213482   4.453   1.539   5.041
 4195SOL     OW13483   3.690   5.903   1.397
 4195SOL    HW113484   3.613   5.854   1.356
 4195SOL    HW213485   3.669   6.001   1.399
 4196SOL     OW13486   6.477   2.508   2.425
 4196SOL    HW113487   6.463   2.601   2.390
 4196SOL    HW213488   6.522   2.512   2.514
 4197SOL     OW13489   3.453   6.963   6.344
 4197SOL    HW113490   3.471   6.867   6.321
 4197SOL    HW213491   3.497   0.000   6.275
 4198SOL     OW13492   6.123   1.437   2.507
 4198SOL    HW113493   6.058   1.365   2.535
 4198SOL    HW213494   6.077   1.525   2.508
 4199SOL     OW13495   0.598   3.822   6.048
 4199SOL    HW113496   0.573   3.844   5.954
 4199SOL    HW213497   0.589   3.904   6.105
 4200SOL     OW13498   4.551   1.088   3.561
 4200SOL    HW113499   4.483   1.136   3.616
 4200SOL    HW213500   4.594   1.152   3.497
 4201SOL     OW13501   5.445   0.138   3.400
 4201SOL    HW113502   5.393   0.212   3.356
 4201SOL    HW213503   5.388   0.056   3.405
 4202SOL     OW13504   4.735   4.243   1.194
 4202SOL    HW113505   4.819   4.296   1.188
 4202SOL    HW213506   4.685   4.270   1.276
 4203SOL     OW13507   6.531   5.617   6.646
 4203SOL    HW113508   6.502   5.712   6.658
 4203SOL    HW213509   6.453   5.557   6.665
 4204SOL     OW13510   2.747   3.445   6.016
 4204SOL    HW113511   2.839   3.410   6.036
 4204SOL    HW213512   2.753   3.543   5.994
 4205SOL     OW13513   3.621   6.097   5.196
 4205SOL    HW113514   3.597   6.169   5.131
 4205SOL    HW213515   3.623   6.009   5.149
 4206SOL     OW13516   1.252   2.301   4.860
 4206SOL    HW113517   1.258   2.227   4.927
 4206SOL    HW213518   1.323   2.368   4.877
 4207SOL     OW13519   1.386   2.611   1.763
 4207SOL    HW113520   1.372   2.557   1.680
 4207SOL    HW213521   1.441   2.559   1.828
 4208SOL     OW13522   2.044   3.529   4.898
 4208SOL    HW113523   2.012   3.481   4.980
 4208SOL    HW213524   1.979   3.603   4.876
 4209SOL     OW13525   0.304   6.282   2.944
 4209SOL    HW113526   0.291   6.207   2.879
 4209SOL    HW213527   0.220   6.336   2.949
 4210SOL     OW13528   3.835   2.889   4.905
 4210SOL    HW113529   3.788   2.916   4.821
 4210SOL    HW213530   3.923   2.846   4.882
 4211SOL     OW13531   4.341   2.490   5.614
 4211SOL    HW113532   4.264   2.431   5.639
 4211SOL    HW213533   4.336   2.511   5.516
 4212SOL     OW13534   6.740   2.239   3.114
 4212SOL    HW113535   6.838   2.230   3.129
 4212SOL    HW213536   6.723   2.317   3.053
 4213SOL     OW13537   3.272   1.248   3.274
 4213SOL    HW113538   3.220   1.239   3.189
 4213SOL    HW213539   3.241   1.330   3.323
 4214SOL     OW13540   0.706   5.507   4.328
 4214SOL    HW113541   0.804   5.528   4.318
 4214SOL    HW213542   0.693   5.441   4.401
 4215SOL     OW13543   4.571   6.378   5.029
 4215SOL    HW113544   4.517   6.426   4.960
 4215SOL    HW213545   4.512   6.348   5.103
 4216SOL     OW13546   2.661   5.956   2.280
 4216SOL    HW113547   2.685   5.860   2.263
 4216SOL    HW213548   2.702   6.013   2.209
 4217SOL     OW13549   0.583   0.583   2.186
 4217SOL    HW113550   0.580   0.644   2.265
 4217SOL    HW213551   0.657   0.613   2.124
 4218SOL     OW13552   2.568   1.471   1.670
 4218SOL    HW113553   2.612   1.385   1.695
 4218SOL    HW213554   2.635   1.533   1.630
 4219SOL     OW13555   3.893   6.556   3.870
 4219SOL    HW113556   3.897   6.509   3.958
 4219SOL    HW213557   3.921   6.493   3.797
 4220SOL     OW13558   4.571   2.239   1.683
 4220SOL    HW113559   4.572   2.312   1.751
 4220SOL    HW213560   4.504   2.259   1.612
 4221SOL     OW13561   0.445   5.805   6.673
 4221SOL    HW113562   0.497   5.758   6.602
 4221SOL    HW213563   0.347   5.798   6.653
 4222SOL     OW13564   4.950   2.710   3.791
 4222SOL    HW113565   4.977   2.713   3.694
 4222SOL    HW213566   4.944   2.803   3.827
 4223SOL     OW13567   4.149   3.427   2.211
 4223SOL    HW113568   4.237   3.474   2.219
 4223SOL    HW213569   4.159   3.349   2.149
 4224SOL     OW13570   4.897   3.598   4.709
 4224SOL    HW113571   4.944   3.605   4.797
 4224SOL    HW213572   4.810   3.647   4.713
 4225SOL     OW13573   0.394   2.543   5.760
 4225SOL    HW113574   0.371   2.455   5.801
 4225SOL    HW213575   0.431   2.528   5.668
 4226SOL     OW13576   1.280   5.649   4.575
 4226SOL    HW113577   1.326   5.730   4.613
 4226SOL    HW213578   1.308   5.636   4.480
 4227SOL     OW13579   5.601   5.930   2.268
 4227SOL    HW113580   5.659   5.974   2.337
 4227SOL    HW213581   5.627   5.834   2.260
 4228SOL     OW13582   1.016   5.412   3.906
 4228SOL    HW113583   1.045   5.494   3.955
 4228SOL    HW213584   0.918   5.418   3.887
 4229SOL     OW13585   6.169   4.553   5.996
 4229SOL    HW113586   6.166   4.646   5.960
 4229SOL    HW213587   6.153   4.488   5.922
 4230SOL     OW13588   0.805   0.680   2.042
 4230SOL    HW113589   0.815   0.726   1.954
 4230SOL    HW213590   0.854   0.732   2.112
 4231SOL     OW13591   5.644   1.404   5.748
 4231SOL    HW113592   5.697   1.441   5.824
 4231SOL    HW213593   5.650   1.304   5.747
 4232SOL     OW13594   1.562   5.320   3.738
 4232SOL    HW113595   1.541   5.409   3.696
 4232SOL    HW213596   1.640   5.329   3.799
 4233SOL     OW13597   5.436   5.794   3.634
 4233SOL    HW113598   5.516   5.827   3.583
 4233SOL    HW213599   5.417   5.857   3.710
 4234SOL     OW13600   2.616   5.542   5.715
 4234SOL    HW113601   2.531   5.568   5.669
 4234SOL    HW213602   2.694   5.572   5.660
 4235SOL     OW13603   0.182   5.335   5.523
 4235SOL    HW113604   0.188   5.272   5.599
 4235SOL    HW213605   0.238   5.301   5.447
 4236SOL     OW13606   0.580   5.281   2.272
 4236SOL    HW113607   0.481   5.290   2.282
 4236SOL    HW213608   0.606   5.306   2.179
 4237SOL     OW13609   6.848   4.349   3.642
 4237SOL    HW113610   6.864   4.252   3.658
 4237SOL    HW213611   6.815   4.362   3.548
 4238SOL     OW13612   2.555   0.015   3.363
 4238SOL    HW113613   2.468   0.002   3.317
 4238SOL    HW213614   2.588   0.108   3.347
 4239SOL     OW13615   3.798   0.966   3.388
 4239SOL    HW113616   3.851   0.881   3.376
 4239SOL    HW213617   3.856   1.044   3.367
 4240SOL     OW13618   0.405   6.408   0.900
 4240SOL    HW113619   0.490   6.370   0.937
 4240SOL    HW213620   0.385   6.495   0.944
 4241SOL     OW13621   6.307   2.583   6.848
 4241SOL    HW113622   6.352   2.661   6.891
 4241SOL    HW213623   6.354   2.561   6.762
 4242SOL     OW13624   2.126   1.868   3.484
 4242SOL    HW113625   2.166   1.959   3.498
 4242SOL    HW213626   2.038   1.877   3.439
 4243SOL     OW13627   5.559   0.926   3.422
 4243SOL    HW113628   5.510   0.844   3.392
 4243SOL    HW213629   5.630   0.948   3.356
 4244SOL     OW13630   3.517   3.449   2.288
 4244SOL    HW113631   3.614   3.430   2.302
 4244SOL    HW213632   3.502   3.477   2.193
 4245SOL     OW13633   6.021   2.757   6.028
 4245SOL    HW113634   6.014   2.658   6.012
 4245SOL    HW213635   5.973   2.806   5.955
 4246SOL     OW13636   0.460   3.653   2.092
 4246SOL    HW113637   0.414   3.571   2.058
 4246SOL    HW213638   0.516   3.629   2.171
 4247SOL     OW13639   0.269   6.087   5.220
 4247SOL    HW113640   0.260   5.996   5.180
 4247SOL    HW213641   0.284   6.155   5.148
 4248SOL     OW13642   1.358   2.682   5.369
 4248SOL    HW113643   1.334   2.692   5.466
 4248SOL    HW213644   1.384   2.771   5.332
 4249SOL     OW13645   5.687   3.300   5.945
 4249SOL    HW113646   5.607   3.284   5.888
 4249SOL    HW213647   5.659   3.315   6.040
 4250SOL     OW13648   6.534   4.988   3.709
 4250SOL    HW113649   6.519   5.000   3.610
 4250SOL    HW213650   6.455   5.022   3.759
 4251SOL     OW13651   5.841   4.708   0.549
 4251SOL    HW113652   5.762   4.678   0.496
 4251SOL    HW213653   5.838   4.807   0.562
 4252SOL     OW13654   0.743   4.778   5.530
 4252SOL    HW113655   0.837   4.774   5.497
 4252SOL    HW213656   0.709   4.871   5.524
 4253SOL     OW13657   4.402   0.516   2.127
 4253SOL    HW113658   4.501   0.528   2.133
 4253SOL    HW213659   4.380   0.460   2.047
 4254SOL     OW13660   2.109   3.828   1.546
 4254SOL    HW113661   2.196   3.787   1.571
 4254SOL    HW213662   2.089   3.807   1.450
 4255SOL     OW13663   6.726   3.197   4.666
 4255SOL    HW113664   6.735   3.114   4.611
 4255SOL    HW213665   6.764   3.274   4.615
 4256SOL     OW13666   1.712   6.711   1.295
 4256SOL    HW113667   1.693   6.624   1.341
 4256SOL    HW213668   1.809   6.733   1.306
 4257SOL     OW13669   3.538   1.799   4.544
 4257SOL    HW113670   3.491   1.711   4.554
 4257SOL    HW213671   3.531   1.850   4.629
 4258SOL     OW13672   5.666   6.699   2.592
 4258SOL    HW113673   5.623   6.639   2.661
 4258SOL    HW213674   5.752   6.734   2.628
 4259SOL     OW13675   2.695   2.399   0.189
 4259SOL    HW113676   2.795   2.398   0.184
 4259SOL    HW213677   2.666   2.380   0.283
 4260SOL     OW13678   4.896   5.543   3.184
 4260SOL    HW113679   4.957   5.597   3.243
 4260SOL    HW213680   4.846   5.604   3.124
 4261SOL     OW13681   2.125   6.392   1.632
 4261SOL    HW113682   2.178   6.439   1.702
 4261SOL    HW213683   2.158   6.297   1.623
 4262SOL     OW13684   1.216   5.006   6.772
 4262SOL    HW113685   1.240   4.939   6.842
 4262SOL    HW213686   1.231   4.967   6.681
 4263SOL     OW13687   2.446   4.545   5.602
 4263SOL    HW113688   2.473   4.639   5.627
 4263SOL    HW213689   2.468   4.483   5.678
 4264SOL     OW13690   0.312   1.368   0.451
 4264SOL    HW113691   0.214   1.352   0.443
 4264SOL    HW213692   0.332   1.464   0.431
 4265SOL     OW13693   6.650   1.558   0.577
 4265SOL    HW113694   6.606   1.493   0.639
 4265SOL    HW213695   6.740   1.523   0.550
 4266SOL     OW13696   2.245   5.433   0.173
 4266SOL    HW113697   2.337   5.393   0.177
 4266SOL    HW213698   2.224   5.479   0.259
 4267SOL     OW13699   1.649   3.561   4.951
 4267SOL    HW113700   1.677   3.522   5.039
 4267SOL    HW213701   1.573   3.508   4.913
 4268SOL     OW13702   2.426   1.084   0.646
 4268SOL    HW113703   2.485   1.143   0.591
 4268SOL    HW213704   2.351   1.050   0.590
 4269SOL     OW13705   3.182   3.394   0.046
 4269SOL    HW113706   3.257   3.349   0.093
 4269SOL    HW213707   3.096   3.375   0.094
 4270SOL     OW13708   3.047   3.192   4.912
 4270SOL    HW113709   3.008   3.190   5.004
 4270SOL    HW213710   3.114   3.118   4.903
 4271SOL     OW13711   1.076   6.936   5.876
 4271SOL    HW113712   1.075   0.009   5.907
 4271SOL    HW213713   1.135   6.882   5.936
 4272SOL     OW13714   6.353   4.737   5.487
 4272SOL    HW113715   6.294   4.657   5.496
 4272SOL    HW213716   6.449   4.709   5.498
 4273SOL     OW13717   5.073   6.797   5.430
 4273SOL    HW113718   4.988   6.823   5.478
 4273SOL    HW213719   5.053   6.726   5.364
 4274SOL     OW13720   1.525   6.781   3.872
 4274SOL    HW113721   1.517   6.881   3.882
 4274SOL    HW213722   1.447   6.747   3.819
 4275SOL     OW13723   0.827   0.179   6.122
 4275SOL    HW113724   0.771   0.257   6.152
 4275SOL    HW213725   0.903   0.167   6.186
 4276SOL     OW13726   1.960   4.506   2.818
 4276SOL    HW113727   1.868   4.501   2.779
 4276SOL    HW213728   2.018   4.563   2.759
 4277SOL     OW13729   0.101   5.209   4.066
 4277SOL    HW113730   0.199   5.214   4.048
 4277SOL    HW213731   0.053   5.269   4.001
 4278SOL     OW13732   6.985   6.083   4.564
 4278SOL    HW113733   6.958   6.178   4.581
 4278SOL    HW213734   6.905   6.030   4.535
 4279SOL     OW13735   3.251   6.398   4.993
 4279SOL    HW113736   3.324   6.421   4.929
 4279SOL    HW213737   3.240   6.472   5.059
 4280SOL     OW13738   5.992   2.076   4.810
 4280SOL    HW113739   5.968   1.992   4.860
 4280SOL    HW213740   5.983   2.061   4.712
 4281SOL     OW13741   2.222   4.333   5.137
 4281SOL    HW113742   2.148   4.364   5.197
 4281SOL    HW213743   2.254   4.243   5.166
 4282SOL     OW13744   2.277   2.786   1.009
 4282SOL    HW113745   2.311   2.857   1.071
 4282SOL    HW213746   2.177   2.790   1.007
 4283SOL     OW13747   1.760   0.491   4.583
 4283SOL    HW113748   1.811   0.549   4.519
 4283SOL    HW213749   1.730   0.546   4.661
 4284SOL     OW13750   5.469   1.381   2.376
 4284SOL    HW113751   5.376   1.346   2.366
 4284SOL    HW213752   5.488   1.447   2.304
 4285SOL     OW13753   1.035   0.246   5.201
 4285SOL    HW113754   1.059   0.277   5.293
 4285SOL    HW213755   1.097   0.289   5.135
 4286SOL     OW13756   5.011   5.973   0.359
 4286SOL    HW113757   5.103   5.984   0.321
 4286SOL    HW213758   4.944   5.974   0.284
 4287SOL     OW13759   5.800   0.153   4.863
 4287SOL    HW113760   5.848   0.234   4.828
 4287SOL    HW213761   5.779   0.166   4.960
 4288SOL     OW13762   1.255   0.087   2.741
 4288SOL    HW113763   1.301   0.160   2.793
 4288SOL    HW213764   1.254   0.110   2.644
 4289SOL     OW13765   5.517   2.915   1.486
 4289SOL    HW113766   5.563   2.966   1.413
 4289SOL    HW213767   5.428   2.885   1.454
 4290SOL     OW13768   2.209   0.516   2.641
 4290SOL    HW113769   2.112   0.527   2.619
 4290SOL    HW213770   2.265   0.546   2.564
 4291SOL     OW13771   5.903   2.827   0.619
 4291SOL    HW113772   5.987   2.811   0.567
 4291SOL    HW213773   5.828   2.775   0.578
 4292SOL     OW13774   6.219   3.934   5.864
 4292SOL    HW113775   6.271   4.015   5.839
 4292SOL    HW213776   6.137   3.927   5.807
 4293SOL     OW13777   6.165   2.864   6.714
 4293SOL    HW113778   6.205   2.914   6.791
 4293SOL    HW213779   6.219   2.881   6.632
 4294SOL     OW13780   4.471   2.301   6.062
 4294SOL    HW113781   4.461   2.206   6.091
 4294SOL    HW213782   4.440   2.310   5.967
 4295SOL     OW13783   3.622   6.867   4.184
 4295SOL    HW113784   3.655   6.958   4.157
 4295SOL    HW213785   3.675   6.797   4.137
 4296SOL     OW13786   2.616   1.996   1.334
 4296SOL    HW113787   2.525   1.970   1.365
 4296SOL    HW213788   2.616   2.007   1.235
 4297SOL     OW13789   5.465   0.785   5.317
 4297SOL    HW113790   5.430   0.698   5.281
 4297SOL    HW213791   5.563   0.792   5.297
 4298SOL     OW13792   2.376   5.720   1.067
 4298SOL    HW113793   2.324   5.729   0.982
 4298SOL    HW213794   2.356   5.632   1.109
 4299SOL     OW13795   1.186   3.343   6.234
 4299SOL    HW113796   1.156   3.283   6.159
 4299SOL    HW213797   1.221   3.429   6.195
 4300SOL     OW13798   3.766   1.257   6.765
 4300SOL    HW113799   3.671   1.275   6.787
 4300SOL    HW213800   3.771   1.190   6.691
 4301SOL     OW13801   2.301   1.863   0.658
 4301SOL    HW113802   2.235   1.923   0.614
 4301SOL    HW213803   2.280   1.768   0.635
 4302SOL     OW13804   1.020   6.450   6.944
 4302SOL    HW113805   1.054   6.398   6.866
 4302SOL    HW213806   0.945   6.509   6.915
 4303SOL     OW13807   6.455   4.034   2.424
 4303SOL    HW113808   6.532   3.974   2.444
 4303SOL    HW213809   6.447   4.103   2.496
 4304SOL     OW13810   3.138   3.309   4.043
 4304SOL    HW113811   3.119   3.219   4.082
 4304SOL    HW213812   3.223   3.345   4.081
 4305SOL     OW13813   6.385   0.820   3.679
 4305SOL    HW113814   6.305   0.846   3.625
 4305SOL    HW213815   6.463   0.805   3.618
 4306SOL     OW13816   6.829   4.307   5.954
 4306SOL    HW113817   6.862   4.217   5.984
 4306SOL    HW213818   6.831   4.312   5.854
 4307SOL     OW13819   4.863   3.881   6.023
 4307SOL    HW113820   4.906   3.819   5.957
 4307SOL    HW213821   4.768   3.899   5.995
 4308SOL     OW13822   5.388   5.869   4.284
 4308SOL    HW113823   5.337   5.822   4.356
 4308SOL    HW213824   5.406   5.807   4.208
 4309SOL     OW13825   1.547   1.258   0.620
 4309SOL    HW113826   1.636   1.290   0.654
 4309SOL    HW213827   1.548   1.158   0.614
 4310SOL     OW13828   1.778   2.165   2.782
 4310SOL    HW113829   1.855   2.177   2.845
 4310SOL    HW213830   1.801   2.097   2.713
 4311SOL     OW13831   1.323   6.366   3.648
 4311SOL    HW113832   1.422   6.358   3.634
 4311SOL    HW213833   1.277   6.371   3.560
 4312SOL     OW13834   2.160   6.008   2.331
 4312SOL    HW113835   2.198   5.981   2.420
 4312SOL    HW213836   2.108   5.932   2.292
 4313SOL     OW13837   4.886   1.503   1.552
 4313SOL    HW113838   4.818   1.510   1.625
 4313SOL    HW213839   4.893   1.590   1.504
 4314SOL     OW13840   4.995   2.917   2.945
 4314SOL    HW113841   4.972   2.891   2.851
 4314SOL    HW213842   5.094   2.928   2.953
 4315SOL     OW13843   2.560   0.761   2.052
 4315SOL    HW113844   2.491   0.781   1.983
 4315SOL    HW213845   2.608   0.845   2.077
 4316SOL     OW13846   5.314   0.635   1.545
 4316SOL    HW113847   5.404   0.625   1.587
 4316SOL    HW213848   5.250   0.572   1.589
 4317SOL     OW13849   3.213   1.261   3.994
 4317SOL    HW113850   3.254   1.348   4.020
 4317SOL    HW213851   3.121   1.254   4.033
 4318SOL     OW13852   0.791   3.606   2.971
 4318SOL    HW113853   0.728   3.531   2.954
 4318SOL    HW213854   0.885   3.574   2.957
 4319SOL     OW13855   3.133   3.415   6.539
 4319SOL    HW113856   3.163   3.483   6.606
 4319SOL    HW213857   3.042   3.382   6.563
 4320SOL     OW13858   0.165   6.701   2.815
 4320SOL    HW113859   0.160   6.679   2.718
 4320SOL    HW213860   0.081   6.671   2.860
 4321SOL     OW13861   6.732   0.575   4.954
 4321SOL    HW113862   6.751   0.594   5.051
 4321SOL    HW213863   6.634   0.562   4.942
 4322SOL     OW13864   6.357   1.015   6.918
 4322SOL    HW113865   6.340   1.043   6.824
 4322SOL    HW213866   6.283   0.955   6.949
 4323SOL     OW13867   5.842   2.550   3.055
 4323SOL    HW113868   5.761   2.492   3.046
 4323SOL    HW213869   5.815   2.642   3.083
 4324SOL     OW13870   6.001   3.974   6.399
 4324SOL    HW113871   6.017   3.941   6.492
 4324SOL    HW213872   6.088   4.000   6.357
 4325SOL     OW13873   2.166   1.391   6.664
 4325SOL    HW113874   2.089   1.412   6.603
 4325SOL    HW213875   2.247   1.441   6.634
 4326SOL     OW13876   6.137   3.066   5.574
 4326SOL    HW113877   6.139   3.145   5.634
 4326SOL    HW213878   6.223   3.059   5.524
 4327SOL     OW13879   5.894   6.114   2.267
 4327SOL    HW113880   5.883   6.154   2.358
 4327SOL    HW213881   5.968   6.047   2.268
 4328SOL     OW13882   4.962   5.053   6.405
 4328SOL    HW113883   5.002   5.134   6.446
 4328SOL    HW213884   4.889   5.018   6.464
 4329SOL     OW13885   3.774   2.086   5.208
 4329SOL    HW113886   3.830   2.135   5.141
 4329SOL    HW213887   3.762   2.142   5.290
 4330SOL     OW13888   1.478   0.471   6.043
 4330SOL    HW113889   1.515   0.542   5.982
 4330SOL    HW213890   1.542   0.395   6.048
 4331SOL     OW13891   5.499   2.746   6.894
 4331SOL    HW113892   5.501   2.724   6.796
 4331SOL    HW213893   5.557   2.825   6.912
 4332SOL     OW13894   4.871   3.051   2.251
 4332SOL    HW113895   4.954   2.995   2.245
 4332SOL    HW213896   4.821   3.045   2.165
 4333SOL     OW13897   5.946   1.613   5.098
 4333SOL    HW113898   6.024   1.657   5.142
 4333SOL    HW213899   5.867   1.674   5.102
 4334SOL     OW13900   3.822   1.997   1.911
 4334SOL    HW113901   3.735   2.046   1.914
 4334SOL    HW213902   3.863   2.007   1.820
 4335SOL     OW13903   3.118   4.003   4.568
 4335SOL    HW113904   3.100   4.038   4.660
 4335SOL    HW213905   3.188   3.932   4.572
 4336SOL     OW13906   1.657   6.523   4.746
 4336SOL    HW113907   1.618   6.499   4.835
 4336SOL    HW213908   1.734   6.586   4.760
 4337SOL     OW13909   0.360   4.850   0.382
 4337SOL    HW113910   0.393   4.943   0.369
 4337SOL    HW213911   0.264   4.851   0.412
 4338SOL     OW13912   6.032   5.958   3.964
 4338SOL    HW113913   6.024   6.011   4.049
 4338SOL    HW213914   6.115   5.902   3.968
 4339SOL     OW13915   6.311   2.127   5.758
 4339SOL    HW113916   6.378   2.119   5.684
 4339SOL    HW213917   6.243   2.196   5.733
 4340SOL     OW13918   5.302   3.640   1.625
 4340SOL    HW113919   5.342   3.584   1.552
 4340SOL    HW213920   5.312   3.593   1.713
 4341SOL     OW13921   1.687   4.108   1.811
 4341SOL    HW113922   1.652   4.113   1.718
 4341SOL    HW213923   1.611   4.100   1.875
 4342SOL     OW13924   0.667   2.539   2.683
 4342SOL    HW113925   0.625   2.594   2.756
 4342SOL    HW213926   0.642   2.577   2.594
 4343SOL     OW13927   3.270   0.970   0.644
 4343SOL    HW113928   3.215   1.006   0.569
 4343SOL    HW213929   3.212   0.914   0.703
 4344SOL     OW13930   1.814   4.740   3.273
 4344SOL    HW113931   1.749   4.758   3.347
 4344SOL    HW213932   1.804   4.645   3.242
 4345SOL     OW13933   1.925   2.797   5.525
 4345SOL    HW113934   1.862   2.751   5.587
 4345SOL    HW213935   1.875   2.827   5.443
 4346SOL     OW13936   1.801   3.510   2.253
 4346SOL    HW113937   1.855   3.584   2.212
 4346SOL    HW213938   1.842   3.422   2.230
 4347SOL     OW13939   6.028   6.806   2.599
 4347SOL    HW113940   6.036   6.891   2.652
 4347SOL    HW213941   6.023   6.728   2.661
 4348SOL     OW13942   1.652   3.238   0.674
 4348SOL    HW113943   1.630   3.152   0.721
 4348SOL    HW213944   1.668   3.310   0.742
 4349SOL     OW13945   0.552   1.430   3.944
 4349SOL    HW113946   0.528   1.439   3.847
 4349SOL    HW213947   0.602   1.511   3.974
 4350SOL     OW13948   5.491   2.527   4.131
 4350SOL    HW113949   5.444   2.479   4.205
 4350SOL    HW213950   5.509   2.463   4.056
 4351SOL     OW13951   2.892   5.680   2.554
 4351SOL    HW113952   2.799   5.656   2.527
 4351SOL    HW213953   2.918   5.629   2.636
 4352SOL     OW13954   0.456   1.820   1.888
 4352SOL    HW113955   0.509   1.864   1.816
 4352SOL    HW213956   0.495   1.731   1.908
 4353SOL     OW13957   2.633   5.629   6.637
 4353SOL    HW113958   2.715   5.574   6.648
 4353SOL    HW213959   2.602   5.662   6.726
 4354SOL     OW13960   2.641   6.852   0.201
 4354SOL    HW113961   2.650   6.909   0.119
 4354SOL    HW213962   2.721   6.792   0.208
 4355SOL     OW13963   4.173   1.075   0.399
 4355SOL    HW113964   4.193   1.072   0.496
 4355SOL    HW213965   4.101   1.008   0.377
 4356SOL     OW13966   4.301   4.081   0.609
 4356SOL    HW113967   4.288   4.179   0.596
 4356SOL    HW213968   4.219   4.032   0.580
 4357SOL     OW13969   6.211   0.160   0.374
 4357SOL    HW113970   6.220   0.260   0.374
 4357SOL    HW213971   6.280   0.121   0.313
 4358SOL     OW13972   0.608   6.739   1.336
 4358SOL    HW113973   0.628   6.832   1.366
 4358SOL    HW213974   0.692   6.685   1.338
 4359SOL     OW13975   0.817   2.064   3.941
 4359SOL    HW113976   0.911   2.066   3.977
 4359SOL    HW213977   0.790   2.157   3.916
 4360SOL     OW13978   0.959   3.485   1.138
 4360SOL    HW113979   0.869   3.515   1.170
 4360SOL    HW213980   0.949   3.435   1.052
 4361SOL     OW13981   4.998   2.316   2.205
 4361SOL    HW113982   4.990   2.291   2.109
 4361SOL    HW213983   5.051   2.400   2.214
 4362SOL     OW13984   6.256   4.495   5.517
 4362SOL    HW113985   6.176   4.509   5.459
 4362SOL    HW213986   6.331   4.458   5.463
 4363SOL     OW13987   5.268   2.900   5.203
 4363SOL    HW113988   5.227   2.931   5.117
 4363SOL    HW213989   5.264   2.974   5.271
 4364SOL     OW13990   3.175   3.954   4.280
 4364SOL    HW113991   3.132   3.983   4.365
 4364SOL    HW213992   3.222   4.032   4.239
 4365SOL     OW13993   4.146   2.277   2.572
 4365SOL    HW113994   4.100   2.254   2.486
 4365SOL    HW213995   4.224   2.336   2.553
 4366SOL     OW13996   5.617   5.856   1.403
 4366SOL    HW113997   5.678   5.830   1.478
 4366SOL    HW213998   5.582   5.949   1.418
 4367SOL     OW13999   1.559   6.173   5.663
 4367SOL    HW114000   1.542   6.152   5.760
 4367SOL    HW214001   1.657   6.186   5.649
 4368SOL     OW14002   5.600   3.873   1.723
 4368SOL    HW114003   5.577   3.927   1.642
 4368SOL    HW214004   5.518   3.827   1.757
 4369SOL     OW14005   4.159   5.293   2.229
 4369SOL    HW114006   4.130   5.215   2.174
 4369SOL    HW214007   4.229   5.264   2.294
 4370SOL     OW14008   5.912   4.663   3.973
 4370SOL    HW114009   5.823   4.645   3.932
 4370SOL    HW214010   5.904   4.662   4.072
 4371SOL     OW14011   5.488   0.731   2.673
 4371SOL    HW114012   5.396   0.760   2.650
 4371SOL    HW214013   5.488   0.688   2.764
 4372SOL     OW14014   4.558   1.641   3.231
 4372SOL    HW114015   4.467   1.681   3.225
 4372SOL    HW214016   4.592   1.647   3.325
 4373SOL     OW14017   6.423   2.023   6.652
 4373SOL    HW114018   6.423   1.969   6.568
 4373SOL    HW214019   6.445   1.964   6.730
 4374SOL     OW14020   1.929   2.080   2.190
 4374SOL    HW114021   1.848   2.094   2.134
 4374SOL    HW214022   1.945   1.982   2.202
 4375SOL     OW14023   2.642   6.357   4.651
 4375SOL    HW114024   2.613   6.274   4.698
 4375SOL    HW214025   2.688   6.418   4.715
 4376SOL     OW14026   6.501   0.287   3.018
 4376SOL    HW114027   6.561   0.207   3.009
 4376SOL    HW214028   6.411   0.257   3.048
 4377SOL     OW14029   5.795   4.333   0.147
 4377SOL    HW114030   5.764   4.288   0.064
 4377SOL    HW214031   5.856   4.408   0.123
 4378SOL     OW14032   2.058   0.476   3.861
 4378SOL    HW114033   1.985   0.466   3.794
 4378SOL    HW214034   2.096   0.385   3.882
 4379SOL     OW14035   2.819   1.447   5.030
 4379SOL    HW114036   2.893   1.474   5.091
 4379SOL    HW214037   2.857   1.411   4.945
 4380SOL     OW14038   0.784   1.536   1.713
 4380SOL    HW114039   0.801   1.604   1.784
 4380SOL    HW214040   0.733   1.578   1.638
 4381SOL     OW14041   2.196   5.895   5.867
 4381SOL    HW114042   2.239   5.938   5.788
 4381SOL    HW214043   2.115   5.948   5.893
 4382SOL     OW14044   6.825   3.324   5.218
 4382SOL    HW114045   6.782   3.253   5.274
 4382SOL    HW214046   6.904   3.286   5.171
 4383SOL     OW14047   5.510   2.423   6.541
 4383SOL    HW114048   5.554   2.485   6.606
 4383SOL    HW214049   5.444   2.366   6.590
 4384SOL     OW14050   6.758   6.710   3.042
 4384SOL    HW114051   6.839   6.754   3.081
 4384SOL    HW214052   6.700   6.676   3.116
 4385SOL     OW14053   5.568   2.011   4.496
 4385SOL    HW114054   5.626   2.072   4.441
 4385SOL    HW214055   5.580   1.917   4.464
 4386SOL     OW14056   1.099   3.402   5.276
 4386SOL    HW114057   1.102   3.303   5.281
 4386SOL    HW214058   1.134   3.432   5.187
 4387SOL     OW14059   6.735   2.495   0.409
 4387SOL    HW114060   6.670   2.425   0.438
 4387SOL    HW214061   6.753   2.557   0.486
 4388SOL     OW14062   4.614   1.840   6.462
 4388SOL    HW114063   4.631   1.916   6.525
 4388SOL    HW214064   4.692   1.777   6.465
 4389SOL     OW14065   0.082   3.632   1.105
 4389SOL    HW114066   0.152   3.571   1.068
 4389SOL    HW214067   0.029   3.582   1.175
 4390SOL     OW14068   5.875   0.870   1.459
 4390SOL    HW114069   5.887   0.884   1.558
 4390SOL    HW214070   5.939   0.928   1.409
 4391SOL     OW14071   1.855   5.641   6.316
 4391SOL    HW114072   1.825   5.733   6.342
 4391SOL    HW214073   1.923   5.609   6.382
 4392SOL     OW14074   1.313   2.194   4.417
 4392SOL    HW114075   1.258   2.197   4.500
 4392SOL    HW214076   1.410   2.187   4.441
 4393SOL     OW14077   4.830   6.642   1.854
 4393SOL    HW114078   4.910   6.699   1.834
 4393SOL    HW214079   4.853   6.576   1.925
 4394SOL     OW14080   1.841   0.347   1.313
 4394SOL    HW114081   1.913   0.299   1.262
 4394SOL    HW214082   1.824   0.300   1.400
 4395SOL     OW14083   2.636   5.838   1.074
 4395SOL    HW114084   2.671   5.791   0.994
 4395SOL    HW214085   2.537   5.823   1.082
 4396SOL     OW14086   2.295   0.819   3.514
 4396SOL    HW114087   2.285   0.753   3.439
 4396SOL    HW214088   2.263   0.778   3.599
 4397SOL     OW14089   3.052   1.909   3.952
 4397SOL    HW114090   2.984   1.874   4.016
 4397SOL    HW214091   3.144   1.892   3.988
 4398SOL     OW14092   2.244   2.895   6.043
 4398SOL    HW114093   2.334   2.867   6.010
 4398SOL    HW214094   2.226   2.989   6.014
 4399SOL     OW14095   2.585   6.445   2.344
 4399SOL    HW114096   2.638   6.380   2.399
 4399SOL    HW214097   2.625   6.537   2.354
 4400SOL     OW14098   1.972   6.016   4.874
 4400SOL    HW114099   1.981   5.923   4.839
 4400SOL    HW214100   2.058   6.045   4.914
 4401SOL     OW14101   3.393   6.747   5.978
 4401SOL    HW114102   3.365   6.674   6.042
 4401SOL    HW214103   3.434   6.705   5.897
 4402SOL     OW14104   0.798   0.597   3.470
 4402SOL    HW114105   0.712   0.553   3.495
 4402SOL    HW214106   0.847   0.624   3.552
 4403SOL     OW14107   1.251   4.883   0.999
 4403SOL    HW114108   1.248   4.787   0.970
 4403SOL    HW214109   1.346   4.915   0.995
 4404SOL     OW14110   0.727   5.943   6.224
 4404SOL    HW114111   0.705   5.911   6.316
 4404SOL    HW214112   0.778   5.871   6.175
 4405SOL     OW14113   1.851   4.428   3.469
 4405SOL    HW114114   1.812   4.501   3.525
 4405SOL    HW214115   1.806   4.427   3.379
 4406SOL     OW14116   5.895   3.494   2.167
 4406SOL    HW114117   5.915   3.541   2.253
 4406SOL    HW214118   5.810   3.529   2.128
 4407SOL     OW14119   6.842   5.882   2.175
 4407SOL    HW114120   6.828   5.831   2.260
 4407SOL    HW214121   6.822   5.978   2.191
 4408SOL     OW14122   4.201   0.319   0.889
 4408SOL    HW114123   4.149   0.340   0.806
 4408SOL    HW214124   4.298   0.307   0.865
 4409SOL     OW14125   3.772   0.861   2.328
 4409SOL    HW114126   3.777   0.890   2.232
 4409SOL    HW214127   3.831   0.782   2.342
 4410SOL     OW14128   0.998   6.093   1.083
 4410SOL    HW114129   0.985   6.178   1.032
 4410SOL    HW214130   0.910   6.047   1.092
 4411SOL     OW14131   3.140   4.421   5.712
 4411SOL    HW114132   3.109   4.326   5.705
 4411SOL    HW214133   3.152   4.460   5.621
 4412SOL     OW14134   4.393   6.384   2.598
 4412SOL    HW114135   4.466   6.342   2.651
 4412SOL    HW214136   4.366   6.323   2.523
 4413SOL     OW14137   3.787   0.043   3.992
 4413SOL    HW114138   3.824   0.135   3.979
 4413SOL    HW214139   3.823   7.004   3.921
 4414SOL     OW14140   4.776   4.104   1.778
 4414SOL    HW114141   4.685   4.113   1.818
 4414SOL    HW214142   4.768   4.092   1.679
 4415SOL     OW14143   3.204   3.602   1.638
 4415SOL    HW114144   3.263   3.522   1.640
 4415SOL    HW214145   3.248   3.675   1.584
 4416SOL     OW14146   4.137   2.303   3.210
 4416SOL    HW114147   4.223   2.306   3.261
 4416SOL    HW214148   4.061   2.289   3.273
 4417SOL     OW14149   0.636   3.610   3.434
 4417SOL    HW114150   0.575   3.606   3.355
 4417SOL    HW214151   0.691   3.526   3.438
 4418SOL     OW14152   6.066   6.989   0.520
 4418SOL    HW114153   6.127   6.921   0.560
 4418SOL    HW214154   6.116   0.022   0.453
 4419SOL     OW14155   6.737   5.904   6.613
 4419SOL    HW114156   6.690   5.945   6.535
 4419SOL    HW214157   6.827   5.872   6.584
 4420SOL     OW14158   3.556   2.250   0.927
 4420SOL    HW114159   3.607   2.173   0.890
 4420SOL    HW214160   3.616   2.306   0.984
 4421SOL     OW14161   1.618   2.498   4.603
 4421SOL    HW114162   1.694   2.489   4.539
 4421SOL    HW214163   1.639   2.449   4.688
 4422SOL     OW14164   6.974   4.526   6.972
 4422SOL    HW114165   6.989   4.460   0.023
 4422SOL    HW214166   6.886   4.572   6.985
 4423SOL     OW14167   5.226   4.199   5.320
 4423SOL    HW114168   5.180   4.166   5.238
 4423SOL    HW214169   5.202   4.142   5.398
 4424SOL     OW14170   5.088   5.987   3.899
 4424SOL    HW114171   5.083   6.068   3.842
 4424SOL    HW214172   5.068   6.011   3.994
 4425SOL     OW14173   1.286   5.685   1.229
 4425SOL    HW114174   1.249   5.763   1.178
 4425SOL    HW214175   1.353   5.636   1.172
 4426SOL     OW14176   1.286   0.233   4.003
 4426SOL    HW114177   1.323   0.236   3.910
 4426SOL    HW214178   1.188   0.214   3.999
 4427SOL     OW14179   3.568   5.771   3.091
 4427SOL    HW114180   3.604   5.815   3.009
 4427SOL    HW214181   3.599   5.820   3.172
 4428SOL     OW14182   5.620   0.888   3.940
 4428SOL    HW114183   5.630   0.796   3.979
 4428SOL    HW214184   5.702   0.942   3.961
 4429SOL     OW14185   2.743   6.229   3.452
 4429SOL    HW114186   2.755   6.202   3.356
 4429SOL    HW214187   2.695   6.316   3.456
 4430SOL     OW14188   5.110   4.447   4.962
 4430SOL    HW114189   5.177   4.421   5.031
 4430SOL    HW214190   5.153   4.507   4.894
 4431SOL     OW14191   3.168   0.584   4.297
 4431SOL    HW114192   3.189   0.502   4.243
 4431SOL    HW214193   3.077   0.618   4.272
 4432SOL     OW14194   1.225   4.104   6.337
 4432SOL    HW114195   1.169   4.073   6.413
 4432SOL    HW214196   1.322   4.092   6.360
 4433SOL     OW14197   0.863   0.927   5.120
 4433SOL    HW114198   0.863   0.832   5.090
 4433SOL    HW214199   0.955   0.964   5.115
 4434SOL     OW14200   6.864   0.764   1.732
 4434SOL    HW114201   6.897   0.858   1.725
 4434SOL    HW214202   6.915   0.716   1.803
 4435SOL     OW14203   2.738   4.006   0.726
 4435SOL    HW114204   2.737   4.038   0.821
 4435SOL    HW214205   2.667   4.053   0.674
 4436SOL     OW14206   4.553   1.600   1.501
 4436SOL    HW114207   4.562   1.514   1.552
 4436SOL    HW214208   4.575   1.583   1.405
 4437SOL     OW14209   0.167   3.930   1.438
 4437SOL    HW114210   0.177   3.839   1.478
 4437SOL    HW214211   0.202   3.930   1.344
 4438SOL     OW14212   3.918   0.589   6.053
 4438SOL    HW114213   3.962   0.566   5.966
 4438SOL    HW214214   3.917   0.688   6.064
 4439SOL     OW14215   2.151   6.576   2.044
 4439SOL    HW114216   2.078   6.643   2.028
 4439SOL    HW214217   2.191   6.550   1.956
 4440SOL     OW14218   1.941   4.929   0.103
 4440SOL    HW114219   1.848   4.939   0.137
 4440SOL    HW214220   1.974   5.016   0.067
 4441SOL     OW14221   0.298   1.377   0.094
 4441SOL    HW114222   0.314   1.305   0.161
 4441SOL    HW214223   0.219   1.354   0.037
 4442SOL     OW14224   1.955   4.346   6.306
 4442SOL    HW114225   1.857   4.329   6.300
 4442SOL    HW214226   1.971   4.444   6.319
 4443SOL     OW14227   0.206   5.084   5.962
 4443SOL    HW114228   0.156   5.161   5.922
 4443SOL    HW214229   0.227   5.017   5.891
 4444SOL     OW14230   5.425   3.977   0.238
 4444SOL    HW114231   5.493   3.967   0.166
 4444SOL    HW214232   5.335   3.952   0.202
 4445SOL     OW14233   0.265   5.839   0.453
 4445SOL    HW114234   0.238   5.791   0.370
 4445SOL    HW214235   0.343   5.792   0.495
 4446SOL     OW14236   5.022   0.900   0.995
 4446SOL    HW114237   4.965   0.982   0.994
 4446SOL    HW214238   5.087   0.906   1.071
 4447SOL     OW14239   5.109   5.400   5.320
 4447SOL    HW114240   5.080   5.437   5.408
 4447SOL    HW214241   5.183   5.456   5.282
 4448SOL     OW14242   3.521   6.906   1.816
 4448SOL    HW114243   3.430   6.945   1.827
 4448SOL    HW214244   3.576   6.925   1.898
 4449SOL     OW14245   3.896   1.224   5.866
 4449SOL    HW114246   3.816   1.166   5.885
 4449SOL    HW214247   3.924   1.211   5.771
 4450SOL     OW14248   3.486   0.494   0.459
 4450SOL    HW114249   3.545   0.506   0.538
 4450SOL    HW214250   3.429   0.413   0.472
 4451SOL     OW14251   4.771   4.349   3.325
 4451SOL    HW114252   4.748   4.375   3.231
 4451SOL    HW214253   4.826   4.266   3.323
 4452SOL     OW14254   4.942   5.906   4.468
 4452SOL    HW114255   4.980   5.980   4.522
 4452SOL    HW214256   4.885   5.944   4.395
 4453SOL     OW14257   0.290   3.440   1.085
 4453SOL    HW114258   0.253   3.348   1.068
 4453SOL    HW214259   0.390   3.437   1.077
 4454SOL     OW14260   1.001   2.325   0.345
 4454SOL    HW114261   1.047   2.414   0.341
 4454SOL    HW214262   1.059   2.256   0.303
 4455SOL     OW14263   0.291   6.528   4.963
 4455SOL    HW114264   0.333   6.599   4.906
 4455SOL    HW214265   0.199   6.558   4.991
 4456SOL     OW14266   2.008   6.845   4.254
 4456SOL    HW114267   1.912   6.832   4.228
 4456SOL    HW214268   2.022   6.938   4.287
 4457SOL     OW14269   0.348   2.186   4.894
 4457SOL    HW114270   0.405   2.118   4.940
 4457SOL    HW214271   0.312   2.147   4.810
 4458SOL     OW14272   1.953   3.672   0.503
 4458SOL    HW114273   1.871   3.729   0.497
 4458SOL    HW214274   2.008   3.684   0.420
 4459SOL     OW14275   1.326   2.510   3.527
 4459SOL    HW114276   1.401   2.572   3.502
 4459SOL    HW214277   1.348   2.464   3.613
 4460SOL     OW14278   0.093   3.756   4.117
 4460SOL    HW114279   0.023   3.714   4.174
 4460SOL    HW214280   0.114   3.847   4.151
 4461SOL     OW14281   2.466   0.927   1.498
 4461SOL    HW114282   2.387   0.869   1.515
 4461SOL    HW214283   2.442   1.023   1.511
 4462SOL     OW14284   6.111   4.783   2.704
 4462SOL    HW114285   6.198   4.757   2.746
 4462SOL    HW214286   6.036   4.742   2.756
 4463SOL     OW14287   6.068   2.104   0.655
 4463SOL    HW114288   6.068   2.161   0.574
 4463SOL    HW214289   6.081   2.161   0.736
 4464SOL     OW14290   0.530   5.901   0.170
 4464SOL    HW114291   0.571   5.991   0.156
 4464SOL    HW214292   0.542   5.846   0.088
 4465SOL     OW14293   1.944   5.884   0.848
 4465SOL    HW114294   1.869   5.936   0.809
 4465SOL    HW214295   1.949   5.900   0.947
 4466SOL     OW14296   1.920   1.947   3.348
 4466SOL    HW114297   1.830   1.987   3.364
 4466SOL    HW214298   1.927   1.918   3.252
 4467SOL     OW14299   3.582   6.136   3.336
 4467SOL    HW114300   3.595   6.133   3.435
 4467SOL    HW214301   3.492   6.098   3.314
 4468SOL     OW14302   1.431   3.399   1.674
 4468SOL    HW114303   1.348   3.430   1.626
 4468SOL    HW214304   1.446   3.455   1.755
 4469SOL     OW14305   3.094   6.379   0.851
 4469SOL    HW114306   3.073   6.283   0.833
 4469SOL    HW214307   3.079   6.399   0.948
 4470SOL     OW14308   1.237   0.644   2.501
 4470SOL    HW114309   1.314   0.599   2.455
 4470SOL    HW214310   1.154   0.633   2.447
 4471SOL     OW14311   1.309   1.505   6.208
 4471SOL    HW114312   1.228   1.527   6.154
 4471SOL    HW214313   1.327   1.407   6.202
 4472SOL     OW14314   1.381   3.143   0.900
 4472SOL    HW114315   1.463   3.087   0.888
 4472SOL    HW214316   1.301   3.093   0.868
 4473SOL     OW14317   0.065   3.267   4.824
 4473SOL    HW114318   0.078   3.169   4.807
 4473SOL    HW214319   0.028   3.310   4.741
 4474SOL     OW14320   2.929   6.581   1.194
 4474SOL    HW114321   2.968   6.493   1.166
 4474SOL    HW214322   2.831   6.571   1.207
 4475SOL     OW14323   0.698   3.892   1.449
 4475SOL    HW114324   0.667   3.916   1.541
 4475SOL    HW214325   0.797   3.895   1.446
 4476SOL     OW14326   4.812   1.356   3.674
 4476SOL    HW114327   4.898   1.340   3.723
 4476SOL    HW214328   4.773   1.443   3.703
 4477SOL     OW14329   2.133   0.498   5.637
 4477SOL    HW114330   2.113   0.539   5.548
 4477SOL    HW214331   2.184   0.414   5.625
 4478SOL     OW14332   1.781   0.624   0.346
 4478SOL    HW114333   1.791   0.601   0.249
 4478SOL    HW214334   1.760   0.721   0.355
 4479SOL     OW14335   1.758   2.778   0.798
 4479SOL    HW114336   1.735   2.775   0.700
 4479SOL    HW214337   1.857   2.773   0.810
 4480SOL     OW14338   0.673   5.820   4.263
 4480SOL    HW114339   0.703   5.762   4.339
 4480SOL    HW214340   0.610   5.769   4.205
 4481SOL     OW14341   2.692   4.079   6.233
 4481SOL    HW114342   2.607   4.048   6.189
 4481SOL    HW214343   2.733   4.151   6.177
 4482SOL     OW14344   2.850   5.869   6.863
 4482SOL    HW114345   2.879   5.831   6.775
 4482SOL    HW214346   2.906   5.948   6.885
 4483SOL     OW14347   0.396   3.418   1.570
 4483SOL    HW114348   0.320   3.361   1.599
 4483SOL    HW214349   0.483   3.375   1.595
 4484SOL     OW14350   2.536   2.677   6.965
 4484SOL    HW114351   2.551   2.646   0.037
 4484SOL    HW214352   2.442   2.657   6.938
 4485SOL     OW14353   5.544   2.874   4.935
 4485SOL    HW114354   5.460   2.819   4.938
 4485SOL    HW214355   5.550   2.921   4.847
 4486SOL     OW14356   4.457   5.098   5.510
 4486SOL    HW114357   4.537   5.124   5.564
 4486SOL    HW214358   4.457   5.150   5.425
 4487SOL     OW14359   1.424   2.777   0.242
 4487SOL    HW114360   1.374   2.855   0.278
 4487SOL    HW214361   1.473   2.803   0.159
 4488SOL     OW14362   6.806   3.997   4.219
 4488SOL    HW114363   6.868   3.931   4.178
 4488SOL    HW214364   6.806   4.081   4.164
 4489SOL     OW14365   4.210   5.369   5.887
 4489SOL    HW114366   4.255   5.289   5.848
 4489SOL    HW214367   4.112   5.352   5.897
 4490SOL     OW14368   5.021   1.487   0.825
 4490SOL    HW114369   4.974   1.530   0.749
 4490SOL    HW214370   5.057   1.557   0.886
 4491SOL     OW14371   1.312   2.827   3.148
 4491SOL    HW114372   1.237   2.880   3.186
 4491SOL    HW214373   1.278   2.737   3.119
 4492SOL     OW14374   5.572   0.908   1.442
 4492SOL    HW114375   5.665   0.935   1.420
 4492SOL    HW214376   5.572   0.853   1.526
 4493SOL     OW14377   4.777   1.326   4.399
 4493SOL    HW114378   4.694   1.298   4.350
 4493SOL    HW214379   4.784   1.425   4.399
 4494SOL     OW14380   0.733   0.340   0.766
 4494SOL    HW114381   0.708   0.408   0.697
 4494SOL    HW214382   0.816   0.293   0.738
 4495SOL     OW14383   4.912   5.511   1.770
 4495SOL    HW114384   4.985   5.547   1.829
 4495SOL    HW214385   4.947   5.498   1.678
 4496SOL     OW14386   3.635   5.968   6.589
 4496SOL    HW114387   3.553   5.963   6.533
 4496SOL    HW214388   3.654   5.879   6.630
 4497SOL     OW14389   4.083   1.718   6.129
 4497SOL    HW114390   4.007   1.711   6.194
 4497SOL    HW214391   4.048   1.709   6.036
 4498SOL     OW14392   0.774   5.896   5.365
 4498SOL    HW114393   0.695   5.880   5.306
 4498SOL    HW214394   0.847   5.832   5.341
 4499SOL     OW14395   5.836   2.226   2.244
 4499SOL    HW114396   5.845   2.305   2.184
 4499SOL    HW214397   5.837   2.142   2.190
 4500SOL     OW14398   3.444   6.129   6.996
 4500SOL    HW114399   3.488   6.217   7.010
 4500SOL    HW214400   3.455   6.102   6.900
 4501SOL     OW14401   5.107   1.073   2.821
 4501SOL    HW114402   5.051   0.991   2.835
 4501SOL    HW214403   5.188   1.068   2.880
 4502SOL     OW14404   0.585   3.859   0.033
 4502SOL    HW114405   0.493   3.820   0.041
 4502SOL    HW214406   0.601   3.890   6.961
 4503SOL     OW14407   2.540   0.298   2.641
 4503SOL    HW114408   2.487   0.374   2.679
 4503SOL    HW214409   2.566   0.318   2.547
 4504SOL     OW14410   0.473   1.974   3.065
 4504SOL    HW114411   0.462   1.892   3.122
 4504SOL    HW214412   0.557   2.022   3.091
 4505SOL     OW14413   6.436   4.212   3.353
 4505SOL    HW114414   6.392   4.300   3.372
 4505SOL    HW214415   6.523   4.207   3.403
 4506SOL     OW14416   4.882   2.841   4.758
 4506SOL    HW114417   4.847   2.831   4.851
 4506SOL    HW214418   4.949   2.769   4.739
 4507SOL     OW14419   6.519   2.835   3.366
 4507SOL    HW114420   6.511   2.736   3.358
 4507SOL    HW214421   6.430   2.874   3.386
 4508SOL     OW14422   0.388   5.326   0.679
 4508SOL    HW114423   0.393   5.228   0.658
 4508SOL    HW214424   0.294   5.357   0.670
 4509SOL     OW14425   4.793   2.693   2.285
 4509SOL    HW114426   4.864   2.700   2.355
 4509SOL    HW214427   4.773   2.784   2.248
 4510SOL     OW14428   4.282   1.781   4.555
 4510SOL    HW114429   4.302   1.732   4.470
 4510SOL    HW214430   4.317   1.729   4.632
 4511SOL     OW14431   0.847   4.311   0.507
 4511SOL    HW114432   0.903   4.335   0.586
 4511SOL    HW214433   0.762   4.268   0.538
 4512SOL     OW14434   3.275   2.647   5.872
 4512SOL    HW114435   3.292   2.635   5.774
 4512SOL    HW214436   3.357   2.684   5.915
 4513SOL     OW14437   1.123   6.426   0.725
 4513SOL    HW114438   1.185   6.396   0.652
 4513SOL    HW214439   1.043   6.469   0.684
 4514SOL     OW14440   3.301   4.153   0.044
 4514SOL    HW114441   3.276   4.197   0.130
 4514SOL    HW214442   3.278   4.056   0.049
 4515SOL     OW14443   4.612   0.786   5.954
 4515SOL    HW114444   4.624   0.776   5.855
 4515SOL    HW214445   4.588   0.880   5.975
 4516SOL     OW14446   3.495   1.963   4.770
 4516SOL    HW114447   3.594   1.955   4.766
 4516SOL    HW214448   3.470   2.023   4.846
 4517SOL     OW14449   3.422   0.863   5.573
 4517SOL    HW114450   3.403   0.782   5.517
 4517SOL    HW214451   3.352   0.932   5.556
 4518SOL     OW14452   1.559   0.314   0.849
 4518SOL    HW114453   1.612   0.329   0.766
 4518SOL    HW214454   1.596   0.235   0.898
 4519SOL     OW14455   5.065   6.356   6.600
 4519SOL    HW114456   5.155   6.312   6.605
 4519SOL    HW214457   5.032   6.374   6.693
 4520SOL     OW14458   4.758   6.435   4.751
 4520SOL    HW114459   4.855   6.437   4.773
 4520SOL    HW214460   4.712   6.512   4.796
 4521SOL     OW14461   4.308   2.378   4.546
 4521SOL    HW114462   4.254   2.295   4.533
 4521SOL    HW214463   4.326   2.392   4.643
 4522SOL     OW14464   4.980   4.149   3.394
 4522SOL    HW114465   5.059   4.190   3.350
 4522SOL    HW214466   4.960   4.060   3.351
 4523SOL     OW14467   0.170   3.317   6.126
 4523SOL    HW114468   0.121   3.358   6.049
 4523SOL    HW214469   0.265   3.300   6.100
 4524SOL     OW14470   0.973   3.040   2.762
 4524SOL    HW114471   0.899   3.063   2.699
 4524SOL    HW214472   1.042   2.987   2.714
 4525SOL     OW14473   3.050   1.586   5.145
 4525SOL    HW114474   3.076   1.665   5.201
 4525SOL    HW214475   3.117   1.574   5.072
 4526SOL     OW14476   0.430   6.893   6.028
 4526SOL    HW114477   0.474   6.846   5.951
 4526SOL    HW214478   0.357   6.836   6.065
 4527SOL     OW14479   6.609   0.586   2.606
 4527SOL    HW114480   6.667   0.624   2.678
 4527SOL    HW214481   6.589   0.490   2.627
 4528SOL     OW14482   4.098   0.860   5.179
 4528SOL    HW114483   4.126   0.855   5.275
 4528SOL    HW214484   4.079   0.768   5.145
 4529SOL     OW14485   2.281   1.155   4.618
 4529SOL    HW114486   2.343   1.232   4.634
 4529SOL    HW214487   2.333   1.070   4.613
 4530SOL     OW14488   3.252   5.366   5.767
 4530SOL    HW114489   3.316   5.293   5.790
 4530SOL    HW214490   3.226   5.359   5.671
 4531SOL     OW14491   1.112   5.112   5.781
 4531SOL    HW114492   1.095   5.051   5.859
 4531SOL    HW214493   1.196   5.164   5.796
 4532SOL     OW14494   5.752   0.897   2.856
 4532SOL    HW114495   5.701   0.936   2.780
 4532SOL    HW214496   5.847   0.928   2.851
 4533SOL     OW14497   2.774   0.264   2.025
 4533SOL    HW114498   2.748   0.192   1.960
 4533SOL    HW214499   2.794   0.348   1.974
 4534SOL     OW14500   4.670   1.552   3.803
 4534SOL    HW114501   4.645   1.637   3.758
 4534SOL    HW214502   4.588   1.506   3.836
 4535SOL     OW14503   2.527   1.460   1.215
 4535SOL    HW114504   2.498   1.474   1.121
 4535SOL    HW214505   2.622   1.489   1.226
 4536SOL     OW14506   2.874   0.972   5.822
 4536SOL    HW114507   2.782   0.938   5.799
 4536SOL    HW214508   2.876   1.072   5.812
 4537SOL     OW14509   3.669   2.901   3.897
 4537SOL    HW114510   3.627   2.811   3.886
 4537SOL    HW214511   3.735   2.916   3.824
 4538SOL     OW14512   0.207   1.976   0.712
 4538SOL    HW114513   0.264   1.959   0.791
 4538SOL    HW214514   0.194   2.075   0.700
 4539SOL     OW14515   1.514   6.292   5.237
 4539SOL    HW114516   1.421   6.256   5.239
 4539SOL    HW214517   1.579   6.221   5.264
 4540SOL     OW14518   0.622   0.802   6.888
 4540SOL    HW114519   0.608   0.900   6.901
 4540SOL    HW214520   0.716   0.778   6.911
 4541SOL     OW14521   4.509   2.758   5.923
 4541SOL    HW114522   4.580   2.825   5.946
 4541SOL    HW214523   4.480   2.772   5.828
 4542SOL     OW14524   6.383   2.492   1.169
 4542SOL    HW114525   6.284   2.493   1.177
 4542SOL    HW214526   6.418   2.401   1.188
 4543SOL     OW14527   3.327   1.860   0.404
 4543SOL    HW114528   3.309   1.782   0.464
 4543SOL    HW214529   3.346   1.826   0.312
 4544SOL     OW14530   5.432   6.218   0.494
 4544SOL    HW114531   5.390   6.133   0.526
 4544SOL    HW214532   5.531   6.206   0.489
 4545SOL     OW14533   2.113   2.892   5.111
 4545SOL    HW114534   2.051   2.959   5.072
 4545SOL    HW214535   2.204   2.933   5.120
 4546SOL     OW14536   3.199   1.468   6.399
 4546SOL    HW114537   3.166   1.450   6.306
 4546SOL    HW214538   3.152   1.548   6.436
 4547SOL     OW14539   6.644   0.573   0.171
 4547SOL    HW114540   6.659   0.545   0.266
 4547SOL    HW214541   6.732   0.575   0.124
 4548SOL     OW14542   2.206   2.899   2.220
 4548SOL    HW114543   2.260   2.827   2.262
 4548SOL    HW214544   2.263   2.980   2.207
 4549SOL     OW14545   6.094   3.912   3.785
 4549SOL    HW114546   6.061   3.899   3.692
 4549SOL    HW214547   6.075   4.006   3.815
 4550SOL     OW14548   1.207   4.270   3.282
 4550SOL    HW114549   1.213   4.205   3.206
 4550SOL    HW214550   1.138   4.239   3.347
 4551SOL     OW14551   1.096   3.348   4.791
 4551SOL    HW114552   1.116   3.425   4.730
 4551SOL    HW214553   1.182   3.312   4.827
 4552SOL     OW14554   5.809   1.178   1.235
 4552SOL    HW114555   5.884   1.111   1.237
 4552SOL    HW214556   5.746   1.159   1.310
 4553SOL     OW14557   6.369   5.350   6.312
 4553SOL    HW114558   6.339   5.410   6.386
 4553SOL    HW214559   6.320   5.263   6.317
 4554SOL     OW14560   7.004   6.050   2.689
 4554SOL    HW114561   6.914   6.060   2.647
 4554SOL    HW214562   7.018   6.122   2.756
 4555SOL     OW14563   1.159   1.124   6.413
 4555SOL    HW114564   1.150   1.191   6.486
 4555SOL    HW214565   1.086   1.056   6.420
 4556SOL     OW14566   5.874   4.501   5.702
 4556SOL    HW114567   5.961   4.455   5.713
 4556SOL    HW214568   5.853   4.554   5.784
 4557SOL     OW14569   6.698   4.777   2.736
 4557SOL    HW114570   6.606   4.789   2.773
 4557SOL    HW214571   6.703   4.692   2.684
 4558SOL     OW14572   0.448   3.234   5.451
 4558SOL    HW114573   0.377   3.290   5.494
 4558SOL    HW214574   0.426   3.138   5.463
 4559SOL     OW14575   7.002   2.416   2.135
 4559SOL    HW114576   6.943   2.457   2.205
 4559SOL    HW214577   7.007   2.477   2.056
 4560SOL     OW14578   5.892   4.679   2.864
 4560SOL    HW114579   5.919   4.673   2.960
 4560SOL    HW214580   5.793   4.692   2.858
 4561SOL     OW14581   3.916   2.031   4.215
 4561SOL    HW114582   3.990   2.098   4.217
 4561SOL    HW214583   3.869   2.031   4.304
 4562SOL     OW14584   2.823   1.468   1.179
 4562SOL    HW114585   2.825   1.415   1.264
 4562SOL    HW214586   2.915   1.470   1.139
 4563SOL     OW14587   0.754   3.947   1.878
 4563SOL    HW114588   0.660   3.936   1.911
 4563SOL    HW214589   0.752   3.977   1.783
 4564SOL     OW14590   0.753   3.758   2.285
 4564SOL    HW114591   0.707   3.670   2.299
 4564SOL    HW214592   0.806   3.754   2.201
 4565SOL     OW14593   1.896   5.884   5.954
 4565SOL    HW114594   1.886   5.785   5.961
 4565SOL    HW214595   1.854   5.927   6.034
 4566SOL     OW14596   5.943   4.680   2.186
 4566SOL    HW114597   5.991   4.687   2.274
 4566SOL    HW214598   5.989   4.737   2.118
 4567SOL     OW14599   0.367   0.523   6.550
 4567SOL    HW114600   0.362   0.617   6.583
 4567SOL    HW214601   0.458   0.485   6.569
 4568SOL     OW14602   1.363   5.502   3.415
 4568SOL    HW114603   1.434   5.487   3.346
 4568SOL    HW214604   1.406   5.515   3.504
 4569SOL     OW14605   2.548   0.889   3.454
 4569SOL    HW114606   2.448   0.880   3.462
 4569SOL    HW214607   2.573   0.891   3.357
 4570SOL     OW14608   5.468   5.214   2.158
 4570SOL    HW114609   5.551   5.183   2.111
 4570SOL    HW214610   5.475   5.313   2.174
 4571SOL     OW14611   2.940   3.569   6.370
 4571SOL    HW114612   2.884   3.486   6.378
 4571SOL    HW214613   3.025   3.546   6.323
 4572SOL     OW14614   2.894   2.966   1.694
 4572SOL    HW114615   2.988   2.964   1.728
 4572SOL    HW214616   2.861   2.872   1.683
 4573SOL     OW14617   2.026   5.855   1.713
 4573SOL    HW114618   1.986   5.912   1.642
 4573SOL    HW214619   1.954   5.807   1.762
 4574SOL     OW14620   5.697   1.278   1.001
 4574SOL    HW114621   5.689   1.234   0.912
 4574SOL    HW214622   5.728   1.212   1.069
 4575SOL     OW14623   6.936   6.333   4.600
 4575SOL    HW114624   6.879   6.377   4.531
 4575SOL    HW214625   6.901   6.355   4.691
 4576SOL     OW14626   2.595   5.101   4.976
 4576SOL    HW114627   2.675   5.042   4.980
 4576SOL    HW214628   2.567   5.114   4.881
 4577SOL     OW14629   1.943   1.632   2.554
 4577SOL    HW114630   1.946   1.593   2.646
 4577SOL    HW214631   2.031   1.617   2.509
 4578SOL     OW14632   1.156   1.188   2.189
 4578SOL    HW114633   1.130   1.191   2.093
 4578SOL    HW214634   1.152   1.094   2.222
 4579SOL     OW14635   3.894   1.678   2.249
 4579SOL    HW114636   3.992   1.683   2.269
 4579SOL    HW214637   3.849   1.762   2.281
 4580SOL     OW14638   6.865   2.936   0.263
 4580SOL    HW114639   6.887   2.989   0.181
 4580SOL    HW214640   6.809   2.858   0.239
 4581SOL     OW14641   3.349   0.566   1.519
 4581SOL    HW114642   3.413   0.491   1.532
 4581SOL    HW214643   3.346   0.591   1.423
 4582SOL     OW14644   6.258   0.988   3.510
 4582SOL    HW114645   6.305   0.963   3.426
 4582SOL    HW214646   6.160   0.970   3.500
 4583SOL     OW14647   1.446   0.069   6.749
 4583SOL    HW114648   1.413   0.125   6.673
 4583SOL    HW214649   1.466   6.998   6.715
 4584SOL     OW14650   1.718   0.706   5.499
 4584SOL    HW114651   1.793   0.704   5.566
 4584SOL    HW214652   1.672   0.794   5.503
 4585SOL     OW14653   1.537   3.677   3.457
 4585SOL    HW114654   1.548   3.711   3.364
 4585SOL    HW214655   1.481   3.594   3.455
 4586SOL     OW14656   5.884   4.748   6.752
 4586SOL    HW114657   5.881   4.671   6.688
 4586SOL    HW214658   5.814   4.735   6.822
 4587SOL     OW14659   3.032   3.633   4.574
 4587SOL    HW114660   2.966   3.633   4.649
 4587SOL    HW214661   2.998   3.576   4.499
 4588SOL     OW14662   3.070   4.164   5.754
 4588SOL    HW114663   2.983   4.161   5.804
 4588SOL    HW214664   3.065   4.105   5.674
 4589SOL     OW14665   5.591   0.426   2.600
 4589SOL    HW114666   5.653   0.384   2.667
 4589SOL    HW214667   5.638   0.501   2.553
 4590SOL     OW14668   3.296   5.618   1.260
 4590SOL    HW114669   3.333   5.708   1.235
 4590SOL    HW214670   3.331   5.591   1.350
 4591SOL     OW14671   2.243   0.258   5.628
 4591SOL    HW114672   2.301   0.217   5.699
 4591SOL    HW214673   2.208   0.185   5.569
 4592SOL     OW14674   2.080   1.844   4.261
 4592SOL    HW114675   2.102   1.927   4.210
 4592SOL    HW214676   2.117   1.765   4.211
 4593SOL     OW14677   1.807   5.909   4.426
 4593SOL    HW114678   1.900   5.873   4.420
 4593SOL    HW214679   1.805   5.986   4.491
 4594SOL     OW14680   1.782   0.397   2.790
 4594SOL    HW114681   1.748   0.338   2.863
 4594SOL    HW214682   1.708   0.454   2.756
 4595SOL     OW14683   5.206   1.877   6.555
 4595SOL    HW114684   5.196   1.895   6.457
 4595SOL    HW214685   5.299   1.845   6.573
 4596SOL     OW14686   0.661   0.933   2.511
 4596SOL    HW114687   0.599   0.895   2.580
 4596SOL    HW214688   0.608   0.965   2.432
 4597SOL     OW14689   2.866   6.162   6.953
 4597SOL    HW114690   2.769   6.144   6.934
 4597SOL    HW214691   2.892   6.251   6.916
 4598SOL     OW14692   2.000   5.340   0.260
 4598SOL    HW114693   1.953   5.417   0.303
 4598SOL    HW214694   2.084   5.373   0.216
 4599SOL     OW14695   2.452   5.422   3.466
 4599SOL    HW114696   2.418   5.476   3.389
 4599SOL    HW214697   2.420   5.327   3.457
 4600SOL     OW14698   0.003   6.458   5.863
 4600SOL    HW114699   6.930   6.466   5.835
 4600SOL    HW214700   0.009   6.448   5.962
 4601SOL     OW14701   1.421   1.044   5.025
 4601SOL    HW114702   1.326   1.069   5.001
 4601SOL    HW214703   1.476   1.127   5.031
 4602SOL     OW14704   2.840   2.382   6.717
 4602SOL    HW114705   2.910   2.426   6.663
 4602SOL    HW214706   2.868   2.379   6.813
 4603SOL     OW14707   5.203   6.734   0.820
 4603SOL    HW114708   5.302   6.744   0.809
 4603SOL    HW214709   5.160   6.725   0.730
 4604SOL     OW14710   5.562   6.816   5.644
 4604SOL    HW114711   5.601   6.807   5.735
 4604SOL    HW214712   5.462   6.819   5.651
 4605SOL     OW14713   3.116   0.332   2.144
 4605SOL    HW114714   3.193   0.392   2.162
 4605SOL    HW214715   3.139   0.268   2.070
 4606SOL     OW14716   6.727   6.442   4.138
 4606SOL    HW114717   6.675   6.527   4.133
 4606SOL    HW214718   6.680   6.372   4.084
 4607SOL     OW14719   1.904   2.683   1.605
 4607SOL    HW114720   1.870   2.595   1.574
 4607SOL    HW214721   1.849   2.756   1.565
 4608SOL     OW14722   0.030   3.550   4.428
 4608SOL    HW114723   0.071   3.637   4.401
 4608SOL    HW214724   0.095   3.476   4.413
 4609SOL     OW14725   4.879   6.347   6.905
 4609SOL    HW114726   4.861   6.279   6.834
 4609SOL    HW214727   4.863   6.307   6.995
 4610SOL     OW14728   5.078   3.270   0.236
 4610SOL    HW114729   5.038   3.313   0.155
 4610SOL    HW214730   5.062   3.172   0.232
 4611SOL     OW14731   1.168   0.652   6.178
 4611SOL    HW114732   1.143   0.609   6.091
 4611SOL    HW214733   1.086   0.674   6.229
 4612SOL     OW14734   2.211   0.008   1.348
 4612SOL    HW114735   2.242   0.086   1.293
 4612SOL    HW214736   2.165   0.043   1.430
 4613SOL     OW14737   1.515   4.837   1.783
 4613SOL    HW114738   1.523   4.821   1.882
 4613SOL    HW214739   1.549   4.757   1.734
 4614SOL     OW14740   6.302   4.056   4.403
 4614SOL    HW114741   6.391   4.099   4.389
 4614SOL    HW214742   6.254   4.104   4.477
 4615SOL     OW14743   0.778   2.232   0.599
 4615SOL    HW114744   0.691   2.203   0.558
 4615SOL    HW214745   0.803   2.322   0.563
 4616SOL     OW14746   6.111   2.803   5.596
 4616SOL    HW114747   6.101   2.902   5.580
 4616SOL    HW214748   6.174   2.788   5.672
 4617SOL     OW14749   0.352   2.659   2.878
 4617SOL    HW114750   0.325   2.705   2.794
 4617SOL    HW214751   0.338   2.720   2.956
 4618SOL     OW14752   1.882   4.447   5.533
 4618SOL    HW114753   1.857   4.385   5.608
 4618SOL    HW214754   1.816   4.437   5.459
 4619SOL     OW14755   3.975   6.436   5.515
 4619SOL    HW114756   3.935   6.386   5.438
 4619SOL    HW214757   4.063   6.476   5.486
 4620SOL     OW14758   0.723   5.243   2.701
 4620SOL    HW114759   0.625   5.235   2.684
 4620SOL    HW214760   0.773   5.214   2.619
 4621SOL     OW14761   4.563   0.501   2.769
 4621SOL    HW114762   4.530   0.559   2.694
 4621SOL    HW214763   4.572   0.556   2.852
 4622SOL     OW14764   4.922   6.002   1.551
 4622SOL    HW114765   4.928   5.928   1.484
 4622SOL    HW214766   4.955   5.970   1.639
 4623SOL     OW14767   2.740   5.190   1.432
 4623SOL    HW114768   2.800   5.117   1.398
 4623SOL    HW214769   2.738   5.187   1.532
 4624SOL     OW14770   4.336   1.139   2.029
 4624SOL    HW114771   4.390   1.071   2.078
 4624SOL    HW214772   4.239   1.128   2.054
 4625SOL     OW14773   1.559   5.559   1.154
 4625SOL    HW114774   1.530   5.471   1.116
 4625SOL    HW214775   1.611   5.610   1.085
 4626SOL     OW14776   3.926   4.009   1.893
 4626SOL    HW114777   3.893   4.007   1.987
 4626SOL    HW214778   4.011   4.061   1.888
 4627SOL     OW14779   5.941   6.651   4.911
 4627SOL    HW114780   5.874   6.724   4.925
 4627SOL    HW214781   6.021   6.669   4.968
 4628SOL     OW14782   5.805   4.969   4.045
 4628SOL    HW114783   5.848   5.040   3.989
 4628SOL    HW214784   5.872   4.932   4.110
 4629SOL     OW14785   2.598   6.548   6.886
 4629SOL    HW114786   2.672   6.600   6.843
 4629SOL    HW214787   2.511   6.593   6.869
 4630SOL     OW14788   1.587   3.427   2.392
 4630SOL    HW114789   1.514   3.411   2.326
 4630SOL    HW214790   1.675   3.432   2.344
 4631SOL     OW14791   0.461   0.761   3.476
 4631SOL    HW114792   0.362   0.755   3.473
 4631SOL    HW214793   0.501   0.693   3.414
 4632SOL     OW14794   3.127   4.882   2.504
 4632SOL    HW114795   3.118   4.890   2.603
 4632SOL    HW214796   3.148   4.972   2.466
 4633SOL     OW14797   5.163   1.199   4.287
 4633SOL    HW114798   5.123   1.235   4.371
 4633SOL    HW214799   5.123   1.246   4.208
 4634SOL     OW14800   2.872   3.619   4.786
 4634SOL    HW114801   2.785   3.655   4.817
 4634SOL    HW214802   2.873   3.520   4.797
 4635SOL     OW14803   4.886   6.109   0.924
 4635SOL    HW114804   4.890   6.195   0.975
 4635SOL    HW214805   4.945   6.116   0.843
 4636SOL     OW14806   1.880   5.551   0.774
 4636SOL    HW114807   1.822   5.495   0.716
 4636SOL    HW214808   1.895   5.640   0.731
 4637SOL     OW14809   2.573   0.957   2.387
 4637SOL    HW114810   2.667   0.932   2.365
 4637SOL    HW214811   2.535   1.012   2.313
 4638SOL     OW14812   3.150   4.885   6.883
 4638SOL    HW114813   3.235   4.847   6.849
 4638SOL    HW214814   3.126   4.968   6.832
 4639SOL     OW14815   2.691   2.343   1.581
 4639SOL    HW114816   2.762   2.392   1.531
 4639SOL    HW214817   2.682   2.383   1.673
 4640SOL     OW14818   6.611   2.485   6.323
 4640SOL    HW114819   6.711   2.487   6.332
 4640SOL    HW214820   6.576   2.397   6.354
 4641SOL     OW14821   0.945   5.615   4.419
 4641SOL    HW114822   0.993   5.539   4.462
 4641SOL    HW214823   0.888   5.661   4.487
 4642SOL     OW14824   0.300   1.364   3.261
 4642SOL    HW114825   0.341   1.287   3.310
 4642SOL    HW214826   0.289   1.340   3.165
 4643SOL     OW14827   0.310   1.624   0.006
 4643SOL    HW114828   0.306   1.537   0.055
 4643SOL    HW214829   0.245   1.688   0.047
 4644SOL     OW14830   1.344   1.333   0.307
 4644SOL    HW114831   1.442   1.350   0.314
 4644SOL    HW214832   1.305   1.390   0.235
 4645SOL     OW14833   1.038   1.661   3.785
 4645SOL    HW114834   1.081   1.739   3.831
 4645SOL    HW214835   0.951   1.640   3.830
 4646SOL     OW14836   1.911   4.508   3.904
 4646SOL    HW114837   1.981   4.469   3.843
 4646SOL    HW214838   1.829   4.529   3.851
 4647SOL     OW14839   1.223   6.684   2.755
 4647SOL    HW114840   1.281   6.609   2.723
 4647SOL    HW214841   1.182   6.660   2.843
 4648SOL     OW14842   2.634   1.642   4.644
 4648SOL    HW114843   2.635   1.680   4.736
 4648SOL    HW214844   2.548   1.665   4.599
 4649SOL     OW14845   5.432   0.345   0.451
 4649SOL    HW114846   5.473   0.409   0.516
 4649SOL    HW214847   5.336   0.329   0.476
 4650SOL     OW14848   5.518   6.115   1.422
 4650SOL    HW114849   5.487   6.186   1.486
 4650SOL    HW214850   5.507   6.148   1.328
 4651SOL     OW14851   5.948   3.373   6.438
 4651SOL    HW114852   5.862   3.424   6.440
 4651SOL    HW214853   5.943   3.303   6.367
 4652SOL     OW14854   0.185   6.331   4.219
 4652SOL    HW114855   0.113   6.263   4.204
 4652SOL    HW214856   0.181   6.399   4.147
 4653SOL     OW14857   5.318   5.468   0.795
 4653SOL    HW114858   5.411   5.431   0.798
 4653SOL    HW214859   5.318   5.562   0.828
 4654SOL     OW14860   0.129   6.850   5.394
 4654SOL    HW114861   0.174   6.873   5.481
 4654SOL    HW214862   0.198   6.827   5.326
 4655SOL     OW14863   4.577   2.335   0.943
 4655SOL    HW114864   4.481   2.339   0.916
 4655SOL    HW214865   4.623   2.419   0.913
 4656SOL     OW14866   0.757   1.259   1.647
 4656SOL    HW114867   0.812   1.262   1.563
 4656SOL    HW214868   0.763   1.347   1.694
 4657SOL     OW14869   5.508   6.842   1.952
 4657SOL    HW114870   5.478   6.799   2.038
 4657SOL    HW214871   5.593   6.892   1.968
 4658SOL     OW14872   1.850   2.603   6.189
 4658SOL    HW114873   1.922   2.671   6.174
 4658SOL    HW214874   1.885   2.512   6.165
 4659SOL     OW14875   3.010   4.872   0.373
 4659SOL    HW114876   2.976   4.778   0.380
 4659SOL    HW214877   3.048   4.886   0.281
 4660SOL     OW14878   1.733   6.455   4.434
 4660SOL    HW114879   1.709   6.378   4.493
 4660SOL    HW214880   1.675   6.456   4.353
 4661SOL     OW14881   0.974   2.759   5.606
 4661SOL    HW114882   0.881   2.795   5.611
 4661SOL    HW214883   1.026   2.811   5.539
 4662SOL     OW14884   2.746   6.460   5.212
 4662SOL    HW114885   2.649   6.479   5.199
 4662SOL    HW214886   2.770   6.376   5.163
 4663SOL     OW14887   1.657   6.795   0.405
 4663SOL    HW114888   1.690   6.710   0.365
 4663SOL    HW214889   1.723   6.868   0.388
 4664SOL     OW14890   6.642   6.407   0.100
 4664SOL    HW114891   6.596   6.464   0.168
 4664SOL    HW214892   6.718   6.359   0.142
 4665SOL     OW14893   1.938   0.302   4.645
 4665SOL    HW114894   2.030   0.329   4.619
 4665SOL    HW214895   1.873   0.373   4.619
 4666SOL     OW14896   2.077   1.968   5.365
 4666SOL    HW114897   2.123   2.048   5.328
 4666SOL    HW214898   2.095   1.961   5.464
 4667SOL     OW14899   6.232   3.504   1.422
 4667SOL    HW114900   6.184   3.569   1.480
 4667SOL    HW214901   6.203   3.411   1.445
 4668SOL     OW14902   4.104   2.203   4.246
 4668SOL    HW114903   4.147   2.240   4.328
 4668SOL    HW214904   4.141   2.248   4.165
 4669SOL     OW14905   5.749   6.686   6.690
 4669SOL    HW114906   5.668   6.704   6.747
 4669SOL    HW214907   5.732   6.718   6.597
 4670SOL     OW14908   1.065   3.018   0.570
 4670SOL    HW114909   1.094   3.098   0.623
 4670SOL    HW214910   1.012   2.957   0.629
 4671SOL     OW14911   0.562   3.713   0.265
 4671SOL    HW114912   0.611   3.774   0.202
 4671SOL    HW214913   0.481   3.761   0.301
 4672SOL     OW14914   2.900   3.913   6.159
 4672SOL    HW114915   2.895   3.950   6.067
 4672SOL    HW214916   2.813   3.927   6.206
 4673SOL     OW14917   5.712   0.398   6.895
 4673SOL    HW114918   5.802   0.437   6.913
 4673SOL    HW214919   5.694   0.323   6.959
 4674SOL     OW14920   1.441   1.733   0.934
 4674SOL    HW114921   1.507   1.792   0.887
 4674SOL    HW214922   1.371   1.790   0.977
 4675SOL     OW14923   2.669   6.439   0.117
 4675SOL    HW114924   2.633   6.446   0.025
 4675SOL    HW214925   2.735   6.513   0.133
 4676SOL     OW14926   0.447   5.923   3.962
 4676SOL    HW114927   0.490   5.887   4.045
 4676SOL    HW214928   0.517   5.960   3.902
 4677SOL     OW14929   4.456   0.293   6.495
 4677SOL    HW114930   4.515   0.224   6.537
 4677SOL    HW214931   4.495   0.320   6.407
 4678SOL     OW14932   2.150   4.486   0.067
 4678SOL    HW114933   2.223   4.485   0.136
 4678SOL    HW214934   2.064   4.458   0.110
 4679SOL     OW14935   3.354   0.757   6.116
 4679SOL    HW114936   3.299   0.830   6.076
 4679SOL    HW214937   3.320   0.669   6.084
 4680SOL     OW14938   1.850   4.701   0.396
 4680SOL    HW114939   1.828   4.610   0.431
 4680SOL    HW214940   1.942   4.700   0.357
 4681SOL     OW14941   0.473   5.689   5.417
 4681SOL    HW114942   0.477   5.742   5.332
 4681SOL    HW214943   0.452   5.750   5.494
 4682SOL     OW14944   4.332   6.443   0.749
 4682SOL    HW114945   4.382   6.474   0.668
 4682SOL    HW214946   4.360   6.497   0.829
 4683SOL     OW14947   6.226   4.322   2.913
 4683SOL    HW114948   6.318   4.351   2.940
 4683SOL    HW214949   6.166   4.323   2.993
 4684SOL     OW14950   1.334   1.332   4.519
 4684SOL    HW114951   1.267   1.386   4.468
 4684SOL    HW214952   1.414   1.316   4.461
 4685SOL     OW14953   5.435   5.059   4.810
 4685SOL    HW114954   5.426   4.971   4.764
 4685SOL    HW214955   5.371   5.125   4.770
 4686SOL     OW14956   4.437   5.920   6.993
 4686SOL    HW114957   4.359   5.865   7.021
 4686SOL    HW214958   4.406   6.005   6.952
 4687SOL     OW14959   6.748   5.738   4.813
 4687SOL    HW114960   6.778   5.648   4.780
 4687SOL    HW214961   6.653   5.732   4.842
 4688SOL     OW14962   0.535   2.468   6.464
 4688SOL    HW114963   0.566   2.485   6.558
 4688SOL    HW214964   0.454   2.523   6.445
 4689SOL     OW14965   0.603   6.306   5.302
 4689SOL    HW114966   0.612   6.253   5.217
 4689SOL    HW214967   0.547   6.387   5.284
 4690SOL     OW14968   1.450   2.264   6.952
 4690SOL    HW114969   1.367   2.233   6.906
 4690SOL    HW214970   1.451   2.364   6.955
 4691SOL     OW14971   2.194   5.454   0.830
 4691SOL    HW114972   2.110   5.424   0.785
 4691SOL    HW214973   2.184   5.447   0.929
 4692SOL     OW14974   0.223   5.106   3.286
 4692SOL    HW114975   0.171   5.132   3.368
 4692SOL    HW214976   0.319   5.093   3.309
 4693SOL     OW14977   0.544   1.208   4.107
 4693SOL    HW114978   0.537   1.293   4.054
 4693SOL    HW214979   0.488   1.215   4.189
 4694SOL     OW14980   1.592   2.091   6.600
 4694SOL    HW114981   1.594   2.054   6.692
 4694SOL    HW214982   1.660   2.044   6.543
 4695SOL     OW14983   3.380   3.048   2.157
 4695SOL    HW114984   3.423   3.059   2.067
 4695SOL    HW214985   3.363   3.139   2.196
 4696SOL     OW14986   0.047   2.902   6.516
 4696SOL    HW114987   7.000   2.880   6.585
 4696SOL    HW214988   0.022   2.988   6.470
 4697SOL     OW14989   0.894   5.198   0.054
 4697SOL    HW114990   0.919   5.283   0.101
 4697SOL    HW214991   0.881   5.125   0.122
 4698SOL     OW14992   5.668   3.534   0.795
 4698SOL    HW114993   5.651   3.585   0.711
 4698SOL    HW214994   5.714   3.593   0.861
 4699SOL     OW14995   6.824   7.015   2.729
 4699SOL    HW114996   6.903   0.055   2.723
 4699SOL    HW214997   6.772   7.019   2.644
 4700SOL     OW14998   4.969   1.218   0.857
 4700SOL    HW114999   4.957   1.318   0.862
 4700SOL    HW215000   4.922   1.175   0.933
 4701SOL     OW15001   0.420   0.914   0.909
 4701SOL    HW115002   0.468   0.835   0.870
 4701SOL    HW215003   0.367   0.884   0.988
 4702SOL     OW15004   3.473   3.979   0.459
 4702SOL    HW115005   3.448   3.891   0.500
 4702SOL    HW215006   3.523   3.963   0.374
 4703SOL     OW15007   2.264   0.600   2.369
 4703SOL    HW115008   2.225   0.677   2.318
 4703SOL    HW215009   2.219   0.515   2.341
 4704SOL     OW15010   5.646   6.324   0.922
 4704SOL    HW115011   5.690   6.245   0.880
 4704SOL    HW215012   5.547   6.318   0.910
 4705SOL     OW15013   3.025   3.786   4.117
 4705SOL    HW115014   3.087   3.758   4.044
 4705SOL    HW215015   3.073   3.849   4.178
 4706SOL     OW15016   3.985   5.669   0.044
 4706SOL    HW115017   3.954   5.754   0.002
 4706SOL    HW215018   3.955   5.591   7.011
 4707SOL     OW15019   2.206   5.724   0.861
 4707SOL    HW115020   2.176   5.628   0.855
 4707SOL    HW215021   2.129   5.784   0.839
 4708SOL     OW15022   2.319   2.355   2.052
 4708SOL    HW115023   2.360   2.290   2.116
 4708SOL    HW215024   2.229   2.322   2.024
 4709SOL     OW15025   4.141   4.820   5.862
 4709SOL    HW115026   4.169   4.875   5.782
 4709SOL    HW215027   4.059   4.861   5.903
 4710SOL     OW15028   4.525   1.302   0.310
 4710SOL    HW115029   4.441   1.268   0.267
 4710SOL    HW215030   4.502   1.355   0.392
 4711SOL     OW15031   3.214   0.392   2.553
 4711SOL    HW115032   3.201   0.311   2.495
 4711SOL    HW215033   3.198   0.474   2.498
 4712SOL     OW15034   1.798   4.967   0.507
 4712SOL    HW115035   1.865   5.005   0.571
 4712SOL    HW215036   1.832   4.880   0.471
 4713SOL     OW15037   1.682   5.379   0.666
 4713SOL    HW115038   1.623   5.361   0.587
 4713SOL    HW215039   1.625   5.396   0.746
 4714SOL     OW15040   3.023   2.104   1.347
 4714SOL    HW115041   3.060   2.123   1.438
 4714SOL    HW215042   2.969   2.020   1.350
 4715SOL     OW15043   0.117   3.292   3.599
 4715SOL    HW115044   0.112   3.335   3.689
 4715SOL    HW215045   0.074   3.352   3.531
 4716SOL     OW15046   3.203   5.700   0.746
 4716SOL    HW115047   3.229   5.606   0.724
 4716SOL    HW215048   3.140   5.700   0.824
 4717SOL     OW15049   1.598   6.314   3.524
 4717SOL    HW115050   1.543   6.321   3.441
 4717SOL    HW215051   1.678   6.256   3.505
 4718SOL     OW15052   5.964   1.196   5.682
 4718SOL    HW115053   5.943   1.242   5.596
 4718SOL    HW215054   5.887   1.207   5.746
 4719SOL     OW15055   4.230   3.044   0.892
 4719SOL    HW115056   4.142   3.026   0.847
 4719SOL    HW215057   4.266   3.131   0.860
 4720SOL     OW15058   2.540   0.669   5.273
 4720SOL    HW115059   2.464   0.693   5.214
 4720SOL    HW215060   2.575   0.751   5.318
 4721SOL     OW15061   1.602   1.959   1.296
 4721SOL    HW115062   1.520   1.915   1.335
 4721SOL    HW215063   1.574   2.018   1.221
 4722SOL     OW15064   2.567   0.250   0.760
 4722SOL    HW115065   2.499   0.279   0.692
 4722SOL    HW215066   2.626   0.180   0.720
 4723SOL     OW15067   2.406   6.934   6.810
 4723SOL    HW115068   2.446   6.906   6.723
 4723SOL    HW215069   2.383   6.853   6.864
 4724SOL     OW15070   4.020   6.137   1.812
 4724SOL    HW115071   3.930   6.153   1.771
 4724SOL    HW215072   4.085   6.205   1.777
 4725SOL     OW15073   5.026   6.430   3.529
 4725SOL    HW115074   5.001   6.519   3.567
 4725SOL    HW215075   4.945   6.387   3.488
 4726SOL     OW15076   0.508   4.771   6.182
 4726SOL    HW115077   0.450   4.731   6.253
 4726SOL    HW215078   0.475   4.864   6.161
 4727SOL     OW15079   0.247   5.484   0.151
 4727SOL    HW115080   0.279   5.577   0.172
 4727SOL    HW215081   0.315   5.437   0.096
 4728SOL     OW15082   0.242   0.976   6.896
 4728SOL    HW115083   0.251   0.881   6.868
 4728SOL    HW215084   0.270   1.036   6.820
 4729SOL     OW15085   3.097   0.493   1.601
 4729SOL    HW115086   3.187   0.532   1.582
 4729SOL    HW215087   3.097   0.454   1.693
 4730SOL     OW15088   1.854   6.966   5.721
 4730SOL    HW115089   1.951   6.943   5.727
 4730SOL    HW215090   1.812   6.917   5.645
 4731SOL     OW15091   5.410   1.471   4.894
 4731SOL    HW115092   5.452   1.382   4.876
 4731SOL    HW215093   5.463   1.543   4.849
 4732SOL     OW15094   0.316   2.363   0.033
 4732SOL    HW115095   0.405   2.390   0.068
 4732SOL    HW215096   0.245   2.425   0.068
 4733SOL     OW15097   0.068   3.636   2.918
 4733SOL    HW115098   0.099   3.543   2.898
 4733SOL    HW215099   0.145   3.689   2.954
 4734SOL     OW15100   4.023   4.374   6.793
 4734SOL    HW115101   4.002   4.287   6.838
 4734SOL    HW215102   4.082   4.429   6.853
 4735SOL     OW15103   1.450   4.633   3.611
 4735SOL    HW115104   1.428   4.611   3.706
 4735SOL    HW215105   1.426   4.556   3.552
 4736SOL     OW15106   1.264   0.859   0.355
 4736SOL    HW115107   1.339   0.794   0.359
 4736SOL    HW215108   1.294   0.948   0.388
 4737SOL     OW15109   2.226   5.251   1.976
 4737SOL    HW115110   2.319   5.230   1.945
 4737SOL    HW215111   2.200   5.342   1.943
 4738SOL     OW15112   6.778   6.120   2.517
 4738SOL    HW115113   6.707   6.051   2.499
 4738SOL    HW215114   6.812   6.156   2.430
 4739SOL     OW15115   4.521   0.967   1.234
 4739SOL    HW115116   4.588   0.894   1.247
 4739SOL    HW215117   4.516   0.989   1.136
 4740SOL     OW15118   1.154   1.476   3.005
 4740SOL    HW115119   1.068   1.476   3.055
 4740SOL    HW215120   1.227   1.513   3.063
 4741SOL     OW15121   4.167   3.746   1.464
 4741SOL    HW115122   4.262   3.722   1.486
 4741SOL    HW215123   4.157   3.845   1.466
 4742SOL     OW15124   3.667   7.011   0.685
 4742SOL    HW115125   3.572   0.015   0.699
 4742SOL    HW215126   3.672   6.934   0.621
 4743SOL     OW15127   2.338   4.931   1.468
 4743SOL    HW115128   2.337   4.995   1.391
 4743SOL    HW215129   2.418   4.871   1.460
 4744SOL     OW15130   2.022   6.266   0.668
 4744SOL    HW115131   1.979   6.261   0.758
 4744SOL    HW215132   1.958   6.233   0.599
 4745SOL     OW15133   1.157   4.525   0.323
 4745SOL    HW115134   1.126   4.540   0.229
 4745SOL    HW215135   1.240   4.579   0.339
 4746SOL     OW15136   4.915   5.373   4.438
 4746SOL    HW115137   4.921   5.449   4.503
 4746SOL    HW215138   4.836   5.386   4.379
 4747SOL     OW15139   1.524   2.162   1.131
 4747SOL    HW115140   1.514   2.245   1.186
 4747SOL    HW215141   1.615   2.159   1.091
 4748SOL     OW15142   1.360   6.806   3.226
 4748SOL    HW115143   1.291   6.853   3.172
 4748SOL    HW215144   1.448   6.854   3.219
 4749SOL     OW15145   2.273   0.594   6.832
 4749SOL    HW115146   2.200   0.573   6.767
 4749SOL    HW215147   2.285   0.693   6.838
 4750SOL     OW15148   5.229   3.077   5.410
 4750SOL    HW115149   5.297   3.136   5.452
 4750SOL    HW215150   5.159   3.053   5.478
 4751SOL     OW15151   4.415   0.603   3.216
 4751SOL    HW115152   4.334   0.655   3.243
 4751SOL    HW215153   4.491   0.627   3.278
 4752SOL     OW15154   4.657   1.949   0.040
 4752SOL    HW115155   4.647   1.888   0.118
 4752SOL    HW215156   4.602   1.915   6.986
 4753SOL     OW15157   3.315   5.647   5.200
 4753SOL    HW115158   3.278   5.730   5.243
 4753SOL    HW215159   3.411   5.637   5.223
 4754SOL     OW15160   4.996   4.809   6.252
 4754SOL    HW115161   4.916   4.843   6.302
 4754SOL    HW215162   5.062   4.771   6.317
 4755SOL     OW15163   1.910   0.821   1.352
 4755SOL    HW115164   1.949   0.872   1.428
 4755SOL    HW215165   1.839   0.759   1.385
 4756SOL     OW15166   6.216   4.167   6.607
 4756SOL    HW115167   6.238   4.256   6.566
 4756SOL    HW215168   6.255   4.094   6.551
 4757SOL     OW15169   1.924   3.973   1.802
 4757SOL    HW115170   1.967   3.969   1.892
 4757SOL    HW215171   1.838   4.023   1.808
 4758SOL     OW15172   2.953   6.664   3.372
 4758SOL    HW115173   2.957   6.692   3.276
 4758SOL    HW215174   2.871   6.704   3.415
 4759SOL     OW15175   1.191   5.104   1.130
 4759SOL    HW115176   1.102   5.132   1.095
 4759SOL    HW215177   1.219   5.019   1.085
 4760SOL     OW15178   1.779   5.865   1.148
 4760SOL    HW115179   1.694   5.888   1.195
 4760SOL    HW215180   1.826   5.949   1.121
 4761SOL     OW15181   6.740   6.507   1.153
 4761SOL    HW115182   6.680   6.550   1.220
 4761SOL    HW215183   6.816   6.568   1.131
 4762SOL     OW15184   2.060   6.903   2.178
 4762SOL    HW115185   2.082   6.822   2.123
 4762SOL    HW215186   2.082   6.985   2.127
 4763SOL     OW15187   5.810   4.605   1.766
 4763SOL    HW115188   5.731   4.611   1.706
 4763SOL    HW215189   5.803   4.675   1.838
 4764SOL     OW15190   4.126   3.396   6.424
 4764SOL    HW115191   4.168   3.445   6.500
 4764SOL    HW215192   4.163   3.303   6.420
 4765SOL     OW15193   3.116   1.555   4.449
 4765SOL    HW115194   3.142   1.622   4.379
 4765SOL    HW215195   3.026   1.578   4.486
 4766SOL     OW15196   0.680   0.174   4.236
 4766SOL    HW115197   0.635   0.181   4.147
 4766SOL    HW215198   0.736   0.092   4.239
 4767SOL     OW15199   1.727   4.617   4.329
 4767SOL    HW115200   1.817   4.594   4.364
 4767SOL    HW215201   1.735   4.651   4.235
 4768SOL     OW15202   3.863   2.155   6.971
 4768SOL    HW115203   3.876   2.063   6.934
 4768SOL    HW215204   3.911   2.163   0.036
 4769SOL     OW15205   2.751   4.992   1.109
 4769SOL    HW115206   2.677   5.037   1.160
 4769SOL    HW215207   2.838   5.006   1.157
 4770SOL     OW15208   0.155   1.285   5.912
 4770SOL    HW115209   0.084   1.262   5.978
 4770SOL    HW215210   0.163   1.385   5.905
 4771SOL     OW15211   2.211   6.647   4.969
 4771SOL    HW115212   2.246   6.681   5.056
 4771SOL    HW215213   2.133   6.586   4.986
 4772SOL     OW15214   2.961   5.429   1.896
 4772SOL    HW115215   2.865   5.431   1.870
 4772SOL    HW215216   2.998   5.522   1.897
 4773SOL     OW15217   2.151   5.109   5.000
 4773SOL    HW115218   2.056   5.090   5.024
 4773SOL    HW215219   2.180   5.047   4.927
 4774SOL     OW15220   1.751   3.780   0.063
 4774SOL    HW115221   1.762   3.833   7.001
 4774SOL    HW215222   1.726   3.686   0.039
 4775SOL     OW15223   6.416   6.125   5.363
 4775SOL    HW115224   6.356   6.141   5.442
 4775SOL    HW215225   6.437   6.212   5.319
 4776SOL     OW15226   0.595   1.511   6.366
 4776SOL    HW115227   0.556   1.560   6.443
 4776SOL    HW215228   0.523   1.460   6.318
 4777SOL     OW15229   0.674   6.655   1.857
 4777SOL    HW115230   0.693   6.599   1.777
 4777SOL    HW215231   0.697   6.604   1.940
 4778SOL     OW15232   1.485   2.115   6.045
 4778SOL    HW115233   1.418   2.142   6.114
 4778SOL    HW215234   1.459   2.153   5.956
 4779SOL     OW15235   5.197   0.889   3.856
 4779SOL    HW115236   5.221   0.816   3.919
 4779SOL    HW215237   5.272   0.955   3.851
 4780SOL     OW15238   6.239   2.777   5.019
 4780SOL    HW115239   6.206   2.766   4.925
 4780SOL    HW215240   6.183   2.722   5.080
 4781SOL     OW15241   2.219   6.285   2.752
 4781SOL    HW115242   2.214   6.252   2.847
 4781SOL    HW215243   2.181   6.216   2.691
 4782SOL     OW15244   6.995   6.442   3.980
 4782SOL    HW115245   6.949   6.503   3.916
 4782SOL    HW215246   6.934   6.421   4.056
 4783SOL     OW15247   6.313   3.552   0.599
 4783SOL    HW115248   6.398   3.511   0.567
 4783SOL    HW215249   6.271   3.493   0.668
 4784SOL     OW15250   5.325   2.978   6.719
 4784SOL    HW115251   5.241   3.032   6.708
 4784SOL    HW215252   5.400   3.039   6.744
 4785SOL     OW15253   1.076   6.046   3.831
 4785SOL    HW115254   1.036   6.101   3.758
 4785SOL    HW215255   1.073   6.097   3.917
 4786SOL     OW15256   1.881   6.181   0.433
 4786SOL    HW115257   1.872   6.237   0.350
 4786SOL    HW215258   1.926   6.094   0.410
 4787SOL     OW15259   3.478   1.225   4.423
 4787SOL    HW115260   3.409   1.164   4.461
 4787SOL    HW215261   3.435   1.290   4.361
 4788SOL     OW15262   5.676   6.459   6.993
 4788SOL    HW115263   5.641   6.551   6.974
 4788SOL    HW215264   5.773   6.455   6.968
 4789SOL     OW15265   5.351   1.674   3.551
 4789SOL    HW115266   5.439   1.641   3.584
 4789SOL    HW215267   5.352   1.677   3.451
 4790SOL     OW15268   6.776   2.089   4.999
 4790SOL    HW115269   6.684   2.052   4.987
 4790SOL    HW215270   6.789   2.167   4.937
 4791SOL     OW15271   0.222   0.765   0.730
 4791SOL    HW115272   0.141   0.722   0.770
 4791SOL    HW215273   0.207   0.782   0.633
 4792SOL     OW15274   2.304   2.847   2.816
 4792SOL    HW115275   2.272   2.804   2.732
 4792SOL    HW215276   2.389   2.803   2.846
 4793SOL     OW15277   1.241   4.053   5.388
 4793SOL    HW115278   1.150   4.093   5.395
 4793SOL    HW215279   1.237   3.955   5.407
 4794SOL     OW15280   4.288   1.151   4.147
 4794SOL    HW115281   4.202   1.169   4.100
 4794SOL    HW215282   4.270   1.129   4.243
 4795SOL     OW15283   0.292   0.611   5.965
 4795SOL    HW115284   0.358   0.616   5.890
 4795SOL    HW215285   0.247   0.522   5.964
 4796SOL     OW15286   3.805   1.352   4.717
 4796SOL    HW115287   3.795   1.264   4.762
 4796SOL    HW215288   3.717   1.379   4.677
 4797SOL     OW15289   1.524   5.933   4.783
 4797SOL    HW115290   1.439   5.884   4.803
 4797SOL    HW215291   1.600   5.869   4.779
 4798SOL     OW15292   4.232   4.771   6.409
 4798SOL    HW115293   4.251   4.869   6.423
 4798SOL    HW215294   4.136   4.752   6.428
 4799SOL     OW15295   3.294   3.115   6.278
 4799SOL    HW115296   3.382   3.150   6.309
 4799SOL    HW215297   3.224   3.186   6.290
 4800SOL     OW15298   0.870   4.940   0.634
 4800SOL    HW115299   0.955   4.924   0.583
 4800SOL    HW215300   0.888   4.929   0.732
 4801SOL     OW15301   5.083   2.723   1.631
 4801SOL    HW115302   5.056   2.762   1.720
 4801SOL    HW215303   5.002   2.719   1.572
 4802SOL     OW15304   6.860   6.722   3.821
 4802SOL    HW115305   6.868   6.808   3.772
 4802SOL    HW215306   6.916   6.652   3.777
 4803SOL     OW15307   4.904   4.076   6.245
 4803SOL    HW115308   4.926   4.166   6.208
 4803SOL    HW215309   4.889   4.012   6.170
 4804SOL     OW15310   4.954   1.805   0.683
 4804SOL    HW115311   4.861   1.839   0.698
 4804SOL    HW215312   5.017   1.850   0.746
 4805SOL     OW15313   6.411   1.197   0.556
 4805SOL    HW115314   6.355   1.253   0.617
 4805SOL    HW215315   6.364   1.186   0.468
 4806SOL     OW15316   1.390   0.945   3.201
 4806SOL    HW115317   1.447   0.987   3.131
 4806SOL    HW215318   1.298   0.982   3.196
 4807SOL     OW15319   1.326   3.527   5.810
 4807SOL    HW115320   1.344   3.429   5.801
 4807SOL    HW215321   1.237   3.549   5.770
 4808SOL     OW15322   4.192   5.407   0.480
 4808SOL    HW115323   4.172   5.470   0.555
 4808SOL    HW215324   4.137   5.430   0.400
 4809SOL     OW15325   3.446   4.680   1.387
 4809SOL    HW115326   3.373   4.692   1.319
 4809SOL    HW215327   3.406   4.675   1.478
 4810SOL     OW15328   0.585   4.134   3.996
 4810SOL    HW115329   0.623   4.190   3.921
 4810SOL    HW215330   0.486   4.131   3.988
 4811SOL     OW15331   3.402   4.185   4.257
 4811SOL    HW115332   3.462   4.261   4.232
 4811SOL    HW215333   3.369   4.139   4.174
 4812SOL     OW15334   0.382   0.165   2.371
 4812SOL    HW115335   0.377   0.069   2.341
 4812SOL    HW215336   0.472   0.202   2.348
 4813SOL     OW15337   6.026   1.579   5.878
 4813SOL    HW115338   5.957   1.584   5.950
 4813SOL    HW215339   6.077   1.493   5.886
 4814SOL     OW15340   5.926   4.280   1.488
 4814SOL    HW115341   5.941   4.309   1.582
 4814SOL    HW215342   5.967   4.347   1.426
 4815SOL     OW15343   5.235   4.994   2.521
 4815SOL    HW115344   5.230   5.079   2.572
 4815SOL    HW215345   5.248   5.013   2.423
 4816SOL     OW15346   1.490   1.241   2.273
 4816SOL    HW115347   1.456   1.151   2.298
 4816SOL    HW215348   1.492   1.299   2.355
 4817SOL     OW15349   3.939   1.689   0.684
 4817SOL    HW115350   3.999   1.732   0.752
 4817SOL    HW215351   3.854   1.742   0.677
 4818SOL     OW15352   3.818   6.967   5.349
 4818SOL    HW115353   3.792   6.894   5.412
 4818SOL    HW215354   3.749   6.976   5.278
 4819SOL     OW15355   2.984   0.547   0.864
 4819SOL    HW115356   2.893   0.507   0.870
 4819SOL    HW215357   3.037   0.499   0.794
 4820SOL     OW15358   6.024   4.291   1.957
 4820SOL    HW115359   6.103   4.351   1.948
 4820SOL    HW215360   5.974   4.314   2.040
 4821SOL     OW15361   6.756   4.389   1.584
 4821SOL    HW115362   6.831   4.326   1.565
 4821SOL    HW215363   6.792   4.482   1.593
 4822SOL     OW15364   2.285   4.191   2.698
 4822SOL    HW115365   2.290   4.251   2.778
 4822SOL    HW215366   2.190   4.186   2.667
 4823SOL     OW15367   0.583   1.099   4.518
 4823SOL    HW115368   0.653   1.051   4.570
 4823SOL    HW215369   0.618   1.187   4.486
 4824SOL     OW15370   5.366   2.805   2.356
 4824SOL    HW115371   5.356   2.708   2.378
 4824SOL    HW215372   5.364   2.817   2.257
 4825SOL     OW15373   0.819   3.149   2.536
 4825SOL    HW115374   0.781   3.118   2.448
 4825SOL    HW215375   0.744   3.170   2.599
 4826SOL     OW15376   6.406   6.012   0.213
 4826SOL    HW115377   6.415   6.107   0.242
 4826SOL    HW215378   6.311   5.993   0.187
 4827SOL     OW15379   4.893   0.721   0.821
 4827SOL    HW115380   4.931   0.803   0.865
 4827SOL    HW215381   4.796   0.736   0.801
 4828SOL     OW15382   5.453   3.615   0.611
 4828SOL    HW115383   5.478   3.563   0.529
 4828SOL    HW215384   5.434   3.710   0.585
 4829SOL     OW15385   2.853   0.528   6.092
 4829SOL    HW115386   2.944   0.569   6.097
 4829SOL    HW215387   2.808   0.556   6.008
 4830SOL     OW15388   4.386   0.003   4.793
 4830SOL    HW115389   4.331   7.009   4.875
 4830SOL    HW215390   4.412   0.099   4.788
 4831SOL     OW15391   5.927   3.731   6.273
 4831SOL    HW115392   5.828   3.726   6.266
 4831SOL    HW215393   5.953   3.803   6.337
 4832SOL     OW15394   2.751   3.695   5.981
 4832SOL    HW115395   2.843   3.733   5.976
 4832SOL    HW215396   2.684   3.766   5.962
 4833SOL     OW15397   4.507   1.081   2.243
 4833SOL    HW115398   4.534   1.116   2.333
 4833SOL    HW215399   4.585   1.083   2.181
 4834SOL     OW15400   4.785   1.382   2.457
 4834SOL    HW115401   4.713   1.315   2.475
 4834SOL    HW215402   4.763   1.468   2.503
 4835SOL     OW15403   2.035   0.581   6.604
 4835SOL    HW115404   1.936   0.569   6.616
 4835SOL    HW215405   2.059   0.561   6.509
 4836SOL     OW15406   5.446   2.135   3.854
 4836SOL    HW115407   5.487   2.081   3.780
 4836SOL    HW215408   5.366   2.087   3.890
 4837SOL     OW15409   1.836   3.892   0.345
 4837SOL    HW115410   1.865   3.844   0.262
 4837SOL    HW215411   1.819   3.988   0.323
 4838SOL     OW15412   3.306   5.624   2.326
 4838SOL    HW115413   3.321   5.573   2.241
 4838SOL    HW215414   3.386   5.682   2.344
 4839SOL     OW15415   0.559   5.678   6.458
 4839SOL    HW115416   0.517   5.590   6.481
 4839SOL    HW215417   0.658   5.667   6.451
 4840SOL     OW15418   0.191   6.749   0.199
 4840SOL    HW115419   0.111   6.692   0.180
 4840SOL    HW215420   0.185   6.834   0.146
 4841SOL     OW15421   3.001   5.077   2.309
 4841SOL    HW115422   3.042   5.155   2.262
 4841SOL    HW215423   3.015   5.086   2.407
 4842SOL     OW15424   4.428   6.162   1.240
 4842SOL    HW115425   4.477   6.097   1.183
 4842SOL    HW215426   4.395   6.238   1.185
 4843SOL     OW15427   0.068   3.627   6.828
 4843SOL    HW115428   0.142   3.606   6.764
 4843SOL    HW215429   0.043   3.544   6.878
 4844SOL     OW15430   5.793   2.095   6.394
 4844SOL    HW115431   5.703   2.112   6.353
 4844SOL    HW215432   5.804   1.997   6.410
 4845SOL     OW15433   6.032   5.708   3.623
 4845SOL    HW115434   6.111   5.677   3.676
 4845SOL    HW215435   6.013   5.642   3.550
 4846SOL     OW15436   1.500   3.571   0.436
 4846SOL    HW115437   1.490   3.665   0.403
 4846SOL    HW215438   1.497   3.570   0.536
 4847SOL     OW15439   3.722   1.989   4.423
 4847SOL    HW115440   3.742   1.906   4.372
 4847SOL    HW215441   3.636   1.978   4.473
 4848SOL     OW15442   2.408   2.314   2.415
 4848SOL    HW115443   2.506   2.321   2.400
 4848SOL    HW215444   2.365   2.268   2.337
 4849SOL     OW15445   1.364   0.034   0.725
 4849SOL    HW115446   1.341   0.128   0.698
 4849SOL    HW215447   1.463   0.022   0.719
 4850SOL     OW15448   4.261   0.647   2.346
 4850SOL    HW115449   4.286   0.568   2.290
 4850SOL    HW215450   4.267   0.731   2.291
 4851SOL     OW15451   5.150   6.164   5.042
 4851SOL    HW115452   5.075   6.156   5.107
 4851SOL    HW215453   5.118   6.141   4.950
 4852SOL     OW15454   1.808   1.255   0.405
 4852SOL    HW115455   1.815   1.271   0.503
 4852SOL    HW215456   1.848   1.167   0.382
 4853SOL     OW15457   3.112   1.929   2.366
 4853SOL    HW115458   3.066   2.002   2.417
 4853SOL    HW215459   3.066   1.917   2.278
 4854SOL     OW15460   5.395   0.103   1.738
 4854SOL    HW115461   5.414   0.037   1.665
 4854SOL    HW215462   5.419   0.195   1.707
 4855SOL     OW15463   6.904   1.846   2.444
 4855SOL    HW115464   6.821   1.800   2.476
 4855SOL    HW215465   6.879   1.935   2.407
 4856SOL     OW15466   3.159   5.044   3.245
 4856SOL    HW115467   3.124   5.090   3.327
 4856SOL    HW215468   3.243   4.994   3.268
 4857SOL     OW15469   6.948   1.843   5.347
 4857SOL    HW115470   6.927   1.857   5.444
 4857SOL    HW215471   6.868   1.866   5.292
 4858SOL     OW15472   1.091   1.909   4.452
 4858SOL    HW115473   1.094   1.810   4.437
 4858SOL    HW215474   1.181   1.941   4.480
 4859SOL     OW15475   2.317   5.942   4.787
 4859SOL    HW115476   2.355   6.016   4.843
 4859SOL    HW215477   2.327   5.855   4.835
 4860SOL     OW15478   4.573   5.039   1.266
 4860SOL    HW115479   4.629   5.072   1.190
 4860SOL    HW215480   4.624   5.051   1.352
 4861SOL     OW15481   4.693   4.314   5.027
 4861SOL    HW115482   4.652   4.391   4.979
 4861SOL    HW215483   4.779   4.343   5.069
 4862SOL     OW15484   1.674   6.775   2.178
 4862SOL    HW115485   1.578   6.790   2.156
 4862SOL    HW215486   1.700   6.682   2.152
 4863SOL     OW15487   5.880   4.065   0.196
 4863SOL    HW115488   5.863   4.163   0.185
 4863SOL    HW215489   5.883   4.021   0.107
 4864SOL     OW15490   2.899   1.188   3.324
 4864SOL    HW115491   2.958   1.130   3.379
 4864SOL    HW215492   2.803   1.172   3.349
 4865SOL     OW15493   2.798   6.012   4.547
 4865SOL    HW115494   2.755   5.973   4.628
 4865SOL    HW215495   2.881   5.961   4.525
 4866SOL     OW15496   6.614   3.727   0.827
 4866SOL    HW115497   6.700   3.733   0.776
 4866SOL    HW215498   6.606   3.638   0.870
 4867SOL     OW15499   4.405   6.900   3.032
 4867SOL    HW115500   4.495   6.906   3.074
 4867SOL    HW215501   4.356   6.986   3.046
 4868SOL     OW15502   6.554   4.728   1.301
 4868SOL    HW115503   6.476   4.716   1.239
 4868SOL    HW215504   6.638   4.700   1.255
 4869SOL     OW15505   0.236   1.473   6.807
 4869SOL    HW115506   0.289   1.540   6.860
 4869SOL    HW215507   0.225   1.507   6.714
 4870SOL     OW15508   0.653   6.173   1.631
 4870SOL    HW115509   0.627   6.103   1.565
 4870SOL    HW215510   0.619   6.147   1.721
 4871SOL     OW15511   1.007   1.428   4.337
 4871SOL    HW115512   1.105   1.432   4.318
 4871SOL    HW215513   0.961   1.501   4.286
 4872SOL     OW15514   6.022   0.204   3.977
 4872SOL    HW115515   6.075   0.169   3.900
 4872SOL    HW215516   6.048   0.299   3.996
 4873SOL     OW15517   6.745   6.464   5.199
 4873SOL    HW115518   6.806   6.539   5.174
 4873SOL    HW215519   6.774   6.426   5.287
 4874SOL     OW15520   4.869   2.587   3.217
 4874SOL    HW115521   4.931   2.662   3.193
 4874SOL    HW215522   4.816   2.614   3.297
 4875SOL     OW15523   5.565   6.508   6.033
 4875SOL    HW115524   5.466   6.499   6.045
 4875SOL    HW215525   5.590   6.480   5.940
 4876SOL     OW15526   1.912   1.115   3.067
 4876SOL    HW115527   1.858   1.173   3.127
 4876SOL    HW215528   1.855   1.041   3.031
 4877SOL     OW15529   0.347   1.918   4.617
 4877SOL    HW115530   0.249   1.925   4.635
 4877SOL    HW215531   0.390   1.861   4.687
 4878SOL     OW15532   0.021   2.448   2.635
 4878SOL    HW115533   0.048   2.413   2.545
 4878SOL    HW215534   6.997   2.376   2.687
 4879SOL     OW15535   4.971   1.661   3.149
 4879SOL    HW115536   5.009   1.709   3.228
 4879SOL    HW215537   4.952   1.727   3.076
 4880SOL     OW15538   6.270   2.612   6.085
 4880SOL    HW115539   6.197   2.680   6.073
 4880SOL    HW215540   6.300   2.612   6.181
 4881SOL     OW15541   1.493   3.053   2.256
 4881SOL    HW115542   1.513   3.000   2.339
 4881SOL    HW215543   1.516   2.998   2.176
 4882SOL     OW15544   4.521   2.600   5.144
 4882SOL    HW115545   4.534   2.667   5.216
 4882SOL    HW215546   4.537   2.642   5.055
 4883SOL     OW15547   6.425   3.702   1.382
 4883SOL    HW115548   6.390   3.612   1.360
 4883SOL    HW215549   6.471   3.700   1.471
 4884SOL     OW15550   1.916   6.065   1.561
 4884SOL    HW115551   1.884   6.146   1.610
 4884SOL    HW215552   1.901   6.078   1.463
 4885SOL     OW15553   1.438   4.727   0.830
 4885SOL    HW115554   1.424   4.635   0.794
 4885SOL    HW215555   1.527   4.731   0.877
 4886SOL     OW15556   2.952   1.100   2.252
 4886SOL    HW115557   3.028   1.093   2.188
 4886SOL    HW215558   2.977   1.162   2.326
 4887SOL     OW15559   0.495   7.005   1.913
 4887SOL    HW115560   0.563   0.005   1.983
 4887SOL    HW215561   0.541   6.968   1.832
 4888SOL     OW15562   3.280   6.552   2.883
 4888SOL    HW115563   3.254   6.631   2.826
 4888SOL    HW215564   3.352   6.501   2.838
 4889SOL     OW15565   6.965   2.563   3.601
 4889SOL    HW115566   6.974   2.536   3.697
 4889SOL    HW215567   6.893   2.507   3.558
 4890SOL     OW15568   0.324   1.168   4.605
 4890SOL    HW115569   0.422   1.162   4.588
 4890SOL    HW215570   0.300   1.260   4.636
 4891SOL     OW15571   2.603   5.571   6.006
 4891SOL    HW115572   2.676   5.507   6.028
 4891SOL    HW215573   2.582   5.564   5.908
 4892SOL     OW15574   5.442   6.397   2.958
 4892SOL    HW115575   5.384   6.316   2.970
 4892SOL    HW215576   5.474   6.428   3.048
 4893SOL     OW15577   0.217   3.483   1.968
 4893SOL    HW115578   0.185   3.541   2.043
 4893SOL    HW215579   0.139   3.456   1.912
 4894SOL     OW15580   4.691   6.710   2.093
 4894SOL    HW115581   4.736   6.675   2.011
 4894SOL    HW215582   4.745   6.687   2.174
 4895SOL     OW15583   0.063   4.481   3.709
 4895SOL    HW115584   0.133   4.420   3.671
 4895SOL    HW215585   6.994   4.445   3.687
 4896SOL     OW15586   2.014   4.682   4.101
 4896SOL    HW115587   2.080   4.630   4.155
 4896SOL    HW215588   2.002   4.639   4.012
 4897SOL     OW15589   2.309   6.758   5.195
 4897SOL    HW115590   2.262   6.690   5.251
 4897SOL    HW215591   2.407   6.758   5.219
 4898SOL     OW15592   4.127   1.818   3.752
 4898SOL    HW115593   4.079   1.730   3.746
 4898SOL    HW215594   4.108   1.860   3.840
 4899SOL     OW15595   0.398   5.144   1.827
 4899SOL    HW115596   0.311   5.184   1.857
 4899SOL    HW215597   0.447   5.108   1.907
 4900SOL     OW15598   4.231   5.937   5.408
 4900SOL    HW115599   4.193   5.856   5.453
 4900SOL    HW215600   4.331   5.930   5.406
 4901SOL     OW15601   0.724   1.368   5.943
 4901SOL    HW115602   0.754   1.360   5.848
 4901SOL    HW215603   0.760   1.291   5.996
 4902SOL     OW15604   2.127   0.107   5.983
 4902SOL    HW115605   2.149   0.023   6.033
 4902SOL    HW215606   2.085   0.173   6.046
 4903SOL     OW15607   5.468   5.105   1.658
 4903SOL    HW115608   5.541   5.048   1.698
 4903SOL    HW215609   5.505   5.195   1.637
 4904SOL     OW15610   1.432   0.615   0.414
 4904SOL    HW115611   1.498   0.647   0.346
 4904SOL    HW215612   1.464   0.640   0.506
 4905SOL     OW15613   3.489   6.368   2.788
 4905SOL    HW115614   3.561   6.437   2.780
 4905SOL    HW215615   3.492   6.307   2.709
 4906SOL     OW15616   5.699   2.847   4.694
 4906SOL    HW115617   5.764   2.783   4.655
 4906SOL    HW215618   5.711   2.937   4.651
 4907SOL     OW15619   4.572   1.427   6.714
 4907SOL    HW115620   4.544   1.476   6.631
 4907SOL    HW215621   4.548   1.482   6.794
 4908SOL     OW15622   4.684   0.067   0.026
 4908SOL    HW115623   4.681   0.167   0.028
 4908SOL    HW215624   4.604   0.031   0.075
 4909SOL     OW15625   5.719   4.437   4.260
 4909SOL    HW115626   5.745   4.342   4.242
 4909SOL    HW215627   5.793   4.497   4.231
 4910SOL     OW15628   4.982   0.708   5.700
 4910SOL    HW115629   5.017   0.625   5.744
 4910SOL    HW215630   4.992   0.786   5.762
 4911SOL     OW15631   0.287   2.294   1.863
 4911SOL    HW115632   0.287   2.205   1.909
 4911SOL    HW215633   0.282   2.366   1.932
 4912SOL     OW15634   5.995   2.087   4.501
 4912SOL    HW115635   5.978   2.085   4.402
 4912SOL    HW215636   5.972   2.177   4.537
 4913SOL     OW15637   6.507   2.847   5.269
 4913SOL    HW115638   6.455   2.762   5.256
 4913SOL    HW215639   6.560   2.866   5.186
 4914SOL     OW15640   4.457   0.710   4.166
 4914SOL    HW115641   4.439   0.627   4.219
 4914SOL    HW215642   4.534   0.759   4.206
 4915SOL     OW15643   3.597   5.635   5.758
 4915SOL    HW115644   3.607   5.536   5.744
 4915SOL    HW215645   3.552   5.675   5.678
 4916SOL     OW15646   6.351   1.344   3.919
 4916SOL    HW115647   6.257   1.369   3.897
 4916SOL    HW215648   6.393   1.298   3.840
 4917SOL     OW15649   4.280   6.788   0.833
 4917SOL    HW115650   4.201   6.834   0.873
 4917SOL    HW215651   4.345   6.856   0.799
 4918SOL     OW15652   6.562   5.448   1.935
 4918SOL    HW115653   6.477   5.495   1.959
 4918SOL    HW215654   6.610   5.421   2.019
 4919SOL     OW15655   4.100   3.767   2.426
 4919SOL    HW115656   4.066   3.800   2.514
 4919SOL    HW215657   4.132   3.673   2.435
 4920SOL     OW15658   5.872   0.582   5.157
 4920SOL    HW115659   5.936   0.628   5.096
 4920SOL    HW215660   5.803   0.648   5.188
 4921SOL     OW15661   0.066   6.852   2.061
 4921SOL    HW115662   0.038   6.839   2.156
 4921SOL    HW215663   0.028   6.778   2.005
 4922SOL     OW15664   3.683   2.259   6.070
 4922SOL    HW115665   3.583   2.258   6.058
 4922SOL    HW215666   3.726   2.265   5.980
 4923SOL     OW15667   3.647   1.708   2.772
 4923SOL    HW115668   3.695   1.791   2.742
 4923SOL    HW215669   3.710   1.631   2.770
 4924SOL     OW15670   2.624   0.887   5.711
 4924SOL    HW115671   2.583   0.876   5.802
 4924SOL    HW215672   2.652   0.798   5.676
 4925SOL     OW15673   4.783   6.320   3.407
 4925SOL    HW115674   4.704   6.261   3.424
 4925SOL    HW215675   4.758   6.391   3.342
 4926SOL     OW15676   5.281   2.514   1.263
 4926SOL    HW115677   5.361   2.462   1.232
 4926SOL    HW215678   5.212   2.516   1.190
 4927SOL     OW15679   3.645   1.913   6.323
 4927SOL    HW115680   3.721   1.849   6.336
 4927SOL    HW215681   3.606   1.936   6.412
 4928SOL     OW15682   0.478   2.566   1.024
 4928SOL    HW115683   0.524   2.519   0.949
 4928SOL    HW215684   0.380   2.571   1.006
 4929SOL     OW15685   0.153   6.410   4.473
 4929SOL    HW115686   0.147   6.383   4.377
 4929SOL    HW215687   0.078   6.368   4.524
 4930SOL     OW15688   5.405   6.731   2.209
 4930SOL    HW115689   5.460   6.658   2.250
 4930SOL    HW215690   5.392   6.805   2.275
 4931SOL     OW15691   6.233   6.283   1.255
 4931SOL    HW115692   6.265   6.236   1.337
 4931SOL    HW215693   6.177   6.361   1.281
 4932SOL     OW15694   2.915   3.396   1.969
 4932SOL    HW115695   2.906   3.482   2.020
 4932SOL    HW215696   2.862   3.403   1.884
 4933SOL     OW15697   3.240   6.068   5.444
 4933SOL    HW115698   3.268   6.106   5.356
 4933SOL    HW215699   3.179   6.132   5.490
 4934SOL     OW15700   4.054   5.071   3.186
 4934SOL    HW115701   4.099   5.013   3.254
 4934SOL    HW215702   4.022   5.155   3.229
 4935SOL     OW15703   1.705   1.495   5.898
 4935SOL    HW115704   1.698   1.588   5.935
 4935SOL    HW215705   1.799   1.463   5.906
 4936SOL     OW15706   2.616   3.226   1.050
 4936SOL    HW115707   2.661   3.187   1.130
 4936SOL    HW215708   2.547   3.162   1.017
 4937SOL     OW15709   4.856   3.089   5.057
 4937SOL    HW115710   4.890   3.111   5.148
 4937SOL    HW215711   4.905   3.145   4.989
 4938SOL     OW15712   3.801   5.448   6.044
 4938SOL    HW115713   3.785   5.350   6.032
 4938SOL    HW215714   3.783   5.473   6.139
 4939SOL     OW15715   4.451   3.195   5.738
 4939SOL    HW115716   4.493   3.145   5.662
 4939SOL    HW215717   4.381   3.137   5.781
 4940SOL     OW15718   2.405   6.486   4.517
 4940SOL    HW115719   2.480   6.438   4.563
 4940SOL    HW215720   2.442   6.565   4.467
 4941SOL     OW15721   5.104   0.989   0.521
 4941SOL    HW115722   5.158   1.071   0.499
 4941SOL    HW215723   5.031   0.978   0.454
 4942SOL     OW15724   4.909   3.731   5.328
 4942SOL    HW115725   4.998   3.695   5.301
 4942SOL    HW215726   4.844   3.719   5.253
 4943SOL     OW15727   4.350   2.622   0.911
 4943SOL    HW115728   4.324   2.526   0.896
 4943SOL    HW215729   4.284   2.681   0.866
 4944SOL     OW15730   2.554   4.535   2.401
 4944SOL    HW115731   2.494   4.515   2.323
 4944SOL    HW215732   2.575   4.450   2.449
 4945SOL     OW15733   0.357   7.005   4.325
 4945SOL    HW115734   0.271   6.972   4.363
 4945SOL    HW215735   0.426   7.009   4.398
 4946SOL     OW15736   1.373   3.498   2.211
 4946SOL    HW115737   1.352   3.417   2.157
 4946SOL    HW215738   1.290   3.554   2.220
 4947SOL     OW15739   0.618   6.480   0.580
 4947SOL    HW115740   0.626   6.472   0.679
 4947SOL    HW215741   0.658   6.566   0.550
 4948SOL     OW15742   2.376   1.273   1.952
 4948SOL    HW115743   2.405   1.366   1.973
 4948SOL    HW215744   2.375   1.218   2.035
 4949SOL     OW15745   5.353   1.587   4.544
 4949SOL    HW115746   5.288   1.548   4.609
 4949SOL    HW215747   5.425   1.635   4.594
 4950SOL     OW15748   3.272   5.601   4.701
 4950SOL    HW115749   3.243   5.548   4.621
 4950SOL    HW215750   3.240   5.556   4.784
 4951SOL     OW15751   4.233   2.315   4.022
 4951SOL    HW115752   4.184   2.264   3.951
 4951SOL    HW215753   4.287   2.388   3.979
 4952SOL     OW15754   0.102   6.066   5.465
 4952SOL    HW115755   0.193   6.068   5.425
 4952SOL    HW215756   0.094   5.987   5.526
 4953SOL     OW15757   1.944   5.273   1.992
 4953SOL    HW115758   2.037   5.237   1.982
 4953SOL    HW215759   1.878   5.205   1.961
 4954SOL     OW15760   5.269   5.697   6.632
 4954SOL    HW115761   5.346   5.744   6.676
 4954SOL    HW215762   5.289   5.685   6.535
 4955SOL     OW15763   1.642   6.504   1.450
 4955SOL    HW115764   1.562   6.544   1.493
 4955SOL    HW215765   1.624   6.408   1.428
 4956SOL     OW15766   4.522   6.482   4.342
 4956SOL    HW115767   4.541   6.576   4.317
 4956SOL    HW215768   4.454   6.444   4.278
 4957SOL     OW15769   0.835   0.711   3.715
 4957SOL    HW115770   0.813   0.681   3.808
 4957SOL    HW215771   0.780   0.792   3.692
 4958SOL     OW15772   0.294   5.750   0.196
 4958SOL    HW115773   0.376   5.808   0.202
 4958SOL    HW215774   0.268   5.741   0.100
 4959SOL     OW15775   0.824   0.778   1.097
 4959SOL    HW115776   0.777   0.691   1.079
 4959SOL    HW215777   0.773   0.852   1.054
 4960SOL     OW15778   3.961   0.107   4.596
 4960SOL    HW115779   3.894   0.065   4.536
 4960SOL    HW215780   4.031   0.040   4.621
 4961SOL     OW15781   4.742   0.972   4.866
 4961SOL    HW115782   4.797   0.903   4.913
 4961SOL    HW215783   4.653   0.933   4.841
 4962SOL     OW15784   6.870   1.404   0.590
 4962SOL    HW115785   6.842   1.323   0.642
 4962SOL    HW215786   6.944   1.378   0.527
 4963SOL     OW15787   0.469   4.874   1.516
 4963SOL    HW115788   0.416   4.812   1.574
 4963SOL    HW215789   0.456   4.968   1.547
 4964SOL     OW15790   3.283   6.439   3.303
 4964SOL    HW115791   3.184   6.442   3.314
 4964SOL    HW215792   3.317   6.349   3.328
 4965SOL     OW15793   6.737   0.341   4.496
 4965SOL    HW115794   6.795   0.352   4.577
 4965SOL    HW215795   6.642   0.356   4.522
 4966SOL     OW15796   3.132   4.888   4.093
 4966SOL    HW115797   3.224   4.922   4.113
 4966SOL    HW215798   3.116   4.894   3.994
 4967SOL     OW15799   4.071   2.369   5.708
 4967SOL    HW115800   4.026   2.280   5.699
 4967SOL    HW215801   4.003   2.442   5.700
 4968SOL     OW15802   6.320   3.050   5.044
 4968SOL    HW115803   6.404   3.083   5.002
 4968SOL    HW215804   6.310   2.952   5.029
 4969SOL     OW15805   1.043   1.454   1.916
 4969SOL    HW115806   0.948   1.470   1.889
 4969SOL    HW215807   1.056   1.358   1.937
 4970SOL     OW15808   0.772   2.400   5.620
 4970SOL    HW115809   0.833   2.382   5.543
 4970SOL    HW215810   0.826   2.430   5.699
 4971SOL     OW15811   5.407   6.270   3.378
 4971SOL    HW115812   5.389   6.344   3.313
 4971SOL    HW215813   5.323   6.219   3.395
 4972SOL     OW15814   1.521   2.733   6.445
 4972SOL    HW115815   1.532   2.783   6.359
 4972SOL    HW215816   1.435   2.759   6.487
 4973SOL     OW15817   5.329   6.567   2.675
 4973SOL    HW115818   5.427   6.552   2.663
 4973SOL    HW215819   5.278   6.498   2.624
 4974SOL     OW15820   5.482   0.053   2.427
 4974SOL    HW115821   5.413   7.004   2.414
 4974SOL    HW215822   5.481   0.084   2.522
 4975SOL     OW15823   5.647   5.807   0.666
 4975SOL    HW115824   5.601   5.772   0.747
 4975SOL    HW215825   5.680   5.730   0.611
 4976SOL     OW15826   3.966   0.605   5.173
 4976SOL    HW115827   3.897   0.584   5.103
 4976SOL    HW215828   4.042   0.540   5.165
 4977SOL     OW15829   3.455   3.773   0.642
 4977SOL    HW115830   3.426   3.695   0.697
 4977SOL    HW215831   3.541   3.810   0.679
 4978SOL     OW15832   5.578   2.931   6.295
 4978SOL    HW115833   5.565   2.918   6.196
 4978SOL    HW215834   5.512   2.999   6.328
 4979SOL     OW15835   1.361   0.785   5.521
 4979SOL    HW115836   1.280   0.738   5.485
 4979SOL    HW215837   1.408   0.832   5.446
 4980SOL     OW15838   2.553   5.422   2.007
 4980SOL    HW115839   2.602   5.339   2.034
 4980SOL    HW215840   2.598   5.463   1.928
 4981SOL     OW15841   4.370   6.777   5.330
 4981SOL    HW115842   4.309   6.699   5.327
 4981SOL    HW215843   4.409   6.785   5.422
 4982SOL     OW15844   2.326   3.159   0.591
 4982SOL    HW115845   2.252   3.201   0.539
 4982SOL    HW215846   2.290   3.085   0.647
 4983SOL     OW15847   5.141   3.189   4.238
 4983SOL    HW115848   5.167   3.092   4.229
 4983SOL    HW215849   5.150   3.234   4.150
 4984SOL     OW15850   4.715   4.191   2.707
 4984SOL    HW115851   4.793   4.133   2.682
 4984SOL    HW215852   4.684   4.241   2.627
 4985SOL     OW15853   5.510   4.851   2.571
 4985SOL    HW115854   5.545   4.879   2.481
 4985SOL    HW215855   5.436   4.912   2.599
 4986SOL     OW15856   4.648   4.831   2.197
 4986SOL    HW115857   4.723   4.845   2.262
 4986SOL    HW215858   4.669   4.754   2.137
 4987SOL     OW15859   6.945   3.505   1.330
 4987SOL    HW115860   6.907   3.427   1.380
 4987SOL    HW215861   6.880   3.580   1.330
 4988SOL     OW15862   0.459   1.966   4.363
 4988SOL    HW115863   0.459   2.066   4.363
 4988SOL    HW215864   0.401   1.932   4.437
 4989SOL     OW15865   0.819   0.857   0.622
 4989SOL    HW115866   0.841   0.918   0.699
 4989SOL    HW215867   0.720   0.858   0.607
 4990SOL     OW15868   1.115   2.226   5.203
 4990SOL    HW115869   1.097   2.129   5.214
 4990SOL    HW215870   1.211   2.239   5.177
 4991SOL     OW15871   1.264   2.833   4.118
 4991SOL    HW115872   1.241   2.749   4.166
 4991SOL    HW215873   1.358   2.827   4.083
 4992SOL     OW15874   3.688   0.387   5.918
 4992SOL    HW115875   3.629   0.405   5.839
 4992SOL    HW215876   3.692   0.469   5.975
 4993SOL     OW15877   2.810   6.323   3.913
 4993SOL    HW115878   2.826   6.408   3.863
 4993SOL    HW215879   2.850   6.246   3.863
 4994SOL     OW15880   0.090   6.707   2.534
 4994SOL    HW115881   7.012   6.702   2.541
 4994SOL    HW215882   0.115   6.788   2.480
 4995SOL     OW15883   5.760   2.579   6.213
 4995SOL    HW115884   5.746   2.666   6.165
 4995SOL    HW215885   5.672   2.540   6.240
 4996SOL     OW15886   1.380   1.387   3.613
 4996SOL    HW115887   1.349   1.388   3.518
 4996SOL    HW215888   1.404   1.294   3.640
 4997SOL     OW15889   0.611   2.502   3.428
 4997SOL    HW115890   0.555   2.473   3.351
 4997SOL    HW215891   0.577   2.459   3.512
 4998SOL     OW15892   1.700   5.723   4.786
 4998SOL    HW115893   1.678   5.633   4.750
 4998SOL    HW215894   1.721   5.715   4.884
 4999SOL     OW15895   5.811   4.856   1.304
 4999SOL    HW115896   5.834   4.952   1.295
 4999SOL    HW215897   5.808   4.813   1.213
 5000SOL     OW15898   0.196   6.007   4.406
 5000SOL    HW115899   0.144   6.080   4.450
 5000SOL    HW215900   0.294   6.022   4.422
 5001SOL     OW15901   4.354   4.228   5.981
 5001SOL    HW115902   4.446   4.209   6.017
 5001SOL    HW215903   4.354   4.317   5.935
 5002SOL     OW15904   2.175   0.844   2.189
 5002SOL    HW115905   2.194   0.874   2.096
 5002SOL    HW215906   2.158   0.923   2.248
 5003SOL     OW15907   6.809   5.731   2.940
 5003SOL    HW115908   6.734   5.665   2.942
 5003SOL    HW215909   6.886   5.695   2.992
 5004SOL     OW15910   3.288   6.114   0.226
 5004SOL    HW115911   3.346   6.132   0.147
 5004SOL    HW215912   3.192   6.128   0.200
 5005SOL     OW15913   4.600   2.270   0.034
 5005SOL    HW115914   4.524   2.317   7.010
 5005SOL    HW215915   4.586   2.272   0.133
 5006SOL     OW15916   5.815   5.882   4.283
 5006SOL    HW115917   5.738   5.840   4.331
 5006SOL    HW215918   5.788   5.905   4.190
 5007SOL     OW15919   3.795   1.283   5.476
 5007SOL    HW115920   3.714   1.327   5.513
 5007SOL    HW215921   3.875   1.341   5.490
 5008SOL     OW15922   6.424   1.203   3.640
 5008SOL    HW115923   6.467   1.249   3.563
 5008SOL    HW215924   6.369   1.126   3.607
 5009SOL     OW15925   1.638   6.709   3.315
 5009SOL    HW115926   1.647   6.613   3.287
 5009SOL    HW215927   1.682   6.768   3.248
 5010SOL     OW15928   3.809   3.217   4.553
 5010SOL    HW115929   3.781   3.170   4.637
 5010SOL    HW215930   3.796   3.157   4.475
 5011SOL     OW15931   1.141   2.773   2.698
 5011SOL    HW115932   1.041   2.774   2.695
 5011SOL    HW215933   1.171   2.751   2.791
 5012SOL     OW15934   6.234   2.243   6.640
 5012SOL    HW115935   6.295   2.169   6.613
 5012SOL    HW215936   6.173   2.211   6.712
 5013SOL     OW15937   4.118   1.527   6.522
 5013SOL    HW115938   4.153   1.616   6.493
 5013SOL    HW215939   4.071   1.483   6.445
 5014SOL     OW15940   6.013   6.674   0.179
 5014SOL    HW115941   5.950   6.728   0.234
 5014SOL    HW215942   6.033   6.588   0.225
 5015SOL     OW15943   4.503   2.531   3.577
 5015SOL    HW115944   4.512   2.595   3.654
 5015SOL    HW215945   4.530   2.440   3.607
 5016SOL     OW15946   1.978   6.901   3.305
 5016SOL    HW115947   1.945   6.831   3.369
 5016SOL    HW215948   2.014   6.856   3.223
 5017SOL     OW15949   2.283   3.017   1.528
 5017SOL    HW115950   2.332   3.005   1.614
 5017SOL    HW215951   2.222   2.938   1.513
 5018SOL     OW15952   6.516   5.382   3.872
 5018SOL    HW115953   6.481   5.408   3.962
 5018SOL    HW215954   6.530   5.465   3.817
 5019SOL     OW15955   1.723   4.655   6.164
 5019SOL    HW115956   1.698   4.564   6.197
 5019SOL    HW215957   1.812   4.681   6.202
 5020SOL     OW15958   5.097   5.425   5.999
 5020SOL    HW115959   5.059   5.514   5.972
 5020SOL    HW215960   5.196   5.426   5.988
 5021SOL     OW15961   1.307   4.476   6.382
 5021SOL    HW115962   1.293   4.437   6.291
 5021SOL    HW215963   1.383   4.429   6.427
 5022SOL     OW15964   1.219   5.506   0.146
 5022SOL    HW115965   1.267   5.568   0.207
 5022SOL    HW215966   1.234   5.411   0.175
 5023SOL     OW15967   6.129   3.325   2.617
 5023SOL    HW115968   6.053   3.263   2.597
 5023SOL    HW215969   6.134   3.395   2.546
 5024SOL     OW15970   6.268   3.761   4.746
 5024SOL    HW115971   6.175   3.725   4.756
 5024SOL    HW215972   6.334   3.689   4.769
 5025SOL     OW15973   5.655   1.264   3.248
 5025SOL    HW115974   5.577   1.263   3.310
 5025SOL    HW215975   5.740   1.259   3.301
 5026SOL     OW15976   0.809   6.422   4.581
 5026SOL    HW115977   0.850   6.424   4.490
 5026SOL    HW215978   0.852   6.350   4.635
 5027SOL     OW15979   1.045   0.082   3.949
 5027SOL    HW115980   1.021   0.045   4.039
 5027SOL    HW215981   1.086   0.010   3.893
 5028SOL     OW15982   0.687   0.209   2.843
 5028SOL    HW115983   0.765   0.261   2.806
 5028SOL    HW215984   0.671   0.129   2.786
 5029SOL     OW15985   6.973   1.525   1.668
 5029SOL    HW115986   0.014   1.511   1.592
 5029SOL    HW215987   6.979   1.448   1.731
 5030SOL     OW15988   1.513   6.255   0.065
 5030SOL    HW115989   1.544   6.303   7.004
 5030SOL    HW215990   1.588   6.199   0.101
 5031SOL     OW15991   5.452   0.346   4.784
 5031SOL    HW115992   5.487   0.438   4.766
 5031SOL    HW215993   5.517   0.278   4.749
 5032SOL     OW15994   1.891   5.420   1.160
 5032SOL    HW115995   1.923   5.510   1.187
 5032SOL    HW215996   1.918   5.402   1.065
 5033SOL     OW15997   1.729   3.964   5.607
 5033SOL    HW115998   1.698   3.921   5.523
 5033SOL    HW215999   1.786   4.043   5.585
 5034SOL     OW16000   6.705   3.648   1.112
 5034SOL    HW116001   6.803   3.642   1.092
 5034SOL    HW216002   6.673   3.564   1.155
 5035SOL     OW16003   5.457   4.246   0.964
 5035SOL    HW116004   5.462   4.341   0.936
 5035SOL    HW216005   5.413   4.192   0.892
 5036SOL     OW16006   1.327   0.259   2.104
 5036SOL    HW116007   1.296   0.253   2.199
 5036SOL    HW216008   1.411   0.206   2.093
 5037SOL     OW16009   4.339   2.318   3.398
 5037SOL    HW116010   4.295   2.293   3.484
 5037SOL    HW216011   4.416   2.379   3.417
 5038SOL     OW16012   2.437   6.091   5.864
 5038SOL    HW116013   2.471   6.086   5.958
 5038SOL    HW216014   2.444   6.001   5.821
 5039SOL     OW16015   1.816   1.816   4.898
 5039SOL    HW116016   1.904   1.837   4.940
 5039SOL    HW216017   1.750   1.887   4.921
 5040SOL     OW16018   3.048   3.639   5.805
 5040SOL    HW116019   3.036   3.657   5.903
 5040SOL    HW216020   2.960   3.614   5.765
 5041SOL     OW16021   1.444   4.488   0.567
 5041SOL    HW116022   1.463   4.583   0.591
 5041SOL    HW216023   1.436   4.433   0.650
 5042SOL     OW16024   5.541   2.418   6.282
 5042SOL    HW116025   5.539   2.424   6.381
 5042SOL    HW216026   5.552   2.323   6.255
 5043SOL     OW16027   4.450   0.484   3.972
 5043SOL    HW116028   4.359   0.452   3.944
 5043SOL    HW216029   4.443   0.531   4.060
 5044SOL     OW16030   6.809   4.811   3.500
 5044SOL    HW116031   6.793   4.895   3.450
 5044SOL    HW216032   6.869   4.751   3.447
 5045SOL     OW16033   5.897   2.586   6.453
 5045SOL    HW116034   5.914   2.678   6.489
 5045SOL    HW216035   5.828   2.590   6.382
 5046SOL     OW16036   3.218   2.988   4.911
 5046SOL    HW116037   3.221   2.956   5.005
 5046SOL    HW216038   3.296   2.952   4.861
 5047SOL     OW16039   0.957   1.006   2.466
 5047SOL    HW116040   0.875   0.958   2.496
 5047SOL    HW216041   0.939   1.105   2.465
 5048SOL     OW16042   5.840   2.846   1.755
 5048SOL    HW116043   5.783   2.808   1.682
 5048SOL    HW216044   5.817   2.942   1.768
 5049SOL     OW16045   1.325   2.506   2.154
 5049SOL    HW116046   1.341   2.506   2.253
 5049SOL    HW216047   1.230   2.482   2.135
 5050SOL     OW16048   0.930   3.093   1.506
 5050SOL    HW116049   0.953   3.143   1.423
 5050SOL    HW216050   0.933   3.154   1.584
 5051SOL     OW16051   2.459   5.333   0.506
 5051SOL    HW116052   2.500   5.362   0.419
 5051SOL    HW216053   2.419   5.242   0.495
 5052SOL     OW16054   5.663   5.051   0.988
 5052SOL    HW116055   5.722   4.971   0.992
 5052SOL    HW216056   5.591   5.044   1.057
 5053SOL     OW16057   2.330   4.699   0.263
 5053SOL    HW116058   2.350   4.683   0.360
 5053SOL    HW216059   2.245   4.751   0.254
 5054SOL     OW16060   3.800   6.084   4.782
 5054SOL    HW116061   3.779   5.986   4.778
 5054SOL    HW216062   3.783   6.125   4.692
 5055SOL     OW16063   0.964   2.090   4.636
 5055SOL    HW116064   0.866   2.089   4.660
 5055SOL    HW216065   0.984   2.013   4.576
 5056SOL     OW16066   1.388   2.957   5.313
 5056SOL    HW116067   1.331   2.974   5.393
 5056SOL    HW216068   1.383   3.036   5.251
 5057SOL     OW16069   0.323   4.941   2.556
 5057SOL    HW116070   0.386   4.866   2.534
 5057SOL    HW216071   0.375   5.019   2.591
 5058SOL     OW16072   3.714   4.464   6.477
 5058SOL    HW116073   3.682   4.541   6.531
 5058SOL    HW216074   3.798   4.489   6.429
 5059SOL     OW16075   3.672   1.667   3.639
 5059SOL    HW116076   3.619   1.726   3.700
 5059SOL    HW216077   3.650   1.571   3.658
 5060SOL     OW16078   0.394   3.358   5.873
 5060SOL    HW116079   0.475   3.417   5.879
 5060SOL    HW216080   0.424   3.263   5.859
 5061SOL     OW16081   3.665   2.839   5.696
 5061SOL    HW116082   3.658   2.885   5.784
 5061SOL    HW216083   3.734   2.767   5.701
 5062SOL     OW16084   5.179   1.415   3.089
 5062SOL    HW116085   5.167   1.319   3.114
 5062SOL    HW216086   5.100   1.468   3.120
 5063SOL     OW16087   0.806   0.664   2.635
 5063SOL    HW116088   0.822   0.734   2.704
 5063SOL    HW216089   0.713   0.630   2.642
 5064SOL     OW16090   4.613   5.754   1.345
 5064SOL    HW116091   4.556   5.676   1.372
 5064SOL    HW216092   4.576   5.794   1.260
 5065SOL     OW16093   2.129   0.159   2.365
 5065SOL    HW116094   2.141   0.060   2.372
 5065SOL    HW216095   2.128   0.200   2.457
 5066SOL     OW16096   2.557   4.588   1.927
 5066SOL    HW116097   2.509   4.675   1.917
 5066SOL    HW216098   2.640   4.602   1.981
 5067SOL     OW16099   4.588   2.729   0.840
 5067SOL    HW116100   4.591   2.821   0.878
 5067SOL    HW216101   4.495   2.692   0.848
 5068SOL     OW16102   2.901   6.218   0.590
 5068SOL    HW116103   2.924   6.136   0.538
 5068SOL    HW216104   2.914   6.299   0.533
 5069SOL     OW16105   3.230   5.029   5.657
 5069SOL    HW116106   3.267   4.944   5.694
 5069SOL    HW216107   3.232   5.025   5.557
 5070SOL     OW16108   6.123   3.457   3.645
 5070SOL    HW116109   6.218   3.460   3.615
 5070SOL    HW216110   6.105   3.535   3.706
 5071SOL     OW16111   2.789   0.518   4.458
 5071SOL    HW116112   2.755   0.449   4.394
 5071SOL    HW216113   2.836   0.590   4.407
 5072SOL     OW16114   0.803   1.368   0.345
 5072SOL    HW116115   0.814   1.277   0.307
 5072SOL    HW216116   0.879   1.426   0.317
 5073SOL     OW16117   2.493   0.666   2.478
 5073SOL    HW116118   2.502   0.759   2.442
 5073SOL    HW216119   2.409   0.625   2.443
 5074SOL     OW16120   3.574   2.221   1.654
 5074SOL    HW116121   3.626   2.257   1.576
 5074SOL    HW216122   3.606   2.265   1.738
 5075SOL     OW16123   1.061   3.433   0.144
 5075SOL    HW116124   1.113   3.473   0.220
 5075SOL    HW216125   1.020   3.506   0.090
 5076SOL     OW16126   5.677   6.779   6.434
 5076SOL    HW116127   5.656   6.868   6.393
 5076SOL    HW216128   5.674   6.709   6.363
 5077SOL     OW16129   0.835   4.699   3.859
 5077SOL    HW116130   0.792   4.653   3.936
 5077SOL    HW216131   0.885   4.779   3.892
 5078SOL     OW16132   0.838   1.352   3.713
 5078SOL    HW116133   0.933   1.382   3.703
 5078SOL    HW216134   0.784   1.383   3.635
 5079SOL     OW16135   1.488   2.739   5.661
 5079SOL    HW116136   1.436   2.811   5.707
 5079SOL    HW216137   1.438   2.653   5.669
 5080SOL     OW16138   5.624   5.537   6.549
 5080SOL    HW116139   5.587   5.602   6.614
 5080SOL    HW216140   5.642   5.583   6.462
 5081SOL     OW16141   3.292   5.312   5.437
 5081SOL    HW116142   3.359   5.284   5.506
 5081SOL    HW216143   3.302   5.255   5.356
 5082SOL     OW16144   5.387   6.327   2.121
 5082SOL    HW116145   5.446   6.270   2.063
 5082SOL    HW216146   5.423   6.328   2.214
 5083SOL     OW16147   1.927   0.079   3.046
 5083SOL    HW116148   1.942   0.006   3.112
 5083SOL    HW216149   1.835   0.117   3.059
 5084SOL     OW16150   1.628   4.978   5.263
 5084SOL    HW116151   1.573   4.923   5.200
 5084SOL    HW216152   1.591   4.969   5.356
 5085SOL     OW16153   0.375   4.217   6.119
 5085SOL    HW116154   0.293   4.264   6.087
 5085SOL    HW216155   0.433   4.195   6.041
 5086SOL     OW16156   2.436   5.590   2.533
 5086SOL    HW116157   2.423   5.530   2.454
 5086SOL    HW216158   2.404   5.682   2.510
 5087SOL     OW16159   7.007   5.032   2.123
 5087SOL    HW116160   0.035   5.026   2.210
 5087SOL    HW216161   6.978   4.941   2.095
 5088SOL     OW16162   5.160   6.113   2.133
 5088SOL    HW116163   5.214   6.190   2.168
 5088SOL    HW216164   5.109   6.142   2.052
 5089SOL     OW16165   5.653   4.899   5.425
 5089SOL    HW116166   5.555   4.878   5.431
 5089SOL    HW216167   5.669   4.959   5.346
 5090SOL     OW16168   3.406   0.324   5.136
 5090SOL    HW116169   3.503   0.327   5.159
 5090SOL    HW216170   3.357   0.269   5.204
 5091SOL     OW16171   6.368   7.011   0.215
 5091SOL    HW116172   6.294   0.022   0.157
 5091SOL    HW216173   6.367   6.911   0.216
 5092SOL     OW16174   2.980   3.319   3.797
 5092SOL    HW116175   3.015   3.238   3.751
 5092SOL    HW216176   3.014   3.321   3.891
 5093SOL     OW16177   1.883   1.903   2.634
 5093SOL    HW116178   1.910   1.812   2.604
 5093SOL    HW216179   1.962   1.949   2.676
 5094SOL     OW16180   2.405   5.714   5.554
 5094SOL    HW116181   2.349   5.741   5.475
 5094SOL    HW216182   2.482   5.777   5.563
 5095SOL     OW16183   6.615   1.236   3.166
 5095SOL    HW116184   6.604   1.323   3.117
 5095SOL    HW216185   6.672   1.175   3.112
 5096SOL     OW16186   5.578   2.898   5.434
 5096SOL    HW116187   5.669   2.881   5.395
 5096SOL    HW216188   5.521   2.945   5.367
 5097SOL     OW16189   1.037   0.243   6.273
 5097SOL    HW116190   1.115   0.287   6.228
 5097SOL    HW216191   0.981   0.313   6.317
 5098SOL     OW16192   3.882   2.404   1.319
 5098SOL    HW116193   3.831   2.421   1.235
 5098SOL    HW216194   3.844   2.458   1.393
 5099SOL     OW16195   1.052   0.246   1.903
 5099SOL    HW116196   1.144   0.264   1.939
 5099SOL    HW216197   0.996   0.329   1.912
 5100SOL     OW16198   5.926   4.475   2.556
 5100SOL    HW116199   5.980   4.545   2.509
 5100SOL    HW216200   5.974   4.446   2.638
 5101SOL     OW16201   4.037   0.159   6.149
 5101SOL    HW116202   4.081   0.171   6.238
 5101SOL    HW216203   4.020   0.248   6.107
 5102SOL     OW16204   4.970   4.692   4.509
 5102SOL    HW116205   5.021   4.771   4.544
 5102SOL    HW216206   4.968   4.620   4.578
 5103SOL     OW16207   0.903   0.988   6.506
 5103SOL    HW116208   0.850   1.065   6.470
 5103SOL    HW216209   0.879   0.973   6.602
 5104SOL     OW16210   3.627   3.850   1.725
 5104SOL    HW116211   3.700   3.825   1.662
 5104SOL    HW216212   3.616   3.949   1.727
 5105SOL     OW16213   4.013   3.668   6.409
 5105SOL    HW116214   4.035   3.712   6.323
 5105SOL    HW216215   4.038   3.571   6.405
 5106SOL     OW16216   4.649   2.771   0.590
 5106SOL    HW116217   4.629   2.866   0.566
 5106SOL    HW216218   4.635   2.757   0.688
 5107SOL     OW16219   4.885   3.655   0.459
 5107SOL    HW116220   4.857   3.750   0.444
 5107SOL    HW216221   4.891   3.637   0.557
 5108SOL     OW16222   4.112   4.928   6.928
 5108SOL    HW116223   4.079   4.833   6.923
 5108SOL    HW216224   4.202   4.929   6.971
 5109SOL     OW16225   1.249   3.046   1.341
 5109SOL    HW116226   1.233   2.962   1.392
 5109SOL    HW216227   1.338   3.043   1.297
 5110SOL     OW16228   5.112   0.399   6.030
 5110SOL    HW116229   5.016   0.418   6.006
 5110SOL    HW216230   5.139   0.310   5.993
 5111SOL     OW16231   0.744   6.670   5.236
 5111SOL    HW116232   0.794   6.706   5.157
 5111SOL    HW216233   0.696   6.745   5.282
 5112SOL     OW16234   0.140   0.027   2.784
 5112SOL    HW116235   0.157   6.950   2.777
 5112SOL    HW216236   0.210   0.076   2.733
 5113SOL     OW16237   2.238   4.209   0.309
 5113SOL    HW116238   2.241   4.158   0.223
 5113SOL    HW216239   2.316   4.271   0.314
 5114SOL     OW16240   4.586   5.541   0.749
 5114SOL    HW116241   4.517   5.477   0.783
 5114SOL    HW216242   4.551   5.588   0.668
 5115SOL     OW16243   2.079   3.761   1.280
 5115SOL    HW116244   2.097   3.680   1.223
 5115SOL    HW216245   2.011   3.819   1.234
 5116SOL     OW16246   1.918   6.815   6.651
 5116SOL    HW116247   1.973   6.834   6.570
 5116SOL    HW216248   1.977   6.811   6.731
 5117SOL     OW16249   1.468   2.138   3.947
 5117SOL    HW116250   1.404   2.132   4.023
 5117SOL    HW216251   1.539   2.067   3.957
 5118SOL     OW16252   5.276   6.236   6.336
 5118SOL    HW116253   5.348   6.218   6.269
 5118SOL    HW216254   5.317   6.247   6.426
 5119SOL     OW16255   5.233   1.948   0.220
 5119SOL    HW116256   5.147   1.903   0.195
 5119SOL    HW216257   5.217   2.045   0.236
 5120SOL     OW16258   5.284   6.822   5.696
 5120SOL    HW116259   5.293   6.723   5.697
 5120SOL    HW216260   5.189   6.847   5.711
 5121SOL     OW16261   1.843   3.914   6.875
 5121SOL    HW116262   1.849   3.902   6.776
 5121SOL    HW216263   1.885   4.001   6.900
 5122SOL     OW16264   5.112   4.962   4.019
 5122SOL    HW116265   5.100   5.036   4.085
 5122SOL    HW216266   5.034   4.959   3.958
 5123SOL     OW16267   5.226   2.667   1.964
 5123SOL    HW116268   5.239   2.608   1.884
 5123SOL    HW216269   5.152   2.732   1.946
 5124SOL     OW16270   1.887   6.111   3.599
 5124SOL    HW116271   1.859   6.084   3.691
 5124SOL    HW216272   1.967   6.171   3.605
 5125SOL     OW16273   0.243   1.544   3.835
 5125SOL    HW116274   0.339   1.535   3.808
 5125SOL    HW216275   0.197   1.455   3.822
 5126SOL     OW16276   2.090   0.280   0.332
 5126SOL    HW116277   2.088   0.215   0.408
 5126SOL    HW216278   2.060   0.235   0.248
 5127SOL     OW16279   1.847   5.391   6.880
 5127SOL    HW116280   1.865   5.467   6.817
 5127SOL    HW216281   1.752   5.362   6.872
 5128SOL     OW16282   6.523   6.207   1.729
 5128SOL    HW116283   6.517   6.280   1.660
 5128SOL    HW216284   6.508   6.247   1.820
 5129SOL     OW16285   5.682   6.966   1.322
 5129SOL    HW116286   5.648   6.960   1.416
 5129SOL    HW216287   5.607   6.950   1.258
 5130SOL     OW16288   6.723   5.039   3.308
 5130SOL    HW116289   6.637   5.017   3.354
 5130SOL    HW216290   6.759   5.125   3.344
 5131SOL     OW16291   2.532   2.461   3.098
 5131SOL    HW116292   2.538   2.526   3.173
 5131SOL    HW216293   2.622   2.421   3.080
 5132SOL     OW16294   2.918   5.635   5.346
 5132SOL    HW116295   2.923   5.705   5.276
 5132SOL    HW216296   2.992   5.569   5.333
 5133SOL     OW16297   3.859   6.372   6.585
 5133SOL    HW116298   3.943   6.395   6.538
 5133SOL    HW216299   3.858   6.274   6.606
 5134SOL     OW16300   0.396   3.881   0.394
 5134SOL    HW116301   0.303   3.856   0.366
 5134SOL    HW216302   0.395   3.972   0.435
 5135SOL     OW16303   6.315   1.748   4.762
 5135SOL    HW116304   6.350   1.840   4.744
 5135SOL    HW216305   6.327   1.691   4.681
 5136SOL     OW16306   4.443   1.419   3.847
 5136SOL    HW116307   4.388   1.463   3.776
 5136SOL    HW216308   4.403   1.330   3.869
 5137SOL     OW16309   3.544   4.768   6.213
 5137SOL    HW116310   3.544   4.673   6.182
 5137SOL    HW216311   3.552   4.828   6.134
 5138SOL     OW16312   2.767   3.598   5.718
 5138SOL    HW116313   2.697   3.605   5.646
 5138SOL    HW216314   2.723   3.578   5.805
 5139SOL     OW16315   0.664   6.913   3.971
 5139SOL    HW116316   0.580   6.924   3.919
 5139SOL    HW216317   0.720   6.842   3.928
 5140SOL     OW16318   3.465   3.064   1.319
 5140SOL    HW116319   3.415   3.013   1.390
 5140SOL    HW216320   3.516   3.139   1.362
 5141SOL     OW16321   5.911   3.445   6.845
 5141SOL    HW116322   6.001   3.444   6.801
 5141SOL    HW216323   5.888   3.352   6.875
 5142SOL     OW16324   5.257   3.582   4.393
 5142SOL    HW116325   5.312   3.665   4.393
 5142SOL    HW216326   5.196   3.583   4.314
 5143SOL     OW16327   6.666   5.172   3.887
 5143SOL    HW116328   6.640   5.120   3.805
 5143SOL    HW216329   6.624   5.262   3.884
 5144SOL     OW16330   1.350   1.586   5.580
 5144SOL    HW116331   1.381   1.570   5.674
 5144SOL    HW216332   1.409   1.537   5.516
 5145SOL     OW16333   2.645   5.296   5.825
 5145SOL    HW116334   2.708   5.283   5.902
 5145SOL    HW216335   2.660   5.386   5.785
 5146SOL     OW16336   2.693   5.038   6.820
 5146SOL    HW116337   2.741   4.963   6.775
 5146SOL    HW216338   2.736   5.056   6.909
 5147SOL     OW16339   6.111   4.690   6.511
 5147SOL    HW116340   6.178   4.681   6.437
 5147SOL    HW216341   6.121   4.780   6.554
 5148SOL     OW16342   0.504   6.013   1.212
 5148SOL    HW116343   0.443   6.093   1.208
 5148SOL    HW216344   0.449   5.930   1.221
 5149SOL     OW16345   6.835   1.117   4.195
 5149SOL    HW116346   6.865   1.026   4.226
 5149SOL    HW216347   6.777   1.106   4.115
 5150SOL     OW16348   1.677   4.967   4.574
 5150SOL    HW116349   1.708   5.059   4.548
 5150SOL    HW216350   1.757   4.910   4.595
 5151SOL     OW16351   4.094   1.171   6.468
 5151SOL    HW116352   4.187   1.164   6.503
 5151SOL    HW216353   4.085   1.255   6.414
 5152SOL     OW16354   0.868   4.769   6.827
 5152SOL    HW116355   0.805   4.691   6.826
 5152SOL    HW216356   0.940   4.754   6.759
 5153SOL     OW16357   1.629   1.867   0.831
 5153SOL    HW116358   1.630   1.897   0.736
 5153SOL    HW216359   1.674   1.935   0.888
 5154SOL     OW16360   1.673   2.630   5.304
 5154SOL    HW116361   1.592   2.578   5.332
 5154SOL    HW216362   1.684   2.624   5.205
 5155SOL     OW16363   3.082   0.222   2.383
 5155SOL    HW116364   3.058   0.127   2.359
 5155SOL    HW216365   3.084   0.277   2.300
 5156SOL     OW16366   5.862   2.408   5.363
 5156SOL    HW116367   5.828   2.381   5.453
 5156SOL    HW216368   5.786   2.445   5.309
 5157SOL     OW16369   5.282   2.871   3.474
 5157SOL    HW116370   5.339   2.947   3.506
 5157SOL    HW216371   5.330   2.821   3.402
 5158SOL     OW16372   3.964   1.430   1.317
 5158SOL    HW116373   3.910   1.465   1.240
 5158SOL    HW216374   4.044   1.488   1.330
 5159SOL     OW16375   1.648   2.887   4.196
 5159SOL    HW116376   1.683   2.808   4.247
 5159SOL    HW216377   1.594   2.945   4.258
 5160SOL     OW16378   2.142   3.267   4.401
 5160SOL    HW116379   2.114   3.349   4.350
 5160SOL    HW216380   2.151   3.290   4.498
 5161SOL     OW16381   1.060   2.993   5.400
 5161SOL    HW116382   1.065   3.027   5.306
 5161SOL    HW216383   0.965   2.997   5.431
 5162SOL     OW16384   6.583   6.280   3.969
 5162SOL    HW116385   6.666   6.228   3.949
 5162SOL    HW216386   6.521   6.275   3.890
 5163SOL     OW16387   5.282   4.177   0.750
 5163SOL    HW116388   5.204   4.217   0.800
 5163SOL    HW216389   5.285   4.079   0.767
 5164SOL     OW16390   5.548   3.812   5.875
 5164SOL    HW116391   5.570   3.859   5.961
 5164SOL    HW216392   5.511   3.721   5.895
 5165SOL     OW16393   6.293   4.214   3.784
 5165SOL    HW116394   6.372   4.154   3.791
 5165SOL    HW216395   6.315   4.304   3.823
 5166SOL     OW16396   1.721   6.509   2.119
 5166SOL    HW116397   1.718   6.447   2.198
 5166SOL    HW216398   1.633   6.506   2.071
 5167SOL     OW16399   0.413   6.216   5.878
 5167SOL    HW116400   0.473   6.233   5.956
 5167SOL    HW216401   0.436   6.278   5.803
 5168SOL     OW16402   4.117   2.176   2.820
 5168SOL    HW116403   4.177   2.228   2.880
 5168SOL    HW216404   4.107   2.224   2.733
 5169SOL     OW16405   3.917   4.028   6.301
 5169SOL    HW116406   3.959   3.940   6.280
 5169SOL    HW216407   3.984   4.085   6.349
 5170SOL     OW16408   5.337   4.185   4.980
 5170SOL    HW116409   5.389   4.142   5.055
 5170SOL    HW216410   5.310   4.115   4.914
 5171SOL     OW16411   2.369   4.862   4.518
 5171SOL    HW116412   2.304   4.826   4.451
 5171SOL    HW216413   2.461   4.860   4.480
 5172SOL     OW16414   1.112   5.190   2.106
 5172SOL    HW116415   1.183   5.200   2.037
 5172SOL    HW216416   1.059   5.107   2.087
 5173SOL     OW16417   5.458   3.218   6.148
 5173SOL    HW116418   5.504   3.137   6.114
 5173SOL    HW216419   5.376   3.237   6.094
 5174SOL     OW16420   1.207   4.579   6.037
 5174SOL    HW116421   1.226   4.491   6.079
 5174SOL    HW216422   1.130   4.570   5.974
 5175SOL     OW16423   0.522   4.678   6.699
 5175SOL    HW116424   0.523   4.607   6.628
 5175SOL    HW216425   0.428   4.696   6.726
 5176SOL     OW16426   5.169   3.886   0.597
 5176SOL    HW116427   5.266   3.870   0.583
 5176SOL    HW216428   5.139   3.962   0.540
 5177SOL     OW16429   5.136   6.932   6.379
 5177SOL    HW116430   5.120   6.917   6.477
 5177SOL    HW216431   5.065   6.887   6.326
 5178SOL     OW16432   2.485   2.556   1.953
 5178SOL    HW116433   2.416   2.484   1.960
 5178SOL    HW216434   2.448   2.632   1.900
 5179SOL     OW16435   3.159   6.454   5.917
 5179SOL    HW116436   3.219   6.379   5.888
 5179SOL    HW216437   3.068   6.440   5.878
 5180SOL     OW16438   2.686   1.875   1.705
 5180SOL    HW116439   2.647   1.959   1.665
 5180SOL    HW216440   2.725   1.896   1.794
 5181SOL     OW16441   4.520   6.630   2.666
 5181SOL    HW116442   4.503   6.661   2.760
 5181SOL    HW216443   4.457   6.556   2.644
 5182SOL     OW16444   5.155   4.221   1.551
 5182SOL    HW116445   5.165   4.253   1.645
 5182SOL    HW216446   5.177   4.124   1.546
 5183SOL     OW16447   4.272   0.125   2.096
 5183SOL    HW116448   4.371   0.112   2.105
 5183SOL    HW216449   4.250   0.146   2.001
 5184SOL     OW16450   1.144   1.051   3.183
 5184SOL    HW116451   1.083   1.130   3.175
 5184SOL    HW216452   1.109   0.988   3.252
 5185SOL     OW16453   3.750   0.325   2.403
 5185SOL    HW116454   3.803   0.321   2.318
 5185SOL    HW216455   3.729   0.420   2.425
 5186SOL     OW16456   6.311   4.633   0.593
 5186SOL    HW116457   6.286   4.552   0.646
 5186SOL    HW216458   6.274   4.625   0.501
 5187SOL     OW16459   5.612   1.920   3.717
 5187SOL    HW116460   5.605   1.835   3.769
 5187SOL    HW216461   5.708   1.943   3.701
 5188SOL     OW16462   1.163   3.878   5.658
 5188SOL    HW116463   1.094   3.891   5.588
 5188SOL    HW216464   1.160   3.954   5.723
 5189SOL     OW16465   4.484   5.371   6.485
 5189SOL    HW116466   4.459   5.315   6.565
 5189SOL    HW216467   4.578   5.351   6.458
 5190SOL     OW16468   1.447   2.383   3.853
 5190SOL    HW116469   1.445   2.297   3.904
 5190SOL    HW216470   1.535   2.428   3.867
 5191SOL     OW16471   3.669   0.029   1.578
 5191SOL    HW116472   3.638   6.991   1.652
 5191SOL    HW216473   3.768   0.017   1.564
 5192SOL     OW16474   6.131   5.599   3.155
 5192SOL    HW116475   6.063   5.638   3.218
 5192SOL    HW216476   6.223   5.623   3.186
 5193SOL     OW16477   4.994   3.795   3.033
 5193SOL    HW116478   5.087   3.811   2.999
 5193SOL    HW216479   4.929   3.803   2.957
 5194SOL     OW16480   5.952   0.728   5.692
 5194SOL    HW116481   5.903   0.708   5.776
 5194SOL    HW216482   5.990   0.821   5.697
 5195SOL     OW16483   6.381   6.303   5.847
 5195SOL    HW116484   6.368   6.329   5.942
 5195SOL    HW216485   6.438   6.371   5.800
 5196SOL     OW16486   0.188   3.916   1.826
 5196SOL    HW116487   0.094   3.883   1.832
 5196SOL    HW216488   0.191   3.997   1.768
 5197SOL     OW16489   3.133   5.791   4.894
 5197SOL    HW116490   3.070   5.804   4.818
 5197SOL    HW216491   3.082   5.781   4.979
 5198SOL     OW16492   4.487   6.949   5.153
 5198SOL    HW116493   4.455   6.896   5.232
 5198SOL    HW216494   4.490   6.890   5.073
 5199SOL     OW16495   1.290   4.917   1.631
 5199SOL    HW116496   1.324   4.937   1.540
 5199SOL    HW216497   1.365   4.888   1.690
 5200SOL     OW16498   6.547   1.035   5.550
 5200SOL    HW116499   6.523   1.125   5.587
 5200SOL    HW216500   6.646   1.032   5.532
 5201SOL     OW16501   6.446   5.084   4.193
 5201SOL    HW116502   6.350   5.102   4.175
 5201SOL    HW216503   6.498   5.169   4.185
 5202SOL     OW16504   3.971   2.806   6.345
 5202SOL    HW116505   3.914   2.744   6.400
 5202SOL    HW216506   4.066   2.773   6.345
 5203SOL     OW16507   1.696   0.144   0.119
 5203SOL    HW116508   1.782   0.187   0.093
 5203SOL    HW216509   1.641   0.210   0.170
 5204SOL     OW16510   3.204   1.010   0.078
 5204SOL    HW116511   3.293   1.007   0.033
 5204SOL    HW216512   3.132   1.017   0.009
 5205SOL     OW16513   0.550   5.773   1.012
 5205SOL    HW116514   0.648   5.758   1.027
 5205SOL    HW216515   0.537   5.859   0.964
 5206SOL     OW16516   0.941   4.214   4.493
 5206SOL    HW116517   0.929   4.121   4.527
 5206SOL    HW216518   0.931   4.215   4.394
 5207SOL     OW16519   0.030   0.132   3.829
 5207SOL    HW116520   0.009   0.163   3.736
 5207SOL    HW216521   0.067   0.208   3.882
 5208SOL     OW16522   4.920   1.970   6.977
 5208SOL    HW116523   4.821   1.981   6.965
 5208SOL    HW216524   4.953   2.037   0.022
 5209SOL     OW16525   5.671   5.999   2.534
 5209SOL    HW116526   5.765   5.990   2.568
 5209SOL    HW216527   5.612   5.932   2.579
 5210SOL     OW16528   5.607   4.552   0.304
 5210SOL    HW116529   5.583   4.587   0.395
 5210SOL    HW216530   5.550   4.473   0.283
 5211SOL     OW16531   4.814   3.040   4.571
 5211SOL    HW116532   4.832   3.137   4.589
 5211SOL    HW216533   4.858   2.985   4.642
 5212SOL     OW16534   1.214   3.526   0.372
 5212SOL    HW116535   1.184   3.474   0.451
 5212SOL    HW216536   1.303   3.567   0.390
 5213SOL     OW16537   4.082   3.539   2.848
 5213SOL    HW116538   4.032   3.454   2.831
 5213SOL    HW216539   4.059   3.606   2.778
 5214SOL     OW16540   5.362   3.671   5.487
 5214SOL    HW116541   5.285   3.734   5.499
 5214SOL    HW216542   5.430   3.713   5.426
 5215SOL     OW16543   6.978   3.832   4.817
 5215SOL    HW116544   7.017   3.781   4.894
 5215SOL    HW216545   0.030   3.870   4.762
 5216SOL     OW16546   5.068   5.683   1.416
 5216SOL    HW116547   5.161   5.720   1.414
 5216SOL    HW216548   5.004   5.751   1.382
 5217SOL     OW16549   4.256   6.331   3.659
 5217SOL    HW116550   4.247   6.330   3.758
 5217SOL    HW216551   4.165   6.328   3.618
 5218SOL     OW16552   0.354   0.100   1.192
 5218SOL    HW116553   0.273   0.050   1.162
 5218SOL    HW216554   0.434   0.067   1.142
 5219SOL     OW16555   3.275   1.754   4.817
 5219SOL    HW116556   3.347   1.813   4.780
 5219SOL    HW216557   3.217   1.806   4.879
 5220SOL     OW16558   2.246   4.552   4.001
 5220SOL    HW116559   2.323   4.530   4.061
 5220SOL    HW216560   2.262   4.641   3.958
 5221SOL     OW16561   6.530   5.854   0.950
 5221SOL    HW116562   6.473   5.779   0.918
 5221SOL    HW216563   6.621   5.819   0.974
 5222SOL     OW16564   5.254   3.943   0.886
 5222SOL    HW116565   5.212   3.866   0.839
 5222SOL    HW216566   5.317   3.910   0.956
 5223SOL     OW16567   0.318   3.167   1.083
 5223SOL    HW116568   0.349   3.185   0.989
 5223SOL    HW216569   0.377   3.098   1.125
 5224SOL     OW16570   0.265   2.457   4.875
 5224SOL    HW116571   0.240   2.506   4.792
 5224SOL    HW216572   0.310   2.371   4.851
 5225SOL     OW16573   0.033   1.812   4.828
 5225SOL    HW116574   6.966   1.766   4.824
 5225SOL    HW216575   0.020   1.909   4.844
 5226SOL     OW16576   0.790   6.670   3.882
 5226SOL    HW116577   0.703   6.631   3.852
 5226SOL    HW216578   0.856   6.666   3.808
 5227SOL     OW16579   0.159   2.654   5.442
 5227SOL    HW116580   0.235   2.719   5.445
 5227SOL    HW216581   0.177   2.580   5.506
 5228SOL     OW16582   1.366   2.216   5.819
 5228SOL    HW116583   1.311   2.133   5.815
 5228SOL    HW216584   1.371   2.257   5.727
 5229SOL     OW16585   3.340   1.384   5.902
 5229SOL    HW116586   3.313   1.453   5.835
 5229SOL    HW216587   3.422   1.336   5.869
 5230SOL     OW16588   6.449   6.372   1.947
 5230SOL    HW116589   6.487   6.464   1.944
 5230SOL    HW216590   6.357   6.373   1.908
 5231SOL     OW16591   6.769   2.160   1.612
 5231SOL    HW116592   6.866   2.178   1.596
 5231SOL    HW216593   6.715   2.241   1.591
 5232SOL     OW16594   1.660   2.943   5.875
 5232SOL    HW116595   1.568   2.962   5.840
 5232SOL    HW216596   1.652   2.896   5.963
 5233SOL     OW16597   2.700   0.010   2.884
 5233SOL    HW116598   2.742   7.013   2.972
 5233SOL    HW216599   2.675   6.945   2.840
 5234SOL     OW16600   2.320   2.070   0.060
 5234SOL    HW116601   2.392   2.133   0.032
 5234SOL    HW216602   2.312   2.070   0.159
 5235SOL     OW16603   2.036   2.515   1.309
 5235SOL    HW116604   2.061   2.513   1.406
 5235SOL    HW216605   2.077   2.437   1.263
 5236SOL     OW16606   3.497   5.627   1.802
 5236SOL    HW116607   3.401   5.601   1.801
 5236SOL    HW216608   3.552   5.550   1.769
 5237SOL     OW16609   1.987   2.080   2.930
 5237SOL    HW116610   2.073   2.085   2.878
 5237SOL    HW216611   1.985   2.151   3.000
 5238SOL     OW16612   0.376   6.840   2.924
 5238SOL    HW116613   0.427   6.759   2.951
 5238SOL    HW216614   0.290   6.812   2.882
 5239SOL     OW16615   2.645   3.673   1.159
 5239SOL    HW116616   2.572   3.726   1.116
 5239SOL    HW216617   2.666   3.594   1.102
 5240SOL     OW16618   1.988   3.335   5.852
 5240SOL    HW116619   2.046   3.398   5.903
 5240SOL    HW216620   2.011   3.339   5.754
 5241SOL     OW16621   0.995   5.656   2.309
 5241SOL    HW116622   0.970   5.743   2.352
 5241SOL    HW216623   0.915   5.596   2.307
 5242SOL     OW16624   4.827   0.295   6.580
 5242SOL    HW116625   4.888   0.261   6.652
 5242SOL    HW216626   4.772   0.220   6.544
 5243SOL     OW16627   2.504   6.873   2.473
 5243SOL    HW116628   2.429   6.850   2.410
 5243SOL    HW216629   2.473   6.943   2.537
 5244SOL     OW16630   4.531   2.569   0.330
 5244SOL    HW116631   4.464   2.640   0.309
 5244SOL    HW216632   4.621   2.610   0.343
 5245SOL     OW16633   4.098   3.491   1.784
 5245SOL    HW116634   4.100   3.586   1.814
 5245SOL    HW216635   4.187   3.466   1.745
 5246SOL     OW16636   5.917   3.242   0.827
 5246SOL    HW116637   5.944   3.162   0.774
 5246SOL    HW216638   5.928   3.324   0.772
 5247SOL     OW16639   3.824   2.142   6.262
 5247SOL    HW116640   3.761   2.182   6.196
 5247SOL    HW216641   3.781   2.064   6.307
 5248SOL     OW16642   6.975   0.997   3.766
 5248SOL    HW116643   6.985   1.033   3.859
 5248SOL    HW216644   0.043   0.976   3.728
 5249SOL     OW16645   0.252   4.884   6.594
 5249SOL    HW116646   0.220   4.789   6.595
 5249SOL    HW216647   0.319   4.897   6.667
 5250SOL     OW16648   1.765   5.631   1.356
 5250SOL    HW116649   1.676   5.589   1.337
 5250SOL    HW216650   1.784   5.700   1.286
 5251SOL     OW16651   0.815   4.573   0.408
 5251SOL    HW116652   0.717   4.593   0.404
 5251SOL    HW216653   0.828   4.477   0.433
 5252SOL     OW16654   3.976   6.573   2.132
 5252SOL    HW116655   4.062   6.577   2.184
 5252SOL    HW216656   3.929   6.487   2.151
 5253SOL     OW16657   6.825   5.757   4.342
 5253SOL    HW116658   6.783   5.815   4.412
 5253SOL    HW216659   6.797   5.790   4.251
 5254SOL     OW16660   5.786   0.149   3.736
 5254SOL    HW116661   5.693   0.123   3.757
 5254SOL    HW216662   5.786   0.220   3.665
 5255SOL     OW16663   5.969   1.530   5.458
 5255SOL    HW116664   5.984   1.607   5.520
 5255SOL    HW216665   5.872   1.506   5.458
 5256SOL     OW16666   6.848   1.394   2.648
 5256SOL    HW116667   6.758   1.369   2.683
 5256SOL    HW216668   6.903   1.311   2.636
 5257SOL     OW16669   3.801   0.879   5.820
 5257SOL    HW116670   3.826   0.950   5.755
 5257SOL    HW216671   3.702   0.879   5.833
 5258SOL     OW16672   4.438   1.466   2.759
 5258SOL    HW116673   4.530   1.471   2.799
 5258SOL    HW216674   4.387   1.548   2.783
 5259SOL     OW16675   6.530   5.386   3.304
 5259SOL    HW116676   6.579   5.415   3.386
 5259SOL    HW216677   6.588   5.401   3.224
 5260SOL     OW16678   2.606   0.918   0.775
 5260SOL    HW116679   2.601   0.955   0.868
 5260SOL    HW216680   2.547   0.972   0.715
 5261SOL     OW16681   5.994   4.607   0.160
 5261SOL    HW116682   5.976   4.706   0.155
 5261SOL    HW216683   5.967   4.564   0.074
 5262SOL     OW16684   2.031   0.760   2.962
 5262SOL    HW116685   2.020   0.669   3.000
 5262SOL    HW216686   2.090   0.814   3.022
 5263SOL     OW16687   1.282   6.682   2.305
 5263SOL    HW116688   1.217   6.607   2.319
 5263SOL    HW216689   1.373   6.653   2.334
 5264SOL     OW16690   6.172   1.617   1.841
 5264SOL    HW116691   6.137   1.609   1.748
 5264SOL    HW216692   6.097   1.641   1.903
 5265SOL     OW16693   6.438   4.822   4.599
 5265SOL    HW116694   6.527   4.783   4.574
 5265SOL    HW216695   6.408   4.885   4.529
 5266SOL     OW16696   2.271   0.483   0.275
 5266SOL    HW116697   2.203   0.410   0.286
 5266SOL    HW216698   2.238   0.565   0.322
 5267SOL     OW16699   5.402   3.071   4.407
 5267SOL    HW116700   5.422   3.167   4.386
 5267SOL    HW216701   5.316   3.065   4.457
 5268SOL     OW16702   5.229   0.599   6.201
 5268SOL    HW116703   5.303   0.655   6.162
 5268SOL    HW216704   5.185   0.547   6.128
 5269SOL     OW16705   0.455   6.487   3.856
 5269SOL    HW116706   0.475   6.556   3.926
 5269SOL    HW216707   0.377   6.432   3.885
 5270SOL     OW16708   0.365   2.293   5.858
 5270SOL    HW116709   0.267   2.274   5.853
 5270SOL    HW216710   0.412   2.250   5.780
 5271SOL     OW16711   0.472   4.619   3.580
 5271SOL    HW116712   0.476   4.715   3.608
 5271SOL    HW216713   0.543   4.601   3.512
 5272SOL     OW16714   4.615   0.836   0.014
 5272SOL    HW116715   4.632   0.758   0.074
 5272SOL    HW216716   4.697   0.893   0.010
 5273SOL     OW16717   1.339   2.378   2.901
 5273SOL    HW116718   1.254   2.410   2.859
 5273SOL    HW216719   1.383   2.311   2.842
 5274SOL     OW16720   5.160   5.262   1.880
 5274SOL    HW116721   5.096   5.332   1.911
 5274SOL    HW216722   5.231   5.303   1.823
 5275SOL     OW16723   4.320   1.816   6.370
 5275SOL    HW116724   4.329   1.728   6.323
 5275SOL    HW216725   4.377   1.884   6.323
 5276SOL     OW16726   4.622   6.538   2.366
 5276SOL    HW116727   4.718   6.560   2.346
 5276SOL    HW216728   4.605   6.551   2.464
 5277SOL     OW16729   2.322   2.724   1.789
 5277SOL    HW116730   2.373   2.809   1.801
 5277SOL    HW216731   2.288   2.717   1.696
 5278SOL     OW16732   4.587   4.383   1.395
 5278SOL    HW116733   4.588   4.470   1.444
 5278SOL    HW216734   4.561   4.309   1.458
 5279SOL     OW16735   2.436   5.454   2.271
 5279SOL    HW116736   2.377   5.528   2.238
 5279SOL    HW216737   2.490   5.418   2.195
 5280SOL     OW16738   5.294   6.113   4.260
 5280SOL    HW116739   5.316   6.016   4.249
 5280SOL    HW216740   5.311   6.140   4.355
 5281SOL     OW16741   7.015   1.764   1.364
 5281SOL    HW116742   6.962   1.788   1.445
 5281SOL    HW216743   6.979   1.679   1.325
 5282SOL     OW16744   4.795   1.940   2.322
 5282SOL    HW116745   4.803   1.933   2.223
 5282SOL    HW216746   4.701   1.923   2.350
 5283SOL     OW16747   5.150   4.711   6.459
 5283SOL    HW116748   5.119   4.736   6.551
 5283SOL    HW216749   5.247   4.733   6.450
 5284SOL     OW16750   5.605   3.130   3.854
 5284SOL    HW116751   5.568   3.037   3.852
 5284SOL    HW216752   5.591   3.170   3.945
 5285SOL     OW16753   3.401   5.473   3.370
 5285SOL    HW116754   3.394   5.457   3.468
 5285SOL    HW216755   3.336   5.415   3.322
 5286SOL     OW16756   2.202   4.712   2.117
 5286SOL    HW116757   2.176   4.681   2.209
 5286SOL    HW216758   2.277   4.777   2.123
 5287SOL     OW16759   1.081   1.640   1.163
 5287SOL    HW116760   1.125   1.642   1.253
 5287SOL    HW216761   0.983   1.621   1.174
 5288SOL     OW16762   4.126   0.700   0.783
 5288SOL    HW116763   4.186   0.644   0.726
 5288SOL    HW216764   4.034   0.661   0.784
 5289SOL     OW16765   2.187   5.453   1.149
 5289SOL    HW116766   2.238   5.474   1.233
 5289SOL    HW216767   2.113   5.389   1.169
 5290SOL     OW16768   5.075   5.585   0.410
 5290SOL    HW116769   4.996   5.635   0.375
 5290SOL    HW216770   5.154   5.600   0.351
 5291SOL     OW16771   1.593   4.974   6.021
 5291SOL    HW116772   1.690   4.959   6.003
 5291SOL    HW216773   1.540   4.943   5.941
 5292SOL     OW16774   4.878   2.768   5.737
 5292SOL    HW116775   4.800   2.708   5.754
 5292SOL    HW216776   4.914   2.802   5.823
 5293SOL     OW16777   0.253   0.472   4.595
 5293SOL    HW116778   0.184   0.449   4.664
 5293SOL    HW216779   0.282   0.388   4.548
 5294SOL     OW16780   5.141   2.102   5.304
 5294SOL    HW116781   5.099   2.033   5.246
 5294SOL    HW216782   5.209   2.153   5.251
 5295SOL     OW16783   6.154   1.064   1.981
 5295SOL    HW116784   6.187   0.976   2.015
 5295SOL    HW216785   6.056   1.072   2.000
 5296SOL     OW16786   0.989   4.286   0.270
 5296SOL    HW116787   1.002   4.385   0.266
 5296SOL    HW216788   0.962   4.260   0.363
 5297SOL     OW16789   1.746   3.065   1.852
 5297SOL    HW116790   1.745   3.165   1.852
 5297SOL    HW216791   1.720   3.032   1.761
 5298SOL     OW16792   0.930   5.210   1.461
 5298SOL    HW116793   1.026   5.202   1.437
 5298SOL    HW216794   0.917   5.287   1.523
 5299SOL     OW16795   2.844   0.456   1.733
 5299SOL    HW116796   2.922   0.481   1.676
 5299SOL    HW216797   2.802   0.539   1.770
 5300SOL     OW16798   0.003   5.254   3.225
 5300SOL    HW116799   0.008   5.327   3.157
 5300SOL    HW216800   0.059   5.177   3.196
 5301SOL     OW16801   4.716   1.382   0.104
 5301SOL    HW116802   4.643   1.343   0.160
 5301SOL    HW216803   4.676   1.443   0.036
 5302SOL     OW16804   6.690   4.769   3.145
 5302SOL    HW116805   6.679   4.814   3.233
 5302SOL    HW216806   6.636   4.816   3.075
 5303SOL     OW16807   0.730   4.917   3.702
 5303SOL    HW116808   0.776   4.836   3.738
 5303SOL    HW216809   0.798   4.985   3.675
 5304SOL     OW16810   5.417   2.373   5.628
 5304SOL    HW116811   5.470   2.325   5.559
 5304SOL    HW216812   5.361   2.443   5.585
 5305SOL     OW16813   2.622   1.084   2.916
 5305SOL    HW116814   2.611   1.088   2.816
 5305SOL    HW216815   2.562   1.150   2.960
 5306SOL     OW16816   2.730   0.192   5.274
 5306SOL    HW116817   2.811   0.147   5.236
 5306SOL    HW216818   2.688   0.131   5.341
 5307SOL     OW16819   4.463   6.475   6.839
 5307SOL    HW116820   4.559   6.475   6.811
 5307SOL    HW216821   4.450   6.544   6.910
 5308SOL     OW16822   6.877   0.826   3.182
 5308SOL    HW116823   6.785   0.818   3.144
 5308SOL    HW216824   6.927   0.740   3.167
 5309SOL     OW16825   3.468   3.911   4.037
 5309SOL    HW116826   3.505   4.003   4.050
 5309SOL    HW216827   3.476   3.860   4.122
 5310SOL     OW16828   5.691   1.952   0.482
 5310SOL    HW116829   5.606   1.968   0.533
 5310SOL    HW216830   5.673   1.961   0.385
 5311SOL     OW16831   1.719   6.084   0.063
 5311SOL    HW116832   1.804   6.131   0.088
 5311SOL    HW216833   1.740   5.997   0.019
 5312SOL     OW16834   0.508   2.762   2.127
 5312SOL    HW116835   0.473   2.793   2.216
 5312SOL    HW216836   0.493   2.834   2.059
 5313SOL     OW16837   1.280   5.695   0.362
 5313SOL    HW116838   1.221   5.775   0.356
 5313SOL    HW216839   1.240   5.628   0.424
 5314SOL     OW16840   3.087   5.026   0.656
 5314SOL    HW116841   3.101   4.975   0.571
 5314SOL    HW216842   2.989   5.026   0.680
 5315SOL     OW16843   5.042   2.707   2.451
 5315SOL    HW116844   5.133   2.696   2.490
 5315SOL    HW216845   4.980   2.744   2.521
 5316SOL     OW16846   6.410   5.084   4.699
 5316SOL    HW116847   6.369   5.086   4.790
 5316SOL    HW216848   6.453   4.995   4.684
 5317SOL     OW16849   5.498   6.050   2.798
 5317SOL    HW116850   5.454   6.065   2.886
 5317SOL    HW216851   5.432   6.066   2.724
 5318SOL     OW16852   0.033   2.735   4.996
 5318SOL    HW116853   6.997   2.702   4.922
 5318SOL    HW216854   0.036   2.666   5.069
 5319SOL     OW16855   4.147   6.750   1.237
 5319SOL    HW116856   4.203   6.833   1.232
 5319SOL    HW216857   4.050   6.775   1.236
 5320SOL     OW16858   5.425   3.574   5.920
 5320SOL    HW116859   5.376   3.539   5.841
 5320SOL    HW216860   5.413   3.511   5.997
 5321SOL     OW16861   1.572   5.016   6.291
 5321SOL    HW116862   1.635   5.092   6.302
 5321SOL    HW216863   1.573   4.986   6.195
 5322SOL     OW16864   3.242   6.262   0.463
 5322SOL    HW116865   3.273   6.206   0.386
 5322SOL    HW216866   3.217   6.203   0.540
 5323SOL     OW16867   6.079   3.370   0.388
 5323SOL    HW116868   6.099   3.368   0.290
 5323SOL    HW216869   6.147   3.315   0.436
 5324SOL     OW16870   3.719   3.251   1.464
 5324SOL    HW116871   3.640   3.310   1.480
 5324SOL    HW216872   3.792   3.274   1.528
 5325SOL     OW16873   5.031   5.880   3.558
 5325SOL    HW116874   5.043   5.883   3.657
 5325SOL    HW216875   5.045   5.787   3.525
 5326SOL     OW16876   6.574   0.151   2.594
 5326SOL    HW116877   6.534   0.202   2.517
 5326SOL    HW216878   6.653   0.100   2.561
 5327SOL     OW16879   6.862   0.404   4.735
 5327SOL    HW116880   6.811   0.339   4.792
 5327SOL    HW216881   6.872   0.491   4.783
 5328SOL     OW16882   3.675   4.957   0.916
 5328SOL    HW116883   3.687   4.968   0.817
 5328SOL    HW216884   3.657   4.861   0.937
 5329SOL     OW16885   6.459   5.040   0.492
 5329SOL    HW116886   6.518   5.113   0.457
 5329SOL    HW216887   6.472   4.958   0.436
 5330SOL     OW16888   4.384   4.913   0.019
 5330SOL    HW116889   4.438   4.843   0.064
 5330SOL    HW216890   4.417   5.004   0.046
 5331SOL     OW16891   4.690   2.784   6.506
 5331SOL    HW116892   4.646   2.874   6.505
 5331SOL    HW216893   4.770   2.787   6.566
 5332SOL     OW16894   6.384   2.898   0.284
 5332SOL    HW116895   6.347   2.821   0.232
 5332SOL    HW216896   6.465   2.868   0.335
 5333SOL     OW16897   1.421   1.806   4.263
 5333SOL    HW116898   1.462   1.871   4.328
 5333SOL    HW216899   1.480   1.725   4.255
 5334SOL     OW16900   3.257   5.475   1.797
 5334SOL    HW116901   3.200   5.466   1.716
 5334SOL    HW216902   3.250   5.391   1.852
 5335SOL     OW16903   0.051   4.348   1.419
 5335SOL    HW116904   7.020   4.431   1.431
 5335SOL    HW216905   0.117   4.339   1.494
 5336SOL     OW16906   1.898   2.907   4.507
 5336SOL    HW116907   1.988   2.940   4.479
 5336SOL    HW216908   1.909   2.838   4.579
 5337SOL     OW16909   5.994   5.627   0.709
 5337SOL    HW116910   5.999   5.710   0.652
 5337SOL    HW216911   6.082   5.612   0.753
 5338SOL     OW16912   6.194   3.359   0.886
 5338SOL    HW116913   6.111   3.303   0.877
 5338SOL    HW216914   6.170   3.446   0.929
 5339SOL     OW16915   5.621   3.822   3.073
 5339SOL    HW116916   5.651   3.911   3.039
 5339SOL    HW216917   5.679   3.750   3.033
 5340SOL     OW16918   5.462   3.369   2.894
 5340SOL    HW116919   5.365   3.386   2.910
 5340SOL    HW216920   5.492   3.417   2.811
 5341SOL     OW16921   4.117   4.807   3.812
 5341SOL    HW116922   4.111   4.829   3.910
 5341SOL    HW216923   4.083   4.884   3.758
 5342SOL     OW16924   6.532   6.315   5.150
 5342SOL    HW116925   6.565   6.223   5.125
 5342SOL    HW216926   6.610   6.377   5.155
 5343SOL     OW16927   3.270   2.841   6.732
 5343SOL    HW116928   3.171   2.838   6.718
 5343SOL    HW216929   3.314   2.775   6.672
 5344SOL     OW16930   1.053   1.739   6.302
 5344SOL    HW116931   1.060   1.686   6.386
 5344SOL    HW216932   1.117   1.816   6.306
 5345SOL     OW16933   4.330   1.312   6.485
 5345SOL    HW116934   4.287   1.398   6.514
 5345SOL    HW216935   4.417   1.301   6.533
 5346SOL     OW16936   3.031   6.252   3.614
 5346SOL    HW116937   3.013   6.170   3.667
 5346SOL    HW216938   3.047   6.329   3.677
 5347SOL     OW16939   6.029   1.956   4.050
 5347SOL    HW116940   6.127   1.969   4.037
 5347SOL    HW216941   5.995   2.023   4.116
 5348SOL     OW16942   5.096   2.577   3.971
 5348SOL    HW116943   5.046   2.627   3.900
 5348SOL    HW216944   5.057   2.485   3.980
 5349SOL     OW16945   0.937   3.391   1.682
 5349SOL    HW116946   0.905   3.425   1.594
 5349SOL    HW216947   0.867   3.408   1.752
 5350SOL     OW16948   1.054   6.430   0.217
 5350SOL    HW116949   1.117   6.498   0.254
 5350SOL    HW216950   1.055   6.435   0.117
 5351SOL     OW16951   6.553   6.352   3.204
 5351SOL    HW116952   6.564   6.449   3.229
 5351SOL    HW216953   6.515   6.347   3.111
 5352SOL     OW16954   1.145   2.997   5.702
 5352SOL    HW116955   1.089   3.025   5.624
 5352SOL    HW216956   1.096   2.929   5.755
 5353SOL     OW16957   3.909   5.176   3.606
 5353SOL    HW116958   3.943   5.221   3.689
 5353SOL    HW216959   3.832   5.228   3.570
 5354SOL     OW16960   4.303   6.171   0.575
 5354SOL    HW116961   4.298   6.235   0.652
 5354SOL    HW216962   4.394   6.176   0.534
 5355SOL     OW16963   5.256   4.471   5.216
 5355SOL    HW116964   5.266   4.372   5.217
 5355SOL    HW216965   5.212   4.502   5.300
 5356SOL     OW16966   0.194   5.529   0.807
 5356SOL    HW116967   0.261   5.573   0.749
 5356SOL    HW216968   0.117   5.590   0.822
 5357SOL     OW16969   6.207   3.684   3.089
 5357SOL    HW116970   6.247   3.671   2.999
 5357SOL    HW216971   6.149   3.605   3.112
 5358SOL     OW16972   4.333   1.424   6.937
 5358SOL    HW116973   4.264   1.437   7.008
 5358SOL    HW216974   4.314   1.486   6.860
 5359SOL     OW16975   3.611   2.056   7.007
 5359SOL    HW116976   3.708   2.078   6.998
 5359SOL    HW216977   3.566   2.127   0.040
 5360SOL     OW16978   5.554   4.923   4.034
 5360SOL    HW116979   5.529   4.870   4.115
 5360SOL    HW216980   5.654   4.936   4.033
 5361SOL     OW16981   1.893   5.619   2.644
 5361SOL    HW116982   1.826   5.633   2.716
 5361SOL    HW216983   1.983   5.602   2.685
 5362SOL     OW16984   5.676   1.184   2.411
 5362SOL    HW116985   5.738   1.212   2.337
 5362SOL    HW216986   5.593   1.240   2.409
 5363SOL     OW16987   5.935   5.498   3.472
 5363SOL    HW116988   5.858   5.529   3.527
 5363SOL    HW216989   5.902   5.467   3.383
 5364SOL     OW16990   4.722   1.492   2.873
 5364SOL    HW116991   4.753   1.507   2.779
 5364SOL    HW216992   4.769   1.413   2.911
 5365SOL     OW16993   3.153   3.005   4.388
 5365SOL    HW116994   3.155   2.934   4.459
 5365SOL    HW216995   3.219   2.983   4.317
 5366SOL     OW16996   6.388   6.315   2.980
 5366SOL    HW116997   6.453   6.365   2.924
 5366SOL    HW216998   6.325   6.265   2.921
 5367SOL     OW16999   6.243   5.948   1.728
 5367SOL    HW117000   6.199   5.859   1.719
 5367SOL    HW217001   6.179   6.014   1.768
 5368SOL     OW17002   6.630   5.647   4.063
 5368SOL    HW117003   6.572   5.574   4.097
 5368SOL    HW217004   6.726   5.619   4.068
 5369SOL     OW17005   3.509   5.233   3.044
 5369SOL    HW117006   3.553   5.216   2.955
 5369SOL    HW217007   3.576   5.273   3.107
 5370SOL     OW17008   1.543   3.182   0.441
 5370SOL    HW117009   1.595   3.217   0.520
 5370SOL    HW217010   1.561   3.240   0.362
 5371SOL     OW17011   6.101   5.134   4.736
 5371SOL    HW117012   6.116   5.036   4.746
 5371SOL    HW217013   6.041   5.151   4.658
 5372SOL     OW17014   1.427   0.052   3.112
 5372SOL    HW117015   1.379   0.120   3.167
 5372SOL    HW217016   1.367   0.021   3.038
 5373SOL     OW17017   3.052   1.772   6.949
 5373SOL    HW117018   2.971   1.785   6.891
 5373SOL    HW217019   3.134   1.780   6.893
 5374SOL     OW17020   1.766   4.312   2.479
 5374SOL    HW117021   1.677   4.267   2.482
 5374SOL    HW217022   1.766   4.391   2.540
 5375SOL     OW17023   2.499   4.490   4.641
 5375SOL    HW117024   2.528   4.558   4.709
 5375SOL    HW217025   2.579   4.462   4.587
 5376SOL     OW17026   0.547   0.076   6.137
 5376SOL    HW117027   0.514   7.015   6.093
 5376SOL    HW217028   0.646   0.085   6.124
 5377SOL     OW17029   1.882   1.011   3.463
 5377SOL    HW117030   1.974   0.983   3.433
 5377SOL    HW217031   1.866   1.106   3.436
 5378SOL     OW17032   4.678   0.532   2.150
 5378SOL    HW117033   4.705   0.607   2.209
 5378SOL    HW217034   4.702   0.445   2.193
 5379SOL     OW17035   1.882   2.257   5.516
 5379SOL    HW117036   1.802   2.200   5.498
 5379SOL    HW217037   1.873   2.344   5.466
 5380SOL     OW17038   4.104   6.473   1.439
 5380SOL    HW117039   4.177   6.537   1.462
 5380SOL    HW217040   4.140   6.379   1.440
 5381SOL     OW17041   3.417   0.106   3.884
 5381SOL    HW117042   3.463   0.177   3.937
 5381SOL    HW217043   3.472   0.082   3.804
 5382SOL     OW17044   4.559   1.026   1.670
 5382SOL    HW117045   4.619   0.956   1.631
 5382SOL    HW217046   4.583   1.040   1.766
 5383SOL     OW17047   2.488   2.551   4.650
 5383SOL    HW117048   2.580   2.573   4.616
 5383SOL    HW217049   2.425   2.624   4.627
 5384SOL     OW17050   5.703   5.103   4.838
 5384SOL    HW117051   5.606   5.082   4.847
 5384SOL    HW217052   5.733   5.086   4.745
 5385SOL     OW17053   3.794   3.324   6.013
 5385SOL    HW117054   3.866   3.317   6.082
 5385SOL    HW217055   3.711   3.279   6.047
 5386SOL     OW17056   5.046   4.372   4.532
 5386SOL    HW117057   4.969   4.320   4.495
 5386SOL    HW217058   5.017   4.420   4.615
 5387SOL     OW17059   0.740   1.849   3.802
 5387SOL    HW117060   0.775   1.930   3.849
 5387SOL    HW217061   0.770   1.850   3.706
 5388SOL     OW17062   0.448   6.597   2.118
 5388SOL    HW117063   0.548   6.609   2.116
 5388SOL    HW217064   0.404   6.687   2.116
 5389SOL     OW17065   4.690   1.292   3.413
 5389SOL    HW117066   4.700   1.349   3.331
 5389SOL    HW217067   4.747   1.330   3.486
 5390SOL     OW17068   0.345   2.685   3.257
 5390SOL    HW117069   0.433   2.731   3.266
 5390SOL    HW217070   0.286   2.711   3.333
 5391SOL     OW17071   2.880   2.823   0.520
 5391SOL    HW117072   2.963   2.770   0.539
 5391SOL    HW217073   2.850   2.868   0.604
 5392SOL     OW17074   5.900   0.995   4.003
 5392SOL    HW117075   5.965   1.044   3.944
 5392SOL    HW217076   5.942   0.910   4.035
 5393SOL     OW17077   4.607   2.342   4.616
 5393SOL    HW117078   4.629   2.261   4.561
 5393SOL    HW217079   4.513   2.371   4.596
 5394SOL     OW17080   0.790   1.904   1.287
 5394SOL    HW117081   0.745   1.993   1.287
 5394SOL    HW217082   0.725   1.833   1.262
 5395SOL     OW17083   6.253   1.487   0.634
 5395SOL    HW117084   6.257   1.521   0.540
 5395SOL    HW217085   6.158   1.474   0.661
 5396SOL     OW17086   4.572   3.953   0.574
 5396SOL    HW117087   4.486   4.004   0.580
 5396SOL    HW217088   4.564   3.869   0.629
 5397SOL     OW17089   0.446   0.857   2.699
 5397SOL    HW117090   0.462   0.857   2.797
 5397SOL    HW217091   0.347   0.856   2.681
 5398SOL     OW17092   6.217   2.403   2.478
 5398SOL    HW117093   6.240   2.384   2.573
 5398SOL    HW217094   6.301   2.410   2.424
 5399SOL     OW17095   1.694   2.161   6.987
 5399SOL    HW117096   1.765   2.231   6.990
 5399SOL    HW217097   1.605   2.204   6.975
 5400SOL     OW17098   4.663   3.193   1.685
 5400SOL    HW117099   4.732   3.165   1.619
 5400SOL    HW217100   4.637   3.115   1.742
 5401SOL     OW17101   5.735   2.745   1.290
 5401SOL    HW117102   5.654   2.688   1.304
 5401SOL    HW217103   5.707   2.841   1.281
 5402SOL     OW17104   1.509   6.575   2.390
 5402SOL    HW117105   1.499   6.481   2.421
 5402SOL    HW217106   1.606   6.598   2.382
 5403SOL     OW17107   4.925   3.107   0.424
 5403SOL    HW117108   5.018   3.084   0.453
 5403SOL    HW217109   4.909   3.204   0.438
 5404SOL     OW17110   5.288   0.285   6.786
 5404SOL    HW117111   5.362   0.239   6.736
 5404SOL    HW217112   5.325   0.365   6.833
 5405SOL     OW17113   0.654   4.606   6.947
 5405SOL    HW117114   0.624   4.623   6.853
 5405SOL    HW217115   0.665   4.694   6.994
 5406SOL     OW17116   2.516   0.869   5.945
 5406SOL    HW117117   2.549   0.777   5.964
 5406SOL    HW217118   2.495   0.915   6.032
 5407SOL     OW17119   1.697   0.214   3.108
 5407SOL    HW117120   1.664   0.166   3.189
 5407SOL    HW217121   1.623   0.270   3.071
 5408SOL     OW17122   2.471   1.736   4.320
 5408SOL    HW117123   2.487   1.698   4.229
 5408SOL    HW217124   2.374   1.730   4.341
 5409SOL     OW17125   0.653   3.012   1.826
 5409SOL    HW117126   0.731   3.041   1.882
 5409SOL    HW217127   0.682   2.938   1.765
 5410SOL     OW17128   0.243   2.595   0.911
 5410SOL    HW117129   0.232   2.582   0.813
 5410SOL    HW217130   0.188   2.674   0.940
 5411SOL     OW17131   3.223   5.559   0.185
 5411SOL    HW117132   3.133   5.554   0.227
 5411SOL    HW217133   3.293   5.551   0.256
 5412SOL     OW17134   6.984   1.961   6.240
 5412SOL    HW117135   6.951   1.880   6.288
 5412SOL    HW217136   0.060   1.950   6.220
 5413SOL     OW17137   0.653   5.693   4.840
 5413SOL    HW117138   0.589   5.754   4.793
 5413SOL    HW217139   0.673   5.614   4.782
 5414SOL     OW17140   5.316   4.055   5.614
 5414SOL    HW117141   5.405   4.073   5.657
 5414SOL    HW217142   5.276   4.142   5.585
 5415SOL     OW17143   4.166   0.605   7.021
 5415SOL    HW117144   4.099   0.567   0.063
 5415SOL    HW217145   4.234   0.535   7.000
 5416SOL     OW17146   3.446   5.815   6.983
 5416SOL    HW117147   3.481   5.894   0.010
 5416SOL    HW217148   3.522   5.756   6.956
 5417SOL     OW17149   4.168   6.909   4.075
 5417SOL    HW117150   4.258   6.922   4.117
 5417SOL    HW217151   4.097   6.949   4.134
 5418SOL     OW17152   6.717   3.015   5.393
 5418SOL    HW117153   6.788   3.005   5.323
 5418SOL    HW217154   6.645   2.947   5.379
 5419SOL     OW17155   4.331   1.334   5.557
 5419SOL    HW117156   4.419   1.286   5.548
 5419SOL    HW217157   4.336   1.422   5.510
 5420SOL     OW17158   1.124   1.771   2.157
 5420SOL    HW117159   1.152   1.742   2.066
 5420SOL    HW217160   1.106   1.869   2.157
 5421SOL     OW17161   3.604   4.928   2.221
 5421SOL    HW117162   3.623   4.881   2.135
 5421SOL    HW217163   3.509   4.911   2.249
 5422SOL     OW17164   2.392   5.066   3.629
 5422SOL    HW117165   2.369   5.087   3.534
 5422SOL    HW217166   2.491   5.075   3.642
 5423SOL     OW17167   4.440   6.506   1.985
 5423SOL    HW117168   4.427   6.605   1.988
 5423SOL    HW217169   4.490   6.481   1.903
 5424SOL     OW17170   4.323   3.921   5.544
 5424SOL    HW117171   4.314   3.826   5.515
 5424SOL    HW217172   4.278   3.981   5.478
 5425SOL     OW17173   1.392   4.443   5.217
 5425SOL    HW117174   1.392   4.395   5.305
 5425SOL    HW217175   1.477   4.424   5.168
 5426SOL     OW17176   6.606   5.466   1.210
 5426SOL    HW117177   6.698   5.484   1.246
 5426SOL    HW217178   6.576   5.376   1.240
 5427SOL     OW17179   4.115   3.184   6.763
 5427SOL    HW117180   4.097   3.090   6.791
 5427SOL    HW217181   4.201   3.188   6.711
 5428SOL     OW17182   5.623   5.450   2.540
 5428SOL    HW117183   5.558   5.468   2.466
 5428SOL    HW217184   5.587   5.378   2.599
 5429SOL     OW17185   3.471   0.808   4.684
 5429SOL    HW117186   3.382   0.847   4.660
 5429SOL    HW217187   3.534   0.816   4.607
 5430SOL     OW17188   2.986   3.955   5.067
 5430SOL    HW117189   2.895   3.940   5.105
 5430SOL    HW217190   3.021   4.044   5.097
 5431SOL     OW17191   4.499   4.225   0.435
 5431SOL    HW117192   4.486   4.259   0.528
 5431SOL    HW217193   4.595   4.199   0.421
 5432SOL     OW17194   0.132   5.023   6.403
 5432SOL    HW117195   0.168   4.961   6.472
 5432SOL    HW217196   0.032   5.027   6.410
 5433SOL     OW17197   2.833   0.701   1.372
 5433SOL    HW117198   2.881   0.781   1.337
 5433SOL    HW217199   2.885   0.619   1.348
 5434SOL     OW17200   4.891   0.579   4.337
 5434SOL    HW117201   4.872   0.528   4.421
 5434SOL    HW217202   4.828   0.656   4.330
 5435SOL     OW17203   6.571   4.729   0.988
 5435SOL    HW117204   6.485   4.688   1.020
 5435SOL    HW217205   6.579   4.717   0.889
 5436SOL     OW17206   1.527   4.307   2.851
 5436SOL    HW117207   1.604   4.298   2.914
 5436SOL    HW217208   1.443   4.322   2.903
 5437SOL     OW17209   3.486   5.851   1.221
 5437SOL    HW117210   3.441   5.850   1.132
 5437SOL    HW217211   3.426   5.894   1.288
 5438SOL     OW17212   4.740   5.603   2.162
 5438SOL    HW117213   4.773   5.694   2.185
 5438SOL    HW217214   4.673   5.609   2.088
 5439SOL     OW17215   0.899   4.617   1.583
 5439SOL    HW117216   0.895   4.714   1.604
 5439SOL    HW217217   0.993   4.592   1.558
 5440SOL     OW17218   6.115   6.800   4.148
 5440SOL    HW117219   6.195   6.800   4.207
 5440SOL    HW217220   6.132   6.856   4.067
 5441SOL     OW17221   5.761   3.097   4.522
 5441SOL    HW117222   5.742   3.137   4.432
 5441SOL    HW217223   5.844   3.042   4.517
 5442SOL     OW17224   3.332   6.968   6.586
 5442SOL    HW117225   3.301   6.874   6.598
 5442SOL    HW217226   3.383   6.976   6.500
 5443SOL     OW17227   4.679   0.828   3.209
 5443SOL    HW117228   4.772   0.845   3.176
 5443SOL    HW217229   4.613   0.869   3.146
 5444SOL     OW17230   6.098   0.954   5.726
 5444SOL    HW117231   6.068   1.045   5.697
 5444SOL    HW217232   6.196   0.946   5.713
 5445SOL     OW17233   5.667   5.932   4.988
 5445SOL    HW117234   5.620   5.860   4.937
 5445SOL    HW217235   5.680   5.903   5.082
 5446SOL     OW17236   6.745   3.930   6.359
 5446SOL    HW117237   6.794   3.980   6.430
 5446SOL    HW217238   6.759   3.975   6.271
 5447SOL     OW17239   0.260   1.719   1.328
 5447SOL    HW117240   0.293   1.701   1.235
 5447SOL    HW217241   0.163   1.741   1.325
 5448SOL     OW17242   4.722   5.069   3.237
 5448SOL    HW117243   4.651   5.112   3.181
 5448SOL    HW217244   4.797   5.133   3.250
 5449SOL     OW17245   2.669   1.277   1.838
 5449SOL    HW117246   2.764   1.248   1.846
 5449SOL    HW217247   2.609   1.204   1.872
 5450SOL     OW17248   3.878   5.338   1.767
 5450SOL    HW117249   3.894   5.321   1.670
 5450SOL    HW217250   3.966   5.344   1.815
 5451SOL     OW17251   6.676   0.067   2.968
 5451SOL    HW117252   6.710   0.009   2.894
 5451SOL    HW217253   6.718   0.038   3.054
 5452SOL     OW17254   2.031   4.095   2.328
 5452SOL    HW117255   2.097   4.146   2.275
 5452SOL    HW217256   2.023   4.135   2.420
 5453SOL     OW17257   5.862   4.307   3.395
 5453SOL    HW117258   5.794   4.252   3.346
 5453SOL    HW217259   5.923   4.247   3.446
 5454SOL     OW17260   6.399   4.592   2.927
 5454SOL    HW117261   6.337   4.653   2.977
 5454SOL    HW217262   6.465   4.552   2.990
 5455SOL     OW17263   2.365   1.715   3.531
 5455SOL    HW117264   2.387   1.745   3.624
 5455SOL    HW217265   2.281   1.760   3.501
 5456SOL     OW17266   5.482   1.949   1.127
 5456SOL    HW117267   5.402   1.991   1.170
 5456SOL    HW217268   5.458   1.858   1.094
 5457SOL     OW17269   5.486   1.062   6.720
 5457SOL    HW117270   5.414   1.035   6.784
 5457SOL    HW217271   5.451   1.133   6.659
 5458SOL     OW17272   5.958   3.464   0.679
 5458SOL    HW117273   6.015   3.473   0.597
 5458SOL    HW217274   5.924   3.554   0.706
 5459SOL     OW17275   1.672   3.456   5.199
 5459SOL    HW117276   1.729   3.375   5.208
 5459SOL    HW217277   1.707   3.528   5.259
 5460SOL     OW17278   0.895   0.763   1.564
 5460SOL    HW117279   0.827   0.799   1.500
 5460SOL    HW217280   0.987   0.777   1.528
 5461SOL     OW17281   6.234   1.186   5.405
 5461SOL    HW117282   6.230   1.277   5.363
 5461SOL    HW217283   6.304   1.184   5.476
 5462SOL     OW17284   4.730   4.572   6.603
 5462SOL    HW117285   4.780   4.526   6.676
 5462SOL    HW217286   4.663   4.509   6.564
 5463SOL     OW17287   1.023   2.491   6.211
 5463SOL    HW117288   1.089   2.444   6.269
 5463SOL    HW217289   0.932   2.485   6.253
 5464SOL     OW17290   1.817   5.701   5.570
 5464SOL    HW117291   1.824   5.604   5.550
 5464SOL    HW217292   1.774   5.713   5.659
 5465SOL     OW17293   0.588   6.880   4.545
 5465SOL    HW117294   0.651   6.950   4.579
 5465SOL    HW217295   0.634   6.825   4.476
 5466SOL     OW17296   6.120   2.304   4.848
 5466SOL    HW117297   6.099   2.218   4.802
 5466SOL    HW217298   6.089   2.299   4.943
 5467SOL     OW17299   4.774   2.831   4.413
 5467SOL    HW117300   4.706   2.767   4.449
 5467SOL    HW217301   4.771   2.916   4.466
 5468SOL     OW17302   6.897   1.296   0.939
 5468SOL    HW117303   6.845   1.381   0.943
 5468SOL    HW217304   6.955   1.288   1.019
 5469SOL     OW17305   3.569   0.190   4.311
 5469SOL    HW117306   3.557   0.093   4.329
 5469SOL    HW217307   3.526   0.243   4.385
 5470SOL     OW17308   3.464   5.421   4.173
 5470SOL    HW117309   3.536   5.384   4.233
 5470SOL    HW217310   3.421   5.500   4.217
 5471SOL     OW17311   4.607   0.896   3.745
 5471SOL    HW117312   4.650   0.923   3.830
 5471SOL    HW217313   4.583   0.978   3.692
 5472SOL     OW17314   2.880   3.232   6.714
 5472SOL    HW117315   2.843   3.321   6.689
 5472SOL    HW217316   2.806   3.173   6.748
 5473SOL     OW17317   2.503   4.301   1.834
 5473SOL    HW117318   2.580   4.288   1.771
 5473SOL    HW217319   2.511   4.391   1.879
 5474SOL     OW17320   0.645   5.019   2.898
 5474SOL    HW117321   0.691   4.935   2.927
 5474SOL    HW217322   0.633   5.018   2.799
 5475SOL     OW17323   0.455   1.260   5.282
 5475SOL    HW117324   0.463   1.187   5.215
 5475SOL    HW217325   0.377   1.318   5.260
 5476SOL     OW17326   2.514   0.027   5.069
 5476SOL    HW117327   2.460   6.996   5.004
 5476SOL    HW217328   2.481   0.122   5.072
 5477SOL     OW17329   1.669   4.085   4.313
 5477SOL    HW117330   1.727   4.166   4.313
 5477SOL    HW217331   1.626   4.074   4.224
 5478SOL     OW17332   5.262   4.622   5.760
 5478SOL    HW117333   5.348   4.622   5.810
 5478SOL    HW217334   5.207   4.701   5.788
 5479SOL     OW17335   4.526   2.007   4.851
 5479SOL    HW117336   4.478   2.003   4.763
 5479SOL    HW217337   4.571   2.095   4.860
 5480SOL     OW17338   0.378   3.439   3.786
 5480SOL    HW117339   0.452   3.375   3.810
 5480SOL    HW217340   0.290   3.394   3.797
 5481SOL     OW17341   4.258   0.939   6.338
 5481SOL    HW117342   4.201   0.983   6.408
 5481SOL    HW217343   4.226   0.965   6.247
 5482SOL     OW17344   4.568   2.866   1.439
 5482SOL    HW117345   4.533   2.775   1.418
 5482SOL    HW217346   4.492   2.931   1.444
 5483SOL     OW17347   6.726   2.611   6.098
 5483SOL    HW117348   6.660   2.569   6.160
 5483SOL    HW217349   6.686   2.694   6.059
 5484SOL     OW17350   6.750   6.730   4.499
 5484SOL    HW117351   6.678   6.752   4.564
 5484SOL    HW217352   6.835   6.773   4.528
 5485SOL     OW17353   3.290   6.979   5.434
 5485SOL    HW117354   3.213   6.985   5.498
 5485SOL    HW217355   3.256   6.984   5.340
 5486SOL     OW17356   0.868   0.923   3.962
 5486SOL    HW117357   0.870   0.989   3.888
 5486SOL    HW217358   0.962   0.900   3.989
 5487SOL     OW17359   4.981   5.345   1.188
 5487SOL    HW117360   4.900   5.339   1.246
 5487SOL    HW217361   4.967   5.414   1.118
 5488SOL     OW17362   5.062   1.101   6.727
 5488SOL    HW117363   4.985   1.098   6.663
 5488SOL    HW217364   5.030   1.076   6.819
 5489SOL     OW17365   1.325   3.433   2.841
 5489SOL    HW117366   1.237   3.390   2.863
 5489SOL    HW217367   1.311   3.501   2.769
 5490SOL     OW17368   1.782   1.977   0.124
 5490SOL    HW117369   1.755   2.052   0.064
 5490SOL    HW217370   1.882   1.967   0.121
 5491SOL     OW17371   0.527   5.122   0.933
 5491SOL    HW117372   0.599   5.065   0.973
 5491SOL    HW217373   0.569   5.200   0.886
 5492SOL     OW17374   0.920   0.957   5.921
 5492SOL    HW117375   0.879   0.868   5.938
 5492SOL    HW217376   1.002   0.946   5.866
 5493SOL     OW17377   2.986   3.017   7.013
 5493SOL    HW117378   2.924   3.016   6.935
 5493SOL    HW217379   3.074   3.056   6.985
 5494SOL     OW17380   5.937   3.272   1.980
 5494SOL    HW117381   5.999   3.206   2.021
 5494SOL    HW217382   5.904   3.336   2.050
 5495SOL     OW17383   3.424   3.121   2.479
 5495SOL    HW117384   3.376   3.036   2.455
 5495SOL    HW217385   3.508   3.128   2.425
 5496SOL     OW17386   3.548   5.855   1.664
 5496SOL    HW117387   3.640   5.882   1.636
 5496SOL    HW217388   3.550   5.762   1.701
 5497SOL     OW17389   6.589   6.608   1.893
 5497SOL    HW117390   6.616   6.654   1.977
 5497SOL    HW217391   6.555   6.674   1.827
 5498SOL     OW17392   4.019   1.094   5.081
 5498SOL    HW117393   3.932   1.096   5.132
 5498SOL    HW217394   4.069   1.011   5.104
 5499SOL     OW17395   0.581   1.519   3.286
 5499SOL    HW117396   0.565   1.615   3.266
 5499SOL    HW217397   0.494   1.470   3.284
 5500SOL     OW17398   1.595   5.956   1.932
 5500SOL    HW117399   1.552   6.009   1.859
 5500SOL    HW217400   1.531   5.886   1.964
 5501SOL     OW17401   2.254   6.573   2.663
 5501SOL    HW117402   2.237   6.489   2.714
 5501SOL    HW217403   2.280   6.550   2.569
 5502SOL     OW17404   5.181   4.349   6.512
 5502SOL    HW117405   5.108   4.397   6.462
 5502SOL    HW217406   5.195   4.259   6.472
 5503SOL     OW17407   1.500   5.580   3.644
 5503SOL    HW117408   1.585   5.633   3.654
 5503SOL    HW217409   1.428   5.624   3.697
 5504SOL     OW17410   3.372   2.125   5.012
 5504SOL    HW117411   3.448   2.164   5.063
 5504SOL    HW217412   3.286   2.160   5.048
 5505SOL     OW17413   2.377   5.269   5.799
 5505SOL    HW117414   2.475   5.285   5.814
 5505SOL    HW217415   2.332   5.355   5.777
 5506SOL     OW17416   6.437   0.325   5.870
 5506SOL    HW117417   6.514   0.273   5.906
 5506SOL    HW217418   6.455   0.423   5.881
 5507SOL     OW17419   2.565   6.331   4.055
 5507SOL    HW117420   2.656   6.303   4.025
 5507SOL    HW217421   2.574   6.390   4.135
 5508SOL     OW17422   2.679   0.841   6.275
 5508SOL    HW117423   2.657   0.749   6.242
 5508SOL    HW217424   2.685   0.840   6.375
 5509SOL     OW17425   5.884   6.262   6.828
 5509SOL    HW117426   5.904   6.340   6.887
 5509SOL    HW217427   5.968   6.211   6.810
 5510SOL     OW17428   5.152   1.489   5.681
 5510SOL    HW117429   5.134   1.543   5.599
 5510SOL    HW217430   5.191   1.401   5.655
 5511SOL     OW17431   0.237   1.450   2.696
 5511SOL    HW117432   0.264   1.396   2.616
 5511SOL    HW217433   0.199   1.537   2.666
 5512SOL     OW17434   1.308   0.236   0.951
 5512SOL    HW117435   1.395   0.281   0.929
 5512SOL    HW217436   1.252   0.230   0.869
 5513SOL     OW17437   4.142   4.835   4.534
 5513SOL    HW117438   4.183   4.782   4.608
 5513SOL    HW217439   4.213   4.858   4.467
 5514SOL     OW17440   5.402   5.106   2.895
 5514SOL    HW117441   5.380   5.147   2.984
 5514SOL    HW217442   5.340   5.029   2.877
 5515SOL     OW17443   6.686   2.838   1.210
 5515SOL    HW117444   6.763   2.896   1.235
 5515SOL    HW217445   6.610   2.895   1.179
 5516SOL     OW17446   1.662   2.985   6.263
 5516SOL    HW117447   1.748   2.975   6.314
 5516SOL    HW217448   1.601   3.046   6.312
 5517SOL     OW17449   2.787   1.763   2.454
 5517SOL    HW117450   2.747   1.821   2.383
 5517SOL    HW217451   2.848   1.818   2.511
 5518SOL     OW17452   5.906   4.754   4.967
 5518SOL    HW117453   5.970   4.714   5.033
 5518SOL    HW217454   5.915   4.853   4.968
 5519SOL     OW17455   5.183   3.747   4.601
 5519SOL    HW117456   5.104   3.807   4.590
 5519SOL    HW217457   5.199   3.697   4.516
 5520SOL     OW17458   1.797   3.618   1.857
 5520SOL    HW117459   1.834   3.651   1.944
 5520SOL    HW217460   1.804   3.518   1.854
 5521SOL     OW17461   5.545   5.354   1.582
 5521SOL    HW117462   5.623   5.413   1.603
 5521SOL    HW217463   5.545   5.332   1.484
 5522SOL     OW17464   2.108   3.685   1.816
 5522SOL    HW117465   2.133   3.629   1.895
 5522SOL    HW217466   2.172   3.667   1.741
 5523SOL     OW17467   2.510   0.374   2.364
 5523SOL    HW117468   2.570   0.440   2.319
 5523SOL    HW217469   2.415   0.403   2.354
 5524SOL     OW17470   0.085   5.320   6.319
 5524SOL    HW117471   0.126   5.356   6.236
 5524SOL    HW217472   0.139   5.243   6.353
 5525SOL     OW17473   6.589   5.477   4.959
 5525SOL    HW117474   6.534   5.561   4.960
 5525SOL    HW217475   6.642   5.472   4.875
 5526SOL     OW17476   6.482   3.079   4.429
 5526SOL    HW117477   6.422   3.117   4.499
 5526SOL    HW217478   6.427   3.035   4.358
 5527SOL     OW17479   1.730   3.831   1.503
 5527SOL    HW117480   1.688   3.916   1.533
 5527SOL    HW217481   1.667   3.755   1.519
 5528SOL     OW17482   0.465   3.574   2.893
 5528SOL    HW117483   0.522   3.569   2.811
 5528SOL    HW217484   0.423   3.485   2.910
 5529SOL     OW17485   2.032   1.303   4.994
 5529SOL    HW117486   2.111   1.353   4.960
 5529SOL    HW217487   2.055   1.256   5.079
 5530SOL     OW17488   1.054   2.655   0.524
 5530SOL    HW117489   1.022   2.705   0.604
 5530SOL    HW217490   0.976   2.624   0.470
 5531SOL     OW17491   3.702   2.968   5.960
 5531SOL    HW117492   3.636   3.038   5.985
 5531SOL    HW217493   3.772   2.960   6.031
 5532SOL     OW17494   2.516   1.658   1.388
 5532SOL    HW117495   2.452   1.733   1.370
 5532SOL    HW217496   2.509   1.590   1.315
 5533SOL     OW17497   4.164   0.749   1.530
 5533SOL    HW117498   4.188   0.698   1.448
 5533SOL    HW217499   4.211   0.837   1.530
 5534SOL     OW17500   6.989   4.041   6.472
 5534SOL    HW117501   6.991   3.978   6.550
 5534SOL    HW217502   0.038   4.016   6.407
 5535SOL     OW17503   6.198   3.095   3.115
 5535SOL    HW117504   6.127   3.157   3.150
 5535SOL    HW217505   6.194   3.093   3.016
 5536SOL     OW17506   2.405   0.396   3.905
 5536SOL    HW117507   2.343   0.335   3.856
 5536SOL    HW217508   2.404   0.373   4.003
 5537SOL     OW17509   4.424   0.598   4.615
 5537SOL    HW117510   4.488   0.578   4.688
 5537SOL    HW217511   4.362   0.672   4.644
 5538SOL     OW17512   5.032   1.547   7.021
 5538SOL    HW117513   5.060   1.587   0.086
 5538SOL    HW217514   4.943   1.585   6.994
 5539SOL     OW17515   3.651   0.201   0.499
 5539SOL    HW117516   3.682   0.135   0.567
 5539SOL    HW217517   3.554   0.220   0.512
 5540SOL     OW17518   5.559   0.814   6.661
 5540SOL    HW117519   5.550   0.912   6.674
 5540SOL    HW217520   5.625   0.777   6.727
 5541SOL     OW17521   4.682   3.860   6.443
 5541SOL    HW117522   4.675   3.959   6.440
 5541SOL    HW217523   4.757   3.830   6.383
 5542SOL     OW17524   4.577   4.774   0.152
 5542SOL    HW117525   4.669   4.810   0.164
 5542SOL    HW217526   4.582   4.684   0.110
 5543SOL     OW17527   1.661   0.728   1.076
 5543SOL    HW117528   1.590   0.782   1.122
 5543SOL    HW217529   1.647   0.631   1.096
 5544SOL     OW17530   4.205   5.520   6.118
 5544SOL    HW117531   4.297   5.502   6.153
 5544SOL    HW217532   4.193   5.471   6.031
 5545SOL     OW17533   3.917   0.743   3.289
 5545SOL    HW117534   4.015   0.757   3.306
 5545SOL    HW217535   3.900   0.748   3.190
 5546SOL     OW17536   0.451   5.859   5.625
 5546SOL    HW117537   0.461   5.937   5.562
 5546SOL    HW217538   0.467   5.890   5.719
 5547SOL     OW17539   5.676   1.918   4.750
 5547SOL    HW117540   5.672   1.977   4.830
 5547SOL    HW217541   5.646   1.969   4.669
 5548SOL     OW17542   0.015   4.718   5.144
 5548SOL    HW117543   7.005   4.786   5.077
 5548SOL    HW217544   0.097   4.673   5.109
 5549SOL     OW17545   4.357   3.306   1.070
 5549SOL    HW117546   4.331   3.381   1.130
 5549SOL    HW217547   4.353   3.220   1.120
 5550SOL     OW17548   1.192   3.309   2.583
 5550SOL    HW117549   1.147   3.224   2.557
 5550SOL    HW217550   1.133   3.361   2.645
 5551SOL     OW17551   2.037   5.134   3.920
 5551SOL    HW117552   2.130   5.169   3.915
 5551SOL    HW217553   1.993   5.143   3.830
 5552SOL     OW17554   0.519   6.355   6.227
 5552SOL    HW117555   0.546   6.338   6.322
 5552SOL    HW217556   0.561   6.286   6.168
 5553SOL     OW17557   4.972   0.499   6.486
 5553SOL    HW117558   5.066   0.486   6.517
 5553SOL    HW217559   4.917   0.418   6.509
 5554SOL     OW17560   5.650   2.724   1.603
 5554SOL    HW117561   5.576   2.700   1.665
 5554SOL    HW217562   5.619   2.795   1.539
 5555SOL     OW17563   1.541   3.982   2.501
 5555SOL    HW117564   1.523   4.080   2.507
 5555SOL    HW217565   1.636   3.964   2.528
 5556SOL     OW17566   6.486   0.396   4.754
 5556SOL    HW117567   6.485   0.463   4.828
 5556SOL    HW217568   6.501   0.305   4.792
 5557SOL     OW17569   3.439   5.840   1.986
 5557SOL    HW117570   3.353   5.868   1.942
 5557SOL    HW217571   3.486   5.774   1.928
 5558SOL     OW17572   3.336   4.592   0.061
 5558SOL    HW117573   3.412   4.537   0.095
 5558SOL    HW217574   3.372   4.662   7.020
 5559SOL     OW17575   1.543   6.684   2.922
 5559SOL    HW117576   1.472   6.659   2.988
 5559SOL    HW217577   1.517   6.768   2.876
 5560SOL     OW17578   0.533   6.117   2.953
 5560SOL    HW117579   0.468   6.192   2.961
 5560SOL    HW217580   0.570   6.095   3.043
 5561SOL     OW17581   3.290   0.813   3.797
 5561SOL    HW117582   3.200   0.836   3.760
 5561SOL    HW217583   3.296   0.845   3.892
 5562SOL     OW17584   4.071   3.749   0.754
 5562SOL    HW117585   4.070   3.660   0.800
 5562SOL    HW217586   4.107   3.740   0.662
 5563SOL     OW17587   2.795   4.735   2.878
 5563SOL    HW117588   2.773   4.681   2.959
 5563SOL    HW217589   2.746   4.699   2.799
 5564SOL     OW17590   5.570   0.855   5.782
 5564SOL    HW117591   5.526   0.842   5.871
 5564SOL    HW217592   5.507   0.828   5.709
 5565SOL     OW17593   3.662   2.455   7.017
 5565SOL    HW117594   3.740   2.487   0.048
 5565SOL    HW217595   3.643   2.360   0.017
 5566SOL     OW17596   1.229   3.516   6.712
 5566SOL    HW117597   1.201   3.513   6.616
 5566SOL    HW217598   1.180   3.446   6.764
 5567SOL     OW17599   6.760   3.747   1.357
 5567SOL    HW117600   6.787   3.843   1.342
 5567SOL    HW217601   6.711   3.714   1.276
 5568SOL     OW17602   4.209   6.603   2.253
 5568SOL    HW117603   4.213   6.624   2.351
 5568SOL    HW217604   4.274   6.531   2.231
 5569SOL     OW17605   2.703   2.375   4.303
 5569SOL    HW117606   2.648   2.450   4.267
 5569SOL    HW217607   2.775   2.352   4.237
 5570SOL     OW17608   6.778   3.307   2.832
 5570SOL    HW117609   6.705   3.259   2.881
 5570SOL    HW217610   6.750   3.401   2.814
 5571SOL     OW17611   0.142   5.276   1.851
 5571SOL    HW117612   0.148   5.369   1.888
 5571SOL    HW217613   0.048   5.243   1.859
 5572SOL     OW17614   0.546   3.321   4.890
 5572SOL    HW117615   0.491   3.272   4.957
 5572SOL    HW217616   0.611   3.258   4.848
 5573SOL     OW17617   2.175   5.135   4.580
 5573SOL    HW117618   2.137   5.200   4.646
 5573SOL    HW217619   2.273   5.155   4.568
 5574SOL     OW17620   0.026   2.632   6.551
 5574SOL    HW117621   6.983   2.616   6.625
 5574SOL    HW217622   0.047   2.729   6.545
 5575SOL     OW17623   0.578   0.733   1.463
 5575SOL    HW117624   0.587   0.677   1.380
 5575SOL    HW217625   0.481   0.738   1.490
 5576SOL     OW17626   1.923   3.951   3.333
 5576SOL    HW117627   2.021   3.945   3.351
 5576SOL    HW217628   1.875   3.880   3.383
 5577SOL     OW17629   1.451   3.358   6.518
 5577SOL    HW117630   1.388   3.405   6.579
 5577SOL    HW217631   1.525   3.420   6.491
 5578SOL     OW17632   3.310   2.905   2.979
 5578SOL    HW117633   3.254   2.975   2.935
 5578SOL    HW217634   3.397   2.896   2.930
 5579SOL     OW17635   6.888   3.050   1.181
 5579SOL    HW117636   6.956   3.120   1.202
 5579SOL    HW217637   6.872   3.047   1.082
 5580SOL     OW17638   4.925   2.165   5.447
 5580SOL    HW117639   4.990   2.117   5.388
 5580SOL    HW217640   4.960   2.165   5.541
 5581SOL     OW17641   0.685   1.669   0.449
 5581SOL    HW117642   0.725   1.582   0.419
 5581SOL    HW217643   0.758   1.734   0.471
 5582SOL     OW17644   2.258   3.590   6.237
 5582SOL    HW117645   2.336   3.531   6.220
 5582SOL    HW217646   2.215   3.565   6.323
 5583SOL     OW17647   5.188   1.313   2.354
 5583SOL    HW117648   5.118   1.381   2.333
 5583SOL    HW217649   5.148   1.238   2.407
 5584SOL     OW17650   6.987   4.596   4.549
 5584SOL    HW117651   6.910   4.586   4.486
 5584SOL    HW217652   0.041   4.640   4.501
 5585SOL     OW17653   4.597   5.223   2.290
 5585SOL    HW117654   4.535   5.215   2.212
 5585SOL    HW217655   4.686   5.256   2.259
 5586SOL     OW17656   6.536   3.016   6.045
 5586SOL    HW117657   6.559   2.924   6.013
 5586SOL    HW217658   6.517   3.075   5.966
 5587SOL     OW17659   4.592   0.679   6.457
 5587SOL    HW117660   4.582   0.746   6.531
 5587SOL    HW217661   4.565   0.721   6.371
 5588SOL     OW17662   2.908   6.406   2.093
 5588SOL    HW117663   2.814   6.415   2.061
 5588SOL    HW217664   2.959   6.349   2.028
 5589SOL     OW17665   6.186   4.578   6.771
 5589SOL    HW117666   6.149   4.584   6.678
 5589SOL    HW217667   6.274   4.531   6.769
 5590SOL     OW17668   5.783   5.790   3.999
 5590SOL    HW117669   5.717   5.864   4.015
 5590SOL    HW217670   5.873   5.829   3.981
 5591SOL     OW17671   6.551   1.680   1.974
 5591SOL    HW117672   6.580   1.752   2.036
 5591SOL    HW217673   6.499   1.720   1.898
 5592SOL     OW17674   0.897   4.251   3.734
 5592SOL    HW117675   0.939   4.200   3.809
 5592SOL    HW217676   0.929   4.346   3.735
 5593SOL     OW17677   6.140   2.053   0.180
 5593SOL    HW117678   6.179   2.034   0.089
 5593SOL    HW217679   6.211   2.043   0.249
 5594SOL     OW17680   5.242   1.929   5.588
 5594SOL    HW117681   5.179   2.006   5.573
 5594SOL    HW217682   5.246   1.874   5.505
 5595SOL     OW17683   0.624   2.447   5.111
 5595SOL    HW117684   0.680   2.434   5.193
 5595SOL    HW217685   0.558   2.521   5.128
 5596SOL     OW17686   4.003   6.948   2.743
 5596SOL    HW117687   4.014   6.962   2.842
 5596SOL    HW217688   4.090   6.919   2.703
 5597SOL     OW17689   5.206   2.953   3.732
 5597SOL    HW117690   5.302   2.937   3.755
 5597SOL    HW217691   5.186   2.912   3.642
 5598SOL     OW17692   5.337   2.717   4.025
 5598SOL    HW117693   5.256   2.670   3.989
 5598SOL    HW217694   5.400   2.649   4.063
 5599SOL     OW17695   0.805   1.694   4.631
 5599SOL    HW117696   0.790   1.792   4.617
 5599SOL    HW217697   0.745   1.662   4.705
 5600SOL     OW17698   1.355   2.410   4.218
 5600SOL    HW117699   1.341   2.352   4.299
 5600SOL    HW217700   1.448   2.397   4.185
 5601SOL     OW17701   2.584   0.325   5.971
 5601SOL    HW117702   2.679   0.305   5.945
 5601SOL    HW217703   2.567   0.423   5.962
 5602SOL     OW17704   0.678   0.985   1.017
 5602SOL    HW117705   0.592   1.002   0.968
 5602SOL    HW217706   0.684   1.047   1.095
 5603SOL     OW17707   5.267   1.718   6.840
 5603SOL    HW117708   5.300   1.803   6.799
 5603SOL    HW217709   5.258   1.730   6.939
 5604SOL     OW17710   6.276   2.345   6.016
 5604SOL    HW117711   6.270   2.442   6.037
 5604SOL    HW217712   6.364   2.326   5.973
 5605SOL     OW17713   0.565   1.494   4.747
 5605SOL    HW117714   0.520   1.499   4.837
 5605SOL    HW217715   0.575   1.398   4.720
 5606SOL     OW17716   5.023   6.185   1.294
 5606SOL    HW117717   5.036   6.214   1.389
 5606SOL    HW217718   4.930   6.150   1.282
 5607SOL     OW17719   5.375   1.732   2.035
 5607SOL    HW117720   5.280   1.763   2.036
 5607SOL    HW217721   5.378   1.633   2.044
 5608SOL     OW17722   4.358   0.282   5.212
 5608SOL    HW117723   4.449   0.245   5.195
 5608SOL    HW217724   4.343   0.290   5.311
 5609SOL     OW17725   2.402   6.038   6.744
 5609SOL    HW117726   2.468   5.968   6.770
 5609SOL    HW217727   2.311   6.013   6.778
 5610SOL     OW17728   4.942   0.552   0.333
 5610SOL    HW117729   4.935   0.558   0.432
 5610SOL    HW217730   5.020   0.606   0.302
 5611SOL     OW17731   1.604   5.064   2.890
 5611SOL    HW117732   1.661   5.000   2.941
 5611SOL    HW217733   1.569   5.020   2.807
 5612SOL     OW17734   3.573   1.013   6.054
 5612SOL    HW117735   3.488   1.026   6.105
 5612SOL    HW217736   3.556   0.958   5.973
 5613SOL     OW17737   4.541   4.498   2.562
 5613SOL    HW117738   4.448   4.515   2.530
 5613SOL    HW217739   4.576   4.414   2.521
 5614SOL     OW17740   4.730   2.661   3.460
 5614SOL    HW117741   4.646   2.630   3.505
 5614SOL    HW217742   4.809   2.625   3.509
 5615SOL     OW17743   1.002   0.568   0.071
 5615SOL    HW117744   1.052   0.482   0.085
 5615SOL    HW217745   0.912   0.562   0.113
 5616SOL     OW17746   2.470   0.962   4.678
 5616SOL    HW117747   2.420   0.878   4.658
 5616SOL    HW217748   2.523   0.951   4.762
 5617SOL     OW17749   2.151   0.628   5.349
 5617SOL    HW117750   2.175   0.635   5.252
 5617SOL    HW217751   2.057   0.594   5.358
 5618SOL     OW17752   6.026   4.140   3.893
 5618SOL    HW117753   5.944   4.196   3.882
 5618SOL    HW217754   6.107   4.199   3.896
 5619SOL     OW17755   2.522   3.840   5.879
 5619SOL    HW117756   2.444   3.778   5.870
 5619SOL    HW217757   2.557   3.863   5.788
 5620SOL     OW17758   3.877   2.209   0.234
 5620SOL    HW117759   3.944   2.137   0.215
 5620SOL    HW217760   3.795   2.169   0.272
 5621SOL     OW17761   1.487   1.370   5.789
 5621SOL    HW117762   1.569   1.410   5.830
 5621SOL    HW217763   1.502   1.273   5.772
 5622SOL     OW17764   4.987   0.312   5.767
 5622SOL    HW117765   4.945   0.227   5.733
 5622SOL    HW217766   5.041   0.353   5.694
 5623SOL     OW17767   1.874   6.126   6.539
 5623SOL    HW117768   1.926   6.155   6.620
 5623SOL    HW217769   1.780   6.161   6.546
 5624SOL     OW17770   0.927   4.481   3.399
 5624SOL    HW117771   0.983   4.540   3.456
 5624SOL    HW217772   0.847   4.533   3.366
 5625SOL     OW17773   6.718   2.951   4.549
 5625SOL    HW117774   6.630   2.982   4.514
 5625SOL    HW217775   6.786   2.952   4.476
 5626SOL     OW17776   3.270   6.621   5.148
 5626SOL    HW117777   3.320   6.694   5.101
 5626SOL    HW217778   3.172   6.629   5.127
 5627SOL     OW17779   1.589   6.304   1.704
 5627SOL    HW117780   1.688   6.316   1.713
 5627SOL    HW217781   1.566   6.286   1.609
 5628SOL     OW17782   1.730   1.796   5.596
 5628SOL    HW117783   1.728   1.894   5.577
 5628SOL    HW217784   1.815   1.773   5.644
 5629SOL     OW17785   3.236   3.600   2.400
 5629SOL    HW117786   3.321   3.653   2.399
 5629SOL    HW217787   3.174   3.638   2.470
 5630SOL     OW17788   0.864   4.840   0.872
 5630SOL    HW117789   0.865   4.913   0.941
 5630SOL    HW217790   0.781   4.786   0.882
 5631SOL     OW17791   4.158   1.438   0.124
 5631SOL    HW117792   4.159   1.537   0.140
 5631SOL    HW217793   4.122   1.391   0.204
 5632SOL     OW17794   4.370   4.171   6.635
 5632SOL    HW117795   4.442   4.146   6.572
 5632SOL    HW217796   4.410   4.197   6.723
 5633SOL     OW17797   6.957   3.034   4.076
 5633SOL    HW117798   6.886   2.978   4.034
 5633SOL    HW217799   7.010   3.079   4.004
 5634SOL     OW17800   3.598   4.925   4.606
 5634SOL    HW117801   3.562   4.944   4.515
 5634SOL    HW217802   3.524   4.922   4.672
 5635SOL     OW17803   2.557   2.591   5.144
 5635SOL    HW117804   2.501   2.544   5.212
 5635SOL    HW217805   2.652   2.563   5.154
 5636SOL     OW17806   4.244   5.633   3.132
 5636SOL    HW117807   4.162   5.604   3.083
 5636SOL    HW217808   4.217   5.685   3.213
 5637SOL     OW17809   6.303   0.116   4.236
 5637SOL    HW117810   6.356   0.201   4.234
 5637SOL    HW217811   6.291   0.088   4.331
 5638SOL     OW17812   5.537   2.824   0.401
 5638SOL    HW117813   5.507   2.783   0.315
 5638SOL    HW217814   5.637   2.824   0.404
 5639SOL     OW17815   0.311   1.303   6.526
 5639SOL    HW117816   0.391   1.252   6.558
 5639SOL    HW217817   0.277   1.263   6.441
 5640SOL     OW17818   2.524   0.033   3.648
 5640SOL    HW117819   2.512   0.025   3.549
 5640SOL    HW217820   2.436   0.022   3.693
 5641SOL     OW17821   6.656   4.848   5.747
 5641SOL    HW117822   6.749   4.866   5.777
 5641SOL    HW217823   6.616   4.931   5.708
 5642SOL     OW17824   1.777   1.707   6.716
 5642SOL    HW117825   1.704   1.738   6.656
 5642SOL    HW217826   1.830   1.636   6.670
 5643SOL     OW17827   6.222   2.705   4.496
 5643SOL    HW117828   6.229   2.629   4.431
 5643SOL    HW217829   6.283   2.687   4.574
 5644SOL     OW17830   3.058   6.944   6.000
 5644SOL    HW117831   3.044   7.005   6.078
 5644SOL    HW217832   2.979   6.884   5.990
 5645SOL     OW17833   5.602   3.495   3.539
 5645SOL    HW117834   5.586   3.588   3.573
 5645SOL    HW217835   5.694   3.491   3.498
 5646SOL     OW17836   1.771   4.299   3.002
 5646SOL    HW117837   1.855   4.311   2.950
 5646SOL    HW217838   1.780   4.219   3.061
 5647SOL     OW17839   5.947   6.224   2.550
 5647SOL    HW117840   6.009   6.173   2.610
 5647SOL    HW217841   5.949   6.321   2.573
 5648SOL     OW17842   3.434   6.138   2.979
 5648SOL    HW117843   3.471   6.210   2.920
 5648SOL    HW217844   3.345   6.109   2.945
 5649SOL     OW17845   0.695   5.677   3.540
 5649SOL    HW117846   0.750   5.644   3.617
 5649SOL    HW217847   0.605   5.633   3.543
 5650SOL     OW17848   0.215   4.512   0.781
 5650SOL    HW117849   0.121   4.492   0.809
 5650SOL    HW217850   0.242   4.601   0.816
 5651SOL     OW17851   1.858   0.765   0.876
 5651SOL    HW117852   1.779   0.766   0.937
 5651SOL    HW217853   1.881   0.859   0.850
 5652SOL     OW17854   0.693   4.787   1.719
 5652SOL    HW117855   0.666   4.808   1.626
 5652SOL    HW217856   0.612   4.789   1.779
 5653SOL     OW17857   6.977   6.103   1.488
 5653SOL    HW117858   6.913   6.148   1.551
 5653SOL    HW217859   6.972   6.146   1.398
 5654SOL     OW17860   2.161   6.346   4.766
 5654SOL    HW117861   2.107   6.289   4.704
 5654SOL    HW217862   2.104   6.421   4.799
 5655SOL     OW17863   6.644   2.880   4.168
 5655SOL    HW117864   6.714   2.920   4.226
 5655SOL    HW217865   6.565   2.853   4.224
 5656SOL     OW17866   0.324   2.900   6.539
 5656SOL    HW117867   0.233   2.908   6.498
 5656SOL    HW217868   0.374   2.827   6.493
 5657SOL     OW17869   4.288   5.149   4.848
 5657SOL    HW117870   4.364   5.085   4.854
 5657SOL    HW217871   4.210   5.104   4.805
 5658SOL     OW17872   1.944   2.216   5.787
 5658SOL    HW117873   1.915   2.221   5.691
 5658SOL    HW217874   1.905   2.291   5.838
 5659SOL     OW17875   3.306   3.977   6.109
 5659SOL    HW117876   3.288   3.880   6.126
 5659SOL    HW217877   3.287   3.999   6.014
 5660SOL     OW17878   4.442   0.126   6.821
 5660SOL    HW117879   4.374   0.167   6.760
 5660SOL    HW217880   4.525   0.181   6.820
 5661SOL     OW17881   1.123   5.689   5.908
 5661SOL    HW117882   1.080   5.601   5.930
 5661SOL    HW217883   1.217   5.673   5.879
 5662SOL     OW17884   2.829   6.239   2.743
 5662SOL    HW117885   2.927   6.232   2.762
 5662SOL    HW217886   2.800   6.161   2.688
 5663SOL     OW17887   1.111   3.223   0.745
 5663SOL    HW117888   1.133   3.227   0.843
 5663SOL    HW217889   1.186   3.263   0.693
 5664SOL     OW17890   5.271   4.239   4.611
 5664SOL    HW117891   5.305   4.314   4.668
 5664SOL    HW217892   5.190   4.270   4.561
 5665SOL     OW17893   2.258   0.706   1.264
 5665SOL    HW117894   2.297   0.615   1.251
 5665SOL    HW217895   2.168   0.710   1.220
 5666SOL     OW17896   6.403   0.847   5.010
 5666SOL    HW117897   6.419   0.903   4.929
 5666SOL    HW217898   6.308   0.860   5.041
 5667SOL     OW17899   2.340   5.539   4.711
 5667SOL    HW117900   2.274   5.474   4.748
 5667SOL    HW217901   2.426   5.492   4.692
 5668SOL     OW17902   5.693   3.096   3.592
 5668SOL    HW117903   5.783   3.141   3.587
 5668SOL    HW217904   5.651   3.116   3.681
 5669SOL     OW17905   6.384   4.416   6.753
 5669SOL    HW117906   6.358   4.331   6.708
 5669SOL    HW217907   6.443   4.396   6.831
 5670SOL     OW17908   1.061   2.384   2.188
 5670SOL    HW117909   1.034   2.393   2.284
 5670SOL    HW217910   0.980   2.389   2.130
 5671SOL     OW17911   0.456   6.910   3.780
 5671SOL    HW117912   0.499   6.850   3.712
 5671SOL    HW217913   0.392   6.857   3.836
 5672SOL     OW17914   5.070   3.961   5.116
 5672SOL    HW117915   4.976   3.930   5.103
 5672SOL    HW217916   5.122   3.890   5.162
 5673SOL     OW17917   1.105   0.598   1.178
 5673SOL    HW117918   1.018   0.642   1.156
 5673SOL    HW217919   1.131   0.621   1.272
 5674SOL     OW17920   1.390   5.555   5.336
 5674SOL    HW117921   1.366   5.645   5.372
 5674SOL    HW217922   1.343   5.484   5.389
 5675SOL     OW17923   2.269   1.841   0.244
 5675SOL    HW117924   2.330   1.874   0.315
 5675SOL    HW217925   2.319   1.780   0.182
 5676SOL     OW17926   2.800   2.142   1.883
 5676SOL    HW117927   2.822   2.220   1.941
 5676SOL    HW217928   2.837   2.157   1.791
 5677SOL     OW17929   6.984   6.969   1.412
 5677SOL    HW117930   6.992   6.871   1.390
 5677SOL    HW217931   0.033   6.993   1.479
 5678SOL     OW17932   3.570   1.957   1.654
 5678SOL    HW117933   3.502   1.929   1.585
 5678SOL    HW217934   3.554   2.052   1.680
 5679SOL     OW17935   6.162   3.486   5.072
 5679SOL    HW117936   6.100   3.410   5.091
 5679SOL    HW217937   6.235   3.488   5.140
 5680SOL     OW17938   1.354   5.539   5.919
 5680SOL    HW117939   1.351   5.444   5.889
 5680SOL    HW217940   1.407   5.546   6.003
 5681SOL     OW17941   0.349   4.097   3.215
 5681SOL    HW117942   0.392   4.110   3.126
 5681SOL    HW217943   0.405   4.141   3.286
 5682SOL     OW17944   1.943   4.392   2.278
 5682SOL    HW117945   1.858   4.387   2.332
 5682SOL    HW217946   1.945   4.318   2.211
 5683SOL     OW17947   4.532   1.583   0.007
 5683SOL    HW117948   4.534   1.617   0.101
 5683SOL    HW217949   4.458   1.516   7.019
 5684SOL     OW17950   2.425   2.447   5.333
 5684SOL    HW117951   2.347   2.492   5.378
 5684SOL    HW217952   2.506   2.458   5.391
 5685SOL     OW17953   2.681   2.101   3.957
 5685SOL    HW117954   2.678   2.114   3.858
 5685SOL    HW217955   2.679   2.189   4.003
 5686SOL     OW17956   3.134   6.744   6.212
 5686SOL    HW117957   3.122   6.831   6.163
 5686SOL    HW217958   3.188   6.682   6.156
 5687SOL     OW17959   2.282   6.313   5.874
 5687SOL    HW117960   2.353   6.246   5.850
 5687SOL    HW217961   2.269   6.375   5.796
 5688SOL     OW17962   2.184   3.317   3.206
 5688SOL    HW117963   2.163   3.402   3.254
 5688SOL    HW217964   2.194   3.336   3.108
 5689SOL     OW17965   1.322   1.444   1.668
 5689SOL    HW117966   1.371   1.488   1.743
 5689SOL    HW217967   1.369   1.361   1.641
 5690SOL     OW17968   1.109   5.907   0.313
 5690SOL    HW117969   1.013   5.925   0.291
 5690SOL    HW217970   1.154   5.994   0.337
 5691SOL     OW17971   3.822   1.155   2.821
 5691SOL    HW117972   3.866   1.238   2.855
 5691SOL    HW217973   3.751   1.179   2.755
 5692SOL     OW17974   4.553   4.753   1.219
 5692SOL    HW117975   4.645   4.721   1.242
 5692SOL    HW217976   4.543   4.849   1.247
 5693SOL     OW17977   3.481   0.853   1.576
 5693SOL    HW117978   3.414   0.824   1.508
 5693SOL    HW217979   3.525   0.938   1.545
 5694SOL     OW17980   0.402   6.911   2.343
 5694SOL    HW117981   0.385   6.875   2.251
 5694SOL    HW217982   0.460   6.847   2.393
 5695SOL     OW17983   1.216   0.677   0.933
 5695SOL    HW117984   1.176   0.643   1.018
 5695SOL    HW217985   1.311   0.646   0.926
 5696SOL     OW17986   1.572   0.063   4.189
 5696SOL    HW117987   1.625   0.147   4.198
 5696SOL    HW217988   1.476   0.081   4.211
 5697SOL     OW17989   6.186   2.747   0.615
 5697SOL    HW117990   6.259   2.712   0.557
 5697SOL    HW217991   6.210   2.732   0.711
 5698SOL     OW17992   2.185   2.765   3.734
 5698SOL    HW117993   2.171   2.828   3.658
 5698SOL    HW217994   2.123   2.788   3.809
 5699SOL     OW17995   2.474   2.600   2.867
 5699SOL    HW117996   2.488   2.537   2.790
 5699SOL    HW217997   2.512   2.560   2.950
 5700SOL     OW17998   6.122   0.359   3.303
 5700SOL    HW117999   6.113   0.331   3.399
 5700SOL    HW218000   6.114   0.459   3.297
 5701SOL     OW18001   6.622   0.684   0.858
 5701SOL    HW118002   6.622   0.596   0.812
 5701SOL    HW218003   6.674   0.750   0.804
 5702SOL     OW18004   2.553   6.730   4.807
 5702SOL    HW118005   2.511   6.640   4.823
 5702SOL    HW218006   2.481   6.799   4.799
 5703SOL     OW18007   6.581   2.655   6.531
 5703SOL    HW118008   6.492   2.622   6.562
 5703SOL    HW218009   6.604   2.612   6.444
 5704SOL     OW18010   5.662   4.555   3.849
 5704SOL    HW118011   5.660   4.504   3.763
 5704SOL    HW218012   5.569   4.575   3.878
 5705SOL     OW18013   5.912   6.480   6.313
 5705SOL    HW118014   5.981   6.522   6.372
 5705SOL    HW218015   5.951   6.463   6.223
 5706SOL     OW18016   5.428   2.199   0.047
 5706SOL    HW118017   5.516   2.152   0.034
 5706SOL    HW218018   5.440   2.274   0.112
 5707SOL     OW18019   5.539   6.541   2.377
 5707SOL    HW118020   5.564   6.447   2.400
 5707SOL    HW218021   5.525   6.593   2.461
 5708SOL     OW18022   4.290   5.759   3.577
 5708SOL    HW118023   4.340   5.844   3.592
 5708SOL    HW218024   4.262   5.720   3.664
 5709SOL     OW18025   0.544   1.041   2.304
 5709SOL    HW118026   0.452   1.003   2.291
 5709SOL    HW218027   0.561   1.112   2.235
 5710SOL     OW18028   2.357   2.171   1.125
 5710SOL    HW118029   2.449   2.133   1.121
 5710SOL    HW218030   2.298   2.125   1.058
 5711SOL     OW18031   4.979   1.723   1.970
 5711SOL    HW118032   5.021   1.755   2.055
 5711SOL    HW218033   4.981   1.623   1.968
 5712SOL     OW18034   6.830   6.247   1.658
 5712SOL    HW118035   6.780   6.204   1.733
 5712SOL    HW218036   6.835   6.346   1.673
 5713SOL     OW18037   2.733   6.485   0.519
 5713SOL    HW118038   2.771   6.429   0.446
 5713SOL    HW218039   2.708   6.427   0.597
 5714SOL     OW18040   6.152   6.413   1.888
 5714SOL    HW118041   6.156   6.422   1.788
 5714SOL    HW218042   6.060   6.388   1.916
 5715SOL     OW18043   0.655   0.336   1.424
 5715SOL    HW118044   0.574   0.277   1.428
 5715SOL    HW218045   0.679   0.366   1.516
 5716SOL     OW18046   0.062   4.527   5.676
 5716SOL    HW118047   0.004   4.451   5.649
 5716SOL    HW218048   0.134   4.495   5.738
 5717SOL     OW18049   1.694   5.315   2.914
 5717SOL    HW118050   1.645   5.228   2.914
 5717SOL    HW218051   1.754   5.320   2.994
 5718SOL     OW18052   1.239   2.974   0.318
 5718SOL    HW118053   1.232   3.074   0.320
 5718SOL    HW218054   1.155   2.936   0.278
 5719SOL     OW18055   3.093   3.985   0.960
 5719SOL    HW118056   3.055   3.904   0.914
 5719SOL    HW218057   3.021   4.032   1.010
 5720SOL     OW18058   1.905   5.081   5.592
 5720SOL    HW118059   1.959   5.153   5.636
 5720SOL    HW218060   1.837   5.122   5.532
 5721SOL     OW18061   4.360   4.487   0.368
 5721SOL    HW118062   4.328   4.436   0.448
 5721SOL    HW218063   4.308   4.572   0.359
 5722SOL     OW18064   0.923   0.985   5.484
 5722SOL    HW118065   0.868   0.986   5.400
 5722SOL    HW218066   0.892   0.909   5.542
 5723SOL     OW18067   4.213   2.946   6.989
 5723SOL    HW118068   4.124   2.932   6.946
 5723SOL    HW218069   4.201   2.964   0.065
 5724SOL     OW18070   4.962   2.250   3.499
 5724SOL    HW118071   4.929   2.195   3.575
 5724SOL    HW218072   4.884   2.277   3.441
 5725SOL     OW18073   6.609   3.955   3.519
 5725SOL    HW118074   6.520   3.925   3.552
 5725SOL    HW218075   6.676   3.948   3.593
 5726SOL     OW18076   4.734   4.520   2.783
 5726SOL    HW118077   4.700   4.463   2.857
 5726SOL    HW218078   4.725   4.472   2.696
 5727SOL     OW18079   0.701   2.961   4.523
 5727SOL    HW118080   0.664   2.972   4.431
 5727SOL    HW218081   0.799   2.983   4.522
 5728SOL     OW18082   4.982   6.143   4.805
 5728SOL    HW118083   5.030   6.231   4.798
 5728SOL    HW218084   4.957   6.111   4.713
 5729SOL     OW18085   2.045   1.548   6.144
 5729SOL    HW118086   2.130   1.499   6.164
 5729SOL    HW218087   2.004   1.579   6.229
 5730SOL     OW18088   6.496   4.039   6.016
 5730SOL    HW118089   6.456   3.958   5.972
 5730SOL    HW218090   6.554   4.087   5.950
 5731SOL     OW18091   0.514   6.099   1.843
 5731SOL    HW118092   0.526   6.168   1.914
 5731SOL    HW218093   0.533   6.008   1.881
 5732SOL     OW18094   1.503   0.022   3.915
 5732SOL    HW118095   1.543   0.096   3.862
 5732SOL    HW218096   1.521   0.038   4.012
 5733SOL     OW18097   3.615   6.939   5.116
 5733SOL    HW118098   3.542   6.957   5.049
 5733SOL    HW218099   3.577   6.889   5.193
 5734SOL     OW18100   1.542   5.927   3.252
 5734SOL    HW118101   1.562   5.833   3.279
 5734SOL    HW218102   1.607   5.989   3.296
 5735SOL     OW18103   3.356   1.138   2.184
 5735SOL    HW118104   3.410   1.097   2.257
 5735SOL    HW218105   3.387   1.102   2.096
 5736SOL     OW18106   1.087   5.560   6.897
 5736SOL    HW118107   1.051   5.500   6.968
 5736SOL    HW218108   1.111   5.649   6.937
 5737SOL     OW18109   5.244   4.556   0.365
 5737SOL    HW118110   5.161   4.605   0.338
 5737SOL    HW218111   5.220   4.479   0.423
 5738SOL     OW18112   1.510   3.704   5.891
 5738SOL    HW118113   1.496   3.790   5.843
 5738SOL    HW218114   1.433   3.643   5.874
 5739SOL     OW18115   0.708   1.633   0.840
 5739SOL    HW118116   0.643   1.578   0.892
 5739SOL    HW218117   0.801   1.607   0.866
 5740SOL     OW18118   4.029   5.752   6.072
 5740SOL    HW118119   4.096   5.689   6.111
 5740SOL    HW218120   3.991   5.714   5.988
 5741SOL     OW18121   1.021   4.850   4.184
 5741SOL    HW118122   1.044   4.868   4.280
 5741SOL    HW218123   0.955   4.774   4.180
 5742SOL     OW18124   6.029   6.411   3.959
 5742SOL    HW118125   5.993   6.475   3.891
 5742SOL    HW218126   6.049   6.460   4.044
 5743SOL     OW18127   1.693   7.001   5.285
 5743SOL    HW118128   1.724   6.951   5.204
 5743SOL    HW218129   1.593   6.997   5.289
 5744SOL     OW18130   6.415   0.280   2.368
 5744SOL    HW118131   6.402   0.266   2.270
 5744SOL    HW218132   6.328   0.302   2.412
 5745SOL     OW18133   1.743   1.795   3.571
 5745SOL    HW118134   1.775   1.889   3.580
 5745SOL    HW218135   1.651   1.787   3.609
 5746SOL     OW18136   5.341   3.360   0.187
 5746SOL    HW118137   5.330   3.459   0.174
 5746SOL    HW218138   5.257   3.323   0.227
 5747SOL     OW18139   1.187   5.688   3.178
 5747SOL    HW118140   1.273   5.710   3.224
 5747SOL    HW218141   1.169   5.590   3.186
 5748SOL     OW18142   2.509   6.246   2.637
 5748SOL    HW118143   2.413   6.259   2.660
 5748SOL    HW218144   2.566   6.284   2.710
 5749SOL     OW18145   2.719   1.781   3.613
 5749SOL    HW118146   2.713   1.770   3.712
 5749SOL    HW218147   2.788   1.850   3.591
 5750SOL     OW18148   6.525   5.811   2.746
 5750SOL    HW118149   6.585   5.874   2.793
 5750SOL    HW218150   6.560   5.718   2.755
 5751SOL     OW18151   2.414   3.915   5.618
 5751SOL    HW118152   2.440   3.942   5.526
 5751SOL    HW218153   2.339   3.849   5.614
 5752SOL     OW18154   6.707   0.339   6.871
 5752SOL    HW118155   6.643   0.376   6.804
 5752SOL    HW218156   6.701   0.240   6.872
 5753SOL     OW18157   3.522   2.472   0.531
 5753SOL    HW118158   3.568   2.473   0.442
 5753SOL    HW218159   3.546   2.555   0.582
 5754SOL     OW18160   6.049   4.761   1.440
 5754SOL    HW118161   6.107   4.802   1.369
 5754SOL    HW218162   5.953   4.779   1.419
 5755SOL     OW18163   3.708   3.763   0.869
 5755SOL    HW118164   3.619   3.746   0.910
 5755SOL    HW218165   3.767   3.810   0.934
 5756SOL     OW18166   0.082   5.699   4.709
 5756SOL    HW118167   0.024   5.767   4.755
 5756SOL    HW218168   0.071   5.708   4.610
 5757SOL     OW18169   0.621   4.700   0.929
 5757SOL    HW118170   0.653   4.607   0.950
 5757SOL    HW218171   0.592   4.745   1.013
 5758SOL     OW18172   1.186   1.996   5.824
 5758SOL    HW118173   1.157   1.952   5.739
 5758SOL    HW218174   1.121   1.975   5.897
 5759SOL     OW18175   5.359   1.858   5.344
 5759SOL    HW118176   5.444   1.846   5.396
 5759SOL    HW218177   5.379   1.846   5.246
 5760SOL     OW18178   2.130   5.249   2.510
 5760SOL    HW118179   2.228   5.234   2.517
 5760SOL    HW218180   2.083   5.202   2.584
 5761SOL     OW18181   4.977   0.091   5.160
 5761SOL    HW118182   4.972   0.026   5.083
 5761SOL    HW218183   5.072   0.114   5.178
 5762SOL     OW18184   5.716   6.105   1.643
 5762SOL    HW118185   5.675   6.129   1.555
 5762SOL    HW218186   5.806   6.064   1.629
 5763SOL     OW18187   1.418   0.882   1.718
 5763SOL    HW118188   1.434   0.915   1.811
 5763SOL    HW218189   1.433   0.783   1.715
 5764SOL     OW18190   4.393   3.482   5.256
 5764SOL    HW118191   4.474   3.486   5.198
 5764SOL    HW218192   4.314   3.516   5.204
 5765SOL     OW18193   5.713   5.186   7.004
 5765SOL    HW118194   5.807   5.174   6.972
 5765SOL    HW218195   5.708   5.267   0.041
 5766SOL     OW18196   3.834   1.491   3.065
 5766SOL    HW118197   3.768   1.467   2.994
 5766SOL    HW218198   3.789   1.541   3.138
 5767SOL     OW18199   0.086   6.214   1.729
 5767SOL    HW118200   0.125   6.161   1.653
 5767SOL    HW218201   7.009   6.226   1.714
 5768SOL     OW18202   6.827   1.514   2.909
 5768SOL    HW118203   6.840   1.507   2.810
 5768SOL    HW218204   6.796   1.606   2.932
 5769SOL     OW18205   2.432   5.417   3.839
 5769SOL    HW118206   2.421   5.487   3.910
 5769SOL    HW218207   2.349   5.363   3.832
 5770SOL     OW18208   6.123   0.586   1.544
 5770SOL    HW118209   6.145   0.593   1.641
 5770SOL    HW218210   6.197   0.625   1.490
 5771SOL     OW18211   0.845   1.712   1.912
 5771SOL    HW118212   0.787   1.793   1.904
 5771SOL    HW218213   0.870   1.698   2.008
 5772SOL     OW18214   6.810   4.167   6.871
 5772SOL    HW118215   6.888   4.206   6.824
 5772SOL    HW218216   6.842   4.115   6.951
 5773SOL     OW18217   5.769   5.558   4.123
 5773SOL    HW118218   5.829   5.558   4.203
 5773SOL    HW218219   5.773   5.647   4.078
 5774SOL     OW18220   2.023   4.859   3.432
 5774SOL    HW118221   2.106   4.804   3.423
 5774SOL    HW218222   1.948   4.816   3.382
 5775SOL     OW18223   0.439   0.453   6.938
 5775SOL    HW118224   0.460   0.457   6.840
 5775SOL    HW218225   0.514   0.409   6.987
 5776SOL     OW18226   5.381   0.893   5.572
 5776SOL    HW118227   5.374   0.985   5.533
 5776SOL    HW218228   5.422   0.832   5.504
 5777SOL     OW18229   6.580   0.741   5.411
 5777SOL    HW118230   6.622   0.784   5.492
 5777SOL    HW218231   6.619   0.781   5.328
 5778SOL     OW18232   2.530   6.890   3.851
 5778SOL    HW118233   2.557   6.971   3.798
 5778SOL    HW218234   2.599   6.870   3.920
 5779SOL     OW18235   4.596   1.157   2.487
 5779SOL    HW118236   4.518   1.179   2.546
 5779SOL    HW218237   4.645   1.079   2.526
 5780SOL     OW18238   5.738   3.693   1.511
 5780SOL    HW118239   5.760   3.786   1.483
 5780SOL    HW218240   5.723   3.691   1.610
 5781SOL     OW18241   2.091   5.369   4.734
 5781SOL    HW118242   2.028   5.429   4.782
 5781SOL    HW218243   2.160   5.334   4.798
 5782SOL     OW18244   2.954   1.591   2.775
 5782SOL    HW118245   2.904   1.623   2.695
 5782SOL    HW218246   2.902   1.612   2.858
 5783SOL     OW18247   1.797   6.971   0.841
 5783SOL    HW118248   1.744   7.018   0.911
 5783SOL    HW218249   1.774   6.874   0.842
 5784SOL     OW18250   1.693   5.570   0.030
 5784SOL    HW118251   1.669   5.539   0.122
 5784SOL    HW218252   1.748   5.501   7.006
 5785SOL     OW18253   1.887   2.343   7.007
 5785SOL    HW118254   1.960   2.305   6.951
 5785SOL    HW218255   1.867   2.436   6.978
 5786SOL     OW18256   1.263   3.311   1.310
 5786SOL    HW118257   1.235   3.215   1.313
 5786SOL    HW218258   1.237   3.355   1.395
 5787SOL     OW18259   0.259   3.405   5.604
 5787SOL    HW118260   0.159   3.415   5.606
 5787SOL    HW218261   0.291   3.375   5.694
 5788SOL     OW18262   2.073   2.278   1.974
 5788SOL    HW118263   2.087   2.186   1.939
 5788SOL    HW218264   1.984   2.283   2.021
 5789SOL     OW18265   3.124   5.120   6.767
 5789SOL    HW118266   3.094   5.190   6.831
 5789SOL    HW218267   3.081   5.135   6.678
 5790SOL     OW18268   6.044   6.166   3.541
 5790SOL    HW118269   6.065   6.199   3.633
 5790SOL    HW218270   5.996   6.237   3.490
 5791SOL     OW18271   3.988   1.281   1.984
 5791SOL    HW118272   4.031   1.203   2.030
 5791SOL    HW218273   4.010   1.277   1.886
 5792SOL     OW18274   5.186   3.386   2.873
 5792SOL    HW118275   5.097   3.371   2.914
 5792SOL    HW218276   5.187   3.474   2.824
 5793SOL     OW18277   4.500   2.515   6.233
 5793SOL    HW118278   4.466   2.435   6.183
 5793SOL    HW218279   4.428   2.584   6.238
 5794SOL     OW18280   4.156   6.395   6.951
 5794SOL    HW118281   4.203   6.339   7.019
 5794SOL    HW218282   4.173   6.492   6.971
 5795SOL     OW18283   2.258   5.686   1.661
 5795SOL    HW118284   2.172   5.737   1.661
 5795SOL    HW218285   2.264   5.629   1.743
 5796SOL     OW18286   4.759   1.667   6.948
 5796SOL    HW118287   4.668   1.631   6.964
 5796SOL    HW218288   4.763   1.710   6.857
 5797SOL     OW18289   5.806   2.335   1.185
 5797SOL    HW118290   5.769   2.263   1.127
 5797SOL    HW218291   5.805   2.422   1.136
 5798SOL     OW18292   1.905   3.788   4.919
 5798SOL    HW118293   1.929   3.879   4.955
 5798SOL    HW218294   1.806   3.779   4.917
 5799SOL     OW18295   2.291   6.653   3.776
 5799SOL    HW118296   2.234   6.600   3.714
 5799SOL    HW218297   2.387   6.642   3.750
 5800SOL     OW18298   1.523   0.177   1.288
 5800SOL    HW118299   1.546   0.091   1.334
 5800SOL    HW218300   1.471   0.236   1.350
 5801SOL     OW18301   2.122   1.286   2.070
 5801SOL    HW118302   2.148   1.290   1.973
 5801SOL    HW218303   2.155   1.368   2.116
 5802SOL     OW18304   0.163   0.841   1.626
 5802SOL    HW118305   0.215   0.778   1.569
 5802SOL    HW218306   0.206   0.846   1.717
 5803SOL     OW18307   0.444   5.611   4.223
 5803SOL    HW118308   0.414   5.672   4.296
 5803SOL    HW218309   0.526   5.563   4.252
 5804SOL     OW18310   6.049   1.627   3.100
 5804SOL    HW118311   6.120   1.567   3.136
 5804SOL    HW218312   6.053   1.716   3.146
 5805SOL     OW18313   1.464   2.900   1.768
 5805SOL    HW118314   1.369   2.929   1.761
 5805SOL    HW218315   1.468   2.801   1.781
 5806SOL     OW18316   6.481   4.417   2.160
 5806SOL    HW118317   6.444   4.468   2.238
 5806SOL    HW218318   6.580   4.409   2.169
 5807SOL     OW18319   1.340   0.367   1.423
 5807SOL    HW118320   1.389   0.452   1.402
 5807SOL    HW218321   1.299   0.330   1.339
 5808SOL     OW18322   6.627   0.105   5.910
 5808SOL    HW118323   6.649   0.041   5.984
 5808SOL    HW218324   6.613   0.054   5.825
 5809SOL     OW18325   0.614   2.051   5.436
 5809SOL    HW118326   0.707   2.086   5.434
 5809SOL    HW218327   0.574   2.068   5.526
 5810SOL     OW18328   2.787   6.537   5.455
 5810SOL    HW118329   2.813   6.507   5.363
 5810SOL    HW218330   2.840   6.619   5.478
 5811SOL     OW18331   3.443   4.171   6.691
 5811SOL    HW118332   3.503   4.176   6.771
 5811SOL    HW218333   3.444   4.077   6.655
 5812SOL     OW18334   5.982   2.203   6.792
 5812SOL    HW118335   5.934   2.260   6.725
 5812SOL    HW218336   5.981   2.248   6.881
 5813SOL     OW18337   4.931   6.221   0.528
 5813SOL    HW118338   4.951   6.166   0.446
 5813SOL    HW218339   4.977   6.180   0.607
 5814SOL     OW18340   5.205   1.430   1.532
 5814SOL    HW118341   5.212   1.527   1.509
 5814SOL    HW218342   5.109   1.403   1.533
 5815SOL     OW18343   6.790   2.243   4.039
 5815SOL    HW118344   6.841   2.329   4.045
 5815SOL    HW218345   6.794   2.208   3.945
 5816SOL     OW18346   0.028   3.260   2.454
 5816SOL    HW118347   6.999   3.247   2.539
 5816SOL    HW218348   6.987   3.286   2.381
 5817SOL     OW18349   5.861   3.476   3.419
 5817SOL    HW118350   5.947   3.462   3.466
 5817SOL    HW218351   5.856   3.570   3.386
 5818SOL     OW18352   2.439   0.067   4.676
 5818SOL    HW118353   2.493   0.146   4.705
 5818SOL    HW218354   2.477   0.030   4.592
 5819SOL     OW18355   4.533   5.189   0.491
 5819SOL    HW118356   4.571   5.129   0.421
 5819SOL    HW218357   4.540   5.144   0.580
 5820SOL     OW18358   5.558   6.258   2.409
 5820SOL    HW118359   5.609   6.266   2.323
 5820SOL    HW218360   5.533   6.162   2.424
 5821SOL     OW18361   0.192   6.972   1.048
 5821SOL    HW118362   0.176   6.988   0.951
 5821SOL    HW218363   0.136   6.895   1.079
 5822SOL     OW18364   1.744   3.326   3.038
 5822SOL    HW118365   1.718   3.341   2.943
 5822SOL    HW218366   1.814   3.255   3.043
 5823SOL     OW18367   1.747   4.992   3.138
 5823SOL    HW118368   1.731   4.921   3.207
 5823SOL    HW218369   1.841   5.024   3.145
 5824SOL     OW18370   0.949   1.289   2.564
 5824SOL    HW118371   0.881   1.343   2.514
 5824SOL    HW218372   1.039   1.300   2.521
 5825SOL     OW18373   5.507   1.080   4.558
 5825SOL    HW118374   5.525   1.047   4.466
 5825SOL    HW218375   5.532   1.010   4.625
 5826SOL     OW18376   0.648   6.844   5.451
 5826SOL    HW118377   0.677   6.770   5.511
 5826SOL    HW218378   0.721   6.913   5.445
 5827SOL     OW18379   2.164   3.879   3.449
 5827SOL    HW118380   2.126   3.932   3.525
 5827SOL    HW218381   2.160   3.782   3.470
 5828SOL     OW18382   3.800   0.343   5.027
 5828SOL    HW118383   3.848   0.318   4.942
 5828SOL    HW218384   3.769   0.438   5.020
 5829SOL     OW18385   2.373   0.859   3.903
 5829SOL    HW118386   2.456   0.910   3.880
 5829SOL    HW218387   2.293   0.913   3.878
 5830SOL     OW18388   4.078   4.807   4.222
 5830SOL    HW118389   3.998   4.751   4.200
 5830SOL    HW218390   4.075   4.892   4.170
 5831SOL     OW18391   1.615   2.109   5.596
 5831SOL    HW118392   1.611   2.186   5.660
 5831SOL    HW218393   1.539   2.047   5.614
 5832SOL     OW18394   2.634   4.940   1.653
 5832SOL    HW118395   2.663   4.887   1.733
 5832SOL    HW218396   2.590   5.025   1.683
 5833SOL     OW18397   3.412   4.763   6.883
 5833SOL    HW118398   3.473   4.841   6.897
 5833SOL    HW218399   3.459   4.694   6.829
 5834SOL     OW18400   5.656   3.052   6.679
 5834SOL    HW118401   5.696   3.032   6.590
 5834SOL    HW218402   5.600   2.975   6.709
 5835SOL     OW18403   5.121   2.231   3.060
 5835SOL    HW118404   5.182   2.301   3.023
 5835SOL    HW218405   5.103   2.162   2.990
 5836SOL     OW18406   4.423   5.995   3.243
 5836SOL    HW118407   4.386   5.988   3.150
 5836SOL    HW218408   4.448   5.905   3.276
 5837SOL     OW18409   2.744   5.394   0.056
 5837SOL    HW118410   2.682   5.348   7.015
 5837SOL    HW218411   2.817   5.439   0.004
 5838SOL     OW18412   4.026   2.265   0.751
 5838SOL    HW118413   3.935   2.228   0.731
 5838SOL    HW218414   4.037   2.274   0.850
 5839SOL     OW18415   2.113   2.549   0.477
 5839SOL    HW118416   2.201   2.587   0.505
 5839SOL    HW218417   2.039   2.611   0.505
 5840SOL     OW18418   0.430   3.085   2.894
 5840SOL    HW118419   0.413   3.184   2.904
 5840SOL    HW218420   0.356   3.045   2.839
 5841SOL     OW18421   4.847   1.582   0.346
 5841SOL    HW118422   4.781   1.651   0.377
 5841SOL    HW218423   4.815   1.543   0.259
 5842SOL     OW18424   2.168   2.740   1.536
 5842SOL    HW118425   2.068   2.747   1.541
 5842SOL    HW218426   2.193   2.650   1.500
 5843SOL     OW18427   2.629   4.105   0.967
 5843SOL    HW118428   2.566   4.182   0.975
 5843SOL    HW218429   2.586   4.023   1.006
 5844SOL     OW18430   0.415   6.514   5.222
 5844SOL    HW118431   0.368   6.533   5.135
 5844SOL    HW218432   0.499   6.568   5.226
 5845SOL     OW18433   0.949   0.012   2.415
 5845SOL    HW118434   0.982   6.996   2.501
 5845SOL    HW218435   0.849   0.012   2.416
 5846SOL     OW18436   0.086   4.061   5.413
 5846SOL    HW118437   0.094   3.975   5.364
 5846SOL    HW218438   0.129   4.053   5.503
 5847SOL     OW18439   2.338   4.143   6.435
 5847SOL    HW118440   2.372   4.071   6.495
 5847SOL    HW218441   2.258   4.186   6.477
 5848SOL     OW18442   1.960   5.338   2.301
 5848SOL    HW118443   2.019   5.280   2.357
 5848SOL    HW218444   1.970   5.313   2.205
 5849SOL     OW18445   3.592   6.102   5.677
 5849SOL    HW118446   3.510   6.150   5.706
 5849SOL    HW218447   3.570   6.040   5.601
 5850SOL     OW18448   0.761   1.586   2.639
 5850SOL    HW118449   0.667   1.622   2.639
 5850SOL    HW218450   0.803   1.604   2.727
 5851SOL     OW18451   6.513   3.662   4.284
 5851SOL    HW118452   6.458   3.706   4.355
 5851SOL    HW218453   6.593   3.619   4.325
 5852SOL     OW18454   5.023   3.940   2.331
 5852SOL    HW118455   5.011   3.849   2.371
 5852SOL    HW218456   4.992   3.939   2.236
 5853SOL     OW18457   4.381   4.963   6.204
 5853SOL    HW118458   4.446   4.943   6.277
 5853SOL    HW218459   4.377   4.886   6.141
 5854SOL     OW18460   2.814   4.746   5.295
 5854SOL    HW118461   2.873   4.691   5.236
 5854SOL    HW218462   2.825   4.842   5.273
 5855SOL     OW18463   2.073   3.108   3.076
 5855SOL    HW118464   2.107   3.114   2.983
 5855SOL    HW218465   2.130   3.163   3.136
 5856SOL     OW18466   0.872   6.908   3.007
 5856SOL    HW118467   0.889   7.006   2.999
 5856SOL    HW218468   0.777   6.889   2.981
 5857SOL     OW18469   5.721   4.538   6.555
 5857SOL    HW118470   5.676   4.626   6.545
 5857SOL    HW218471   5.759   4.509   6.467
 5858SOL     OW18472   1.707   1.233   3.229
 5858SOL    HW118473   1.767   1.287   3.288
 5858SOL    HW218474   1.668   1.158   3.282
 5859SOL     OW18475   5.716   6.336   1.185
 5859SOL    HW118476   5.709   6.330   1.085
 5859SOL    HW218477   5.689   6.427   1.215
 5860SOL     OW18478   0.542   4.284   3.354
 5860SOL    HW118479   0.562   4.217   3.426
 5860SOL    HW218480   0.577   4.249   3.267
 5861SOL     OW18481   5.303   1.127   5.178
 5861SOL    HW118482   5.233   1.056   5.185
 5861SOL    HW218483   5.384   1.089   5.134
 5862SOL     OW18484   6.523   5.380   2.690
 5862SOL    HW118485   6.440   5.410   2.739
 5862SOL    HW218486   6.510   5.394   2.592
 5863SOL     OW18487   3.613   6.382   6.680
 5863SOL    HW118488   3.616   6.451   6.752
 5863SOL    HW218489   3.700   6.383   6.630
 5864SOL     OW18490   3.562   4.144   2.290
 5864SOL    HW118491   3.593   4.158   2.384
 5864SOL    HW218492   3.640   4.120   2.232
 5865SOL     OW18493   6.569   0.631   6.281
 5865SOL    HW118494   6.629   0.705   6.314
 5865SOL    HW218495   6.621   0.570   6.222
 5866SOL     OW18496   3.865   3.359   2.889
 5866SOL    HW118497   3.883   3.263   2.870
 5866SOL    HW218498   3.825   3.368   2.980
 5867SOL     OW18499   3.162   1.526   1.587
 5867SOL    HW118500   3.129   1.617   1.564
 5867SOL    HW218501   3.226   1.532   1.664
 5868SOL     OW18502   0.805   1.445   5.690
 5868SOL    HW118503   0.841   1.373   5.631
 5868SOL    HW218504   0.792   1.529   5.637
 5869SOL     OW18505   1.007   6.106   3.284
 5869SOL    HW118506   0.955   6.024   3.306
 5869SOL    HW218507   1.085   6.083   3.225
 5870SOL     OW18508   3.534   5.692   4.724
 5870SOL    HW118509   3.440   5.662   4.735
 5870SOL    HW218510   3.536   5.791   4.708
 5871SOL     OW18511   2.882   3.545   3.659
 5871SOL    HW118512   2.901   3.450   3.682
 5871SOL    HW218513   2.866   3.597   3.742
 5872SOL     OW18514   5.003   5.429   1.490
 5872SOL    HW118515   5.053   5.510   1.460
 5872SOL    HW218516   4.919   5.419   1.437
 5873SOL     OW18517   4.079   5.757   2.418
 5873SOL    HW118518   4.000   5.721   2.369
 5873SOL    HW218519   4.145   5.683   2.433
 5874SOL     OW18520   1.688   3.722   5.306
 5874SOL    HW118521   1.786   3.739   5.299
 5874SOL    HW218522   1.640   3.808   5.319
 5875SOL     OW18523   3.274   1.317   0.872
 5875SOL    HW118524   3.320   1.347   0.956
 5875SOL    HW218525   3.178   1.342   0.876
 5876SOL     OW18526   3.507   3.332   1.868
 5876SOL    HW118527   3.589   3.363   1.916
 5876SOL    HW218528   3.429   3.388   1.896
 5877SOL     OW18529   5.861   4.501   1.051
 5877SOL    HW118530   5.841   4.413   1.094
 5877SOL    HW218531   5.867   4.490   0.952
 5878SOL     OW18532   2.026   4.680   2.572
 5878SOL    HW118533   1.936   4.710   2.540
 5878SOL    HW218534   2.066   4.617   2.504
 5879SOL     OW18535   0.591   4.299   4.691
 5879SOL    HW118536   0.604   4.371   4.760
 5879SOL    HW218537   0.583   4.341   4.601
 5880SOL     OW18538   3.012   5.720   0.948
 5880SOL    HW118539   2.947   5.740   0.875
 5880SOL    HW218540   3.027   5.621   0.953
 5881SOL     OW18541   1.430   6.149   4.607
 5881SOL    HW118542   1.449   6.060   4.647
 5881SOL    HW218543   1.516   6.195   4.585
 5882SOL     OW18544   4.636   0.810   1.974
 5882SOL    HW118545   4.570   0.769   1.910
 5882SOL    HW218546   4.693   0.738   2.014
 5883SOL     OW18547   0.306   3.657   5.403
 5883SOL    HW118548   0.283   3.595   5.478
 5883SOL    HW218549   0.223   3.699   5.367
 5884SOL     OW18550   1.380   1.553   3.179
 5884SOL    HW118551   1.449   1.548   3.107
 5884SOL    HW218552   1.386   1.642   3.224
 5885SOL     OW18553   5.768   6.665   1.113
 5885SOL    HW118554   5.728   6.619   1.192
 5885SOL    HW218555   5.823   6.743   1.144
 5886SOL     OW18556   1.093   1.645   5.806
 5886SOL    HW118557   1.181   1.662   5.851
 5886SOL    HW218558   1.090   1.694   5.719
 5887SOL     OW18559   4.163   6.689   3.513
 5887SOL    HW118560   4.246   6.634   3.527
 5887SOL    HW218561   4.172   6.740   3.428
 5888SOL     OW18562   2.128   0.433   3.377
 5888SOL    HW118563   2.099   0.428   3.281
 5888SOL    HW218564   2.192   0.509   3.389
 5889SOL     OW18565   2.633   0.640   0.723
 5889SOL    HW118566   2.635   0.739   0.735
 5889SOL    HW218567   2.697   0.614   0.651
 5890SOL     OW18568   3.311   4.568   5.983
 5890SOL    HW118569   3.268   4.586   6.071
 5890SOL    HW218570   3.241   4.560   5.912
 5891SOL     OW18571   2.671   3.786   0.216
 5891SOL    HW118572   2.683   3.774   0.117
 5891SOL    HW218573   2.595   3.849   0.232
 5892SOL     OW18574   0.589   6.982   1.460
 5892SOL    HW118575   0.628   6.980   1.551
 5892SOL    HW218576   0.531   0.041   1.450
 5893SOL     OW18577   1.663   0.667   3.676
 5893SOL    HW118578   1.565   0.658   3.658
 5893SOL    HW218579   1.690   0.605   3.749
 5894SOL     OW18580   1.070   2.900   3.284
 5894SOL    HW118581   1.030   2.808   3.290
 5894SOL    HW218582   1.082   2.936   3.377
 5895SOL     OW18583   4.971   3.549   3.784
 5895SOL    HW118584   4.933   3.542   3.692
 5895SOL    HW218585   5.066   3.518   3.783
 5896SOL     OW18586   3.333   2.118   6.233
 5896SOL    HW118587   3.374   2.052   6.296
 5896SOL    HW218588   3.401   2.186   6.207
 5897SOL     OW18589   4.226   0.310   1.417
 5897SOL    HW118590   4.139   0.347   1.449
 5897SOL    HW218591   4.242   0.340   1.323
 5898SOL     OW18592   1.754   0.386   2.393
 5898SOL    HW118593   1.750   0.286   2.386
 5898SOL    HW218594   1.837   0.413   2.441
 5899SOL     OW18595   5.047   6.948   3.739
 5899SOL    HW118596   4.971   7.000   3.776
 5899SOL    HW218597   5.046   6.953   3.640
 5900SOL     OW18598   4.515   5.379   2.921
 5900SOL    HW118599   4.521   5.300   2.983
 5900SOL    HW218600   4.419   5.396   2.898
 5901SOL     OW18601   3.727   6.661   5.045
 5901SOL    HW118602   3.653   6.714   5.088
 5901SOL    HW218603   3.743   6.695   4.953
 5902SOL     OW18604   6.507   1.383   6.601
 5902SOL    HW118605   6.537   1.444   6.528
 5902SOL    HW218606   6.539   1.291   6.583
 5903SOL     OW18607   6.209   2.864   6.422
 5903SOL    HW118608   6.195   2.766   6.414
 5903SOL    HW218609   6.237   2.902   6.334
 5904SOL     OW18610   0.426   4.152   2.605
 5904SOL    HW118611   0.358   4.090   2.644
 5904SOL    HW218612   0.410   4.161   2.507
 5905SOL     OW18613   0.172   5.322   2.721
 5905SOL    HW118614   0.218   5.391   2.776
 5905SOL    HW218615   0.153   5.359   2.630
 5906SOL     OW18616   6.442   1.620   3.900
 5906SOL    HW118617   6.538   1.605   3.877
 5906SOL    HW218618   6.395   1.532   3.908
 5907SOL     OW18619   1.659   6.709   1.833
 5907SOL    HW118620   1.632   6.623   1.877
 5907SOL    HW218621   1.727   6.690   1.763
 5908SOL     OW18622   0.493   3.111   5.908
 5908SOL    HW118623   0.533   3.108   5.999
 5908SOL    HW218624   0.423   3.041   5.900
 5909SOL     OW18625   6.839   4.602   0.668
 5909SOL    HW118626   6.826   4.536   0.743
 5909SOL    HW218627   6.750   4.635   0.637
 5910SOL     OW18628   2.376   1.718   3.806
 5910SOL    HW118629   2.404   1.786   3.874
 5910SOL    HW218630   2.306   1.658   3.846
 5911SOL     OW18631   6.603   5.726   6.413
 5911SOL    HW118632   6.582   5.686   6.502
 5911SOL    HW218633   6.518   5.750   6.366
 5912SOL     OW18634   0.215   0.915   3.860
 5912SOL    HW118635   0.286   0.908   3.930
 5912SOL    HW218636   0.134   0.958   3.899
 5913SOL     OW18637   5.690   1.317   6.974
 5913SOL    HW118638   5.737   1.266   6.902
 5913SOL    HW218639   5.600   1.276   6.991
 5914SOL     OW18640   0.853   6.069   0.399
 5914SOL    HW118641   0.782   6.139   0.383
 5914SOL    HW218642   0.943   6.113   0.400
 5915SOL     OW18643   3.890   1.711   5.917
 5915SOL    HW118644   3.796   1.680   5.929
 5915SOL    HW218645   3.918   1.699   5.822
 5916SOL     OW18646   0.906   6.205   2.839
 5916SOL    HW118647   0.908   6.110   2.872
 5916SOL    HW218648   0.993   6.226   2.794
 5917SOL     OW18649   4.031   4.405   0.409
 5917SOL    HW118650   4.005   4.420   0.313
 5917SOL    HW218651   4.047   4.494   0.453
 5918SOL     OW18652   3.126   6.251   5.613
 5918SOL    HW118653   3.157   6.174   5.669
 5918SOL    HW218654   3.069   6.312   5.668
 5919SOL     OW18655   3.605   3.043   4.135
 5919SOL    HW118656   3.646   2.974   4.077
 5919SOL    HW218657   3.615   3.133   4.093
 5920SOL     OW18658   6.524   0.125   5.365
 5920SOL    HW118659   6.475   0.124   5.452
 5920SOL    HW218660   6.547   0.220   5.341
 5921SOL     OW18661   2.741   4.780   6.342
 5921SOL    HW118662   2.806   4.711   6.311
 5921SOL    HW218663   2.791   4.855   6.386
 5922SOL     OW18664   4.943   3.897   3.296
 5922SOL    HW118665   5.007   3.842   3.350
 5922SOL    HW218666   4.951   3.872   3.200
 5923SOL     OW18667   6.843   0.280   2.428
 5923SOL    HW118668   6.771   0.345   2.405
 5923SOL    HW218669   6.899   0.317   2.503
 5924SOL     OW18670   5.820   0.438   3.538
 5924SOL    HW118671   5.846   0.534   3.532
 5924SOL    HW218672   5.744   0.420   3.476
 5925SOL     OW18673   4.503   6.839   1.540
 5925SOL    HW118674   4.513   6.915   1.604
 5925SOL    HW218675   4.520   6.871   1.447
 5926SOL     OW18676   4.891   5.050   3.862
 5926SOL    HW118677   4.808   5.050   3.917
 5926SOL    HW218678   4.906   5.141   3.824
 5927SOL     OW18679   1.077   4.636   1.890
 5927SOL    HW118680   1.035   4.707   1.833
 5927SOL    HW218681   1.170   4.618   1.858
 5928SOL     OW18682   3.591   0.431   0.740
 5928SOL    HW118683   3.596   0.512   0.799
 5928SOL    HW218684   3.682   0.391   0.730
 5929SOL     OW18685   1.893   0.802   6.785
 5929SOL    HW118686   1.799   0.770   6.803
 5929SOL    HW218687   1.935   0.742   6.717
 5930SOL     OW18688   1.053   3.077   2.309
 5930SOL    HW118689   1.095   3.031   2.387
 5930SOL    HW218690   0.953   3.076   2.318
 5931SOL     OW18691   4.606   6.107   3.425
 5931SOL    HW118692   4.653   6.033   3.474
 5931SOL    HW218693   4.593   6.082   3.330
 5932SOL     OW18694   3.105   1.528   0.033
 5932SOL    HW118695   3.086   1.526   0.131
 5932SOL    HW218696   3.066   1.611   7.015
 5933SOL     OW18697   6.128   6.201   3.802
 5933SOL    HW118698   6.121   6.106   3.835
 5933SOL    HW218699   6.094   6.263   3.872
 5934SOL     OW18700   3.268   3.837   5.617
 5934SOL    HW118701   3.241   3.860   5.523
 5934SOL    HW218702   3.209   3.764   5.651
 5935SOL     OW18703   0.143   5.817   5.581
 5935SOL    HW118704   0.140   5.774   5.672
 5935SOL    HW218705   0.174   5.750   5.514
 5936SOL     OW18706   3.812   2.996   1.424
 5936SOL    HW118707   3.773   3.088   1.415
 5936SOL    HW218708   3.911   3.000   1.409
 5937SOL     OW18709   6.339   3.498   1.768
 5937SOL    HW118710   6.345   3.483   1.867
 5937SOL    HW218711   6.256   3.455   1.733
 5938SOL     OW18712   0.078   5.070   5.053
 5938SOL    HW118713   7.020   5.128   5.071
 5938SOL    HW218714   0.056   5.006   4.979
 5939SOL     OW18715   3.537   0.690   5.193
 5939SOL    HW118716   3.554   0.647   5.282
 5939SOL    HW218717   3.571   0.784   5.195
 5940SOL     OW18718   4.935   6.146   2.737
 5940SOL    HW118719   4.974   6.237   2.727
 5940SOL    HW218720   5.005   6.083   2.769
 5941SOL     OW18721   6.511   2.212   1.946
 5941SOL    HW118722   6.594   2.157   1.935
 5941SOL    HW218723   6.517   2.265   2.030
 5942SOL     OW18724   4.912   3.306   6.039
 5942SOL    HW118725   4.941   3.214   6.066
 5942SOL    HW218726   4.914   3.366   6.119
 5943SOL     OW18727   3.077   4.360   1.713
 5943SOL    HW118728   3.118   4.412   1.638
 5943SOL    HW218729   3.034   4.423   1.777
 5944SOL     OW18730   0.694   3.649   6.841
 5944SOL    HW118731   0.611   3.592   6.845
 5944SOL    HW218732   0.668   3.745   6.831
 5945SOL     OW18733   6.817   5.835   5.549
 5945SOL    HW118734   6.907   5.815   5.511
 5945SOL    HW218735   6.812   5.931   5.577
 5946SOL     OW18736   3.338   4.063   1.023
 5946SOL    HW118737   3.386   3.977   1.005
 5946SOL    HW218738   3.243   4.054   0.995
 5947SOL     OW18739   3.257   3.384   4.673
 5947SOL    HW118740   3.181   3.437   4.710
 5947SOL    HW218741   3.318   3.445   4.622
 5948SOL     OW18742   5.217   4.070   2.041
 5948SOL    HW118743   5.267   4.150   2.073
 5948SOL    HW218744   5.120   4.092   2.033
 5949SOL     OW18745   6.397   4.117   1.699
 5949SOL    HW118746   6.359   4.157   1.782
 5949SOL    HW218747   6.466   4.049   1.725
 5950SOL     OW18748   4.890   0.770   5.005
 5950SOL    HW118749   4.914   0.733   4.915
 5950SOL    HW218750   4.878   0.695   5.069
 5951SOL     OW18751   1.122   3.707   6.427
 5951SOL    HW118752   1.077   3.756   6.501
 5951SOL    HW218753   1.106   3.609   6.438
 5952SOL     OW18754   3.613   4.796   1.174
 5952SOL    HW118755   3.580   4.753   1.258
 5952SOL    HW218756   3.638   4.724   1.108
 5953SOL     OW18757   6.507   2.696   4.667
 5953SOL    HW118758   6.477   2.792   4.671
 5953SOL    HW218759   6.517   2.660   4.760
 5954SOL     OW18760   1.817   6.151   3.882
 5954SOL    HW118761   1.753   6.228   3.885
 5954SOL    HW218762   1.872   6.151   3.966
 5955SOL     OW18763   6.361   3.859   0.638
 5955SOL    HW118764   6.321   3.858   0.730
 5955SOL    HW218765   6.386   3.766   0.611
 5956SOL     OW18766   5.439   2.892   4.610
 5956SOL    HW118767   5.470   2.976   4.565
 5956SOL    HW218768   5.517   2.849   4.656
 5957SOL     OW18769   0.608   1.244   2.521
 5957SOL    HW118770   0.627   1.163   2.466
 5957SOL    HW218771   0.669   1.318   2.494
 5958SOL     OW18772   3.879   6.731   2.364
 5958SOL    HW118773   3.934   6.809   2.390
 5958SOL    HW218774   3.906   6.699   2.273
 5959SOL     OW18775   5.685   2.715   4.200
 5959SOL    HW118776   5.642   2.806   4.198
 5959SOL    HW218777   5.617   2.646   4.178
 5960SOL     OW18778   4.365   0.268   6.178
 5960SOL    HW118779   4.298   0.223   6.237
 5960SOL    HW218780   4.341   0.364   6.168
 5961SOL     OW18781   2.630   1.825   3.341
 5961SOL    HW118782   2.633   1.773   3.426
 5961SOL    HW218783   2.535   1.841   3.315
 5962SOL     OW18784   4.899   6.474   0.279
 5962SOL    HW118785   4.913   6.485   0.377
 5962SOL    HW218786   4.959   6.402   0.244
 5963SOL     OW18787   3.498   4.342   0.116
 5963SOL    HW118788   3.439   4.277   0.068
 5963SOL    HW218789   3.509   4.313   0.211
 5964SOL     OW18790   2.052   6.603   3.267
 5964SOL    HW118791   2.038   6.526   3.204
 5964SOL    HW218792   2.080   6.684   3.215
 5965SOL     OW18793   1.976   0.740   0.542
 5965SOL    HW118794   1.990   0.707   0.635
 5965SOL    HW218795   1.914   0.678   0.494
 5966SOL     OW18796   2.634   1.149   5.036
 5966SOL    HW118797   2.668   1.068   4.988
 5966SOL    HW218798   2.534   1.151   5.031
 5967SOL     OW18799   3.074   1.869   3.681
 5967SOL    HW118800   3.066   1.882   3.780
 5967SOL    HW218801   3.010   1.931   3.634
 5968SOL     OW18802   5.323   2.078   1.360
 5968SOL    HW118803   5.250   2.067   1.428
 5968SOL    HW218804   5.410   2.091   1.407
 5969SOL     OW18805   4.854   0.742   6.652
 5969SOL    HW118806   4.834   0.716   6.747
 5969SOL    HW218807   4.821   0.670   6.591
 5970SOL     OW18808   0.251   3.539   0.614
 5970SOL    HW118809   0.350   3.552   0.614
 5970SOL    HW218810   0.207   3.625   0.640
 5971SOL     OW18811   0.496   6.664   4.073
 5971SOL    HW118812   0.440   6.615   4.140
 5971SOL    HW218813   0.590   6.670   4.106
 5972SOL     OW18814   4.764   5.147   1.082
 5972SOL    HW118815   4.736   5.111   0.993
 5972SOL    HW218816   4.863   5.161   1.083
 5973SOL     OW18817   1.966   2.213   2.430
 5973SOL    HW118818   1.936   2.197   2.336
 5973SOL    HW218819   2.028   2.140   2.459
 5974SOL     OW18820   5.015   2.088   5.705
 5974SOL    HW118821   5.036   2.167   5.762
 5974SOL    HW218822   4.977   2.015   5.763
 5975SOL     OW18823   4.673   4.776   0.692
 5975SOL    HW118824   4.646   4.746   0.783
 5975SOL    HW218825   4.695   4.696   0.636
 5976SOL     OW18826   2.405   3.431   5.825
 5976SOL    HW118827   2.444   3.455   5.736
 5976SOL    HW218828   2.426   3.336   5.846
 5977SOL     OW18829   0.010   4.659   0.252
 5977SOL    HW118830   0.045   4.693   0.166
 5977SOL    HW218831   6.953   4.599   0.235
 5978SOL     OW18832   2.793   5.341   0.307
 5978SOL    HW118833   2.800   5.241   0.306
 5978SOL    HW218834   2.804   5.377   0.215
 5979SOL     OW18835   5.757   0.201   1.315
 5979SOL    HW118836   5.735   0.103   1.320
 5979SOL    HW218837   5.810   0.227   1.396
 5980SOL     OW18838   3.370   3.378   1.621
 5980SOL    HW118839   3.417   3.346   1.704
 5980SOL    HW218840   3.300   3.312   1.595
 5981SOL     OW18841   2.759   2.827   0.256
 5981SOL    HW118842   2.805   2.845   0.344
 5981SOL    HW218843   2.753   2.912   0.204
 5982SOL     OW18844   6.122   2.549   1.468
 5982SOL    HW118845   6.073   2.587   1.546
 5982SOL    HW218846   6.168   2.464   1.494
 5983SOL     OW18847   6.884   0.824   3.443
 5983SOL    HW118848   6.865   0.791   3.350
 5983SOL    HW218849   6.962   0.886   3.441
 5984SOL     OW18850   6.581   6.665   3.232
 5984SOL    HW118851   6.492   6.646   3.192
 5984SOL    HW218852   6.577   6.752   3.282
 5985SOL     OW18853   5.529   2.530   2.828
 5985SOL    HW118854   5.610   2.556   2.775
 5985SOL    HW218855   5.497   2.608   2.882
 5986SOL     OW18856   4.072   3.522   5.326
 5986SOL    HW118857   4.091   3.509   5.229
 5986SOL    HW218858   4.082   3.435   5.374
 5987SOL     OW18859   6.797   0.087   5.573
 5987SOL    HW118860   6.827   0.087   5.477
 5987SOL    HW218861   6.715   0.031   5.583
 5988SOL     OW18862   1.641   2.368   6.253
 5988SOL    HW118863   1.668   2.463   6.260
 5988SOL    HW218864   1.639   2.341   6.156
 5989SOL     OW18865   0.336   5.174   6.553
 5989SOL    HW118866   0.283   5.102   6.508
 5989SOL    HW218867   0.382   5.136   6.634
 5990SOL     OW18868   3.741   5.007   1.867
 5990SOL    HW118869   3.687   4.945   1.924
 5990SOL    HW218870   3.804   5.059   1.925
 5991SOL     OW18871   5.525   6.880   1.095
 5991SOL    HW118872   5.451   6.873   1.029
 5991SOL    HW218873   5.591   6.806   1.079
 5992SOL     OW18874   3.269   0.357   1.809
 5992SOL    HW118875   3.355   0.402   1.834
 5992SOL    HW218876   3.228   0.315   1.891
 5993SOL     OW18877   6.338   2.026   0.406
 5993SOL    HW118878   6.258   1.987   0.452
 5993SOL    HW218879   6.387   2.086   0.469
 5994SOL     OW18880   0.868   3.432   0.551
 5994SOL    HW118881   0.928   3.368   0.504
 5994SOL    HW218882   0.858   3.516   0.497
 5995SOL     OW18883   4.560   3.939   1.498
 5995SOL    HW118884   4.639   3.975   1.448
 5995SOL    HW218885   4.528   4.008   1.564
 5996SOL     OW18886   3.404   5.312   1.248
 5996SOL    HW118887   3.463   5.378   1.202
 5996SOL    HW218888   3.393   5.337   1.344
 5997SOL     OW18889   7.013   0.177   3.570
 5997SOL    HW118890   0.019   0.095   3.519
 5997SOL    HW218891   6.928   0.213   3.532
 5998SOL     OW18892   6.699   6.940   1.541
 5998SOL    HW118893   6.794   6.955   1.516
 5998SOL    HW218894   6.655   0.005   1.562
 5999SOL     OW18895   4.837   2.979   0.979
 5999SOL    HW118896   4.930   3.001   0.953
 5999SOL    HW218897   4.782   2.960   0.897
 6000SOL     OW18898   0.029   4.369   1.137
 6000SOL    HW118899   0.072   4.354   1.226
 6000SOL    HW218900   7.007   4.285   1.107
 6001SOL     OW18901   6.303   5.169   5.293
 6001SOL    HW118902   6.356   5.195   5.213
 6001SOL    HW218903   6.206   5.167   5.270
 6002SOL     OW18904   6.083   5.544   4.024
 6002SOL    HW118905   5.998   5.493   4.008
 6002SOL    HW218906   6.091   5.566   4.121
 6003SOL     OW18907   0.242   3.456   4.913
 6003SOL    HW118908   0.184   3.383   4.875
 6003SOL    HW218909   0.298   3.418   4.986
 6004SOL     OW18910   5.189   2.919   4.128
 6004SOL    HW118911   5.267   2.869   4.090
 6004SOL    HW218912   5.156   2.872   4.209
 6005SOL     OW18913   3.617   5.306   6.204
 6005SOL    HW118914   3.703   5.314   6.254
 6005SOL    HW218915   3.545   5.351   6.256
 6006SOL     OW18916   3.521   6.171   6.015
 6006SOL    HW118917   3.591   6.214   5.958
 6006SOL    HW218918   3.531   6.072   6.010
 6007SOL     OW18919   2.002   5.492   6.105
 6007SOL    HW118920   1.961   5.552   6.174
 6007SOL    HW218921   2.099   5.513   6.096
 6008SOL     OW18922   3.086   4.684   5.754
 6008SOL    HW118923   3.176   4.719   5.727
 6008SOL    HW218924   3.084   4.585   5.742
 6009SOL     OW18925   3.738   5.310   3.175
 6009SOL    HW118926   3.692   5.385   3.223
 6009SOL    HW218927   3.836   5.312   3.197
 6010SOL     OW18928   0.568   5.854   5.175
 6010SOL    HW118929   0.591   5.943   5.137
 6010SOL    HW218930   0.602   5.782   5.116
 6011SOL     OW18931   6.064   2.291   1.971
 6011SOL    HW118932   5.965   2.288   1.986
 6011SOL    HW218933   6.083   2.292   1.873
 6012SOL     OW18934   6.964   0.028   6.220
 6012SOL    HW118935   6.997   6.963   6.183
 6012SOL    HW218936   6.889   0.011   6.284
 6013SOL     OW18937   6.566   1.529   2.715
 6013SOL    HW118938   6.615   1.578   2.643
 6013SOL    HW218939   6.503   1.464   2.674
 6014SOL     OW18940   3.751   2.990   4.389
 6014SOL    HW118941   3.827   2.996   4.326
 6014SOL    HW218942   3.673   2.945   4.345
 6015SOL     OW18943   6.049   1.389   4.707
 6015SOL    HW118944   5.958   1.410   4.672
 6015SOL    HW218945   6.116   1.399   4.634
 6016SOL     OW18946   5.012   1.683   4.513
 6016SOL    HW118947   4.994   1.617   4.586
 6016SOL    HW218948   4.937   1.680   4.447
 6017SOL     OW18949   6.718   2.401   5.534
 6017SOL    HW118950   6.763   2.360   5.455
 6017SOL    HW218951   6.713   2.501   5.522
 6018SOL     OW18952   3.028   1.181   5.356
 6018SOL    HW118953   3.064   1.204   5.266
 6018SOL    HW218954   2.932   1.153   5.347
 6019SOL     OW18955   6.862   3.531   6.576
 6019SOL    HW118956   6.829   3.529   6.670
 6019SOL    HW218957   6.957   3.502   6.572
 6020SOL     OW18958   0.819   4.387   6.742
 6020SOL    HW118959   0.724   4.369   6.716
 6020SOL    HW218960   0.830   4.377   6.840
 6021SOL     OW18961   4.463   0.147   3.214
 6021SOL    HW118962   4.474   0.048   3.214
 6021SOL    HW218963   4.471   0.181   3.308
 6022SOL     OW18964   5.983   1.886   1.789
 6022SOL    HW118965   5.939   1.806   1.829
 6022SOL    HW218966   5.952   1.898   1.695
 6023SOL     OW18967   4.461   0.645   1.789
 6023SOL    HW118968   4.495   0.664   1.697
 6023SOL    HW218969   4.362   0.637   1.787
 6024SOL     OW18970   0.542   5.768   6.950
 6024SOL    HW118971   0.482   5.693   6.980
 6024SOL    HW218972   0.543   5.772   6.850
 6025SOL     OW18973   2.379   0.866   4.383
 6025SOL    HW118974   2.405   0.775   4.349
 6025SOL    HW218975   2.461   0.917   4.407
 6026SOL     OW18976   6.180   4.358   4.469
 6026SOL    HW118977   6.140   4.449   4.461
 6026SOL    HW218978   6.232   4.336   4.387
 6027SOL     OW18979   5.775   4.107   6.414
 6027SOL    HW118980   5.686   4.085   6.374
 6027SOL    HW218981   5.837   4.029   6.404
 6028SOL     OW18982   5.641   5.096   6.182
 6028SOL    HW118983   5.591   5.079   6.097
 6028SOL    HW218984   5.739   5.094   6.163
 6029SOL     OW18985   2.549   0.596   3.090
 6029SOL    HW118986   2.588   0.589   2.998
 6029SOL    HW218987   2.608   0.656   3.146
 6030SOL     OW18988   5.466   3.894   4.716
 6030SOL    HW118989   5.379   3.936   4.744
 6030SOL    HW218990   5.449   3.831   4.641
 6031SOL     OW18991   0.768   5.999   5.629
 6031SOL    HW118992   0.756   5.948   5.544
 6031SOL    HW218993   0.745   6.096   5.614
 6032SOL     OW18994   3.264   6.080   3.820
 6032SOL    HW118995   3.178   6.043   3.853
 6032SOL    HW218996   3.260   6.090   3.720
 6033SOL     OW18997   2.200   1.550   2.480
 6033SOL    HW118998   2.266   1.621   2.504
 6033SOL    HW218999   2.220   1.466   2.531
 6034SOL     OW19000   0.898   1.164   0.161
 6034SOL    HW119001   0.993   1.160   0.193
 6034SOL    HW219002   0.863   1.071   0.149
 6035SOL     OW19003   1.391   0.616   2.800
 6035SOL    HW119004   1.451   0.611   2.720
 6035SOL    HW219005   1.446   0.602   2.883
 6036SOL     OW19006   6.519   2.049   0.638
 6036SOL    HW119007   6.508   1.951   0.620
 6036SOL    HW219008   6.590   2.063   0.707
 6037SOL     OW19009   4.764   2.351   0.302
 6037SOL    HW119010   4.674   2.339   0.344
 6037SOL    HW219011   4.821   2.408   0.361
 6038SOL     OW19012   0.227   1.995   6.215
 6038SOL    HW119013   0.252   2.088   6.187
 6038SOL    HW219014   0.215   1.938   6.133
 6039SOL     OW19015   3.470   3.767   3.432
 6039SOL    HW119016   3.417   3.687   3.459
 6039SOL    HW219017   3.469   3.835   3.506
 6040SOL     OW19018   0.532   1.909   0.260
 6040SOL    HW119019   0.581   1.858   0.330
 6040SOL    HW219020   0.545   1.866   0.171
 6041SOL     OW19021   2.470   3.042   5.620
 6041SOL    HW119022   2.454   3.078   5.528
 6041SOL    HW219023   2.540   2.971   5.616
 6042SOL     OW19024   3.567   5.553   2.940
 6042SOL    HW119025   3.542   5.627   3.003
 6042SOL    HW219026   3.639   5.496   2.981
 6043SOL     OW19027   2.603   0.690   3.683
 6043SOL    HW119028   2.701   0.668   3.687
 6043SOL    HW219029   2.592   0.789   3.675
 6044SOL     OW19030   0.572   2.818   1.611
 6044SOL    HW119031   0.640   2.837   1.540
 6044SOL    HW219032   0.594   2.731   1.656
 6045SOL     OW19033   5.113   1.808   3.358
 6045SOL    HW119034   5.105   1.908   3.360
 6045SOL    HW219035   5.206   1.783   3.331
 6046SOL     OW19036   3.153   2.952   2.441
 6046SOL    HW119037   3.091   2.963   2.363
 6046SOL    HW219038   3.098   2.939   2.524
 6047SOL     OW19039   5.988   1.460   0.736
 6047SOL    HW119040   5.912   1.499   0.685
 6047SOL    HW219041   5.992   1.361   0.720
 6048SOL     OW19042   5.996   5.622   4.300
 6048SOL    HW119043   5.968   5.709   4.340
 6048SOL    HW219044   6.018   5.557   4.373
 6049SOL     OW19045   4.275   4.652   5.424
 6049SOL    HW119046   4.297   4.559   5.452
 6049SOL    HW219047   4.190   4.681   5.467
 6050SOL     OW19048   3.831   6.185   1.178
 6050SOL    HW119049   3.742   6.140   1.170
 6050SOL    HW219050   3.817   6.282   1.196
 6051SOL     OW19051   1.873   1.297   3.407
 6051SOL    HW119052   1.968   1.321   3.389
 6051SOL    HW219053   1.830   1.369   3.461
 6052SOL     OW19054   5.428   6.598   0.597
 6052SOL    HW119055   5.375   6.647   0.528
 6052SOL    HW219056   5.516   6.572   0.559
 6053SOL     OW19057   4.223   2.737   6.341
 6053SOL    HW119058   4.232   2.739   6.242
 6053SOL    HW219059   4.269   2.816   6.381
 6054SOL     OW19060   4.243   4.342   0.580
 6054SOL    HW119061   4.157   4.307   0.541
 6054SOL    HW219062   4.226   4.431   0.623
 6055SOL     OW19063   3.302   4.977   0.415
 6055SOL    HW119064   3.286   4.992   0.318
 6055SOL    HW219065   3.240   4.907   0.449
 6056SOL     OW19066   5.662   5.195   5.326
 6056SOL    HW119067   5.672   5.292   5.304
 6056SOL    HW219068   5.681   5.140   5.245
 6057SOL     OW19069   4.938   0.205   3.667
 6057SOL    HW119070   4.915   0.183   3.572
 6057SOL    HW219071   5.035   0.228   3.673
 6058SOL     OW19072   5.538   1.910   6.177
 6058SOL    HW119073   5.559   1.828   6.229
 6058SOL    HW219074   5.472   1.888   6.105
 6059SOL     OW19075   4.008   4.400   0.107
 6059SOL    HW119076   4.029   4.303   0.095
 6059SOL    HW219077   3.912   4.416   0.082
 6060SOL     OW19078   2.445   3.263   6.784
 6060SOL    HW119079   2.428   3.185   6.844
 6060SOL    HW219080   2.444   3.347   6.839
 6061SOL     OW19081   3.278   5.356   7.015
 6061SOL    HW119082   3.209   5.289   0.019
 6061SOL    HW219083   3.289   5.422   0.068
 6062SOL     OW19084   2.157   2.489   0.106
 6062SOL    HW119085   2.168   2.409   0.166
 6062SOL    HW219086   2.060   2.516   0.105
 6063SOL     OW19087   3.640   4.917   5.910
 6063SOL    HW119088   3.725   4.893   5.957
 6063SOL    HW219089   3.595   4.991   5.960
 6064SOL     OW19090   6.806   5.780   0.972
 6064SOL    HW119091   6.820   5.812   1.066
 6064SOL    HW219092   6.881   5.813   0.915
 6065SOL     OW19093   1.181   6.111   2.114
 6065SOL    HW119094   1.250   6.080   2.180
 6065SOL    HW219095   1.090   6.098   2.153
 6066SOL     OW19096   4.682   6.490   3.196
 6066SOL    HW119097   4.672   6.475   3.098
 6066SOL    HW219098   4.705   6.586   3.214
 6067SOL     OW19099   5.624   0.374   6.185
 6067SOL    HW119100   5.666   0.441   6.246
 6067SOL    HW219101   5.568   0.420   6.117
 6068SOL     OW19102   4.453   1.810   5.623
 6068SOL    HW119103   4.490   1.725   5.661
 6068SOL    HW219104   4.440   1.800   5.524
 6069SOL     OW19105   0.061   3.319   6.678
 6069SOL    HW119106   0.103   3.348   6.591
 6069SOL    HW219107   0.130   3.321   6.750
 6070SOL     OW19108   2.765   1.738   1.106
 6070SOL    HW119109   2.807   1.806   1.166
 6070SOL    HW219110   2.788   1.646   1.138
 6071SOL     OW19111   6.169   0.001   5.521
 6071SOL    HW119112   6.257   0.029   5.558
 6071SOL    HW219113   6.095   0.042   5.574
 6072SOL     OW19114   0.098   2.749   0.583
 6072SOL    HW119115   0.094   2.804   0.500
 6072SOL    HW219116   0.153   2.796   0.652
 6073SOL     OW19117   4.682   3.039   0.543
 6073SOL    HW119118   4.767   3.059   0.495
 6073SOL    HW219119   4.684   3.082   0.634
 6074SOL     OW19120   0.768   6.253   2.534
 6074SOL    HW119121   0.838   6.311   2.575
 6074SOL    HW219122   0.699   6.231   2.603
 6075SOL     OW19123   4.869   6.640   6.485
 6075SOL    HW119124   4.885   6.697   6.566
 6075SOL    HW219125   4.885   6.695   6.403
 6076SOL     OW19126   1.378   4.917   3.585
 6076SOL    HW119127   1.283   4.906   3.616
 6076SOL    HW219128   1.417   4.828   3.565
 6077SOL     OW19129   5.688   6.484   1.841
 6077SOL    HW119130   5.666   6.387   1.828
 6077SOL    HW219131   5.604   6.535   1.859
 6078SOL     OW19132   4.345   3.216   0.152
 6078SOL    HW119133   4.354   3.165   0.067
 6078SOL    HW219134   4.255   3.260   0.156
 6079SOL     OW19135   3.479   4.185   6.174
 6079SOL    HW119136   3.413   4.110   6.179
 6079SOL    HW219137   3.505   4.212   6.267
 6080SOL     OW19138   0.170   4.586   6.818
 6080SOL    HW119139   0.159   4.622   6.726
 6080SOL    HW219140   0.082   4.552   6.851
 6081SOL     OW19141   1.860   3.339   4.630
 6081SOL    HW119142   1.954   3.332   4.665
 6081SOL    HW219143   1.822   3.429   4.654
 6082SOL     OW19144   4.588   1.178   0.683
 6082SOL    HW119145   4.669   1.122   0.700
 6082SOL    HW219146   4.549   1.155   0.594
 6083SOL     OW19147   4.940   6.797   6.263
 6083SOL    HW119148   4.972   6.776   6.170
 6083SOL    HW219149   4.840   6.806   6.262
 6084SOL     OW19150   0.400   6.576   3.062
 6084SOL    HW119151   0.322   6.602   3.119
 6084SOL    HW219152   0.382   6.488   3.019
 6085SOL     OW19153   0.490   6.009   0.878
 6085SOL    HW119154   0.475   6.009   0.779
 6085SOL    HW219155   0.545   6.089   0.903
 6086SOL     OW19156   3.295   3.684   6.091
 6086SOL    HW119157   3.271   3.597   6.048
 6086SOL    HW219158   3.346   3.667   6.175
 6087SOL     OW19159   4.965   6.349   1.014
 6087SOL    HW119160   4.980   6.363   1.112
 6087SOL    HW219161   5.053   6.334   0.969
 6088SOL     OW19162   5.555   6.664   3.309
 6088SOL    HW119163   5.590   6.756   3.292
 6088SOL    HW219164   5.600   6.626   3.390
 6089SOL     OW19165   6.387   3.457   3.547
 6089SOL    HW119166   6.437   3.415   3.622
 6089SOL    HW219167   6.439   3.535   3.511
 6090SOL     OW19168   4.220   6.530   4.218
 6090SOL    HW119169   4.274   6.586   4.154
 6090SOL    HW219170   4.150   6.586   4.261
 6091SOL     OW19171   2.378   1.188   1.630
 6091SOL    HW119172   2.304   1.147   1.576
 6091SOL    HW219173   2.342   1.217   1.719
 6092SOL     OW19174   4.526   6.183   1.549
 6092SOL    HW119175   4.493   6.177   1.455
 6092SOL    HW219176   4.564   6.095   1.577
 6093SOL     OW19177   2.229   1.489   2.199
 6093SOL    HW119178   2.325   1.517   2.199
 6093SOL    HW219179   2.190   1.505   2.290
 6094SOL     OW19180   1.008   6.027   5.034
 6094SOL    HW119181   0.934   6.020   4.968
 6094SOL    HW219182   1.014   6.121   5.067
 6095SOL     OW19183   4.681   5.834   0.429
 6095SOL    HW119184   4.734   5.769   0.375
 6095SOL    HW219185   4.638   5.902   0.369
 6096SOL     OW19186   6.032   6.507   2.466
 6096SOL    HW119187   5.958   6.531   2.403
 6096SOL    HW219188   6.111   6.475   2.414
 6097SOL     OW19189   1.969   6.239   2.601
 6097SOL    HW119190   1.975   6.220   2.503
 6097SOL    HW219191   1.977   6.338   2.616
 6098SOL     OW19192   6.498   0.949   4.764
 6098SOL    HW119193   6.523   1.043   4.790
 6098SOL    HW219194   6.572   0.910   4.709
 6099SOL     OW19195   4.390   6.956   6.224
 6099SOL    HW119196   4.414   0.032   6.222
 6099SOL    HW219197   4.472   6.902   6.204
 6100SOL     OW19198   0.032   5.793   4.461
 6100SOL    HW119199   6.965   5.780   4.416
 6100SOL    HW219200   0.070   5.882   4.435
 6101SOL     OW19201   6.115   2.478   1.199
 6101SOL    HW119202   6.103   2.381   1.220
 6101SOL    HW219203   6.029   2.526   1.213
 6102SOL     OW19204   4.425   6.915   2.775
 6102SOL    HW119205   4.420   7.015   2.771
 6102SOL    HW219206   4.426   6.886   2.871
 6103SOL     OW19207   0.089   1.462   1.455
 6103SOL    HW119208   0.023   1.421   1.393
 6103SOL    HW219209   0.176   1.477   1.407
 6104SOL     OW19210   6.604   0.750   4.437
 6104SOL    HW119211   6.638   0.822   4.498
 6104SOL    HW219212   6.616   0.779   4.342
 6105SOL     OW19213   2.829   4.942   5.538
 6105SOL    HW119214   2.765   5.015   5.563
 6105SOL    HW219215   2.799   4.898   5.453
 6106SOL     OW19216   6.425   4.703   0.013
 6106SOL    HW119217   6.406   4.605   0.000
 6106SOL    HW219218   6.523   4.719   0.005
 6107SOL     OW19219   4.928   4.874   5.546
 6107SOL    HW119220   4.949   4.966   5.580
 6107SOL    HW219221   4.890   4.880   5.454
 6108SOL     OW19222   2.076   1.730   1.069
 6108SOL    HW119223   2.176   1.740   1.073
 6108SOL    HW219224   2.049   1.651   1.125
 6109SOL     OW19225   6.312   6.557   3.170
 6109SOL    HW119226   6.250   6.536   3.246
 6109SOL    HW219227   6.297   6.492   3.096
 6110SOL     OW19228   1.700   1.566   4.936
 6110SOL    HW119229   1.757   1.647   4.921
 6110SOL    HW219230   1.733   1.490   4.880
 6111SOL     OW19231   1.979   4.429   1.196
 6111SOL    HW119232   1.991   4.387   1.106
 6111SOL    HW219233   2.063   4.477   1.221
 6112SOL     OW19234   4.431   0.167   2.749
 6112SOL    HW119235   4.522   0.185   2.714
 6112SOL    HW219236   4.364   0.221   2.698
 6113SOL     OW19237   2.172   5.687   0.075
 6113SOL    HW119238   2.169   5.589   0.057
 6113SOL    HW219239   2.259   5.711   0.117
 6114SOL     OW19240   5.152   1.443   0.306
 6114SOL    HW119241   5.124   1.507   0.378
 6114SOL    HW219242   5.251   1.430   0.311
 6115SOL     OW19243   0.811   0.606   5.083
 6115SOL    HW119244   0.818   0.574   4.989
 6115SOL    HW219245   0.720   0.647   5.098
 6116SOL     OW19246   4.726   1.812   4.781
 6116SOL    HW119247   4.658   1.881   4.804
 6116SOL    HW219248   4.815   1.856   4.766
 6117SOL     OW19249   1.536   1.816   1.885
 6117SOL    HW119250   1.458   1.867   1.849
 6117SOL    HW219251   1.606   1.806   1.814
 6118SOL     OW19252   6.053   0.603   0.097
 6118SOL    HW119253   6.151   0.588   0.086
 6118SOL    HW219254   6.025   0.571   0.187
 6119SOL     OW19255   6.531   1.723   0.933
 6119SOL    HW119256   6.533   1.625   0.947
 6119SOL    HW219257   6.486   1.743   0.846
 6120SOL     OW19258   2.183   1.121   5.453
 6120SOL    HW119259   2.232   1.035   5.439
 6120SOL    HW219260   2.087   1.102   5.472
 6121SOL     OW19261   0.323   3.224   5.039
 6121SOL    HW119262   0.305   3.136   4.994
 6121SOL    HW219263   0.387   3.211   5.114
 6122SOL     OW19264   5.270   5.712   5.425
 6122SOL    HW119265   5.211   5.750   5.496
 6122SOL    HW219266   5.309   5.625   5.457
 6123SOL     OW19267   5.741   1.908   5.607
 6123SOL    HW119268   5.693   1.918   5.694
 6123SOL    HW219269   5.817   1.844   5.619
 6124SOL     OW19270   2.117   0.106   4.128
 6124SOL    HW119271   2.172   0.035   4.085
 6124SOL    HW219272   2.158   0.132   4.215
 6125SOL     OW19273   2.001   2.199   6.621
 6125SOL    HW119274   1.969   2.108   6.594
 6125SOL    HW219275   2.068   2.190   6.695
 6126SOL     OW19276   6.379   3.050   5.431
 6126SOL    HW119277   6.399   2.981   5.362
 6126SOL    HW219278   6.408   3.140   5.398
 6127SOL     OW19279   3.874   1.996   1.644
 6127SOL    HW119280   3.777   1.972   1.648
 6127SOL    HW219281   3.927   1.917   1.615
 6128SOL     OW19282   5.706   6.260   0.407
 6128SOL    HW119283   5.694   6.243   0.309
 6128SOL    HW219284   5.796   6.228   0.435
 6129SOL     OW19285   1.957   5.560   2.996
 6129SOL    HW119286   2.008   5.476   3.015
 6129SOL    HW219287   1.867   5.537   2.959
 6130SOL     OW19288   4.914   2.711   1.270
 6130SOL    HW119289   4.896   2.613   1.284
 6130SOL    HW219290   5.004   2.722   1.228
 6131SOL     OW19291   0.172   2.011   2.202
 6131SOL    HW119292   0.126   1.948   2.264
 6131SOL    HW219293   0.203   2.091   2.253
 6132SOL     OW19294   3.461   1.608   6.488
 6132SOL    HW119295   3.394   1.555   6.436
 6132SOL    HW219296   3.491   1.555   6.567
 6133SOL     OW19297   1.985   1.900   3.742
 6133SOL    HW119298   2.000   1.867   3.649
 6133SOL    HW219299   2.004   1.998   3.746
 6134SOL     OW19300   4.945   6.595   5.856
 6134SOL    HW119301   4.982   6.511   5.816
 6134SOL    HW219302   4.927   6.661   5.783
 6135SOL     OW19303   6.174   0.086   0.039
 6135SOL    HW119304   6.142   0.031   6.984
 6135SOL    HW219305   6.186   0.181   0.010
 6136SOL     OW19306   1.398   2.766   2.139
 6136SOL    HW119307   1.376   2.668   2.138
 6136SOL    HW219308   1.487   2.781   2.096
 6137SOL     OW19309   6.822   4.198   2.495
 6137SOL    HW119310   6.854   4.269   2.432
 6137SOL    HW219311   6.733   4.165   2.463
 6138SOL     OW19312   2.681   0.064   1.855
 6138SOL    HW119313   2.745   7.016   1.824
 6138SOL    HW219314   2.602   0.067   1.793
 6139SOL     OW19315   2.019   0.282   5.810
 6139SOL    HW119316   2.098   0.292   5.750
 6139SOL    HW219317   2.024   0.193   5.857
 6140SOL     OW19318   1.732   0.508   3.872
 6140SOL    HW119319   1.797   0.433   3.884
 6140SOL    HW219320   1.649   0.490   3.926
 6141SOL     OW19321   0.160   0.465   5.656
 6141SOL    HW119322   0.229   0.494   5.723
 6141SOL    HW219323   0.134   0.371   5.675
 6142SOL     OW19324   0.919   0.155   0.658
 6142SOL    HW119325   0.961   0.081   0.605
 6142SOL    HW219326   0.903   0.124   0.751
 6143SOL     OW19327   6.254   4.046   6.298
 6143SOL    HW119328   6.342   4.021   6.339
 6143SOL    HW219329   6.262   4.135   6.254
 6144SOL     OW19330   4.465   4.867   2.668
 6144SOL    HW119331   4.523   4.942   2.634
 6144SOL    HW219332   4.418   4.824   2.591
 6145SOL     OW19333   4.909   3.290   4.564
 6145SOL    HW119334   4.887   3.332   4.476
 6145SOL    HW219335   4.981   3.342   4.610
 6146SOL     OW19336   5.155   0.577   5.087
 6146SOL    HW119337   5.067   0.576   5.135
 6146SOL    HW219338   5.150   0.640   5.010
 6147SOL     OW19339   2.017   2.407   4.014
 6147SOL    HW119340   2.103   2.429   4.061
 6147SOL    HW219341   1.982   2.490   3.969
 6148SOL     OW19342   3.135   5.812   0.385
 6148SOL    HW119343   3.189   5.765   0.456
 6148SOL    HW219344   3.142   5.760   0.299
 6149SOL     OW19345   2.618   6.933   2.073
 6149SOL    HW119346   2.665   6.982   2.000
 6149SOL    HW219347   2.683   6.910   2.145
 6150SOL     OW19348   6.321   4.388   6.411
 6150SOL    HW119349   6.347   4.425   6.322
 6150SOL    HW219350   6.372   4.436   6.483
 6151SOL     OW19351   4.482   4.588   4.544
 6151SOL    HW119352   4.566   4.533   4.539
 6151SOL    HW219353   4.436   4.587   4.456
 6152SOL     OW19354   0.633   4.417   4.160
 6152SOL    HW119355   0.612   4.370   4.246
 6152SOL    HW219356   0.729   4.401   4.136
 6153SOL     OW19357   4.930   4.978   0.875
 6153SOL    HW119358   4.951   5.061   0.824
 6153SOL    HW219359   4.986   4.902   0.841
 6154SOL     OW19360   5.988   3.091   2.588
 6154SOL    HW119361   5.898   3.128   2.564
 6154SOL    HW219362   5.981   3.039   2.673
 6155SOL     OW19363   2.403   1.257   2.775
 6155SOL    HW119364   2.436   1.169   2.741
 6155SOL    HW219365   2.303   1.256   2.778
 6156SOL     OW19366   5.100   4.693   1.588
 6156SOL    HW119367   5.059   4.617   1.538
 6156SOL    HW219368   5.197   4.699   1.566
 6157SOL     OW19369   1.529   2.255   2.740
 6157SOL    HW119370   1.523   2.281   2.644
 6157SOL    HW219371   1.615   2.207   2.757
 6158SOL     OW19372   2.612   2.608   5.484
 6158SOL    HW119373   2.579   2.688   5.435
 6158SOL    HW219374   2.711   2.599   5.470
 6159SOL     OW19375   5.646   2.416   0.041
 6159SOL    HW119376   5.725   2.436   7.004
 6159SOL    HW219377   5.635   2.317   0.049
 6160SOL     OW19378   1.049   0.073   6.913
 6160SOL    HW119379   1.031   0.101   6.819
 6160SOL    HW219380   1.106   7.013   6.913
 6161SOL     OW19381   4.609   2.262   6.587
 6161SOL    HW119382   4.623   2.360   6.572
 6161SOL    HW219383   4.656   2.234   6.671
 6162SOL     OW19384   6.329   5.371   2.491
 6162SOL    HW119385   6.313   5.465   2.460
 6162SOL    HW219386   6.268   5.351   2.568
 6163SOL     OW19387   5.297   6.153   3.048
 6163SOL    HW119388   5.355   6.146   3.130
 6163SOL    HW219389   5.211   6.105   3.064
 6164SOL     OW19390   4.059   3.834   4.378
 6164SOL    HW119391   4.045   3.765   4.306
 6164SOL    HW219392   4.100   3.790   4.458
 6165SOL     OW19393   4.136   2.001   0.608
 6165SOL    HW119394   4.088   1.932   0.555
 6165SOL    HW219395   4.076   2.080   0.621
 6166SOL     OW19396   0.521   2.487   0.142
 6166SOL    HW119397   0.615   2.458   0.163
 6166SOL    HW219398   0.523   2.575   0.095
 6167SOL     OW19399   1.331   3.516   3.372
 6167SOL    HW119400   1.273   3.455   3.425
 6167SOL    HW219401   1.275   3.563   3.303
 6168SOL     OW19402   0.898   3.386   4.132
 6168SOL    HW119403   0.892   3.368   4.034
 6168SOL    HW219404   0.811   3.422   4.164
 6169SOL     OW19405   2.358   0.071   0.403
 6169SOL    HW119406   2.295   0.114   0.468
 6169SOL    HW219407   2.324   0.087   0.310
 6170SOL     OW19408   3.766   4.476   0.029
 6170SOL    HW119409   3.760   4.571   0.059
 6170SOL    HW219410   3.679   4.430   0.047
 6171SOL     OW19411   1.275   4.844   2.386
 6171SOL    HW119412   1.368   4.807   2.392
 6171SOL    HW219413   1.259   4.877   2.293
 6172SOL     OW19414   1.075   6.675   3.006
 6172SOL    HW119415   1.024   6.760   3.020
 6172SOL    HW219416   1.022   6.598   3.042
 6173SOL     OW19417   0.923   4.755   3.154
 6173SOL    HW119418   0.929   4.842   3.106
 6173SOL    HW219419   0.843   4.705   3.122
 6174SOL     OW19420   5.573   5.257   2.722
 6174SOL    HW119421   5.506   5.205   2.773
 6174SOL    HW219422   5.642   5.195   2.684
 6175SOL     OW19423   4.608   0.668   3.409
 6175SOL    HW119424   4.639   0.748   3.358
 6175SOL    HW219425   4.575   0.697   3.499
 6176SOL     OW19426   5.775   2.959   6.461
 6176SOL    HW119427   5.717   2.939   6.382
 6176SOL    HW219428   5.857   3.008   6.430
 6177SOL     OW19429   5.521   2.346   1.263
 6177SOL    HW119430   5.504   2.307   1.353
 6177SOL    HW219431   5.586   2.288   1.213
 6178SOL     OW19432   5.211   3.671   0.801
 6178SOL    HW119433   5.288   3.624   0.758
 6178SOL    HW219434   5.144   3.696   0.732
 6179SOL     OW19435   0.482   2.691   5.321
 6179SOL    HW119436   0.396   2.670   5.276
 6179SOL    HW219437   0.556   2.690   5.254
 6180SOL     OW19438   3.936   0.090   1.349
 6180SOL    HW119439   3.958   0.040   1.432
 6180SOL    HW219440   3.941   0.188   1.366
 6181SOL     OW19441   5.019   6.178   6.358
 6181SOL    HW119442   5.017   6.098   6.418
 6181SOL    HW219443   5.113   6.211   6.351
 6182SOL     OW19444   4.937   5.658   5.960
 6182SOL    HW119445   4.856   5.623   5.913
 6182SOL    HW219446   4.958   5.750   5.929
 6183SOL     OW19447   2.424   6.780   3.176
 6183SOL    HW119448   2.405   6.878   3.178
 6183SOL    HW219449   2.523   6.765   3.165
 6184SOL     OW19450   0.884   0.475   6.384
 6184SOL    HW119451   0.913   0.570   6.393
 6184SOL    HW219452   0.809   0.468   6.318
 6185SOL     OW19453   6.924   3.418   6.275
 6185SOL    HW119454   6.963   3.508   6.260
 6185SOL    HW219455   6.835   3.412   6.230
 6186SOL     OW19456   5.374   0.225   4.023
 6186SOL    HW119457   5.358   0.324   4.031
 6186SOL    HW219458   5.353   0.180   4.109
 6187SOL     OW19459   4.405   4.625   4.031
 6187SOL    HW119460   4.388   4.656   3.938
 6187SOL    HW219461   4.489   4.571   4.033
 6188SOL     OW19462   2.780   6.321   1.507
 6188SOL    HW119463   2.736   6.287   1.423
 6188SOL    HW219464   2.845   6.253   1.540
 6189SOL     OW19465   5.388   5.288   3.083
 6189SOL    HW119466   5.390   5.346   3.164
 6189SOL    HW219467   5.409   5.343   3.002
 6190SOL     OW19468   5.162   2.381   6.607
 6190SOL    HW119469   5.149   2.345   6.515
 6190SOL    HW219470   5.249   2.348   6.644
 6191SOL     OW19471   5.644   1.722   6.911
 6191SOL    HW119472   5.557   1.752   6.949
 6191SOL    HW219473   5.629   1.644   6.850
 6192SOL     OW19474   2.663   3.093   0.155
 6192SOL    HW119475   2.570   3.092   0.118
 6192SOL    HW219476   2.659   3.103   0.255
 6193SOL     OW19477   5.761   0.197   1.945
 6193SOL    HW119478   5.749   0.264   1.872
 6193SOL    HW219479   5.849   0.212   1.990
 6194SOL     OW19480   2.730   0.410   0.879
 6194SOL    HW119481   2.719   0.508   0.863
 6194SOL    HW219482   2.664   0.359   0.824
 6195SOL     OW19483   3.548   6.702   6.306
 6195SOL    HW119484   3.508   6.613   6.283
 6195SOL    HW219485   3.616   6.690   6.379
 6196SOL     OW19486   0.725   2.156   5.895
 6196SOL    HW119487   0.648   2.176   5.835
 6196SOL    HW219488   0.811   2.170   5.844
 6197SOL     OW19489   3.057   4.173   0.748
 6197SOL    HW119490   3.112   4.255   0.761
 6197SOL    HW219491   3.080   4.105   0.818
 6198SOL     OW19492   3.640   4.874   2.668
 6198SOL    HW119493   3.656   4.858   2.571
 6198SOL    HW219494   3.720   4.846   2.721
 6199SOL     OW19495   1.643   0.057   0.641
 6199SOL    HW119496   1.701   0.029   0.718
 6199SOL    HW219497   1.688   0.031   0.556
 6200SOL     OW19498   3.299   0.767   6.412
 6200SOL    HW119499   3.352   0.797   6.333
 6200SOL    HW219500   3.339   0.684   6.450
 6201SOL     OW19501   2.249   3.555   5.479
 6201SOL    HW119502   2.237   3.568   5.381
 6201SOL    HW219503   2.258   3.644   5.523
 6202SOL     OW19504   2.855   1.866   1.365
 6202SOL    HW119505   2.770   1.913   1.340
 6202SOL    HW219506   2.833   1.779   1.410
 6203SOL     OW19507   5.085   0.957   4.427
 6203SOL    HW119508   5.087   1.028   4.356
 6203SOL    HW219509   4.996   0.910   4.424
 6204SOL     OW19510   1.773   5.778   5.138
 6204SOL    HW119511   1.797   5.866   5.097
 6204SOL    HW219512   1.674   5.776   5.156
 6205SOL     OW19513   4.722   5.621   6.559
 6205SOL    HW119514   4.816   5.625   6.524
 6205SOL    HW219515   4.669   5.557   6.503
 6206SOL     OW19516   5.942   0.439   2.635
 6206SOL    HW119517   5.885   0.413   2.556
 6206SOL    HW219518   5.988   0.526   2.615
 6207SOL     OW19519   1.247   4.087   4.584
 6207SOL    HW119520   1.225   4.057   4.677
 6207SOL    HW219521   1.231   4.185   4.576
 6208SOL     OW19522   6.157   0.150   6.400
 6208SOL    HW119523   6.111   0.223   6.449
 6208SOL    HW219524   6.141   0.161   6.301
 6209SOL     OW19525   4.612   6.396   0.264
 6209SOL    HW119526   4.640   6.300   0.266
 6209SOL    HW219527   4.692   6.455   0.272
 6210SOL     OW19528   5.463   4.272   3.277
 6210SOL    HW119529   5.544   4.236   3.324
 6210SOL    HW219530   5.478   4.267   3.178
 6211SOL     OW19531   2.601   0.388   5.130
 6211SOL    HW119532   2.649   0.329   5.195
 6211SOL    HW219533   2.506   0.355   5.121
 6212SOL     OW19534   6.359   5.980   3.691
 6212SOL    HW119535   6.374   5.901   3.632
 6212SOL    HW219536   6.309   6.050   3.641
 6213SOL     OW19537   5.933   0.576   6.886
 6213SOL    HW119538   5.987   0.618   6.812
 6213SOL    HW219539   5.977   0.595   6.974
 6214SOL     OW19540   6.365   4.943   2.549
 6214SOL    HW119541   6.414   5.003   2.486
 6214SOL    HW219542   6.359   4.986   2.639
 6215SOL     OW19543   3.110   2.909   1.211
 6215SOL    HW119544   3.171   2.982   1.179
 6215SOL    HW219545   3.163   2.844   1.267
 6216SOL     OW19546   6.006   1.706   2.428
 6216SOL    HW119547   5.997   1.803   2.401
 6216SOL    HW219548   5.981   1.696   2.524
 6217SOL     OW19549   4.598   2.044   1.003
 6217SOL    HW119550   4.674   2.043   1.068
 6217SOL    HW219551   4.580   2.138   0.974
 6218SOL     OW19552   2.456   5.080   4.725
 6218SOL    HW119553   2.433   4.996   4.678
 6218SOL    HW219554   2.451   5.157   4.661
 6219SOL     OW19555   1.049   2.520   5.268
 6219SOL    HW119556   1.124   2.454   5.258
 6219SOL    HW219557   1.026   2.559   5.179
 6220SOL     OW19558   2.191   4.767   5.101
 6220SOL    HW119559   2.274   4.801   5.057
 6220SOL    HW219560   2.212   4.736   5.194
 6221SOL     OW19561   3.991   5.369   4.687
 6221SOL    HW119562   4.060   5.322   4.632
 6221SOL    HW219563   3.921   5.304   4.716
 6222SOL     OW19564   6.731   6.841   2.061
 6222SOL    HW119565   6.778   6.875   1.979
 6222SOL    HW219566   6.798   6.797   2.121
 6223SOL     OW19567   5.441   3.786   4.455
 6223SOL    HW119568   5.494   3.808   4.373
 6223SOL    HW219569   5.475   3.701   4.495
 6224SOL     OW19570   2.173   1.146   5.183
 6224SOL    HW119571   2.174   1.133   5.282
 6224SOL    HW219572   2.267   1.158   5.150
 6225SOL     OW19573   3.502   3.537   0.824
 6225SOL    HW119574   3.505   3.478   0.904
 6225SOL    HW219575   3.537   3.488   0.745
 6226SOL     OW19576   5.560   0.990   4.301
 6226SOL    HW119577   5.648   0.999   4.254
 6226SOL    HW219578   5.485   1.005   4.236
 6227SOL     OW19579   3.783   4.247   5.926
 6227SOL    HW119580   3.691   4.280   5.902
 6227SOL    HW219581   3.777   4.153   5.959
 6228SOL     OW19582   0.119   1.611   3.304
 6228SOL    HW119583   0.040   1.610   3.243
 6228SOL    HW219584   0.175   1.530   3.288
 6229SOL     OW19585   2.593   2.121   3.096
 6229SOL    HW119586   2.668   2.188   3.098
 6229SOL    HW219587   2.567   2.098   3.190
 6230SOL     OW19588   2.104   2.082   4.059
 6230SOL    HW119589   2.084   2.180   4.062
 6230SOL    HW219590   2.149   2.061   3.972
 6231SOL     OW19591   0.360   5.312   1.415
 6231SOL    HW119592   0.388   5.400   1.376
 6231SOL    HW219593   0.294   5.269   1.353
 6232SOL     OW19594   0.444   0.307   0.531
 6232SOL    HW119595   0.409   0.318   0.623
 6232SOL    HW219596   0.522   0.244   0.532
 6233SOL     OW19597   4.857   1.809   6.290
 6233SOL    HW119598   4.919   1.832   6.215
 6233SOL    HW219599   4.871   1.713   6.316
 6234SOL     OW19600   1.599   2.035   4.803
 6234SOL    HW119601   1.663   2.048   4.728
 6234SOL    HW219602   1.620   2.099   4.877
 6235SOL     OW19603   1.639   0.187   2.701
 6235SOL    HW119604   1.590   0.169   2.616
 6235SOL    HW219605   1.729   0.225   2.680
 6236SOL     OW19606   0.277   5.050   0.875
 6236SOL    HW119607   0.211   5.123   0.895
 6236SOL    HW219608   0.366   5.074   0.914
 6237SOL     OW19609   4.811   6.549   0.828
 6237SOL    HW119610   4.718   6.523   0.855
 6237SOL    HW219611   4.875   6.519   0.899
 6238SOL     OW19612   5.193   5.418   2.131
 6238SOL    HW119613   5.269   5.359   2.102
 6238SOL    HW219614   5.137   5.369   2.199
 6239SOL     OW19615   2.707   6.886   2.628
 6239SOL    HW119616   2.615   6.879   2.589
 6239SOL    HW219617   2.768   6.930   2.563
 6240SOL     OW19618   2.000   3.266   0.631
 6240SOL    HW119619   2.014   3.365   0.635
 6240SOL    HW219620   2.023   3.232   0.539
 6241SOL     OW19621   2.498   0.615   1.612
 6241SOL    HW119622   2.517   0.642   1.518
 6241SOL    HW219623   2.537   0.525   1.630
 6242SOL     OW19624   5.066   1.951   3.706
 6242SOL    HW119625   5.011   1.903   3.637
 6242SOL    HW219626   5.160   1.958   3.675
 6243SOL     OW19627   5.783   6.877   4.555
 6243SOL    HW119628   5.685   6.860   4.563
 6243SOL    HW219629   5.808   6.884   4.458
 6244SOL     OW19630   2.578   2.050   2.531
 6244SOL    HW119631   2.516   2.128   2.547
 6244SOL    HW219632   2.618   2.022   2.618
 6245SOL     OW19633   3.000   4.737   1.180
 6245SOL    HW119634   2.967   4.671   1.248
 6245SOL    HW219635   3.093   4.765   1.204
 6246SOL     OW19636   2.575   1.835   5.862
 6246SOL    HW119637   2.636   1.765   5.826
 6246SOL    HW219638   2.492   1.838   5.806
 6247SOL     OW19639   0.349   6.749   3.510
 6247SOL    HW119640   0.265   6.741   3.565
 6247SOL    HW219641   0.413   6.677   3.537
 6248SOL     OW19642   0.598   4.704   1.322
 6248SOL    HW119643   0.627   4.624   1.375
 6248SOL    HW219644   0.555   4.771   1.383
 6249SOL     OW19645   6.864   4.048   0.100
 6249SOL    HW119646   6.874   4.121   0.167
 6249SOL    HW219647   6.786   3.991   0.124
 6250SOL     OW19648   6.317   6.374   0.027
 6250SOL    HW119649   6.341   6.379   6.952
 6250SOL    HW219650   6.306   6.466   0.063
 6251SOL     OW19651   4.650   1.306   0.996
 6251SOL    HW119652   4.643   1.380   1.063
 6251SOL    HW219653   4.644   1.343   0.904
 6252SOL     OW19654   3.009   4.991   5.049
 6252SOL    HW119655   3.054   4.909   5.085
 6252SOL    HW219656   3.078   5.051   5.008
 6253SOL     OW19657   2.291   4.178   1.961
 6253SOL    HW119658   2.209   4.204   1.911
 6253SOL    HW219659   2.372   4.204   1.908
 6254SOL     OW19660   5.759   0.308   0.325
 6254SOL    HW119661   5.666   0.280   0.348
 6254SOL    HW219662   5.821   0.278   0.397
 6255SOL     OW19663   0.620   1.036   1.953
 6255SOL    HW119664   0.605   1.037   1.854
 6255SOL    HW219665   0.710   0.997   1.973
 6256SOL     OW19666   4.121   5.080   2.607
 6256SOL    HW119667   4.152   5.061   2.700
 6256SOL    HW219668   4.199   5.105   2.550
 6257SOL     OW19669   5.302   2.556   0.789
 6257SOL    HW119670   5.272   2.615   0.865
 6257SOL    HW219671   5.374   2.603   0.738
 6258SOL     OW19672   4.527   1.335   2.063
 6258SOL    HW119673   4.554   1.367   2.154
 6258SOL    HW219674   4.455   1.266   2.072
 6259SOL     OW19675   3.170   2.483   1.680
 6259SOL    HW119676   3.217   2.396   1.666
 6259SOL    HW219677   3.103   2.474   1.754
 6260SOL     OW19678   3.769   4.099   0.168
 6260SOL    HW119679   3.803   4.086   0.261
 6260SOL    HW219680   3.799   4.188   0.133
 6261SOL     OW19681   3.942   0.837   0.379
 6261SOL    HW119682   3.968   0.747   0.414
 6261SOL    HW219683   3.906   0.826   0.286
 6262SOL     OW19684   1.282   4.641   0.087
 6262SOL    HW119685   1.347   4.630   0.012
 6262SOL    HW219686   1.331   4.666   0.170
 6263SOL     OW19687   0.023   7.014   0.668
 6263SOL    HW119688   6.978   0.064   0.651
 6263SOL    HW219689   0.087   7.008   0.591
 6264SOL     OW19690   2.602   2.036   1.068
 6264SOL    HW119691   2.636   1.949   1.032
 6264SOL    HW219692   2.666   2.110   1.044
 6265SOL     OW19693   4.059   4.312   1.112
 6265SOL    HW119694   4.007   4.227   1.127
 6265SOL    HW219695   4.130   4.297   1.043
 6266SOL     OW19696   3.256   0.781   3.334
 6266SOL    HW119697   3.313   0.770   3.415
 6266SOL    HW219698   3.237   0.692   3.294
 6267SOL     OW19699   3.049   0.437   7.001
 6267SOL    HW119700   3.009   0.365   0.037
 6267SOL    HW219701   3.007   0.525   0.002
 6268SOL     OW19702   3.032   4.875   2.774
 6268SOL    HW119703   3.005   4.969   2.794
 6268SOL    HW219704   2.954   4.813   2.791
 6269SOL     OW19705   5.624   6.210   1.892
 6269SOL    HW119706   5.583   6.143   1.953
 6269SOL    HW219707   5.649   6.167   1.806
 6270SOL     OW19708   1.566   0.874   4.875
 6270SOL    HW119709   1.504   0.920   4.939
 6270SOL    HW219710   1.559   0.916   4.785
 6271SOL     OW19711   0.304   2.066   0.169
 6271SOL    HW119712   0.346   2.150   0.134
 6271SOL    HW219713   0.370   1.992   0.166
 6272SOL     OW19714   2.504   2.574   4.210
 6272SOL    HW119715   2.455   2.623   4.282
 6272SOL    HW219716   2.508   2.631   4.128
 6273SOL     OW19717   2.343   1.894   1.333
 6273SOL    HW119718   2.307   1.859   1.246
 6273SOL    HW219719   2.275   1.953   1.376
 6274SOL     OW19720   3.363   5.797   6.738
 6274SOL    HW119721   3.408   5.801   6.827
 6274SOL    HW219722   3.327   5.704   6.724
 6275SOL     OW19723   2.194   0.048   4.775
 6275SOL    HW119724   2.128   0.051   4.700
 6275SOL    HW219725   2.287   0.053   4.737
 6276SOL     OW19726   1.107   5.707   3.523
 6276SOL    HW119727   1.156   5.672   3.602
 6276SOL    HW219728   1.172   5.726   3.449
 6277SOL     OW19729   5.527   2.594   2.457
 6277SOL    HW119730   5.442   2.629   2.497
 6277SOL    HW219731   5.600   2.600   2.525
 6278SOL     OW19732   4.886   0.112   4.388
 6278SOL    HW119733   4.798   0.157   4.376
 6278SOL    HW219734   4.891   0.073   4.479
 6279SOL     OW19735   3.926   1.523   1.038
 6279SOL    HW119736   3.901   1.619   1.023
 6279SOL    HW219737   4.023   1.518   1.064
 6280SOL     OW19738   0.231   4.048   5.831
 6280SOL    HW119739   0.294   4.077   5.759
 6280SOL    HW219740   0.196   4.128   5.880
 6281SOL     OW19741   1.904   0.517   5.402
 6281SOL    HW119742   1.845   0.470   5.468
 6281SOL    HW219743   1.849   0.579   5.346
 6282SOL     OW19744   1.833   0.170   4.105
 6282SOL    HW119745   1.923   0.128   4.098
 6282SOL    HW219746   1.791   0.174   4.015
 6283SOL     OW19747   0.024   2.547   5.237
 6283SOL    HW119748   0.080   2.575   5.316
 6283SOL    HW219749   0.078   2.487   5.178
 6284SOL     OW19750   1.262   4.673   5.252
 6284SOL    HW119751   1.311   4.753   5.288
 6284SOL    HW219752   1.325   4.596   5.245
 6285SOL     OW19753   1.379   2.926   3.775
 6285SOL    HW119754   1.290   2.927   3.821
 6285SOL    HW219755   1.427   2.842   3.797
 6286SOL     OW19756   5.255   1.356   3.599
 6286SOL    HW119757   5.336   1.342   3.542
 6286SOL    HW219758   5.173   1.338   3.545
 6287SOL     OW19759   4.802   3.789   1.865
 6287SOL    HW119760   4.808   3.689   1.859
 6287SOL    HW219761   4.833   3.829   1.779
 6288SOL     OW19762   5.145   3.901   0.224
 6288SOL    HW119763   5.090   3.956   0.161
 6288SOL    HW219764   5.099   3.814   0.241
 6289SOL     OW19765   1.726   1.924   3.925
 6289SOL    HW119766   1.758   1.969   4.009
 6289SOL    HW219767   1.796   1.931   3.855
 6290SOL     OW19768   4.958   4.032   3.840
 6290SOL    HW119769   5.008   4.101   3.787
 6290SOL    HW219770   4.887   3.991   3.783
 6291SOL     OW19771   3.685   3.719   3.296
 6291SOL    HW119772   3.599   3.738   3.344
 6291SOL    HW219773   3.733   3.806   3.280
 6292SOL     OW19774   1.135   1.796   2.668
 6292SOL    HW119775   1.115   1.760   2.759
 6292SOL    HW219776   1.171   1.889   2.676
 6293SOL     OW19777   5.214   0.093   0.031
 6293SOL    HW119778   5.215   0.156   6.976
 6293SOL    HW219779   5.192   0.142   0.115
 6294SOL     OW19780   3.578   5.180   2.779
 6294SOL    HW119781   3.574   5.080   2.773
 6294SOL    HW219782   3.662   5.212   2.736
 6295SOL     OW19783   5.721   5.722   5.949
 6295SOL    HW119784   5.708   5.624   5.959
 6295SOL    HW219785   5.643   5.771   5.987
 6296SOL     OW19786   6.604   0.776   3.130
 6296SOL    HW119787   6.606   0.676   3.122
 6296SOL    HW219788   6.512   0.806   3.154
 6297SOL     OW19789   5.380   5.883   5.781
 6297SOL    HW119790   5.452   5.860   5.847
 6297SOL    HW219791   5.370   5.983   5.777
 6298SOL     OW19792   0.558   3.262   5.211
 6298SOL    HW119793   0.507   3.248   5.296
 6298SOL    HW219794   0.627   3.333   5.224
 6299SOL     OW19795   6.204   2.580   6.361
 6299SOL    HW119796   6.269   2.563   6.435
 6299SOL    HW219797   6.165   2.493   6.331
 6300SOL     OW19798   4.674   0.982   4.223
 6300SOL    HW119799   4.644   1.071   4.259
 6300SOL    HW219800   4.673   0.915   4.297
 6301SOL     OW19801   3.086   6.752   1.286
 6301SOL    HW119802   3.048   6.844   1.278
 6301SOL    HW219803   3.022   6.686   1.246
 6302SOL     OW19804   1.895   0.846   3.760
 6302SOL    HW119805   1.869   0.893   3.676
 6302SOL    HW219806   1.844   0.760   3.767
 6303SOL     OW19807   1.947   6.522   4.977
 6303SOL    HW119808   1.862   6.499   5.024
 6303SOL    HW219809   1.933   6.606   4.923
 6304SOL     OW19810   2.576   1.374   0.292
 6304SOL    HW119811   2.657   1.401   0.240
 6304SOL    HW219812   2.520   1.312   0.236
 6305SOL     OW19813   6.848   0.038   1.194
 6305SOL    HW119814   6.874   0.006   1.285
 6305SOL    HW219815   6.878   0.132   1.181
 6306SOL     OW19816   6.793   2.851   3.952
 6306SOL    HW119817   6.727   2.842   4.027
 6306SOL    HW219818   6.751   2.818   3.867
 6307SOL     OW19819   2.337   5.267   6.652
 6307SOL    HW119820   2.350   5.270   6.751
 6307SOL    HW219821   2.270   5.196   6.630
 6308SOL     OW19822   2.763   1.736   4.875
 6308SOL    HW119823   2.762   1.824   4.922
 6308SOL    HW219824   2.823   1.673   4.924
 6309SOL     OW19825   5.565   2.374   3.919
 6309SOL    HW119826   5.592   2.440   3.849
 6309SOL    HW219827   5.526   2.293   3.876
 6310SOL     OW19828   1.228   4.902   4.979
 6310SOL    HW119829   1.296   4.903   5.052
 6310SOL    HW219830   1.154   4.839   5.002
 6311SOL     OW19831   6.180   0.245   5.156
 6311SOL    HW119832   6.099   0.190   5.132
 6311SOL    HW219833   6.260   0.186   5.158
 6312SOL     OW19834   4.458   5.409   6.191
 6312SOL    HW119835   4.507   5.330   6.154
 6312SOL    HW219836   4.445   5.397   6.289
 6313SOL     OW19837   2.132   5.692   3.544
 6313SOL    HW119838   2.131   5.776   3.597
 6313SOL    HW219839   2.078   5.704   3.460
 6314SOL     OW19840   2.721   5.847   2.894
 6314SOL    HW119841   2.782   5.878   2.822
 6314SOL    HW219842   2.774   5.831   2.978
 6315SOL     OW19843   3.355   3.488   0.386
 6315SOL    HW119844   3.439   3.533   0.418
 6315SOL    HW219845   3.279   3.552   0.393
 6316SOL     OW19846   4.645   2.283   5.501
 6316SOL    HW119847   4.722   2.308   5.559
 6316SOL    HW219848   4.611   2.192   5.527
 6317SOL     OW19849   5.084   0.051   3.032
 6317SOL    HW119850   5.178   0.064   3.001
 6317SOL    HW219851   5.023   0.103   2.973
 6318SOL     OW19852   2.149   2.210   5.165
 6318SOL    HW119853   2.229   2.191   5.108
 6318SOL    HW219854   2.178   2.255   5.249
 6319SOL     OW19855   1.139   2.441   3.325
 6319SOL    HW119856   1.117   2.355   3.372
 6319SOL    HW219857   1.201   2.495   3.381
 6320SOL     OW19858   5.902   3.678   3.194
 6320SOL    HW119859   5.854   3.622   3.126
 6320SOL    HW219860   5.975   3.730   3.149
 6321SOL     OW19861   2.560   5.279   1.249
 6321SOL    HW119862   2.631   5.252   1.315
 6321SOL    HW219863   2.601   5.284   1.158
 6322SOL     OW19864   1.481   1.200   6.840
 6322SOL    HW119865   1.538   1.267   6.888
 6322SOL    HW219866   1.466   1.231   6.746
 6323SOL     OW19867   4.018   2.691   1.049
 6323SOL    HW119868   4.096   2.753   1.059
 6323SOL    HW219869   3.953   2.708   1.123
 6324SOL     OW19870   4.188   1.134   5.677
 6324SOL    HW119871   4.225   1.206   5.618
 6324SOL    HW219872   4.102   1.164   5.718
 6325SOL     OW19873   0.813   2.381   2.063
 6325SOL    HW119874   0.775   2.472   2.075
 6325SOL    HW219875   0.802   2.328   2.147
 6326SOL     OW19876   5.014   5.925   1.804
 6326SOL    HW119877   4.941   5.861   1.829
 6326SOL    HW219878   5.000   6.012   1.852
 6327SOL     OW19879   5.565   5.769   5.530
 6327SOL    HW119880   5.530   5.799   5.619
 6327SOL    HW219881   5.540   5.674   5.515
 6328SOL     OW19882   2.247   3.891   6.906
 6328SOL    HW119883   2.166   3.863   6.856
 6328SOL    HW219884   2.329   3.854   6.861
 6329SOL     OW19885   1.788   1.411   3.677
 6329SOL    HW119886   1.822   1.318   3.661
 6329SOL    HW219887   1.837   1.475   3.617
 6330SOL     OW19888   4.301   0.748   0.276
 6330SOL    HW119889   4.366   0.680   0.243
 6330SOL    HW219890   4.278   0.811   0.202
 6331SOL     OW19891   6.644   1.931   1.342
 6331SOL    HW119892   6.724   1.945   1.400
 6331SOL    HW219893   6.572   1.994   1.370
 6332SOL     OW19894   6.021   5.832   1.309
 6332SOL    HW119895   5.948   5.781   1.264
 6332SOL    HW219896   6.101   5.837   1.249
 6333SOL     OW19897   3.352   4.869   3.309
 6333SOL    HW119898   3.423   4.896   3.374
 6333SOL    HW219899   3.388   4.877   3.216
 6334SOL     OW19900   2.154   0.384   2.223
 6334SOL    HW119901   2.158   0.291   2.258
 6334SOL    HW219902   2.064   0.402   2.184
 6335SOL     OW19903   6.609   1.108   6.593
 6335SOL    HW119904   6.620   1.037   6.662
 6335SOL    HW219905   6.698   1.139   6.561
 6336SOL     OW19906   0.013   2.738   4.545
 6336SOL    HW119907   6.973   2.766   4.618
 6336SOL    HW219908   0.085   2.807   4.535
 6337SOL     OW19909   5.293   3.810   6.155
 6337SOL    HW119910   5.316   3.763   6.069
 6337SOL    HW219911   5.298   3.745   6.231
 6338SOL     OW19912   3.640   1.935   2.979
 6338SOL    HW119913   3.681   1.852   3.016
 6338SOL    HW219914   3.659   1.942   2.882
 6339SOL     OW19915   0.666   2.129   3.381
 6339SOL    HW119916   0.704   2.089   3.298
 6339SOL    HW219917   0.567   2.132   3.375
 6340SOL     OW19918   2.939   6.092   3.844
 6340SOL    HW119919   2.934   6.016   3.909
 6340SOL    HW219920   2.865   6.084   3.777
 6341SOL     OW19921   0.057   4.086   3.183
 6341SOL    HW119922   7.001   4.123   3.132
 6341SOL    HW219923   0.140   4.137   3.161
 6342SOL     OW19924   1.804   2.442   1.880
 6342SOL    HW119925   1.892   2.488   1.879
 6342SOL    HW219926   1.791   2.391   1.795
 6343SOL     OW19927   4.064   1.926   6.433
 6343SOL    HW119928   4.034   2.017   6.462
 6343SOL    HW219929   4.163   1.919   6.445
 6344SOL     OW19930   0.167   4.079   4.767
 6344SOL    HW119931   0.120   4.154   4.815
 6344SOL    HW219932   0.264   4.080   4.790
 6345SOL     OW19933   3.331   1.800   1.995
 6345SOL    HW119934   3.380   1.869   2.048
 6345SOL    HW219935   3.369   1.710   2.014
 6346SOL     OW19936   0.321   3.821   2.947
 6346SOL    HW119937   0.288   3.804   3.040
 6346SOL    HW219938   0.388   3.750   2.923
 6347SOL     OW19939   3.312   0.451   0.807
 6347SOL    HW119940   3.400   0.424   0.769
 6347SOL    HW219941   3.242   0.449   0.736
 6348SOL     OW19942   1.139   3.054   4.232
 6348SOL    HW119943   1.223   3.101   4.258
 6348SOL    HW219944   1.163   2.970   4.182
 6349SOL     OW19945   2.869   0.943   1.213
 6349SOL    HW119946   2.852   0.859   1.161
 6349SOL    HW219947   2.818   1.018   1.173
 6350SOL     OW19948   1.582   6.253   2.536
 6350SOL    HW119949   1.656   6.308   2.496
 6350SOL    HW219950   1.560   6.177   2.475
 6351SOL     OW19951   0.216   1.544   2.017
 6351SOL    HW119952   0.144   1.612   2.020
 6351SOL    HW219953   0.227   1.510   1.924
 6352SOL     OW19954   1.566   5.317   2.441
 6352SOL    HW119955   1.548   5.225   2.407
 6352SOL    HW219956   1.635   5.314   2.513
 6353SOL     OW19957   0.600   6.886   0.319
 6353SOL    HW119958   0.675   6.948   0.297
 6353SOL    HW219959   0.513   6.928   0.294
 6354SOL     OW19960   0.956   0.299   2.499
 6354SOL    HW119961   0.950   0.339   2.590
 6354SOL    HW219962   0.937   0.201   2.504
 6355SOL     OW19963   1.399   3.026   2.975
 6355SOL    HW119964   1.493   3.002   2.952
 6355SOL    HW219965   1.363   2.960   3.042
 6356SOL     OW19966   3.497   4.528   0.910
 6356SOL    HW119967   3.579   4.484   0.947
 6356SOL    HW219968   3.420   4.463   0.913
 6357SOL     OW19969   4.342   2.459   0.510
 6357SOL    HW119970   4.391   2.543   0.485
 6357SOL    HW219971   4.279   2.433   0.437
 6358SOL     OW19972   6.952   2.122   3.816
 6358SOL    HW119973   6.972   2.114   3.718
 6358SOL    HW219974   6.936   2.031   3.855
 6359SOL     OW19975   0.076   0.748   5.835
 6359SOL    HW119976   0.156   0.707   5.879
 6359SOL    HW219977   7.018   0.692   5.851
 6360SOL     OW19978   2.314   5.161   3.894
 6360SOL    HW119979   2.348   5.130   3.805
 6360SOL    HW219980   2.370   5.122   3.967
 6361SOL     OW19981   4.102   5.916   5.838
 6361SOL    HW119982   4.113   5.866   5.924
 6361SOL    HW219983   4.156   6.000   5.841
 6362SOL     OW19984   5.940   5.380   6.992
 6362SOL    HW119985   5.927   5.305   0.036
 6362SOL    HW219986   5.979   5.459   0.018
 6363SOL     OW19987   1.432   5.677   4.326
 6363SOL    HW119988   1.525   5.686   4.363
 6363SOL    HW219989   1.406   5.580   4.325
 6364SOL     OW19990   2.444   2.717   5.919
 6364SOL    HW119991   2.487   2.665   5.845
 6364SOL    HW219992   2.512   2.775   5.964
 6365SOL     OW19993   4.548   6.888   3.270
 6365SOL    HW119994   4.481   6.821   3.236
 6365SOL    HW219995   4.634   6.841   3.289
 6366SOL     OW19996   0.374   5.488   4.982
 6366SOL    HW119997   0.285   5.529   4.967
 6366SOL    HW219998   0.399   5.495   5.079
 6367SOL     OW19999   5.287   0.337   3.312
 6367SOL    HW120000   5.318   0.411   3.371
 6367SOL    HW220001   5.191   0.351   3.287
 6368SOL     OW20002   3.122   6.765   4.264
 6368SOL    HW120003   3.221   6.760   4.255
 6368SOL    HW220004   3.098   6.826   4.339
 6369SOL     OW20005   2.216   4.648   3.675
 6369SOL    HW120006   2.245   4.710   3.748
 6369SOL    HW220007   2.214   4.697   3.588
 6370SOL     OW20008   6.195   1.896   1.216
 6370SOL    HW120009   6.211   1.810   1.265
 6370SOL    HW220010   6.230   1.888   1.123
 6371SOL     OW20011   4.813   3.113   2.537
 6371SOL    HW120012   4.768   3.200   2.557
 6371SOL    HW220013   4.795   3.088   2.442
 6372SOL     OW20014   3.624   6.257   2.338
 6372SOL    HW120015   3.615   6.345   2.290
 6372SOL    HW220016   3.685   6.197   2.286
 6373SOL     OW20017   4.243   3.823   5.806
 6373SOL    HW120018   4.282   3.848   5.717
 6373SOL    HW220019   4.192   3.900   5.843
 6374SOL     OW20020   3.112   3.118   2.940
 6374SOL    HW120021   3.163   3.203   2.945
 6374SOL    HW220022   3.054   3.109   3.022
 6375SOL     OW20023   1.228   0.240   3.238
 6375SOL    HW120024   1.200   0.303   3.311
 6375SOL    HW220025   1.282   0.290   3.170
 6376SOL     OW20026   6.478   1.953   4.679
 6376SOL    HW120027   6.523   1.884   4.623
 6376SOL    HW220028   6.493   2.044   4.639
 6377SOL     OW20029   0.130   1.143   5.023
 6377SOL    HW120030   0.218   1.096   5.025
 6377SOL    HW220031   0.127   1.207   4.946
 6378SOL     OW20032   4.807   4.209   4.369
 6378SOL    HW120033   4.779   4.115   4.388
 6378SOL    HW220034   4.805   4.226   4.271
 6379SOL     OW20035   2.137   4.143   4.126
 6379SOL    HW120036   2.192   4.153   4.209
 6379SOL    HW220037   2.153   4.221   4.066
 6380SOL     OW20038   0.575   0.967   6.218
 6380SOL    HW120039   0.494   0.942   6.166
 6380SOL    HW220040   0.565   0.938   6.313
 6381SOL     OW20041   3.396   3.700   2.817
 6381SOL    HW120042   3.298   3.695   2.833
 6381SOL    HW220043   3.414   3.761   2.740
 6382SOL     OW20044   0.938   3.244   6.023
 6382SOL    HW120045   1.019   3.228   5.967
 6382SOL    HW220046   0.869   3.175   6.002
 6383SOL     OW20047   2.870   2.078   4.322
 6383SOL    HW120048   2.773   2.054   4.330
 6383SOL    HW220049   2.880   2.159   4.264
 6384SOL     OW20050   6.658   5.133   2.760
 6384SOL    HW120051   6.625   5.223   2.731
 6384SOL    HW220052   6.746   5.114   2.715
 6385SOL     OW20053   0.361   5.544   4.598
 6385SOL    HW120054   0.338   5.607   4.523
 6385SOL    HW220055   0.343   5.589   4.685
 6386SOL     OW20056   2.598   5.258   0.974
 6386SOL    HW120057   2.694   5.268   0.946
 6386SOL    HW220058   2.538   5.287   0.899
 6387SOL     OW20059   6.961   1.674   5.074
 6387SOL    HW120060   6.886   1.724   5.118
 6387SOL    HW220061   6.991   1.724   4.993
 6388SOL     OW20062   3.260   4.876   1.861
 6388SOL    HW120063   3.172   4.856   1.904
 6388SOL    HW220064   3.332   4.822   1.907
 6389SOL     OW20065   1.345   6.089   3.141
 6389SOL    HW120066   1.277   6.041   3.084
 6389SOL    HW220067   1.408   6.022   3.181
 6390SOL     OW20068   0.816   2.686   3.469
 6390SOL    HW120069   0.765   2.772   3.477
 6390SOL    HW220070   0.752   2.611   3.456
 6391SOL     OW20071   2.606   2.343   0.469
 6391SOL    HW120072   2.675   2.272   0.484
 6391SOL    HW220073   2.644   2.432   0.495
 6392SOL     OW20074   1.323   6.661   3.732
 6392SOL    HW120075   1.337   6.677   3.634
 6392SOL    HW220076   1.281   6.572   3.745
 6393SOL     OW20077   5.978   6.542   0.507
 6393SOL    HW120078   6.055   6.484   0.533
 6393SOL    HW220079   6.011   6.634   0.487
 6394SOL     OW20080   2.086   4.813   0.296
 6394SOL    HW120081   2.092   4.898   0.349
 6394SOL    HW220082   2.029   4.828   0.215
 6395SOL     OW20083   6.334   1.166   1.060
 6395SOL    HW120084   6.307   1.201   0.970
 6395SOL    HW220085   6.398   1.090   1.048
 6396SOL     OW20086   5.037   3.705   5.888
 6396SOL    HW120087   5.102   3.781   5.895
 6396SOL    HW220088   5.067   3.630   5.947
 6397SOL     OW20089   0.123   1.818   0.052
 6397SOL    HW120090   0.076   1.866   7.000
 6397SOL    HW220091   0.173   1.885   0.108
 6398SOL     OW20092   3.090   1.779   1.567
 6398SOL    HW120093   3.179   1.815   1.540
 6398SOL    HW220094   3.051   1.837   1.638
 6399SOL     OW20095   2.051   5.890   6.611
 6399SOL    HW120096   2.080   5.899   6.516
 6399SOL    HW220097   2.017   5.798   6.627
 6400SOL     OW20098   2.833   5.901   3.359
 6400SOL    HW120099   2.831   5.824   3.422
 6400SOL    HW220100   2.744   5.946   3.359
 6401SOL     OW20101   0.467   4.474   3.817
 6401SOL    HW120102   0.518   4.389   3.803
 6401SOL    HW220103   0.464   4.526   3.731
 6402SOL     OW20104   2.420   0.926   3.103
 6402SOL    HW120105   2.507   0.878   3.101
 6402SOL    HW220106   2.434   1.020   3.134
 6403SOL     OW20107   1.057   4.737   6.607
 6403SOL    HW120108   1.117   4.744   6.686
 6403SOL    HW220109   1.109   4.750   6.523
 6404SOL     OW20110   4.778   1.481   3.224
 6404SOL    HW120111   4.691   1.529   3.225
 6404SOL    HW220112   4.853   1.547   3.212
 6405SOL     OW20113   2.607   1.550   2.430
 6405SOL    HW120114   2.531   1.584   2.375
 6405SOL    HW220115   2.678   1.621   2.437
 6406SOL     OW20116   2.246   1.636   4.116
 6406SOL    HW120117   2.341   1.641   4.086
 6406SOL    HW220118   2.204   1.552   4.079
 6407SOL     OW20119   3.460   5.917   5.485
 6407SOL    HW120120   3.419   5.848   5.545
 6407SOL    HW220121   3.388   5.979   5.452
 6408SOL     OW20122   5.422   1.269   6.545
 6408SOL    HW120123   5.365   1.267   6.463
 6408SOL    HW220124   5.403   1.352   6.598
 6409SOL     OW20125   0.048   3.271   2.970
 6409SOL    HW120126   6.973   3.298   2.969
 6409SOL    HW220127   0.056   3.180   3.011
 6410SOL     OW20128   1.772   1.797   0.369
 6410SOL    HW120129   1.775   1.851   0.285
 6410SOL    HW220130   1.862   1.756   0.386
 6411SOL     OW20131   0.883   1.098   3.750
 6411SOL    HW120132   0.857   1.190   3.779
 6411SOL    HW220133   0.857   1.084   3.655
 6412SOL     OW20134   6.790   2.860   5.659
 6412SOL    HW120135   6.877   2.857   5.709
 6412SOL    HW220136   6.774   2.954   5.628
 6413SOL     OW20137   6.788   4.593   1.169
 6413SOL    HW120138   6.851   4.544   1.108
 6413SOL    HW220139   6.717   4.638   1.114
 6414SOL     OW20140   6.352   6.996   1.938
 6414SOL    HW120141   6.401   0.007   1.857
 6414SOL    HW220142   6.259   6.968   1.912
 6415SOL     OW20143   1.559   1.806   1.597
 6415SOL    HW120144   1.519   1.892   1.630
 6415SOL    HW220145   1.489   1.754   1.548
 6416SOL     OW20146   1.372   0.511   6.475
 6416SOL    HW120147   1.307   0.578   6.513
 6416SOL    HW220148   1.456   0.558   6.448
 6417SOL     OW20149   0.793   0.189   3.802
 6417SOL    HW120150   0.753   0.240   3.877
 6417SOL    HW220151   0.843   0.110   3.838
 6418SOL     OW20152   0.287   5.647   2.308
 6418SOL    HW120153   0.248   5.739   2.315
 6418SOL    HW220154   0.376   5.652   2.262
 6419SOL     OW20155   3.795   4.923   1.530
 6419SOL    HW120156   3.855   4.964   1.463
 6419SOL    HW220157   3.709   4.973   1.534
 6420SOL     OW20158   2.466   3.986   6.096
 6420SOL    HW120159   2.394   4.053   6.075
 6420SOL    HW220160   2.472   3.919   6.022
 6421SOL     OW20161   5.036   0.668   1.239
 6421SOL    HW120162   5.109   0.651   1.173
 6421SOL    HW220163   5.066   0.739   1.303
 6422SOL     OW20164   6.942   1.294   3.597
 6422SOL    HW120165   6.972   1.368   3.657
 6422SOL    HW220166   7.000   1.214   3.611
 6423SOL     OW20167   5.255   3.448   1.167
 6423SOL    HW120168   5.200   3.529   1.149
 6423SOL    HW220169   5.322   3.437   1.093
 6424SOL     OW20170   6.675   3.685   6.462
 6424SOL    HW120171   6.741   3.632   6.515
 6424SOL    HW220172   6.723   3.758   6.412
 6425SOL     OW20173   0.445   4.382   2.227
 6425SOL    HW120174   0.408   4.472   2.254
 6425SOL    HW220175   0.497   4.392   2.143
 6426SOL     OW20176   1.608   2.426   3.345
 6426SOL    HW120177   1.599   2.356   3.275
 6426SOL    HW220178   1.681   2.490   3.320
 6427SOL     OW20179   1.880   3.357   5.379
 6427SOL    HW120180   1.823   3.275   5.378
 6427SOL    HW220181   1.937   3.358   5.461
 6428SOL     OW20182   6.640   3.318   2.100
 6428SOL    HW120183   6.654   3.317   2.001
 6428SOL    HW220184   6.578   3.244   2.126
 6429SOL     OW20185   1.292   0.461   4.449
 6429SOL    HW120186   1.242   0.406   4.383
 6429SOL    HW220187   1.278   0.558   4.430
 6430SOL     OW20188   5.754   1.683   1.492
 6430SOL    HW120189   5.822   1.617   1.459
 6430SOL    HW220190   5.718   1.735   1.415
 6431SOL     OW20191   5.338   6.781   2.886
 6431SOL    HW120192   5.321   6.706   2.821
 6431SOL    HW220193   5.297   6.758   2.974
 6432SOL     OW20194   5.002   3.315   0.716
 6432SOL    HW120195   4.949   3.398   0.732
 6432SOL    HW220196   5.039   3.317   0.623
 6433SOL     OW20197   2.656   4.372   1.296
 6433SOL    HW120198   2.645   4.450   1.358
 6433SOL    HW220199   2.660   4.288   1.349
 6434SOL     OW20200   0.897   3.770   0.754
 6434SOL    HW120201   0.945   3.781   0.841
 6434SOL    HW220202   0.964   3.759   0.681
 6435SOL     OW20203   4.341   5.016   6.506
 6435SOL    HW120204   4.432   5.041   6.474
 6435SOL    HW220205   4.347   4.981   6.600
 6436SOL     OW20206   1.821   3.228   3.770
 6436SOL    HW120207   1.809   3.324   3.794
 6436SOL    HW220208   1.731   3.188   3.749
 6437SOL     OW20209   1.296   6.799   0.125
 6437SOL    HW120210   1.318   6.707   0.091
 6437SOL    HW220211   1.312   6.865   0.051
 6438SOL     OW20212   1.455   3.867   3.788
 6438SOL    HW120213   1.392   3.864   3.711
 6438SOL    HW220214   1.410   3.912   3.866
 6439SOL     OW20215   1.350   7.014   1.122
 6439SOL    HW120216   1.341   0.083   1.080
 6439SOL    HW220217   1.335   6.944   1.053
 6440SOL     OW20218   1.437   1.350   2.515
 6440SOL    HW120219   1.348   1.305   2.505
 6440SOL    HW220220   1.428   1.430   2.574
 6441SOL     OW20221   2.153   1.042   3.438
 6441SOL    HW120222   2.216   0.976   3.478
 6441SOL    HW220223   2.201   1.128   3.421
 6442SOL     OW20224   2.172   2.356   4.405
 6442SOL    HW120225   2.117   2.274   4.394
 6442SOL    HW220226   2.242   2.341   4.474
 6443SOL     OW20227   3.055   2.598   0.377
 6443SOL    HW120228   3.134   2.650   0.344
 6443SOL    HW220229   3.031   2.529   0.309
 6444SOL     OW20230   0.908   1.224   3.234
 6444SOL    HW120231   0.832   1.179   3.187
 6444SOL    HW220232   0.891   1.227   3.332
 6445SOL     OW20233   3.903   2.764   5.243
 6445SOL    HW120234   3.971   2.691   5.237
 6445SOL    HW220235   3.811   2.724   5.241
 6446SOL     OW20236   6.961   1.284   0.164
 6446SOL    HW120237   0.005   1.240   0.104
 6446SOL    HW220238   6.889   1.326   0.109
 6447SOL     OW20239   1.819   6.991   2.173
 6447SOL    HW120240   1.916   6.965   2.168
 6447SOL    HW220241   1.764   6.909   2.187
 6448SOL     OW20242   6.258   2.924   3.369
 6448SOL    HW120243   6.231   2.964   3.281
 6448SOL    HW220244   6.181   2.929   3.433
 6449SOL     OW20245   3.298   3.298   0.997
 6449SOL    HW120246   3.309   3.356   1.077
 6449SOL    HW220247   3.213   3.321   0.950
 6450SOL     OW20248   5.962   3.938   1.707
 6450SOL    HW120249   5.884   3.941   1.769
 6450SOL    HW220250   6.047   3.930   1.760
 6451SOL     OW20251   2.261   5.814   5.352
 6451SOL    HW120252   2.163   5.803   5.339
 6451SOL    HW220253   2.282   5.910   5.371
 6452SOL     OW20254   3.457   6.950   4.603
 6452SOL    HW120255   3.363   6.979   4.582
 6452SOL    HW220256   3.479   6.869   4.549
 6453SOL     OW20257   1.459   6.339   6.806
 6453SOL    HW120258   1.413   6.401   6.870
 6453SOL    HW220259   1.392   6.306   6.739
 6454SOL     OW20260   2.902   1.680   4.554
 6454SOL    HW120261   2.822   1.641   4.600
 6454SOL    HW220262   2.931   1.763   4.601
 6455SOL     OW20263   6.521   2.709   4.959
 6455SOL    HW120264   6.521   2.614   4.990
 6455SOL    HW220265   6.427   2.743   4.957
 6456SOL     OW20266   0.844   0.709   3.081
 6456SOL    HW120267   0.903   0.742   3.007
 6456SOL    HW220268   0.828   0.782   3.147
 6457SOL     OW20269   6.515   2.334   1.700
 6457SOL    HW120270   6.551   2.422   1.728
 6457SOL    HW220271   6.495   2.279   1.781
 6458SOL     OW20272   1.586   5.660   3.252
 6458SOL    HW120273   1.665   5.636   3.309
 6458SOL    HW220274   1.558   5.581   3.199
 6459SOL     OW20275   6.196   4.684   0.358
 6459SOL    HW120276   6.100   4.673   0.332
 6459SOL    HW220277   6.231   4.769   0.320
 6460SOL     OW20278   3.723   4.896   6.382
 6460SOL    HW120279   3.798   4.834   6.408
 6460SOL    HW220280   3.669   4.854   6.310
 6461SOL     OW20281   3.473   4.966   5.266
 6461SOL    HW120282   3.476   4.870   5.294
 6461SOL    HW220283   3.532   5.021   5.326
 6462SOL     OW20284   2.008   3.381   5.162
 6462SOL    HW120285   1.953   3.378   5.246
 6462SOL    HW220286   2.077   3.308   5.164
 6463SOL     OW20287   2.449   4.394   6.105
 6463SOL    HW120288   2.480   4.380   6.199
 6463SOL    HW220289   2.394   4.316   6.076
 6464SOL     OW20290   0.487   5.312   3.723
 6464SOL    HW120291   0.474   5.225   3.770
 6464SOL    HW220292   0.403   5.365   3.727
 6465SOL     OW20293   6.368   1.621   3.477
 6465SOL    HW120294   6.340   1.535   3.433
 6465SOL    HW220295   6.460   1.645   3.447
 6466SOL     OW20296   0.423   2.611   5.037
 6466SOL    HW120297   0.394   2.535   4.979
 6466SOL    HW220298   0.454   2.687   4.980
 6467SOL     OW20299   2.637   1.403   6.667
 6467SOL    HW120300   2.615   1.331   6.734
 6467SOL    HW220301   2.726   1.442   6.689
 6468SOL     OW20302   4.760   6.122   1.274
 6468SOL    HW120303   4.773   6.053   1.345
 6468SOL    HW220304   4.699   6.085   1.203
 6469SOL     OW20305   6.493   0.278   6.172
 6469SOL    HW120306   6.431   0.216   6.124
 6469SOL    HW220307   6.578   0.287   6.121
 6470SOL     OW20308   5.911   6.792   5.994
 6470SOL    HW120309   5.947   6.858   5.928
 6470SOL    HW220310   5.929   6.825   6.087
 6471SOL     OW20311   6.700   4.643   6.935
 6471SOL    HW120312   6.646   4.645   6.851
 6471SOL    HW220313   6.705   4.549   6.969
 6472SOL     OW20314   1.063   6.654   1.816
 6472SOL    HW120315   0.999   6.712   1.765
 6472SOL    HW220316   1.096   6.704   1.896
 6473SOL     OW20317   1.892   1.314   6.410
 6473SOL    HW120318   1.919   1.217   6.409
 6473SOL    HW220319   1.829   1.332   6.335
 6474SOL     OW20320   1.447   3.299   5.662
 6474SOL    HW120321   1.543   3.296   5.686
 6474SOL    HW220322   1.433   3.366   5.589
 6475SOL     OW20323   5.028   6.591   3.995
 6475SOL    HW120324   5.100   6.529   4.026
 6475SOL    HW220325   5.069   6.680   3.972
 6476SOL     OW20326   4.377   4.573   2.849
 6476SOL    HW120327   4.381   4.575   2.749
 6476SOL    HW220328   4.462   4.611   2.886
 6477SOL     OW20329   6.737   5.617   0.200
 6477SOL    HW120330   6.748   5.703   0.150
 6477SOL    HW220331   6.805   5.551   0.167
 6478SOL     OW20332   4.531   6.396   1.733
 6478SOL    HW120333   4.547   6.343   1.650
 6478SOL    HW220334   4.548   6.493   1.714
 6479SOL     OW20335   4.154   5.430   1.861
 6479SOL    HW120336   4.221   5.410   1.789
 6479SOL    HW220337   4.202   5.452   1.946
 6480SOL     OW20338   2.972   2.785   6.770
 6480SOL    HW120339   2.964   2.732   6.854
 6480SOL    HW220340   2.881   2.805   6.734
 6481SOL     OW20341   3.882   0.718   1.563
 6481SOL    HW120342   3.980   0.730   1.553
 6481SOL    HW220343   3.846   0.785   1.628
 6482SOL     OW20344   6.936   0.460   6.775
 6482SOL    HW120345   6.890   0.375   6.799
 6482SOL    HW220346   0.011   0.442   6.756
 6483SOL     OW20347   1.430   6.786   2.026
 6483SOL    HW120348   1.408   6.801   1.929
 6483SOL    HW220349   1.345   6.779   2.078
 6484SOL     OW20350   4.869   0.627   2.940
 6484SOL    HW120351   4.908   0.655   3.028
 6484SOL    HW220352   4.789   0.568   2.955
 6485SOL     OW20353   1.782   2.233   3.756
 6485SOL    HW120354   1.691   2.254   3.719
 6485SOL    HW220355   1.847   2.303   3.724
 6486SOL     OW20356   1.529   3.564   3.800
 6486SOL    HW120357   1.545   3.648   3.748
 6486SOL    HW220358   1.605   3.550   3.864
 6487SOL     OW20359   6.289   6.792   4.356
 6487SOL    HW120360   6.386   6.770   4.346
 6487SOL    HW220361   6.278   6.869   4.419
 6488SOL     OW20362   2.748   5.352   6.074
 6488SOL    HW120363   2.708   5.339   6.164
 6488SOL    HW220364   2.847   5.338   6.078
 6489SOL     OW20365   1.523   1.840   6.055
 6489SOL    HW120366   1.620   1.833   6.032
 6489SOL    HW220367   1.494   1.936   6.047
 6490SOL     OW20368   3.568   1.725   0.745
 6490SOL    HW120369   3.472   1.741   0.768
 6490SOL    HW220370   3.588   1.627   0.751
 6491SOL     OW20371   4.645   1.476   6.154
 6491SOL    HW120372   4.693   1.392   6.177
 6491SOL    HW220373   4.558   1.453   6.111
 6492SOL     OW20374   6.210   6.399   0.504
 6492SOL    HW120375   6.285   6.432   0.562
 6492SOL    HW220376   6.247   6.334   0.437
 6493SOL     OW20377   2.137   6.630   6.420
 6493SOL    HW120378   2.129   6.726   6.446
 6493SOL    HW220379   2.067   6.608   6.351
 6494SOL     OW20380   1.122   0.555   3.701
 6494SOL    HW120381   1.108   0.654   3.704
 6494SOL    HW220382   1.056   0.510   3.761
 6495SOL     OW20383   5.405   4.619   2.806
 6495SOL    HW120384   5.320   4.652   2.766
 6495SOL    HW220385   5.473   4.605   2.733
 6496SOL     OW20386   0.736   6.574   2.130
 6496SOL    HW120387   0.756   6.501   2.194
 6496SOL    HW220388   0.775   6.660   2.163
 6497SOL     OW20389   1.792   4.140   0.268
 6497SOL    HW120390   1.782   4.205   0.192
 6497SOL    HW220391   1.751   4.179   0.351
 6498SOL     OW20392   2.036   3.948   4.351
 6498SOL    HW120393   2.017   4.033   4.302
 6498SOL    HW220394   2.103   3.965   4.424
 6499SOL     OW20395   4.969   1.204   4.028
 6499SOL    HW120396   5.012   1.292   4.007
 6499SOL    HW220397   4.876   1.219   4.062
 6500SOL     OW20398   5.170   4.464   3.537
 6500SOL    HW120399   5.250   4.486   3.481
 6500SOL    HW220400   5.087   4.479   3.483
 6501SOL     OW20401   6.188   3.771   1.245
 6501SOL    HW120402   6.279   3.768   1.286
 6501SOL    HW220403   6.135   3.693   1.276
 6502SOL     OW20404   0.922   5.015   3.527
 6502SOL    HW120405   0.889   5.090   3.468
 6502SOL    HW220406   0.875   4.930   3.501
 6503SOL     OW20407   5.470   6.820   4.899
 6503SOL    HW120408   5.403   6.850   4.968
 6503SOL    HW220409   5.432   6.835   4.808
 6504SOL     OW20410   3.613   0.682   0.878
 6504SOL    HW120411   3.653   0.728   0.957
 6504SOL    HW220412   3.588   0.751   0.809
 6505SOL     OW20413   5.620   4.715   0.790
 6505SOL    HW120414   5.560   4.785   0.752
 6505SOL    HW220415   5.655   4.657   0.716
 6506SOL     OW20416   1.655   3.444   0.876
 6506SOL    HW120417   1.693   3.536   0.868
 6506SOL    HW220418   1.557   3.446   0.859
 6507SOL     OW20419   2.206   6.180   1.437
 6507SOL    HW120420   2.152   6.257   1.402
 6507SOL    HW220421   2.156   6.136   1.512
 6508SOL     OW20422   2.337   2.101   3.303
 6508SOL    HW120423   2.354   2.007   3.271
 6508SOL    HW220424   2.418   2.135   3.349
 6509SOL     OW20425   1.331   2.547   4.591
 6509SOL    HW120426   1.292   2.477   4.530
 6509SOL    HW220427   1.422   2.518   4.620
 6510SOL     OW20428   6.462   5.097   6.622
 6510SOL    HW120429   6.426   5.190   6.629
 6510SOL    HW220430   6.549   5.091   6.670
 6511SOL     OW20431   6.560   6.474   6.176
 6511SOL    HW120432   6.586   6.420   6.256
 6511SOL    HW220433   6.461   6.473   6.164
 6512SOL     OW20434   5.191   6.996   2.736
 6512SOL    HW120435   5.229   6.960   2.821
 6512SOL    HW220436   5.255   0.039   2.695
 6513SOL     OW20437   3.972   6.340   3.347
 6513SOL    HW120438   4.001   6.268   3.285
 6513SOL    HW220439   3.880   6.370   3.323
 6514SOL     OW20440   4.165   0.544   4.446
 6514SOL    HW120441   4.238   0.509   4.387
 6514SOL    HW220442   4.183   0.640   4.467
 6515SOL     OW20443   0.476   6.692   4.758
 6515SOL    HW120444   0.568   6.664   4.733
 6515SOL    HW220445   0.420   6.703   4.676
 6516SOL     OW20446   0.972   2.172   5.743
 6516SOL    HW120447   1.071   2.158   5.751
 6516SOL    HW220448   0.948   2.262   5.780
 6517SOL     OW20449   0.753   1.243   0.613
 6517SOL    HW120450   0.730   1.275   0.521
 6517SOL    HW220451   0.674   1.253   0.673
 6518SOL     OW20452   7.000   6.367   1.069
 6518SOL    HW120453   6.914   6.325   1.039
 6518SOL    HW220454   0.050   6.346   1.002
 6519SOL     OW20455   2.238   1.698   4.465
 6519SOL    HW120456   2.181   1.718   4.385
 6519SOL    HW220457   2.182   1.651   4.534
 6520SOL     OW20458   6.073   6.129   1.898
 6520SOL    HW120459   6.103   6.210   1.848
 6520SOL    HW220460   6.047   6.155   1.991
 6521SOL     OW20461   0.153   2.087   4.700
 6521SOL    HW120462   0.110   2.109   4.787
 6521SOL    HW220463   0.168   2.172   4.648
 6522SOL     OW20464   2.350   5.503   6.485
 6522SOL    HW120465   2.351   5.411   6.524
 6522SOL    HW220466   2.423   5.558   6.527
 6523SOL     OW20467   1.927   1.504   6.579
 6523SOL    HW120468   1.915   1.431   6.513
 6523SOL    HW220469   1.968   1.583   6.534
 6524SOL     OW20470   3.953   3.405   3.514
 6524SOL    HW120471   3.888   3.449   3.576
 6524SOL    HW220472   3.973   3.467   3.438
 6525SOL     OW20473   0.777   2.554   3.047
 6525SOL    HW120474   0.833   2.559   3.129
 6525SOL    HW220475   0.788   2.465   3.003
 6526SOL     OW20476   1.522   5.793   5.231
 6526SOL    HW120477   1.481   5.721   5.286
 6526SOL    HW220478   1.456   5.824   5.163
 6527SOL     OW20479   1.214   6.797   4.714
 6527SOL    HW120480   1.265   6.711   4.713
 6527SOL    HW220481   1.245   6.854   4.790
 6528SOL     OW20482   0.089   1.711   4.470
 6528SOL    HW120483   0.020   1.713   4.542
 6528SOL    HW220484   0.098   1.802   4.430
 6529SOL     OW20485   6.397   1.442   1.929
 6529SOL    HW120486   6.473   1.507   1.927
 6529SOL    HW220487   6.311   1.491   1.917
 6530SOL     OW20488   6.597   2.227   0.431
 6530SOL    HW120489   6.584   2.158   0.503
 6530SOL    HW220490   6.692   2.223   0.399
 6531SOL     OW20491   5.223   3.385   4.045
 6531SOL    HW120492   5.180   3.472   4.069
 6531SOL    HW220493   5.226   3.375   3.945
 6532SOL     OW20494   6.668   1.437   6.122
 6532SOL    HW120495   6.675   1.375   6.200
 6532SOL    HW220496   6.720   1.401   6.046
 6533SOL     OW20497   4.953   6.945   1.041
 6533SOL    HW120498   5.016   7.021   1.028
 6533SOL    HW220499   4.969   6.903   1.130
 6534SOL     OW20500   2.277   4.083   1.412
 6534SOL    HW120501   2.330   4.044   1.487
 6534SOL    HW220502   2.233   4.010   1.361
 6535SOL     OW20503   0.454   3.845   5.578
 6535SOL    HW120504   0.417   3.841   5.486
 6535SOL    HW220505   0.390   3.803   5.642
 6536SOL     OW20506   5.632   1.955   0.194
 6536SOL    HW120507   5.677   1.867   0.177
 6536SOL    HW220508   5.688   2.029   0.156
 6537SOL     OW20509   0.630   6.676   0.082
 6537SOL    HW120510   0.591   6.623   0.006
 6537SOL    HW220511   0.559   6.695   0.149
 6538SOL     OW20512   3.147   3.641   6.970
 6538SOL    HW120513   3.056   3.651   7.010
 6538SOL    HW220514   3.184   3.551   6.993
 6539SOL     OW20515   2.418   1.708   6.807
 6539SOL    HW120516   2.489   1.686   6.874
 6539SOL    HW220517   2.449   1.784   6.750
 6540SOL     OW20518   2.910   1.071   4.412
 6540SOL    HW120519   2.931   1.158   4.457
 6540SOL    HW220520   2.977   1.054   4.341
 6541SOL     OW20521   2.643   2.361   5.835
 6541SOL    HW120522   2.689   2.415   5.906
 6541SOL    HW220523   2.647   2.264   5.859
 6542SOL     OW20524   6.721   4.508   3.408
 6542SOL    HW120525   6.656   4.517   3.332
 6542SOL    HW220526   6.803   4.461   3.376
 6543SOL     OW20527   6.073   6.082   6.803
 6543SOL    HW120528   6.048   6.010   6.868
 6543SOL    HW220529   6.170   6.105   6.814
 6544SOL     OW20530   6.845   6.146   3.954
 6544SOL    HW120531   6.908   6.211   3.913
 6544SOL    HW220532   6.860   6.055   3.914
 6545SOL     OW20533   5.115   1.813   5.836
 6545SOL    HW120534   5.148   1.722   5.862
 6545SOL    HW220535   5.172   1.849   5.762
 6546SOL     OW20536   3.018   4.804   6.021
 6546SOL    HW120537   3.073   4.764   5.947
 6546SOL    HW220538   3.031   4.903   6.023
 6547SOL     OW20539   4.870   2.619   6.839
 6547SOL    HW120540   4.813   2.570   6.773
 6547SOL    HW220541   4.845   2.591   6.931
 6548SOL     OW20542   6.803   4.018   5.779
 6548SOL    HW120543   6.836   4.013   5.874
 6548SOL    HW220544   6.778   3.927   5.748
 6549SOL     OW20545   3.547   2.196   0.607
 6549SOL    HW120546   3.639   2.188   0.647
 6549SOL    HW220547   3.532   2.290   0.577
 6550SOL     OW20548   0.722   5.404   3.859
 6550SOL    HW120549   0.714   5.351   3.943
 6550SOL    HW220550   0.639   5.394   3.804
 6551SOL     OW20551   1.751   4.661   1.981
 6551SOL    HW120552   1.677   4.719   2.016
 6551SOL    HW220553   1.719   4.566   1.978
 6552SOL     OW20554   2.546   4.783   5.664
 6552SOL    HW120555   2.499   4.864   5.699
 6552SOL    HW220556   2.625   4.764   5.722
 6553SOL     OW20557   0.234   2.747   2.638
 6553SOL    HW120558   0.232   2.839   2.677
 6553SOL    HW220559   0.147   2.701   2.657
 6554SOL     OW20560   6.257   1.862   5.683
 6554SOL    HW120561   6.309   1.792   5.731
 6554SOL    HW220562   6.274   1.951   5.726
 6555SOL     OW20563   1.437   1.191   1.656
 6555SOL    HW120564   1.526   1.181   1.612
 6555SOL    HW220565   1.428   1.126   1.731
 6556SOL     OW20566   3.497   5.966   4.672
 6556SOL    HW120567   3.542   6.051   4.646
 6556SOL    HW220568   3.422   5.947   4.607
 6557SOL     OW20569   6.150   5.553   1.304
 6557SOL    HW120570   6.189   5.480   1.248
 6557SOL    HW220571   6.139   5.635   1.249
 6558SOL     OW20572   6.004   5.881   6.454
 6558SOL    HW120573   6.055   5.861   6.538
 6558SOL    HW220574   6.064   5.930   6.390
 6559SOL     OW20575   4.624   3.997   1.137
 6559SOL    HW120576   4.661   4.087   1.159
 6559SOL    HW220577   4.699   3.932   1.125
 6560SOL     OW20578   3.628   2.545   0.261
 6560SOL    HW120579   3.658   2.522   0.169
 6560SOL    HW220580   3.696   2.604   0.305
 6561SOL     OW20581   4.025   3.171   3.332
 6561SOL    HW120582   4.081   3.209   3.258
 6561SOL    HW220583   3.971   3.244   3.373
 6562SOL     OW20584   6.414   4.826   6.060
 6562SOL    HW120585   6.475   4.905   6.066
 6562SOL    HW220586   6.439   4.770   5.981
 6563SOL     OW20587   0.672   5.738   1.589
 6563SOL    HW120588   0.672   5.835   1.565
 6563SOL    HW220589   0.729   5.687   1.525
 6564SOL     OW20590   1.337   4.532   1.836
 6564SOL    HW120591   1.397   4.508   1.759
 6564SOL    HW220592   1.335   4.456   1.901
 6565SOL     OW20593   6.900   2.903   5.201
 6565SOL    HW120594   6.815   2.931   5.156
 6565SOL    HW220595   6.958   2.856   5.135
 6566SOL     OW20596   3.219   6.628   1.054
 6566SOL    HW120597   3.192   6.692   1.126
 6566SOL    HW220598   3.317   6.637   1.036
 6567SOL     OW20599   5.194   2.796   0.901
 6567SOL    HW120600   5.184   2.895   0.898
 6567SOL    HW220601   5.144   2.756   0.824
 6568SOL     OW20602   4.693   4.419   1.760
 6568SOL    HW120603   4.622   4.351   1.776
 6568SOL    HW220604   4.747   4.392   1.680
 6569SOL     OW20605   1.769   4.292   0.049
 6569SOL    HW120606   1.816   4.263   6.987
 6569SOL    HW220607   1.699   4.360   0.026
 6570SOL     OW20608   5.623   1.587   2.262
 6570SOL    HW120609   5.723   1.585   2.262
 6570SOL    HW220610   5.592   1.679   2.284
 6571SOL     OW20611   2.978   6.500   3.752
 6571SOL    HW120612   3.056   6.549   3.713
 6571SOL    HW220613   2.895   6.524   3.702
 6572SOL     OW20614   6.856   4.353   5.675
 6572SOL    HW120615   6.818   4.349   5.583
 6572SOL    HW220616   6.830   4.440   5.718
 6573SOL     OW20617   3.046   1.256   2.477
 6573SOL    HW120618   3.117   1.282   2.543
 6573SOL    HW220619   3.000   1.339   2.444
 6574SOL     OW20620   2.408   4.816   2.942
 6574SOL    HW120621   2.424   4.883   3.015
 6574SOL    HW220622   2.385   4.727   2.983
 6575SOL     OW20623   1.382   1.640   2.178
 6575SOL    HW120624   1.291   1.679   2.192
 6575SOL    HW220625   1.440   1.660   2.257
 6576SOL     OW20626   1.363   6.132   6.662
 6576SOL    HW120627   1.385   6.130   6.760
 6576SOL    HW220628   1.343   6.039   6.631
 6577SOL     OW20629   0.321   1.810   3.978
 6577SOL    HW120630   0.290   1.732   3.923
 6577SOL    HW220631   0.363   1.878   3.918
 6578SOL     OW20632   6.231   5.602   3.800
 6578SOL    HW120633   6.321   5.641   3.814
 6578SOL    HW220634   6.183   5.595   3.887
 6579SOL     OW20635   6.825   4.187   3.118
 6579SOL    HW120636   6.756   4.208   3.049
 6579SOL    HW220637   6.792   4.113   3.177
 6580SOL     OW20638   5.584   1.135   1.962
 6580SOL    HW120639   5.598   1.229   1.991
 6580SOL    HW220640   5.500   1.128   1.908
 6581SOL     OW20641   3.877   1.790   6.623
 6581SOL    HW120642   3.975   1.789   6.602
 6581SOL    HW220643   3.829   1.732   6.557
 6582SOL     OW20644   6.408   6.845   2.407
 6582SOL    HW120645   6.460   6.855   2.322
 6582SOL    HW220646   6.426   6.922   2.468
 6583SOL     OW20647   5.220   1.070   5.803
 6583SOL    HW120648   5.230   0.974   5.775
 6583SOL    HW220649   5.304   1.100   5.848
 6584SOL     OW20650   6.016   1.772   6.940
 6584SOL    HW120651   6.085   1.704   6.920
 6584SOL    HW220652   6.020   1.797   0.015
 6585SOL     OW20653   0.915   1.815   6.832
 6585SOL    HW120654   1.001   1.806   6.780
 6585SOL    HW220655   0.839   1.783   6.776
 6586SOL     OW20656   6.080   1.849   5.920
 6586SOL    HW120657   6.175   1.882   5.919
 6586SOL    HW220658   6.077   1.755   5.886
 6587SOL     OW20659   2.345   6.124   3.338
 6587SOL    HW120660   2.409   6.178   3.283
 6587SOL    HW220661   2.265   6.102   3.283
 6588SOL     OW20662   1.745   2.878   6.753
 6588SOL    HW120663   1.802   2.959   6.750
 6588SOL    HW220664   1.783   2.808   6.693
 6589SOL     OW20665   4.570   1.587   5.734
 6589SOL    HW120666   4.616   1.515   5.681
 6589SOL    HW220667   4.639   1.652   5.767
 6590SOL     OW20668   6.949   1.210   5.183
 6590SOL    HW120669   0.017   1.194   5.142
 6590SOL    HW220670   6.879   1.204   5.112
 6591SOL     OW20671   6.278   0.190   3.123
 6591SOL    HW120672   6.237   0.168   3.035
 6591SOL    HW220673   6.213   0.241   3.179
 6592SOL     OW20674   5.036   6.108   4.128
 6592SOL    HW120675   5.126   6.130   4.166
 6592SOL    HW220676   4.968   6.108   4.201
 6593SOL     OW20677   3.590   1.642   3.145
 6593SOL    HW120678   3.509   1.631   3.088
 6593SOL    HW220679   3.571   1.611   3.238
 6594SOL     OW20680   4.894   0.397   0.017
 6594SOL    HW120681   4.951   0.453   6.980
 6594SOL    HW220682   4.950   0.356   0.089
 6595SOL     OW20683   1.750   3.863   0.911
 6595SOL    HW120684   1.795   3.951   0.906
 6595SOL    HW220685   1.651   3.876   0.912
 6596SOL     OW20686   4.575   0.170   5.040
 6596SOL    HW120687   4.526   0.088   5.068
 6596SOL    HW220688   4.650   0.145   4.979
 6597SOL     OW20689   0.231   6.154   4.816
 6597SOL    HW120690   0.204   6.057   4.814
 6597SOL    HW220691   0.149   6.211   4.824
 6598SOL     OW20692   1.651   6.070   5.287
 6598SOL    HW120693   1.606   5.982   5.302
 6598SOL    HW220694   1.711   6.062   5.207
 6599SOL     OW20695   4.421   5.099   5.860
 6599SOL    HW120696   4.456   5.018   5.814
 6599SOL    HW220697   4.475   5.117   5.942
 6600SOL     OW20698   4.760   5.630   3.798
 6600SOL    HW120699   4.858   5.608   3.796
 6600SOL    HW220700   4.709   5.551   3.832
 6601SOL     OW20701   0.584   0.510   0.288
 6601SOL    HW120702   0.500   0.507   0.343
 6601SOL    HW220703   0.661   0.537   0.347
 6602SOL     OW20704   6.556   1.313   1.451
 6602SOL    HW120705   6.461   1.304   1.421
 6602SOL    HW220706   6.562   1.292   1.548
 6603SOL     OW20707   2.161   3.777   3.094
 6603SOL    HW120708   2.109   3.859   3.119
 6603SOL    HW220709   2.158   3.765   2.995
 6604SOL     OW20710   2.942   5.142   2.846
 6604SOL    HW120711   2.901   5.222   2.888
 6604SOL    HW220712   3.027   5.167   2.800
 6605SOL     OW20713   5.924   5.650   6.768
 6605SOL    HW120714   5.998   5.703   6.727
 6605SOL    HW220715   5.924   5.557   6.729
 6606SOL     OW20716   5.460   0.749   2.400
 6606SOL    HW120717   5.485   0.742   2.497
 6606SOL    HW220718   5.404   0.831   2.386
 6607SOL     OW20719   1.851   1.380   2.067
 6607SOL    HW120720   1.808   1.352   2.152
 6607SOL    HW220721   1.949   1.361   2.070
 6608SOL     OW20722   5.676   3.915   3.836
 6608SOL    HW120723   5.608   3.984   3.861
 6608SOL    HW220724   5.734   3.895   3.914
 6609SOL     OW20725   5.154   1.029   6.375
 6609SOL    HW120726   5.116   0.971   6.303
 6609SOL    HW220727   5.087   1.041   6.448
 6610SOL     OW20728   2.501   0.752   0.359
 6610SOL    HW120729   2.404   0.770   0.378
 6610SOL    HW220730   2.518   0.654   0.371
 6611SOL     OW20731   5.999   1.901   3.175
 6611SOL    HW120732   6.021   1.979   3.233
 6611SOL    HW220733   5.943   1.931   3.098
 6612SOL     OW20734   1.703   6.552   0.299
 6612SOL    HW120735   1.614   6.528   0.339
 6612SOL    HW220736   1.775   6.539   0.367
 6613SOL     OW20737   4.601   5.033   1.984
 6613SOL    HW120738   4.592   4.972   2.062
 6613SOL    HW220739   4.694   5.071   1.982
 6614SOL     OW20740   5.226   5.864   6.153
 6614SOL    HW120741   5.158   5.793   6.171
 6614SOL    HW220742   5.248   5.911   6.239
 6615SOL     OW20743   0.435   3.889   5.226
 6615SOL    HW120744   0.458   3.930   5.137
 6615SOL    HW220745   0.484   3.803   5.236
 6616SOL     OW20746   5.146   1.406   4.943
 6616SOL    HW120747   5.136   1.312   4.909
 6616SOL    HW220748   5.238   1.438   4.923
 6617SOL     OW20749   3.173   7.000   4.924
 6617SOL    HW120750   3.114   6.928   4.888
 6617SOL    HW220751   3.139   0.067   4.894
 6618SOL     OW20752   1.277   4.358   2.061
 6618SOL    HW120753   1.180   4.381   2.053
 6618SOL    HW220754   1.291   4.304   2.144
 6619SOL     OW20755   4.452   5.884   2.717
 6619SOL    HW120756   4.517   5.948   2.759
 6619SOL    HW220757   4.359   5.912   2.739
 6620SOL     OW20758   1.154   2.621   5.762
 6620SOL    HW120759   1.160   2.668   5.850
 6620SOL    HW220760   1.074   2.655   5.712
 6621SOL     OW20761   2.736   4.571   6.797
 6621SOL    HW120762   2.705   4.521   6.716
 6621SOL    HW220763   2.727   4.513   6.877
 6622SOL     OW20764   6.485   5.866   6.987
 6622SOL    HW120765   6.455   5.902   0.053
 6622SOL    HW220766   6.580   5.836   6.993
 6623SOL     OW20767   3.649   3.189   2.362
 6623SOL    HW120768   3.724   3.237   2.406
 6623SOL    HW220769   3.683   3.141   2.281
 6624SOL     OW20770   4.406   5.471   4.343
 6624SOL    HW120771   4.353   5.434   4.420
 6624SOL    HW220772   4.468   5.542   4.377
 6625SOL     OW20773   6.566   0.591   6.867
 6625SOL    HW120774   6.650   0.642   6.887
 6625SOL    HW220775   6.512   0.581   6.951
 6626SOL     OW20776   3.089   5.447   3.206
 6626SOL    HW120777   3.168   5.412   3.156
 6626SOL    HW220778   3.023   5.485   3.142
 6627SOL     OW20779   1.989   0.854   0.080
 6627SOL    HW120780   2.089   0.847   0.081
 6627SOL    HW220781   1.960   0.906   7.022
 6628SOL     OW20782   4.395   5.600   2.614
 6628SOL    HW120783   4.399   5.550   2.700
 6628SOL    HW220784   4.409   5.698   2.632
 6629SOL     OW20785   3.732   5.605   0.931
 6629SOL    HW120786   3.694   5.563   0.850
 6629SOL    HW220787   3.816   5.557   0.958
 6630SOL     OW20788   3.073   2.097   0.710
 6630SOL    HW120789   3.033   2.005   0.713
 6630SOL    HW220790   3.170   2.089   0.685
 6631SOL     OW20791   5.186   0.952   2.593
 6631SOL    HW120792   5.151   1.001   2.673
 6631SOL    HW220793   5.193   0.855   2.614
 6632SOL     OW20794   0.195   0.641   0.406
 6632SOL    HW120795   0.235   0.728   0.378
 6632SOL    HW220796   0.095   0.646   0.402
 6633SOL     OW20797   1.812   6.322   0.868
 6633SOL    HW120798   1.844   6.404   0.915
 6633SOL    HW220799   1.722   6.340   0.828
 6634SOL     OW20800   6.301   2.768   5.804
 6634SOL    HW120801   6.387   2.727   5.836
 6634SOL    HW220802   6.229   2.750   5.871
 6635SOL     OW20803   4.594   4.871   3.790
 6635SOL    HW120804   4.612   4.810   3.713
 6635SOL    HW220805   4.637   4.835   3.872
 6636SOL     OW20806   1.627   2.594   4.196
 6636SOL    HW120807   1.543   2.631   4.235
 6636SOL    HW220808   1.629   2.495   4.211
 6637SOL     OW20809   0.563   6.932   0.958
 6637SOL    HW120810   0.550   6.847   1.008
 6637SOL    HW220811   0.608   6.999   1.017
 6638SOL     OW20812   2.188   5.762   6.124
 6638SOL    HW120813   2.169   5.776   6.027
 6638SOL    HW220814   2.271   5.708   6.134
 6639SOL     OW20815   6.166   5.233   6.925
 6639SOL    HW120816   6.128   5.318   6.961
 6639SOL    HW220817   6.098   5.160   6.933
 6640SOL     OW20818   6.742   2.423   3.518
 6640SOL    HW120819   6.726   2.371   3.602
 6640SOL    HW220820   6.676   2.395   3.449
 6641SOL     OW20821   2.153   3.815   6.100
 6641SOL    HW120822   2.216   3.767   6.161
 6641SOL    HW220823   2.125   3.901   6.142
 6642SOL     OW20824   0.836   5.671   6.396
 6642SOL    HW120825   0.896   5.592   6.413
 6642SOL    HW220826   0.842   5.697   6.299
 6643SOL     OW20827   5.489   4.511   6.299
 6643SOL    HW120828   5.579   4.469   6.311
 6643SOL    HW220829   5.427   4.446   6.254
 6644SOL     OW20830   3.018   4.780   1.966
 6644SOL    HW120831   2.941   4.716   1.959
 6644SOL    HW220832   3.040   4.796   2.062
 6645SOL     OW20833   0.202   4.918   5.727
 6645SOL    HW120834   0.246   4.830   5.710
 6645SOL    HW220835   0.217   4.978   5.648
 6646SOL     OW20836   2.704   5.735   4.190
 6646SOL    HW120837   2.700   5.830   4.219
 6646SOL    HW220838   2.618   5.689   4.214
 6647SOL     OW20839   3.230   1.296   1.988
 6647SOL    HW120840   3.241   1.237   2.068
 6647SOL    HW220841   3.259   1.247   1.906
 6648SOL     OW20842   5.054   5.802   2.864
 6648SOL    HW120843   5.039   5.768   2.771
 6648SOL    HW220844   5.010   5.740   2.929
 6649SOL     OW20845   4.492   1.990   6.257
 6649SOL    HW120846   4.545   2.012   6.175
 6649SOL    HW220847   4.550   1.943   6.323
 6650SOL     OW20848   4.092   1.381   4.153
 6650SOL    HW120849   4.049   1.293   4.133
 6650SOL    HW220850   4.057   1.450   4.090
 6651SOL     OW20851   0.540   2.703   7.009
 6651SOL    HW120852   0.505   2.768   6.943
 6651SOL    HW220853   0.639   2.691   6.994
 6652SOL     OW20854   0.429   5.478   2.045
 6652SOL    HW120855   0.496   5.407   2.021
 6652SOL    HW220856   0.474   5.567   2.048
 6653SOL     OW20857   3.833   3.938   3.930
 6653SOL    HW120858   3.790   3.889   4.006
 6653SOL    HW220859   3.921   3.897   3.910
 6654SOL     OW20860   2.133   3.394   1.685
 6654SOL    HW120861   2.164   3.363   1.594
 6654SOL    HW220862   2.209   3.388   1.749
 6655SOL     OW20863   2.637   6.389   2.052
 6655SOL    HW120864   2.613   6.426   2.142
 6655SOL    HW220865   2.566   6.325   2.022
 6656SOL     OW20866   6.160   1.568   1.556
 6656SOL    HW120867   6.229   1.577   1.484
 6656SOL    HW220868   6.070   1.557   1.513
 6657SOL     OW20869   3.330   6.470   6.653
 6657SOL    HW120870   3.262   6.425   6.596
 6657SOL    HW220871   3.413   6.415   6.657
 6658SOL     OW20872   6.133   1.443   4.974
 6658SOL    HW120873   6.111   1.410   4.882
 6658SOL    HW220874   6.055   1.494   5.011
 6659SOL     OW20875   2.147   3.611   0.308
 6659SOL    HW120876   2.215   3.586   0.377
 6659SOL    HW220877   2.080   3.538   0.298
 6660SOL     OW20878   6.827   6.742   2.784
 6660SOL    HW120879   6.854   6.836   2.763
 6660SOL    HW220880   6.824   6.730   2.883
 6661SOL     OW20881   0.372   5.624   3.959
 6661SOL    HW120882   0.399   5.596   4.051
 6661SOL    HW220883   0.352   5.722   3.958
 6662SOL     OW20884   2.041   1.970   0.083
 6662SOL    HW120885   2.085   1.954   7.017
 6662SOL    HW220886   2.110   1.970   0.155
 6663SOL     OW20887   0.543   5.720   2.167
 6663SOL    HW120888   0.637   5.719   2.202
 6663SOL    HW220889   0.508   5.814   2.168
 6664SOL     OW20890   1.353   0.546   2.207
 6664SOL    HW120891   1.369   0.472   2.141
 6664SOL    HW220892   1.437   0.562   2.259
 6665SOL     OW20893   1.862   6.082   3.148
 6665SOL    HW120894   1.882   6.002   3.092
 6665SOL    HW220895   1.813   6.150   3.092
 6666SOL     OW20896   6.393   0.820   6.160
 6666SOL    HW120897   6.425   0.738   6.208
 6666SOL    HW220898   6.450   0.898   6.187
 6667SOL     OW20899   0.264   5.057   5.497
 6667SOL    HW120900   0.348   5.088   5.453
 6667SOL    HW220901   0.202   5.021   5.427
 6668SOL     OW20902   1.014   4.415   2.034
 6668SOL    HW120903   1.022   4.496   1.977
 6668SOL    HW220904   0.940   4.357   1.998
 6669SOL     OW20905   2.147   5.953   3.204
 6669SOL    HW120906   2.058   5.981   3.239
 6669SOL    HW220907   2.189   5.888   3.268
 6670SOL     OW20908   3.045   5.210   0.029
 6670SOL    HW120909   3.015   5.298   7.016
 6670SOL    HW220910   2.968   5.147   0.032
 6671SOL     OW20911   6.653   3.419   6.076
 6671SOL    HW120912   6.561   3.382   6.066
 6671SOL    HW220913   6.718   3.346   6.096
 6672SOL     OW20914   0.981   0.544   5.762
 6672SOL    HW120915   1.023   0.584   5.680
 6672SOL    HW220916   0.978   0.445   5.753
 6673SOL     OW20917   4.635   5.064   1.719
 6673SOL    HW120918   4.563   5.128   1.695
 6673SOL    HW220919   4.622   5.032   1.813
 6674SOL     OW20920   0.871   6.472   5.387
 6674SOL    HW120921   0.850   6.386   5.341
 6674SOL    HW220922   0.830   6.548   5.337
 6675SOL     OW20923   5.929   5.196   0.178
 6675SOL    HW120924   6.014   5.153   0.208
 6675SOL    HW220925   5.851   5.145   0.214
 6676SOL     OW20926   0.698   2.725   5.637
 6676SOL    HW120927   0.693   2.752   5.733
 6676SOL    HW220928   0.640   2.645   5.621
 6677SOL     OW20929   0.754   3.043   0.213
 6677SOL    HW120930   0.829   2.980   0.235
 6677SOL    HW220931   0.773   3.132   0.255
 6678SOL     OW20932   1.088   2.688   6.048
 6678SOL    HW120933   1.065   2.603   6.095
 6678SOL    HW220934   1.151   2.742   6.104
 6679SOL     OW20935   1.384   2.793   4.916
 6679SOL    HW120936   1.428   2.775   4.828
 6679SOL    HW220937   1.334   2.711   4.945
 6680SOL     OW20938   3.762   6.719   6.486
 6680SOL    HW120939   3.802   6.684   6.570
 6680SOL    HW220940   3.814   6.799   6.455
 6681SOL     OW20941   5.157   5.368   0.590
 6681SOL    HW120942   5.224   5.400   0.658
 6681SOL    HW220943   5.101   5.445   0.560
 6682SOL     OW20944   0.479   5.546   2.634
 6682SOL    HW120945   0.578   5.541   2.642
 6682SOL    HW220946   0.450   5.505   2.547
 6683SOL     OW20947   4.971   1.599   4.944
 6683SOL    HW120948   5.029   1.521   4.966
 6683SOL    HW220949   4.897   1.607   5.011
 6684SOL     OW20950   1.164   0.119   2.325
 6684SOL    HW120951   1.078   0.077   2.355
 6684SOL    HW220952   1.233   0.047   2.313
 6685SOL     OW20953   5.353   3.128   6.386
 6685SOL    HW120954   5.370   3.185   6.305
 6685SOL    HW220955   5.401   3.166   6.465
 6686SOL     OW20956   5.867   3.915   3.345
 6686SOL    HW120957   5.889   3.827   3.302
 6686SOL    HW220958   5.838   3.899   3.439
 6687SOL     OW20959   1.253   1.505   0.965
 6687SOL    HW120960   1.194   1.534   1.040
 6687SOL    HW220961   1.321   1.576   0.946
 6688SOL     OW20962   0.726   4.330   2.621
 6688SOL    HW120963   0.789   4.342   2.544
 6688SOL    HW220964   0.700   4.234   2.628
 6689SOL     OW20965   5.269   4.604   6.967
 6689SOL    HW120966   5.188   4.654   6.998
 6689SOL    HW220967   5.296   4.537   0.015
 6690SOL     OW20968   2.180   3.491   1.186
 6690SOL    HW120969   2.159   3.474   1.090
 6690SOL    HW220970   2.095   3.488   1.239
 6691SOL     OW20971   2.291   4.981   1.741
 6691SOL    HW120972   2.297   4.936   1.653
 6691SOL    HW220973   2.339   5.069   1.737
 6692SOL     OW20974   3.088   4.173   5.225
 6692SOL    HW120975   3.092   4.154   5.323
 6692SOL    HW220976   3.064   4.269   5.210
 6693SOL     OW20977   4.338   3.665   5.479
 6693SOL    HW120978   4.367   3.595   5.545
 6693SOL    HW220979   4.292   3.620   5.402
 6694SOL     OW20980   4.545   6.229   0.474
 6694SOL    HW120981   4.612   6.186   0.414
 6694SOL    HW220982   4.533   6.325   0.449
 6695SOL     OW20983   1.117   1.573   6.806
 6695SOL    HW120984   1.184   1.617   6.867
 6695SOL    HW220985   1.052   1.521   6.861
 6696SOL     OW20986   2.036   3.343   1.931
 6696SOL    HW120987   2.095   3.421   1.953
 6696SOL    HW220988   2.028   3.336   1.831
 6697SOL     OW20989   4.661   1.739   2.999
 6697SOL    HW120990   4.621   1.714   3.087
 6697SOL    HW220991   4.690   1.656   2.951
 6698SOL     OW20992   3.967   3.697   6.838
 6698SOL    HW120993   3.873   3.701   6.806
 6698SOL    HW220994   3.985   3.607   6.878
 6699SOL     OW20995   2.106   4.737   6.983
 6699SOL    HW120996   2.122   4.639   6.995
 6699SOL    HW220997   2.035   4.768   0.024
 6700SOL     OW20998   0.158   6.300   0.869
 6700SOL    HW120999   0.253   6.330   0.868
 6700SOL    HW221000   0.153   6.204   0.898
 6701SOL     OW21001   0.422   1.608   0.418
 6701SOL    HW121002   0.362   1.688   0.412
 6701SOL    HW221003   0.513   1.637   0.446
 6702SOL     OW21004   2.238   1.621   1.543
 6702SOL    HW121005   2.154   1.656   1.501
 6702SOL    HW221006   2.312   1.621   1.476
 6703SOL     OW21007   6.639   1.503   6.800
 6703SOL    HW121008   6.663   1.451   6.883
 6703SOL    HW221009   6.595   1.442   6.735
 6704SOL     OW21010   4.588   2.626   2.445
 6704SOL    HW121011   4.652   2.664   2.378
 6704SOL    HW221012   4.626   2.636   2.537
 6705SOL     OW21013   5.973   2.488   0.648
 6705SOL    HW121014   6.016   2.442   0.569
 6705SOL    HW221015   6.028   2.568   0.673
 6706SOL     OW21016   0.744   4.290   6.385
 6706SOL    HW121017   0.741   4.200   6.341
 6706SOL    HW221018   0.716   4.282   6.480
 6707SOL     OW21019   0.807   5.571   3.304
 6707SOL    HW121020   0.903   5.544   3.305
 6707SOL    HW221021   0.775   5.585   3.397
 6708SOL     OW21022   2.287   6.066   2.086
 6708SOL    HW121023   2.203   6.029   2.046
 6708SOL    HW221024   2.275   6.077   2.185
 6709SOL     OW21025   4.096   1.080   2.145
 6709SOL    HW121026   4.059   0.995   2.107
 6709SOL    HW221027   4.073   1.086   2.242
 6710SOL     OW21028   3.196   2.555   6.977
 6710SOL    HW121029   3.259   2.546   0.032
 6710SOL    HW221030   3.133   2.631   6.993
 6711SOL     OW21031   4.034   3.764   0.331
 6711SOL    HW121032   3.943   3.772   0.372
 6711SOL    HW221033   4.033   3.809   0.242
 6712SOL     OW21034   3.644   6.158   0.182
 6712SOL    HW121035   3.611   6.123   0.270
 6712SOL    HW221036   3.735   6.198   0.194
 6713SOL     OW21037   1.585   2.510   1.366
 6713SOL    HW121038   1.639   2.471   1.291
 6713SOL    HW221039   1.544   2.596   1.335
 6714SOL     OW21040   5.760   0.497   4.584
 6714SOL    HW121041   5.821   0.571   4.556
 6714SOL    HW221042   5.764   0.423   4.516
 6715SOL     OW21043   0.149   1.311   0.755
 6715SOL    HW121044   0.179   1.334   0.663
 6715SOL    HW221045   0.178   1.218   0.778
 6716SOL     OW21046   2.033   5.549   1.418
 6716SOL    HW121047   1.933   5.558   1.420
 6716SOL    HW221048   2.071   5.616   1.354
 6717SOL     OW21049   4.394   2.048   0.157
 6717SOL    HW121050   4.456   2.049   0.079
 6717SOL    HW221051   4.427   2.110   0.228
 6718SOL     OW21052   3.120   0.483   0.613
 6718SOL    HW121053   3.110   0.547   0.537
 6718SOL    HW221054   3.097   0.391   0.582
 6719SOL     OW21055   6.718   6.523   5.658
 6719SOL    HW121056   6.620   6.519   5.636
 6719SOL    HW221057   6.761   6.597   5.606
 6720SOL     OW21058   1.810   5.238   1.356
 6720SOL    HW121059   1.866   5.258   1.436
 6720SOL    HW221060   1.839   5.296   1.280
 6721SOL     OW21061   5.487   6.463   3.746
 6721SOL    HW121062   5.417   6.450   3.675
 6721SOL    HW221063   5.443   6.499   3.828
 6722SOL     OW21064   4.637   3.482   6.748
 6722SOL    HW121065   4.580   3.400   6.754
 6722SOL    HW221066   4.625   3.524   6.657
 6723SOL     OW21067   3.668   6.391   3.370
 6723SOL    HW121068   3.646   6.317   3.306
 6723SOL    HW221069   3.648   6.362   3.463
 6724SOL     OW21070   3.163   4.552   5.424
 6724SOL    HW121071   3.216   4.544   5.340
 6724SOL    HW221072   3.074   4.507   5.412
 6725SOL     OW21073   0.446   5.195   2.636
 6725SOL    HW121074   0.372   5.230   2.693
 6725SOL    HW221075   0.447   5.244   2.549
 6726SOL     OW21076   2.705   2.241   3.727
 6726SOL    HW121077   2.637   2.301   3.767
 6726SOL    HW221078   2.683   2.224   3.631
 6727SOL     OW21079   4.027   3.372   6.164
 6727SOL    HW121080   4.117   3.358   6.122
 6727SOL    HW221081   4.036   3.373   6.263
 6728SOL     OW21082   4.286   1.564   3.685
 6728SOL    HW121083   4.292   1.532   3.591
 6728SOL    HW221084   4.190   1.569   3.713
 6729SOL     OW21085   5.551   0.982   3.059
 6729SOL    HW121086   5.624   0.942   3.004
 6729SOL    HW221087   5.576   1.076   3.084
 6730SOL     OW21088   2.596   1.202   6.845
 6730SOL    HW121089   2.686   1.223   6.883
 6730SOL    HW221090   2.527   1.212   6.916
 6731SOL     OW21091   2.649   4.564   1.643
 6731SOL    HW121092   2.625   4.587   1.737
 6731SOL    HW221093   2.683   4.470   1.639
 6732SOL     OW21094   2.799   5.794   0.756
 6732SOL    HW121095   2.797   5.804   0.657
 6732SOL    HW221096   2.756   5.708   0.783
 6733SOL     OW21097   5.342   5.973   5.078
 6733SOL    HW121098   5.392   5.995   5.161
 6733SOL    HW221099   5.272   6.042   5.061
 6734SOL     OW21100   2.498   3.466   5.551
 6734SOL    HW121101   2.518   3.379   5.504
 6734SOL    HW221102   2.407   3.497   5.526
 6735SOL     OW21103   6.639   5.350   5.674
 6735SOL    HW121104   6.576   5.275   5.694
 6735SOL    HW221105   6.612   5.431   5.726
 6736SOL     OW21106   2.102   3.426   2.279
 6736SOL    HW121107   2.117   3.327   2.283
 6736SOL    HW221108   2.127   3.460   2.188
 6737SOL     OW21109   2.050   0.818   1.745
 6737SOL    HW121110   2.103   0.794   1.664
 6737SOL    HW221111   2.108   0.870   1.808
 6738SOL     OW21112   3.375   0.789   2.376
 6738SOL    HW121113   3.302   0.836   2.427
 6738SOL    HW221114   3.384   0.695   2.408
 6739SOL     OW21115   3.755   6.753   4.756
 6739SOL    HW121116   3.821   6.749   4.681
 6739SOL    HW221117   3.738   6.848   4.781
 6740SOL     OW21118   0.916   1.634   4.195
 6740SOL    HW121119   0.999   1.675   4.156
 6740SOL    HW221120   0.843   1.637   4.127
 6741SOL     OW21121   6.235   6.909   6.095
 6741SOL    HW121122   6.263   7.000   6.065
 6741SOL    HW221123   6.292   6.840   6.050
 6742SOL     OW21124   6.110   5.611   5.765
 6742SOL    HW121125   6.135   5.548   5.691
 6742SOL    HW221126   6.037   5.672   5.734
 6743SOL     OW21127   4.613   3.313   0.984
 6743SOL    HW121128   4.636   3.266   0.899
 6743SOL    HW221129   4.515   3.303   1.002
 6744SOL     OW21130   4.592   4.461   5.662
 6744SOL    HW121131   4.525   4.495   5.729
 6744SOL    HW221132   4.671   4.522   5.659
 6745SOL     OW21133   1.181   4.458   4.211
 6745SOL    HW121134   1.232   4.530   4.259
 6745SOL    HW221135   1.237   4.376   4.203
 6746SOL     OW21136   0.352   1.644   0.796
 6746SOL    HW121137   0.339   1.631   0.894
 6746SOL    HW221138   0.279   1.597   0.746
 6747SOL     OW21139   5.437   5.956   5.360
 6747SOL    HW121140   5.478   5.871   5.395
 6747SOL    HW221141   5.347   5.969   5.401
 6748SOL     OW21142   0.716   0.009   2.134
 6748SOL    HW121143   0.680   0.019   2.227
 6748SOL    HW221144   0.781   0.082   2.116
 6749SOL     OW21145   4.604   6.190   7.001
 6749SOL    HW121146   4.519   6.235   0.006
 6749SOL    HW221147   4.615   6.196   6.901
 6750SOL     OW21148   2.771   3.097   5.344
 6750SOL    HW121149   2.754   3.171   5.409
 6750SOL    HW221150   2.687   3.074   5.295
 6751SOL     OW21151   2.503   1.493   5.336
 6751SOL    HW121152   2.550   1.416   5.295
 6751SOL    HW221153   2.437   1.531   5.270
 6752SOL     OW21154   6.120   2.334   0.463
 6752SOL    HW121155   6.212   2.364   0.439
 6752SOL    HW221156   6.062   2.338   0.382
 6753SOL     OW21157   4.391   2.142   6.493
 6753SOL    HW121158   4.474   2.194   6.510
 6753SOL    HW221159   4.389   2.111   6.398
 6754SOL     OW21160   6.185   0.841   0.005
 6754SOL    HW121161   6.121   0.765   0.011
 6754SOL    HW221162   6.234   0.850   0.091
 6755SOL     OW21163   4.890   2.161   3.744
 6755SOL    HW121164   4.976   2.109   3.745
 6755SOL    HW221165   4.822   2.112   3.798
 6756SOL     OW21166   5.192   4.685   4.843
 6756SOL    HW121167   5.177   4.782   4.826
 6756SOL    HW221168   5.243   4.673   4.928
 6757SOL     OW21169   6.036   5.700   1.855
 6757SOL    HW121170   5.978   5.780   1.872
 6757SOL    HW221171   6.066   5.701   1.759
 6758SOL     OW21172   4.788   2.403   2.353
 6758SOL    HW121173   4.782   2.503   2.347
 6758SOL    HW221174   4.860   2.370   2.292
 6759SOL     OW21175   0.027   4.661   3.316
 6759SOL    HW121176   0.036   4.568   3.352
 6759SOL    HW221177   6.980   4.662   3.244
 6760SOL     OW21178   6.361   3.789   4.475
 6760SOL    HW121179   6.322   3.775   4.566
 6760SOL    HW221180   6.348   3.884   4.448
 6761SOL     OW21181   4.890   3.471   6.273
 6761SOL    HW121182   4.812   3.417   6.304
 6761SOL    HW221183   4.951   3.490   6.351
 6762SOL     OW21184   6.193   4.567   4.111
 6762SOL    HW121185   6.285   4.556   4.149
 6762SOL    HW221186   6.192   4.644   4.048
 6763SOL     OW21187   5.904   6.367   5.816
 6763SOL    HW121188   5.808   6.342   5.805
 6763SOL    HW221189   5.948   6.371   5.726
 6764SOL     OW21190   2.124   4.274   6.505
 6764SOL    HW121191   2.159   4.345   6.566
 6764SOL    HW221192   2.054   4.313   6.445
 6765SOL     OW21193   5.672   4.998   2.870
 6765SOL    HW121194   5.591   5.039   2.912
 6765SOL    HW221195   5.692   4.911   2.914
 6766SOL     OW21196   1.915   0.661   5.681
 6766SOL    HW121197   1.998   0.605   5.681
 6766SOL    HW221198   1.939   0.755   5.706
 6767SOL     OW21199   0.024   2.755   6.995
 6767SOL    HW121200   0.002   2.849   7.020
 6767SOL    HW221201   6.998   2.730   6.910
 6768SOL     OW21202   0.090   0.169   5.215
 6768SOL    HW121203   0.141   0.088   5.186
 6768SOL    HW221204   0.153   0.245   5.230
 6769SOL     OW21205   1.989   3.217   6.257
 6769SOL    HW121206   1.983   3.189   6.162
 6769SOL    HW221207   1.981   3.316   6.263
 6770SOL     OW21208   0.889   1.490   3.075
 6770SOL    HW121209   0.805   1.495   3.020
 6770SOL    HW221210   0.888   1.408   3.131
 6771SOL     OW21211   4.341   1.699   2.921
 6771SOL    HW121212   4.363   1.614   2.970
 6771SOL    HW221213   4.398   1.773   2.956
 6772SOL     OW21214   6.859   0.994   1.389
 6772SOL    HW121215   6.812   0.988   1.477
 6772SOL    HW221216   6.792   0.986   1.315
 6773SOL     OW21217   1.606   6.239   1.404
 6773SOL    HW121218   1.600   6.209   1.309
 6773SOL    HW221219   1.697   6.220   1.439
 6774SOL     OW21220   2.504   2.534   5.704
 6774SOL    HW121221   2.556   2.569   5.626
 6774SOL    HW221222   2.558   2.465   5.751
 6775SOL     OW21223   0.395   2.606   4.494
 6775SOL    HW121224   0.397   2.650   4.405
 6775SOL    HW221225   0.458   2.653   4.556
 6776SOL     OW21226   4.007   3.881   3.032
 6776SOL    HW121227   4.069   3.803   3.043
 6776SOL    HW221228   3.964   3.902   3.120
 6777SOL     OW21229   6.176   5.740   6.642
 6777SOL    HW121230   6.233   5.795   6.704
 6777SOL    HW221231   6.231   5.666   6.604
 6778SOL     OW21232   5.873   5.803   2.153
 6778SOL    HW121233   5.834   5.859   2.080
 6778SOL    HW221234   5.804   5.740   2.187
 6779SOL     OW21235   5.148   3.519   6.101
 6779SOL    HW121236   5.182   3.438   6.053
 6779SOL    HW221237   5.088   3.491   6.176
 6780SOL     OW21238   3.487   2.137   3.097
 6780SOL    HW121239   3.500   2.039   3.079
 6780SOL    HW221240   3.574   2.184   3.088
 6781SOL     OW21241   6.557   1.846   3.429
 6781SOL    HW121242   6.647   1.803   3.435
 6781SOL    HW221243   6.559   1.935   3.475
 6782SOL     OW21244   6.927   1.382   3.129
 6782SOL    HW121245   6.893   1.409   3.039
 6782SOL    HW221246   6.878   1.433   3.200
 6783SOL     OW21247   1.055   4.670   5.571
 6783SOL    HW121248   1.079   4.673   5.474
 6783SOL    HW221249   1.075   4.759   5.613
 6784SOL     OW21250   2.287   3.918   1.839
 6784SOL    HW121251   2.297   4.006   1.885
 6784SOL    HW221252   2.223   3.861   1.891
 6785SOL     OW21253   5.504   5.088   4.492
 6785SOL    HW121254   5.574   5.131   4.435
 6785SOL    HW221255   5.547   5.049   4.574
 6786SOL     OW21256   5.822   1.599   6.064
 6786SOL    HW121257   5.776   1.685   6.040
 6786SOL    HW221258   5.896   1.618   6.128
 6787SOL     OW21259   3.190   2.066   0.147
 6787SOL    HW121260   3.171   2.097   0.054
 6787SOL    HW221261   3.246   1.984   0.144
 6788SOL     OW21262   0.113   4.192   2.117
 6788SOL    HW121263   0.014   4.197   2.109
 6788SOL    HW221264   0.142   4.096   2.124
 6789SOL     OW21265   5.116   4.508   3.141
 6789SOL    HW121266   5.142   4.420   3.180
 6789SOL    HW221267   5.046   4.494   3.071
 6790SOL     OW21268   0.981   5.033   6.414
 6790SOL    HW121269   0.941   4.941   6.411
 6790SOL    HW221270   1.066   5.034   6.361
 6791SOL     OW21271   2.600   0.258   2.924
 6791SOL    HW121272   2.621   0.291   2.832
 6791SOL    HW221273   2.631   0.164   2.933
 6792SOL     OW21274   3.982   0.145   5.419
 6792SOL    HW121275   3.913   0.074   5.404
 6792SOL    HW221276   4.070   0.101   5.441
 6793SOL     OW21277   1.951   3.531   6.280
 6793SOL    HW121278   1.985   3.563   6.369
 6793SOL    HW221279   1.905   3.607   6.233
 6794SOL     OW21280   5.782   2.413   5.621
 6794SOL    HW121281   5.864   2.471   5.619
 6794SOL    HW221282   5.701   2.471   5.634
 6795SOL     OW21283   1.404   0.270   1.679
 6795SOL    HW121284   1.444   0.182   1.654
 6795SOL    HW221285   1.356   0.308   1.600
 6796SOL     OW21286   6.308   1.945   2.760
 6796SOL    HW121287   6.233   1.884   2.736
 6796SOL    HW221288   6.338   1.995   2.678
 6797SOL     OW21289   0.662   3.267   1.319
 6797SOL    HW121290   0.572   3.262   1.363
 6797SOL    HW221291   0.673   3.190   1.256
 6798SOL     OW21292   5.478   0.303   2.034
 6798SOL    HW121293   5.468   0.302   2.133
 6798SOL    HW221294   5.551   0.240   2.007
 6799SOL     OW21295   6.565   0.530   3.603
 6799SOL    HW121296   6.585   0.627   3.588
 6799SOL    HW221297   6.641   0.488   3.654
 6800SOL     OW21298   6.225   2.747   1.338
 6800SOL    HW121299   6.323   2.751   1.359
 6800SOL    HW221300   6.192   2.654   1.352
 6801SOL     OW21301   0.827   6.827   6.327
 6801SOL    HW121302   0.797   6.819   6.232
 6801SOL    HW221303   0.927   6.831   6.331
 6802SOL     OW21304   3.227   5.087   2.045
 6802SOL    HW121305   3.148   5.147   2.048
 6802SOL    HW221306   3.219   5.024   1.968
 6803SOL     OW21307   5.456   5.181   6.364
 6803SOL    HW121308   5.534   5.166   6.303
 6803SOL    HW221309   5.376   5.134   6.328
 6804SOL     OW21310   3.869   4.857   2.830
 6804SOL    HW121311   3.874   4.954   2.855
 6804SOL    HW221312   3.921   4.803   2.896
 6805SOL     OW21313   6.907   4.841   4.932
 6805SOL    HW121314   6.904   4.927   4.881
 6805SOL    HW221315   6.890   4.765   4.870
 6806SOL     OW21316   6.405   2.620   1.627
 6806SOL    HW121317   6.330   2.554   1.639
 6806SOL    HW221318   6.439   2.613   1.533
 6807SOL     OW21319   3.297   4.097   1.722
 6807SOL    HW121320   3.373   4.116   1.785
 6807SOL    HW221321   3.232   4.173   1.725
 6808SOL     OW21322   2.869   1.396   4.351
 6808SOL    HW121323   2.902   1.468   4.291
 6808SOL    HW221324   2.943   1.366   4.411
 6809SOL     OW21325   5.974   3.486   0.113
 6809SOL    HW121326   5.914   3.483   0.193
 6809SOL    HW221327   5.920   3.514   0.033
 6810SOL     OW21328   2.754   0.662   4.701
 6810SOL    HW121329   2.725   0.597   4.771
 6810SOL    HW221330   2.758   0.616   4.612
 6811SOL     OW21331   6.017   1.322   0.389
 6811SOL    HW121332   6.104   1.273   0.383
 6811SOL    HW221333   5.959   1.296   0.311
 6812SOL     OW21334   3.962   4.174   5.205
 6812SOL    HW121335   4.048   4.218   5.232
 6812SOL    HW221336   3.978   4.117   5.124
 6813SOL     OW21337   6.624   3.377   2.473
 6813SOL    HW121338   6.533   3.391   2.435
 6813SOL    HW221339   6.630   3.285   2.511
 6814SOL     OW21340   5.712   0.792   6.921
 6814SOL    HW121341   5.764   0.707   6.933
 6814SOL    HW221342   5.775   0.869   6.914
 6815SOL     OW21343   1.192   4.896   5.632
 6815SOL    HW121344   1.277   4.894   5.684
 6815SOL    HW221345   1.139   4.977   5.658
 6816SOL     OW21346   6.928   0.553   3.524
 6816SOL    HW121347   6.962   0.552   3.618
 6816SOL    HW221348   6.908   0.647   3.497
 6817SOL     OW21349   4.055   2.204   1.386
 6817SOL    HW121350   4.072   2.179   1.481
 6817SOL    HW221351   4.006   2.291   1.382
 6818SOL     OW21352   1.498   6.799   5.402
 6818SOL    HW121353   1.429   6.868   5.382
 6818SOL    HW221354   1.468   6.742   5.479
 6819SOL     OW21355   4.792   4.329   2.062
 6819SOL    HW121356   4.834   4.307   1.974
 6819SOL    HW221357   4.696   4.300   2.062
 6820SOL     OW21358   3.050   5.193   1.628
 6820SOL    HW121359   2.992   5.112   1.630
 6820SOL    HW221360   3.143   5.169   1.654
 6821SOL     OW21361   3.937   2.526   5.447
 6821SOL    HW121362   3.984   2.559   5.529
 6821SOL    HW221363   4.004   2.508   5.375
 6822SOL     OW21364   6.400   3.291   6.050
 6822SOL    HW121365   6.354   3.205   6.032
 6822SOL    HW221366   6.380   3.356   5.977
 6823SOL     OW21367   6.626   2.326   5.178
 6823SOL    HW121368   6.681   2.387   5.236
 6823SOL    HW221369   6.683   2.251   5.145
 6824SOL     OW21370   1.217   0.248   5.429
 6824SOL    HW121371   1.214   0.157   5.469
 6824SOL    HW221372   1.178   0.314   5.493
 6825SOL     OW21373   4.344   4.297   0.972
 6825SOL    HW121374   4.378   4.350   1.051
 6825SOL    HW221375   4.313   4.360   0.901
 6826SOL     OW21376   6.379   6.307   3.750
 6826SOL    HW121377   6.279   6.309   3.748
 6826SOL    HW221378   6.413   6.253   3.672
 6827SOL     OW21379   4.812   5.929   4.875
 6827SOL    HW121380   4.730   5.984   4.857
 6827SOL    HW221381   4.894   5.983   4.854
 6828SOL     OW21382   3.072   2.168   2.478
 6828SOL    HW121383   2.990   2.192   2.532
 6828SOL    HW221384   3.136   2.118   2.536
 6829SOL     OW21385   3.916   0.044   3.036
 6829SOL    HW121386   4.005   0.013   3.070
 6829SOL    HW221387   3.929   0.096   2.951
 6830SOL     OW21388   4.916   4.776   2.879
 6830SOL    HW121389   4.946   4.783   2.974
 6830SOL    HW221390   4.846   4.705   2.871
 6831SOL     OW21391   1.903   2.048   6.042
 6831SOL    HW121392   1.997   2.054   6.008
 6831SOL    HW221393   1.841   2.031   5.965
 6832SOL     OW21394   3.291   2.411   6.543
 6832SOL    HW121395   3.230   2.346   6.498
 6832SOL    HW221396   3.237   2.477   6.595
 6833SOL     OW21397   3.635   5.376   5.727
 6833SOL    HW121398   3.712   5.344   5.671
 6833SOL    HW221399   3.582   5.297   5.758
 6834SOL     OW21400   6.541   6.273   6.901
 6834SOL    HW121401   6.558   6.311   6.992
 6834SOL    HW221402   6.615   6.299   6.840
 6835SOL     OW21403   2.735   0.929   4.842
 6835SOL    HW121404   2.804   0.917   4.913
 6835SOL    HW221405   2.734   0.849   4.782
 6836SOL     OW21406   1.977   4.613   6.319
 6836SOL    HW121407   1.950   4.650   6.408
 6836SOL    HW221408   2.051   4.668   6.280
 6837SOL     OW21409   0.108   1.125   2.141
 6837SOL    HW121410   0.151   1.215   2.153
 6837SOL    HW221411   0.046   1.108   2.218
 6838SOL     OW21412   3.192   4.115   4.805
 6838SOL    HW121413   3.171   4.203   4.849
 6838SOL    HW221414   3.260   4.066   4.860
 6839SOL     OW21415   6.490   3.312   4.807
 6839SOL    HW121416   6.566   3.254   4.780
 6839SOL    HW221417   6.488   3.394   4.749
 6840SOL     OW21418   2.765   6.697   4.948
 6840SOL    HW121419   2.694   6.730   4.886
 6840SOL    HW221420   2.809   6.617   4.908
 6841SOL     OW21421   4.854   5.843   1.316
 6841SOL    HW121422   4.903   5.832   1.229
 6841SOL    HW221423   4.762   5.805   1.308
 6842SOL     OW21424   0.416   3.456   4.670
 6842SOL    HW121425   0.469   3.372   4.685
 6842SOL    HW221426   0.372   3.483   4.755
 6843SOL     OW21427   3.938   2.263   1.721
 6843SOL    HW121428   3.923   2.171   1.685
 6843SOL    HW221429   3.863   2.286   1.784
 6844SOL     OW21430   4.133   5.560   4.010
 6844SOL    HW121431   4.183   5.640   4.044
 6844SOL    HW221432   4.197   5.496   3.967
 6845SOL     OW21433   4.209   4.702   1.076
 6845SOL    HW121434   4.283   4.654   1.029
 6845SOL    HW221435   4.245   4.745   1.159
 6846SOL     OW21436   3.390   3.139   2.754
 6846SOL    HW121437   3.400   3.154   2.655
 6846SOL    HW221438   3.445   3.060   2.781
 6847SOL     OW21439   5.719   3.459   2.492
 6847SOL    HW121440   5.788   3.531   2.505
 6847SOL    HW221441   5.672   3.473   2.405
 6848SOL     OW21442   6.784   7.012   3.226
 6848SOL    HW121443   6.840   6.934   3.253
 6848SOL    HW221444   6.692   7.002   3.265
 6849SOL     OW21445   3.381   6.585   3.927
 6849SOL    HW121446   3.321   6.505   3.914
 6849SOL    HW221447   3.388   6.635   3.841
 6850SOL     OW21448   5.519   2.908   1.849
 6850SOL    HW121449   5.521   2.809   1.855
 6850SOL    HW221450   5.459   2.936   1.774
 6851SOL     OW21451   1.405   5.788   5.647
 6851SOL    HW121452   1.361   5.699   5.641
 6851SOL    HW221453   1.504   5.776   5.658
 6852SOL     OW21454   0.363   4.618   2.289
 6852SOL    HW121455   0.403   4.695   2.338
 6852SOL    HW221456   0.282   4.647   2.240
 6853SOL     OW21457   6.690   3.757   5.764
 6853SOL    HW121458   6.763   3.696   5.795
 6853SOL    HW221459   6.604   3.732   5.809
 6854SOL     OW21460   6.886   1.695   6.264
 6854SOL    HW121461   6.787   1.707   6.257
 6854SOL    HW221462   6.908   1.642   6.346
 6855SOL     OW21463   3.337   6.175   1.198
 6855SOL    HW121464   3.411   6.144   1.138
 6855SOL    HW221465   3.281   6.096   1.226
 6856SOL     OW21466   0.010   3.710   5.477
 6856SOL    HW121467   6.947   3.755   5.450
 6856SOL    HW221468   0.027   3.633   5.415
 6857SOL     OW21469   4.466   2.089   5.623
 6857SOL    HW121470   4.503   1.997   5.637
 6857SOL    HW221471   4.379   2.082   5.574
 6858SOL     OW21472   3.610   2.853   5.106
 6858SOL    HW121473   3.636   2.809   5.193
 6858SOL    HW221474   3.689   2.855   5.045
 6859SOL     OW21475   3.882   6.836   1.261
 6859SOL    HW121476   3.903   6.779   1.341
 6859SOL    HW221477   3.886   6.932   1.287
 6860SOL     OW21478   4.634   4.424   0.246
 6860SOL    HW121479   4.576   4.374   0.310
 6860SOL    HW221480   4.687   4.360   0.191
 6861SOL     OW21481   6.275   4.896   0.620
 6861SOL    HW121482   6.350   4.959   0.597
 6861SOL    HW221483   6.293   4.807   0.578
 6862SOL     OW21484   3.720   5.892   4.362
 6862SOL    HW121485   3.710   5.871   4.264
 6862SOL    HW221486   3.807   5.855   4.395
 6863SOL     OW21487   0.217   2.928   4.515
 6863SOL    HW121488   0.169   2.959   4.597
 6863SOL    HW221489   0.276   3.002   4.482
 6864SOL     OW21490   4.315   6.101   4.572
 6864SOL    HW121491   4.254   6.035   4.616
 6864SOL    HW221492   4.261   6.173   4.528
 6865SOL     OW21493   6.451   4.188   4.061
 6865SOL    HW121494   6.479   4.094   4.074
 6865SOL    HW221495   6.495   4.225   3.979
 6866SOL     OW21496   0.049   3.670   2.085
 6866SOL    HW121497   0.023   3.713   2.171
 6866SOL    HW221498   7.003   3.691   2.015
 6867SOL     OW21499   2.363   4.314   2.451
 6867SOL    HW121500   2.350   4.264   2.537
 6867SOL    HW221501   2.316   4.266   2.377
 6868SOL     OW21502   1.827   5.480   5.351
 6868SOL    HW121503   1.755   5.474   5.420
 6868SOL    HW221504   1.916   5.486   5.396
 6869SOL     OW21505   5.990   3.326   5.250
 6869SOL    HW121506   5.892   3.334   5.232
 6869SOL    HW221507   6.011   3.366   5.339
 6870SOL     OW21508   5.220   3.696   3.314
 6870SOL    HW121509   5.264   3.650   3.391
 6870SOL    HW221510   5.246   3.651   3.229
 6871SOL     OW21511   5.161   6.369   1.742
 6871SOL    HW121512   5.188   6.431   1.815
 6871SOL    HW221513   5.087   6.411   1.690
 6872SOL     OW21514   2.886   3.006   6.332
 6872SOL    HW121515   2.962   2.954   6.371
 6872SOL    HW221516   2.912   3.102   6.323
 6873SOL     OW21517   5.174   4.560   6.102
 6873SOL    HW121518   5.103   4.618   6.063
 6873SOL    HW221519   5.263   4.602   6.087
 6874SOL     OW21520   0.866   2.149   5.409
 6874SOL    HW121521   0.894   2.154   5.505
 6874SOL    HW221522   0.945   2.121   5.353
 6875SOL     OW21523   3.326   2.102   3.779
 6875SOL    HW121524   3.284   2.120   3.868
 6875SOL    HW221525   3.258   2.110   3.707
 6876SOL     OW21526   3.413   6.123   6.723
 6876SOL    HW121527   3.440   6.065   6.647
 6876SOL    HW221528   3.465   6.208   6.720
 6877SOL     OW21529   2.552   4.147   6.707
 6877SOL    HW121530   2.618   4.136   6.782
 6877SOL    HW221531   2.601   4.170   6.623
 6878SOL     OW21532   1.416   1.671   4.929
 6878SOL    HW121533   1.386   1.645   5.020
 6878SOL    HW221534   1.483   1.604   4.895
 6879SOL     OW21535   1.389   2.440   5.683
 6879SOL    HW121536   1.289   2.449   5.684
 6879SOL    HW221537   1.425   2.465   5.772
 6880SOL     OW21538   1.926   4.360   5.044
 6880SOL    HW121539   1.957   4.404   4.960
 6880SOL    HW221540   1.931   4.425   5.120
 6881SOL     OW21541   6.888   4.137   1.039
 6881SOL    HW121542   6.948   4.060   1.059
 6881SOL    HW221543   6.799   4.104   1.008
 6882SOL     OW21544   1.977   6.880   4.961
 6882SOL    HW121545   1.991   6.808   5.028
 6882SOL    HW221546   2.049   6.949   4.970
 6883SOL     OW21547   3.417   6.290   1.923
 6883SOL    HW121548   3.484   6.217   1.908
 6883SOL    HW221549   3.351   6.291   1.848
 6884SOL     OW21550   2.569   4.808   3.313
 6884SOL    HW121551   2.662   4.846   3.317
 6884SOL    HW221552   2.574   4.709   3.302
 6885SOL     OW21553   2.421   5.269   4.518
 6885SOL    HW121554   2.496   5.335   4.529
 6885SOL    HW221555   2.341   5.316   4.481
 6886SOL     OW21556   5.693   1.765   2.933
 6886SOL    HW121557   5.674   1.863   2.937
 6886SOL    HW221558   5.716   1.739   2.839
 6887SOL     OW21559   6.102   0.610   4.753
 6887SOL    HW121560   6.163   0.676   4.708
 6887SOL    HW221561   6.015   0.654   4.773
 6888SOL     OW21562   5.763   6.496   4.039
 6888SOL    HW121563   5.778   6.594   4.040
 6888SOL    HW221564   5.838   6.450   4.086
 6889SOL     OW21565   1.333   4.178   5.915
 6889SOL    HW121566   1.372   4.221   5.834
 6889SOL    HW221567   1.404   4.127   5.963
 6890SOL     OW21568   2.248   0.766   0.481
 6890SOL    HW121569   2.305   0.758   0.562
 6890SOL    HW221570   2.159   0.723   0.499
 6891SOL     OW21571   2.989   4.845   4.318
 6891SOL    HW121572   3.061   4.846   4.388
 6891SOL    HW221573   3.031   4.827   4.229
 6892SOL     OW21574   4.243   0.815   4.330
 6892SOL    HW121575   4.326   0.804   4.275
 6892SOL    HW221576   4.163   0.804   4.271
 6893SOL     OW21577   5.076   6.118   2.403
 6893SOL    HW121578   5.115   6.106   2.312
 6893SOL    HW221579   4.977   6.130   2.395
 6894SOL     OW21580   6.259   4.711   6.249
 6894SOL    HW121581   6.169   4.680   6.218
 6894SOL    HW221582   6.314   4.738   6.170
 6895SOL     OW21583   3.846   6.114   6.691
 6895SOL    HW121584   3.765   6.057   6.698
 6895SOL    HW221585   3.867   6.153   6.781
 6896SOL     OW21586   3.975   0.274   2.581
 6896SOL    HW121587   3.899   0.245   2.523
 6896SOL    HW221588   4.003   0.367   2.556
 6897SOL     OW21589   3.239   2.390   0.634
 6897SOL    HW121590   3.332   2.413   0.605
 6897SOL    HW221591   3.234   2.392   0.734
 6898SOL     OW21592   4.046   2.179   2.337
 6898SOL    HW121593   4.139   2.161   2.304
 6898SOL    HW221594   3.980   2.155   2.266
 6899SOL     OW21595   5.164   6.001   6.907
 6899SOL    HW121596   5.074   5.984   6.866
 6899SOL    HW221597   5.229   5.933   6.873
 6900SOL     OW21598   4.232   0.921   5.426
 6900SOL    HW121599   4.271   0.866   5.499
 6900SOL    HW221600   4.157   0.976   5.463
 6901SOL     OW21601   1.376   0.953   6.934
 6901SOL    HW121602   1.403   0.922   0.003
 6901SOL    HW221603   1.386   1.052   6.928
 6902SOL     OW21604   6.692   5.633   0.723
 6902SOL    HW121605   6.738   5.674   0.802
 6902SOL    HW221606   6.715   5.684   0.640
 6903SOL     OW21607   4.873   3.563   1.057
 6903SOL    HW121608   4.971   3.585   1.064
 6903SOL    HW221609   4.859   3.466   1.080
 6904SOL     OW21610   0.423   1.176   3.393
 6904SOL    HW121611   0.432   1.178   3.493
 6904SOL    HW221612   0.453   1.087   3.359
 6905SOL     OW21613   5.799   6.104   0.862
 6905SOL    HW121614   5.793   6.004   0.864
 6905SOL    HW221615   5.871   6.131   0.797
 6906SOL     OW21616   4.615   0.225   3.691
 6906SOL    HW121617   4.705   0.183   3.679
 6906SOL    HW221618   4.581   0.206   3.783
 6907SOL     OW21619   3.732   1.716   1.396
 6907SOL    HW121620   3.708   1.620   1.385
 6907SOL    HW221621   3.757   1.734   1.491
 6908SOL     OW21622   1.219   0.049   6.349
 6908SOL    HW121623   1.144   0.107   6.316
 6908SOL    HW221624   1.187   6.977   6.357
 6909SOL     OW21625   3.951   4.027   6.683
 6909SOL    HW121626   3.949   4.102   6.616
 6909SOL    HW221627   3.924   3.942   6.638
 6910SOL     OW21628   6.725   1.615   2.497
 6910SOL    HW121629   6.695   1.559   2.419
 6910SOL    HW221630   6.808   1.576   2.535
 6911SOL     OW21631   3.834   1.104   4.811
 6911SOL    HW121632   3.877   1.098   4.901
 6911SOL    HW221633   3.866   1.029   4.753
 6912SOL     OW21634   4.468   5.307   0.812
 6912SOL    HW121635   4.552   5.253   0.801
 6912SOL    HW221636   4.404   5.284   0.739
 6913SOL     OW21637   5.443   5.210   5.481
 6913SOL    HW121638   5.442   5.117   5.442
 6913SOL    HW221639   5.532   5.252   5.465
 6914SOL     OW21640   6.098   5.310   0.637
 6914SOL    HW121641   6.109   5.385   0.703
 6914SOL    HW221642   6.005   5.311   0.601
 6915SOL     OW21643   0.738   5.387   1.200
 6915SOL    HW121644   0.696   5.387   1.109
 6915SOL    HW221645   0.834   5.362   1.193
 6916SOL     OW21646   6.703   1.764   6.896
 6916SOL    HW121647   6.800   1.775   6.918
 6916SOL    HW221648   6.685   1.669   6.870
 6917SOL     OW21649   4.299   6.281   6.115
 6917SOL    HW121650   4.249   6.287   6.202
 6917SOL    HW221651   4.381   6.226   6.128
 6918SOL     OW21652   1.786   2.879   3.736
 6918SOL    HW121653   1.735   2.958   3.701
 6918SOL    HW221654   1.874   2.911   3.773
 6919SOL     OW21655   1.880   6.682   3.454
 6919SOL    HW121656   1.782   6.666   3.443
 6919SOL    HW221657   1.929   6.647   3.375
 6920SOL     OW21658   5.351   6.172   4.542
 6920SOL    HW121659   5.333   6.263   4.579
 6920SOL    HW221660   5.357   6.106   4.617
 6921SOL     OW21661   0.811   0.248   3.215
 6921SOL    HW121662   0.741   0.231   3.285
 6921SOL    HW221663   0.853   0.337   3.231
 6922SOL     OW21664   2.326   6.364   0.404
 6922SOL    HW121665   2.393   6.408   0.463
 6922SOL    HW221666   2.309   6.271   0.436
 6923SOL     OW21667   4.818   0.058   3.897
 6923SOL    HW121668   4.876   0.055   3.978
 6923SOL    HW221669   4.856   0.123   3.831
 6924SOL     OW21670   0.128   6.069   0.976
 6924SOL    HW121671   0.167   6.006   0.909
 6924SOL    HW221672   0.113   6.021   1.063
 6925SOL     OW21673   5.307   6.311   2.531
 6925SOL    HW121674   5.253   6.230   2.554
 6925SOL    HW221675   5.403   6.285   2.521
 6926SOL     OW21676   2.914   3.355   4.751
 6926SOL    HW121677   2.928   3.307   4.665
 6926SOL    HW221678   2.952   3.301   4.826
 6927SOL     OW21679   4.324   3.575   5.898
 6927SOL    HW121680   4.308   3.670   5.871
 6927SOL    HW221681   4.391   3.573   5.972
 6928SOL     OW21682   5.447   0.229   6.561
 6928SOL    HW121683   5.536   0.273   6.547
 6928SOL    HW221684   5.380   0.269   6.498
 6929SOL     OW21685   3.609   5.122   0.355
 6929SOL    HW121686   3.530   5.062   0.370
 6929SOL    HW221687   3.640   5.113   0.261
 6930SOL     OW21688   0.556   6.880   3.382
 6930SOL    HW121689   0.506   6.811   3.435
 6930SOL    HW221690   0.501   6.908   3.304
 6931SOL     OW21691   1.901   1.042   1.168
 6931SOL    HW121692   1.984   1.039   1.114
 6931SOL    HW221693   1.900   0.967   1.233
 6932SOL     OW21694   2.689   2.998   1.200
 6932SOL    HW121695   2.666   3.033   1.290
 6932SOL    HW221696   2.631   2.919   1.180
 6933SOL     OW21697   3.868   6.474   6.314
 6933SOL    HW121698   3.855   6.548   6.381
 6933SOL    HW221699   3.965   6.454   6.306
 6934SOL     OW21700   5.450   3.919   6.729
 6934SOL    HW121701   5.429   3.965   6.815
 6934SOL    HW221702   5.503   3.836   6.747
 6935SOL     OW21703   4.239   5.323   3.646
 6935SOL    HW121704   4.153   5.362   3.616
 6935SOL    HW221705   4.315   5.374   3.606
 6936SOL     OW21706   1.722   4.275   0.934
 6936SOL    HW121707   1.808   4.224   0.923
 6936SOL    HW221708   1.645   4.213   0.921
 6937SOL     OW21709   4.195   0.046   5.589
 6937SOL    HW121710   4.242   7.015   5.660
 6937SOL    HW221711   4.103   0.069   5.620
 6938SOL     OW21712   4.610   2.608   5.486
 6938SOL    HW121713   4.607   2.509   5.488
 6938SOL    HW221714   4.682   2.639   5.424
 6939SOL     OW21715   1.094   4.192   2.664
 6939SOL    HW121716   1.016   4.142   2.628
 6939SOL    HW221717   1.147   4.133   2.725
 6940SOL     OW21718   4.821   0.861   4.607
 6940SOL    HW121719   4.887   0.807   4.660
 6940SOL    HW221720   4.798   0.944   4.658
 6941SOL     OW21721   3.986   3.028   3.121
 6941SOL    HW121722   3.991   3.061   3.215
 6941SOL    HW221723   4.078   3.011   3.086
 6942SOL     OW21724   6.885   2.135   0.459
 6942SOL    HW121725   6.841   2.056   0.501
 6942SOL    HW221726   6.982   2.118   0.448
 6943SOL     OW21727   4.869   6.265   5.961
 6943SOL    HW121728   4.830   6.299   5.876
 6943SOL    HW221729   4.965   6.241   5.947
 6944SOL     OW21730   1.528   6.124   5.941
 6944SOL    HW121731   1.520   6.025   5.955
 6944SOL    HW221732   1.558   6.167   6.026
 6945SOL     OW21733   5.479   3.237   5.771
 6945SOL    HW121734   5.550   3.175   5.736
 6945SOL    HW221735   5.430   3.278   5.694
 6946SOL     OW21736   5.436   4.255   2.670
 6946SOL    HW121737   5.527   4.295   2.666
 6946SOL    HW221738   5.387   4.276   2.585
 6947SOL     OW21739   3.890   6.014   2.839
 6947SOL    HW121740   3.812   6.048   2.892
 6947SOL    HW221741   3.914   6.081   2.769
 6948SOL     OW21742   4.311   1.794   5.369
 6948SOL    HW121743   4.327   1.880   5.322
 6948SOL    HW221744   4.215   1.768   5.358
 6949SOL     OW21745   4.955   0.516   2.703
 6949SOL    HW121746   4.931   0.578   2.778
 6949SOL    HW221747   4.988   0.430   2.741
 6950SOL     OW21748   2.067   0.372   3.114
 6950SOL    HW121749   2.160   0.355   3.080
 6950SOL    HW221750   2.014   0.287   3.111
 6951SOL     OW21751   6.264   5.076   6.087
 6951SOL    HW121752   6.330   5.007   6.058
 6951SOL    HW221753   6.279   5.099   6.183
 6952SOL     OW21754   0.091   4.887   4.639
 6952SOL    HW121755   0.104   4.979   4.675
 6952SOL    HW221756   0.179   4.848   4.614
 6953SOL     OW21757   5.135   1.402   5.221
 6953SOL    HW121758   5.153   1.309   5.255
 6953SOL    HW221759   5.141   1.403   5.122
 6954SOL     OW21760   0.650   4.133   3.141
 6954SOL    HW121761   0.704   4.049   3.140
 6954SOL    HW221762   0.621   4.156   3.049
 6955SOL     OW21763   6.924   5.629   2.078
 6955SOL    HW121764   7.022   5.622   2.057
 6955SOL    HW221765   6.895   5.724   2.069
 6956SOL     OW21766   3.534   4.879   1.607
 6956SOL    HW121767   3.480   4.803   1.643
 6956SOL    HW221768   3.496   4.909   1.519
 6957SOL     OW21769   0.500   4.519   0.620
 6957SOL    HW121770   0.427   4.547   0.682
 6957SOL    HW221771   0.560   4.597   0.601
 6958SOL     OW21772   2.415   3.499   6.630
 6958SOL    HW121773   2.380   3.579   6.580
 6958SOL    HW221774   2.392   3.416   6.580
 6959SOL     OW21775   2.511   1.015   4.098
 6959SOL    HW121776   2.471   1.050   4.182
 6959SOL    HW221777   2.443   0.961   4.048
 6960SOL     OW21778   0.444   5.022   6.766
 6960SOL    HW121779   0.448   5.078   6.849
 6960SOL    HW221780   0.531   4.974   6.753
 6961SOL     OW21781   0.160   0.671   2.578
 6961SOL    HW121782   0.064   0.700   2.584
 6961SOL    HW221783   0.207   0.725   2.508
 6962SOL     OW21784   4.192   4.015   1.291
 6962SOL    HW121785   4.109   3.982   1.246
 6962SOL    HW221786   4.267   4.018   1.225
 6963SOL     OW21787   6.878   5.114   1.523
 6963SOL    HW121788   6.870   5.111   1.423
 6963SOL    HW221789   6.907   5.206   1.550
 6964SOL     OW21790   4.092   5.658   5.335
 6964SOL    HW121791   3.993   5.649   5.320
 6964SOL    HW221792   4.130   5.719   5.265
 6965SOL     OW21793   0.005   2.865   5.851
 6965SOL    HW121794   7.014   2.954   5.893
 6965SOL    HW221795   0.039   2.800   5.919
 6966SOL     OW21796   4.684   2.728   4.086
 6966SOL    HW121797   4.745   2.805   4.067
 6966SOL    HW221798   4.732   2.660   4.141
 6967SOL     OW21799   1.822   0.633   6.084
 6967SOL    HW121800   1.769   0.598   6.007
 6967SOL    HW221801   1.795   0.728   6.102
 6968SOL     OW21802   5.128   6.429   2.321
 6968SOL    HW121803   5.180   6.513   2.334
 6968SOL    HW221804   5.159   6.360   2.386
 6969SOL     OW21805   3.129   2.372   1.236
 6969SOL    HW121806   3.172   2.360   1.147
 6969SOL    HW221807   3.184   2.328   1.307
 6970SOL     OW21808   5.048   4.749   6.991
 6970SOL    HW121809   5.112   4.816   6.952
 6970SOL    HW221810   4.961   4.755   6.943
 6971SOL     OW21811   4.939   0.166   1.435
 6971SOL    HW121812   4.914   0.262   1.449
 6971SOL    HW221813   4.883   0.127   1.362
 6972SOL     OW21814   5.800   5.040   4.586
 6972SOL    HW121815   5.861   5.109   4.547
 6972SOL    HW221816   5.787   4.966   4.520
 6973SOL     OW21817   1.779   4.760   2.805
 6973SOL    HW121818   1.787   4.793   2.711
 6973SOL    HW221819   1.685   4.728   2.820
 6974SOL     OW21820   3.360   4.137   4.543
 6974SOL    HW121821   3.383   4.143   4.446
 6974SOL    HW221822   3.264   4.112   4.553
 6975SOL     OW21823   3.516   0.993   5.789
 6975SOL    HW121824   3.427   1.034   5.809
 6975SOL    HW221825   3.504   0.916   5.726
 6976SOL     OW21826   1.866   4.728   5.770
 6976SOL    HW121827   1.909   4.717   5.680
 6976SOL    HW221828   1.928   4.695   5.841
 6977SOL     OW21829   3.322   2.126   2.882
 6977SOL    HW121830   3.297   2.223   2.874
 6977SOL    HW221831   3.397   2.116   2.947
 6978SOL     OW21832   6.182   0.531   2.347
 6978SOL    HW121833   6.250   0.586   2.396
 6978SOL    HW221834   6.173   0.442   2.391
 6979SOL     OW21835   0.249   4.587   2.933
 6979SOL    HW121836   0.275   4.683   2.923
 6979SOL    HW221837   0.258   4.540   2.845
 6980SOL     OW21838   3.296   1.071   4.524
 6980SOL    HW121839   3.228   1.073   4.450
 6980SOL    HW221840   3.266   1.007   4.594
 6981SOL     OW21841   2.212   5.549   0.413
 6981SOL    HW121842   2.243   5.499   0.494
 6981SOL    HW221843   2.161   5.631   0.441
 6982SOL     OW21844   0.735   0.076   4.667
 6982SOL    HW121845   0.647   0.115   4.642
 6982SOL    HW221846   0.808   0.140   4.644
 6983SOL     OW21847   6.444   0.350   4.241
 6983SOL    HW121848   6.436   0.369   4.144
 6983SOL    HW221849   6.394   0.419   4.293
 6984SOL     OW21850   1.405   0.933   6.401
 6984SOL    HW121851   1.383   0.863   6.333
 6984SOL    HW221852   1.328   0.996   6.410
 6985SOL     OW21853   4.774   5.859   2.275
 6985SOL    HW121854   4.796   5.950   2.311
 6985SOL    HW221855   4.734   5.803   2.347
 6986SOL     OW21856   2.424   6.658   5.755
 6986SOL    HW121857   2.491   6.703   5.696
 6986SOL    HW221858   2.372   6.591   5.701
 6987SOL     OW21859   0.433   3.523   6.360
 6987SOL    HW121860   0.482   3.480   6.285
 6987SOL    HW221861   0.498   3.557   6.428
 6988SOL     OW21862   5.054   0.749   4.067
 6988SOL    HW121863   4.968   0.702   4.044
 6988SOL    HW221864   5.042   0.847   4.054
 6989SOL     OW21865   1.631   2.326   4.237
 6989SOL    HW121866   1.701   2.303   4.169
 6989SOL    HW221867   1.632   2.259   4.310
 6990SOL     OW21868   3.543   3.290   0.002
 6990SOL    HW121869   3.611   3.218   0.016
 6990SOL    HW221870   3.529   3.302   6.925
 6991SOL     OW21871   3.351   4.335   5.312
 6991SOL    HW121872   3.444   4.328   5.276
 6991SOL    HW221873   3.326   4.250   5.356
 6992SOL     OW21874   5.394   6.602   3.974
 6992SOL    HW121875   5.399   6.599   4.073
 6992SOL    HW221876   5.326   6.669   3.946
 6993SOL     OW21877   0.289   0.243   3.513
 6993SOL    HW121878   0.360   0.193   3.563
 6993SOL    HW221879   0.205   0.244   3.568
 6994SOL     OW21880   1.180   2.956   6.200
 6994SOL    HW121881   1.265   2.903   6.200
 6994SOL    HW221882   1.194   3.042   6.151
 6995SOL     OW21883   6.688   5.685   3.276
 6995SOL    HW121884   6.680   5.782   3.302
 6995SOL    HW221885   6.753   5.676   3.201
 6996SOL     OW21886   2.018   0.060   5.474
 6996SOL    HW121887   1.928   0.098   5.497
 6996SOL    HW221888   2.034   6.999   5.528
 6997SOL     OW21889   4.946   0.649   5.289
 6997SOL    HW121890   4.935   0.749   5.289
 6997SOL    HW221891   5.002   0.622   5.367
 6998SOL     OW21892   0.975   2.639   3.265
 6998SOL    HW121893   0.914   2.637   3.344
 6998SOL    HW221894   1.035   2.558   3.267
 6999SOL     OW21895   3.096   1.763   5.545
 6999SOL    HW121896   3.112   1.799   5.453
 6999SOL    HW221897   3.116   1.835   5.612
 7000SOL     OW21898   0.499   6.439   2.721
 7000SOL    HW121899   0.460   6.347   2.724
 7000SOL    HW221900   0.445   6.496   2.659
 7001SOL     OW21901   2.265   2.505   5.578
 7001SOL    HW121902   2.198   2.545   5.639
 7001SOL    HW221903   2.356   2.511   5.619
 7002SOL     OW21904   1.579   4.835   3.353
 7002SOL    HW121905   1.536   4.926   3.351
 7002SOL    HW221906   1.510   4.765   3.336
 7003SOL     OW21907   2.549   6.250   0.989
 7003SOL    HW121908   2.535   6.162   0.943
 7003SOL    HW221909   2.643   6.281   0.974
 7004SOL     OW21910   1.438   4.146   0.870
 7004SOL    HW121911   1.443   4.152   0.771
 7004SOL    HW221912   1.380   4.068   0.897
 7005SOL     OW21913   5.184   6.012   5.478
 7005SOL    HW121914   5.156   6.104   5.503
 7005SOL    HW221915   5.162   5.949   5.553
 7006SOL     OW21916   4.336   4.707   4.733
 7006SOL    HW121917   4.397   4.650   4.678
 7006SOL    HW221918   4.326   4.666   4.824
 7007SOL     OW21919   5.041   5.157   2.809
 7007SOL    HW121920   4.987   5.074   2.825
 7007SOL    HW221921   4.979   5.235   2.798
 7008SOL     OW21922   0.918   5.158   3.951
 7008SOL    HW121923   0.982   5.234   3.961
 7008SOL    HW221924   0.833   5.179   4.000
 7009SOL     OW21925   0.640   4.471   2.045
 7009SOL    HW121926   0.650   4.552   2.102
 7009SOL    HW221927   0.695   4.482   1.962
 7010SOL     OW21928   3.367   4.816   5.770
 7010SOL    HW121929   3.379   4.768   5.857
 7010SOL    HW221930   3.445   4.795   5.711
 7011SOL     OW21931   2.774   0.869   5.123
 7011SOL    HW121932   2.689   0.821   5.144
 7011SOL    HW221933   2.828   0.880   5.206
 7012SOL     OW21934   1.148   1.166   1.888
 7012SOL    HW121935   1.239   1.204   1.904
 7012SOL    HW221936   1.153   1.066   1.894
 7013SOL     OW21937   1.115   0.915   1.983
 7013SOL    HW121938   1.062   0.878   2.058
 7013SOL    HW221939   1.199   0.861   1.971
 7014SOL     OW21940   2.634   4.195   1.524
 7014SOL    HW121941   2.558   4.146   1.565
 7014SOL    HW221942   2.704   4.213   1.593
 7015SOL     OW21943   5.721   2.688   2.636
 7015SOL    HW121944   5.751   2.738   2.554
 7015SOL    HW221945   5.801   2.662   2.690
 7016SOL     OW21946   3.956   5.073   1.347
 7016SOL    HW121947   3.953   5.111   1.255
 7016SOL    HW221948   4.036   5.013   1.355
 7017SOL     OW21949   3.222   1.393   3.538
 7017SOL    HW121950   3.138   1.400   3.593
 7017SOL    HW221951   3.211   1.445   3.454
 7018SOL     OW21952   0.458   4.535   4.465
 7018SOL    HW121953   0.406   4.476   4.527
 7018SOL    HW221954   0.433   4.515   4.371
 7019SOL     OW21955   2.299   6.259   0.090
 7019SOL    HW121956   2.283   6.297   0.181
 7019SOL    HW221957   2.271   6.163   0.088
 7020SOL     OW21958   6.108   6.491   6.725
 7020SOL    HW121959   6.124   6.403   6.679
 7020SOL    HW221960   6.083   6.560   6.658
 7021SOL     OW21961   2.831   1.648   6.245
 7021SOL    HW121962   2.810   1.610   6.155
 7021SOL    HW221963   2.852   1.745   6.236
 7022SOL     OW21964   5.440   4.835   0.249
 7022SOL    HW121965   5.436   4.908   0.181
 7022SOL    HW221966   5.521   4.778   0.232
 7023SOL     OW21967   6.477   3.775   2.754
 7023SOL    HW121968   6.396   3.826   2.726
 7023SOL    HW221969   6.545   3.838   2.792
 7024SOL     OW21970   0.759   6.005   0.712
 7024SOL    HW121971   0.663   6.023   0.692
 7024SOL    HW221972   0.814   6.085   0.687
 7025SOL     OW21973   2.654   2.172   6.704
 7025SOL    HW121974   2.582   2.235   6.733
 7025SOL    HW221975   2.743   2.206   6.734
 7026SOL     OW21976   4.399   2.102   0.743
 7026SOL    HW121977   4.324   2.072   0.684
 7026SOL    HW221978   4.428   2.027   0.801
 7027SOL     OW21979   4.403   6.952   4.266
 7027SOL    HW121980   4.395   0.021   4.223
 7027SOL    HW221981   4.439   6.962   4.358
 7028SOL     OW21982   3.713   0.557   4.714
 7028SOL    HW121983   3.767   0.611   4.778
 7028SOL    HW221984   3.683   0.615   4.638
 7029SOL     OW21985   4.072   0.566   5.788
 7029SOL    HW121986   4.032   0.511   5.714
 7029SOL    HW221987   4.167   0.589   5.764
 7030SOL     OW21988   1.424   3.396   4.427
 7030SOL    HW121989   1.438   3.419   4.523
 7030SOL    HW221990   1.506   3.419   4.375
 7031SOL     OW21991   2.251   5.938   4.071
 7031SOL    HW121992   2.157   5.932   4.104
 7031SOL    HW221993   2.253   5.924   3.972
 7032SOL     OW21994   5.898   1.575   2.161
 7032SOL    HW121995   5.988   1.607   2.191
 7032SOL    HW221996   5.871   1.624   2.078
 7033SOL     OW21997   6.807   0.789   3.916
 7033SOL    HW121998   6.811   0.865   3.850
 7033SOL    HW221999   6.883   0.797   3.980
 7034SOL     OW22000   6.740   6.251   2.778
 7034SOL    HW122001   6.717   6.156   2.797
 7034SOL    HW222002   6.724   6.271   2.681
 7035SOL     OW22003   6.240   5.924   2.037
 7035SOL    HW122004   6.213   6.012   2.000
 7035SOL    HW222005   6.194   5.851   1.987
 7036SOL     OW22006   0.235   4.796   2.014
 7036SOL    HW122007   0.235   4.878   1.957
 7036SOL    HW222008   0.141   4.765   2.028
 7037SOL     OW22009   1.412   6.417   6.380
 7037SOL    HW122010   1.424   6.440   6.284
 7037SOL    HW222011   1.315   6.398   6.398
 7038SOL     OW22012   0.920   4.133   4.213
 7038SOL    HW122013   0.986   4.065   4.245
 7038SOL    HW222014   0.829   4.090   4.208
 7039SOL     OW22015   3.779   1.218   0.098
 7039SOL    HW122016   3.850   1.214   0.028
 7039SOL    HW222017   3.784   1.136   0.156
 7040SOL     OW22018   4.894   2.244   6.192
 7040SOL    HW122019   4.833   2.292   6.129
 7040SOL    HW222020   4.841   2.184   6.252
 7041SOL     OW22021   2.232   2.162   2.259
 7041SOL    HW122022   2.159   2.180   2.193
 7041SOL    HW222023   2.195   2.112   2.337
 7042SOL     OW22024   3.012   6.887   7.022
 7042SOL    HW122025   3.092   6.843   6.981
 7042SOL    HW222026   3.034   6.915   0.094
 7043SOL     OW22027   2.463   1.657   2.874
 7043SOL    HW122028   2.455   1.665   2.774
 7043SOL    HW222029   2.445   1.746   2.916
 7044SOL     OW22030   4.673   5.281   2.696
 7044SOL    HW122031   4.601   5.304   2.761
 7044SOL    HW222032   4.673   5.347   2.621
 7045SOL     OW22033   5.413   5.688   1.543
 7045SOL    HW122034   5.497   5.742   1.536
 7045SOL    HW222035   5.340   5.746   1.579
 7046SOL     OW22036   3.722   0.606   5.006
 7046SOL    HW122037   3.651   0.632   5.072
 7046SOL    HW222038   3.755   0.688   4.959
 7047SOL     OW22039   1.232   1.062   4.761
 7047SOL    HW122040   1.171   1.095   4.689
 7047SOL    HW222041   1.290   0.989   4.725
 7048SOL     OW22042   6.658   6.112   0.072
 7048SOL    HW122043   6.591   6.058   0.124
 7048SOL    HW222044   6.610   6.166   0.003
 7049SOL     OW22045   2.723   1.514   0.643
 7049SOL    HW122046   2.653   1.544   0.578
 7049SOL    HW222047   2.807   1.491   0.594
 7050SOL     OW22048   4.089   3.719   4.656
 7050SOL    HW122049   4.081   3.763   4.745
 7050SOL    HW222050   4.110   3.622   4.668
 7051SOL     OW22051   0.056   6.316   2.316
 7051SOL    HW122052   0.058   6.320   2.416
 7051SOL    HW222053   0.125   6.378   2.279
 7052SOL     OW22054   6.957   1.938   3.449
 7052SOL    HW122055   6.868   1.956   3.408
 7052SOL    HW222056   7.001   2.024   3.475
 7053SOL     OW22057   0.622   4.832   6.487
 7053SOL    HW122058   0.592   4.779   6.566
 7053SOL    HW222059   0.717   4.808   6.465
 7054SOL     OW22060   6.823   6.537   1.772
 7054SOL    HW122061   6.823   6.589   1.686
 7054SOL    HW222062   6.731   6.535   1.810
 7055SOL     OW22063   4.377   0.197   4.500
 7055SOL    HW122064   4.356   0.100   4.496
 7055SOL    HW222065   4.298   0.247   4.537
 7056SOL     OW22066   5.508   4.770   4.255
 7056SOL    HW122067   5.425   4.774   4.312
 7056SOL    HW222068   5.550   4.680   4.265
 7057SOL     OW22069   0.091   5.431   3.432
 7057SOL    HW122070   0.076   5.397   3.339
 7057SOL    HW222071   0.045   5.519   3.443
 7058SOL     OW22072   0.994   5.143   5.172
 7058SOL    HW122073   0.983   5.046   5.150
 7058SOL    HW222074   0.970   5.198   5.092
 7059SOL     OW22075   1.516   0.092   2.462
 7059SOL    HW122076   1.528   0.013   2.401
 7059SOL    HW222077   1.432   0.140   2.439
 7060SOL     OW22078   3.206   6.089   1.651
 7060SOL    HW122079   3.285   6.150   1.657
 7060SOL    HW222080   3.228   6.012   1.591
 7061SOL     OW22081   0.564   0.545   2.706
 7061SOL    HW122082   0.526   0.458   2.674
 7061SOL    HW222083   0.563   0.547   2.806
 7062SOL     OW22084   5.729   2.460   4.825
 7062SOL    HW122085   5.674   2.472   4.741
 7062SOL    HW222086   5.707   2.534   4.889
 7063SOL     OW22087   3.634   6.589   0.957
 7063SOL    HW122088   3.712   6.535   0.925
 7063SOL    HW222089   3.553   6.530   0.962
 7064SOL     OW22090   3.826   2.569   0.869
 7064SOL    HW122091   3.803   2.569   0.771
 7064SOL    HW222092   3.900   2.634   0.886
 7065SOL     OW22093   4.949   3.864   1.631
 7065SOL    HW122094   4.899   3.937   1.583
 7065SOL    HW222095   4.967   3.789   1.567
 7066SOL     OW22096   3.620   6.720   0.623
 7066SOL    HW122097   3.704   6.711   0.676
 7066SOL    HW222098   3.555   6.650   0.651
 7067SOL     OW22099   0.190   3.788   5.690
 7067SOL    HW122100   0.130   3.750   5.620
 7067SOL    HW222101   0.150   3.872   5.726
 7068SOL     OW22102   2.060   1.134   4.073
 7068SOL    HW122103   1.988   1.192   4.111
 7068SOL    HW222104   2.085   1.064   4.140
 7069SOL     OW22105   1.052   4.763   4.635
 7069SOL    HW122106   1.042   4.664   4.620
 7069SOL    HW222107   1.140   4.780   4.680
 7070SOL     OW22108   6.006   5.450   4.729
 7070SOL    HW122109   5.993   5.537   4.681
 7070SOL    HW222110   5.983   5.461   4.825
 7071SOL     OW22111   1.493   6.403   5.521
 7071SOL    HW122112   1.457   6.402   5.428
 7071SOL    HW222113   1.527   6.312   5.545
 7072SOL     OW22114   0.850   6.554   6.592
 7072SOL    HW122115   0.783   6.625   6.570
 7072SOL    HW222116   0.839   6.527   6.688
 7073SOL     OW22117   0.944   0.280   5.704
 7073SOL    HW122118   1.015   0.213   5.726
 7073SOL    HW222119   0.865   0.265   5.763
 7074SOL     OW22120   3.348   1.848   1.506
 7074SOL    HW122121   3.359   1.788   1.427
 7074SOL    HW222122   3.369   1.797   1.589
 7075SOL     OW22123   1.729   6.085   3.380
 7075SOL    HW122124   1.789   6.090   3.301
 7075SOL    HW222125   1.784   6.073   3.463
 7076SOL     OW22126   3.097   2.602   6.613
 7076SOL    HW122127   3.093   2.622   6.515
 7076SOL    HW222128   3.074   2.685   6.664
 7077SOL     OW22129   2.671   5.707   5.411
 7077SOL    HW122130   2.602   5.638   5.391
 7077SOL    HW222131   2.762   5.670   5.393
 7078SOL     OW22132   6.043   0.668   3.336
 7078SOL    HW122133   6.023   0.645   3.431
 7078SOL    HW222134   5.958   0.689   3.288
 7079SOL     OW22135   5.959   6.081   5.717
 7079SOL    HW122136   5.928   6.108   5.808
 7079SOL    HW222137   5.959   6.160   5.656
 7080SOL     OW22138   4.776   1.790   3.966
 7080SOL    HW122139   4.858   1.739   3.992
 7080SOL    HW222140   4.727   1.741   3.894
 7081SOL     OW22141   3.498   1.524   5.111
 7081SOL    HW122142   3.540   1.508   5.022
 7081SOL    HW222143   3.459   1.438   5.145
 7082SOL     OW22144   5.369   0.757   6.019
 7082SOL    HW122145   5.282   0.741   5.973
 7082SOL    HW222146   5.357   0.828   6.089
 7083SOL     OW22147   3.294   6.960   6.861
 7083SOL    HW122148   3.319   7.001   6.773
 7083SOL    HW222149   3.266   6.865   6.846
 7084SOL     OW22150   6.829   6.657   6.293
 7084SOL    HW122151   6.793   6.570   6.261
 7084SOL    HW222152   6.759   6.705   6.347
 7085SOL     OW22153   2.331   2.314   1.745
 7085SOL    HW122154   2.315   2.288   1.841
 7085SOL    HW222155   2.404   2.256   1.708
 7086SOL     OW22156   5.769   0.066   6.687
 7086SOL    HW122157   5.767   0.029   6.594
 7086SOL    HW222158   5.761   0.165   6.684
 7087SOL     OW22159   1.405   3.358   4.003
 7087SOL    HW122160   1.424   3.444   4.049
 7087SOL    HW222161   1.415   3.369   3.904
 7088SOL     OW22162   6.086   3.030   5.243
 7088SOL    HW122163   6.158   3.033   5.174
 7088SOL    HW222164   6.050   3.122   5.259
 7089SOL     OW22165   2.952   1.905   0.155
 7089SOL    HW122166   3.007   1.844   0.098
 7089SOL    HW222167   3.011   1.972   0.199
 7090SOL     OW22168   2.705   2.101   5.287
 7090SOL    HW122169   2.768   2.058   5.352
 7090SOL    HW222170   2.753   2.174   5.237
 7091SOL     OW22171   0.016   6.884   0.028
 7091SOL    HW122172   6.949   6.851   0.061
 7091SOL    HW222173   0.010   6.982   0.009
 7092SOL     OW22174   3.479   3.786   1.001
 7092SOL    HW122175   3.399   3.729   0.982
 7092SOL    HW222176   3.523   3.755   1.085
 7093SOL     OW22177   3.562   4.193   4.718
 7093SOL    HW122178   3.551   4.268   4.782
 7093SOL    HW222179   3.478   4.182   4.664
 7094SOL     OW22180   0.571   0.295   5.552
 7094SOL    HW122181   0.532   0.387   5.548
 7094SOL    HW222182   0.657   0.293   5.500
 7095SOL     OW22183   0.536   3.116   6.394
 7095SOL    HW122184   0.560   3.117   6.297
 7095SOL    HW222185   0.439   3.094   6.405
 7096SOL     OW22186   4.603   2.268   3.616
 7096SOL    HW122187   4.671   2.286   3.546
 7096SOL    HW222188   4.576   2.172   3.612
 7097SOL     OW22189   0.044   1.074   1.563
 7097SOL    HW122190   7.005   1.047   1.489
 7097SOL    HW222191   0.093   0.993   1.596
 7098SOL     OW22192   1.969   6.218   6.275
 7098SOL    HW122193   2.054   6.255   6.313
 7098SOL    HW222194   1.946   6.133   6.322
 7099SOL     OW22195   1.216   1.185   5.957
 7099SOL    HW122196   1.172   1.113   5.903
 7099SOL    HW222197   1.189   1.275   5.923
 7100SOL     OW22198   5.517   3.722   1.022
 7100SOL    HW122199   5.553   3.680   1.105
 7100SOL    HW222200   5.479   3.650   0.963
 7101SOL     OW22201   2.985   0.654   5.513
 7101SOL    HW122202   2.971   0.609   5.602
 7101SOL    HW222203   2.936   0.604   5.442
 7102SOL     OW22204   4.282   1.729   0.586
 7102SOL    HW122205   4.197   1.726   0.532
 7102SOL    HW222206   4.261   1.757   0.680
 7103SOL     OW22207   3.224   6.690   6.794
 7103SOL    HW122208   3.261   6.602   6.766
 7103SOL    HW222209   3.140   6.708   6.743
 7104SOL     OW22210   1.230   1.844   3.042
 7104SOL    HW122211   1.324   1.859   3.010
 7104SOL    HW222212   1.233   1.795   3.129
 7105SOL     OW22213   3.499   3.501   4.912
 7105SOL    HW122214   3.414   3.449   4.923
 7105SOL    HW222215   3.488   3.566   4.837
 7106SOL     OW22216   3.232   2.887   5.179
 7106SOL    HW122217   3.145   2.845   5.205
 7106SOL    HW222218   3.307   2.833   5.218
 7107SOL     OW22219   2.380   2.190   0.337
 7107SOL    HW122220   2.409   2.094   0.338
 7107SOL    HW222221   2.451   2.246   0.379
 7108SOL     OW22222   5.527   6.910   1.533
 7108SOL    HW122223   5.596   6.894   1.604
 7108SOL    HW222224   5.463   6.834   1.531
 7109SOL     OW22225   3.893   0.148   6.467
 7109SOL    HW122226   3.825   0.108   6.527
 7109SOL    HW222227   3.886   0.248   6.470
 7110SOL     OW22228   4.600   5.138   3.774
 7110SOL    HW122229   4.610   5.039   3.780
 7110SOL    HW222230   4.587   5.164   3.678
 7111SOL     OW22231   2.280   2.706   4.287
 7111SOL    HW122232   2.225   2.784   4.257
 7111SOL    HW222233   2.255   2.625   4.234
 7112SOL     OW22234   1.004   6.713   3.668
 7112SOL    HW122235   1.033   6.634   3.721
 7112SOL    HW222236   1.043   6.796   3.706
 7113SOL     OW22237   4.034   3.310   4.420
 7113SOL    HW122238   3.948   3.301   4.470
 7113SOL    HW222239   4.062   3.221   4.384
 7114SOL     OW22240   4.305   0.983   1.532
 7114SOL    HW122241   4.399   0.949   1.520
 7114SOL    HW222242   4.285   1.048   1.459
 7115SOL     OW22243   4.837   1.660   1.182
 7115SOL    HW122244   4.874   1.677   1.273
 7115SOL    HW222245   4.911   1.654   1.115
 7116SOL     OW22246   5.255   4.087   3.064
 7116SOL    HW122247   5.319   4.153   3.024
 7116SOL    HW222248   5.267   3.998   3.020
 7117SOL     OW22249   6.175   6.626   2.044
 7117SOL    HW122250   6.269   6.623   2.078
 7117SOL    HW222251   6.150   6.536   2.008
 7118SOL     OW22252   6.340   3.870   0.916
 7118SOL    HW122253   6.349   3.926   0.999
 7118SOL    HW222254   6.419   3.809   0.909
 7119SOL     OW22255   6.798   1.423   3.363
 7119SOL    HW122256   6.856   1.373   3.427
 7119SOL    HW222257   6.702   1.414   3.390
 7120SOL     OW22258   4.827   1.270   3.075
 7120SOL    HW122259   4.821   1.353   3.131
 7120SOL    HW222260   4.872   1.292   2.989
 7121SOL     OW22261   3.133   6.648   3.598
 7121SOL    HW122262   3.228   6.676   3.612
 7121SOL    HW222263   3.107   6.666   3.503
 7122SOL     OW22264   6.611   0.901   6.797
 7122SOL    HW122265   6.550   0.951   6.859
 7122SOL    HW222266   6.558   0.833   6.746
 7123SOL     OW22267   3.110   5.275   1.143
 7123SOL    HW122268   3.209   5.261   1.142
 7123SOL    HW222269   3.066   5.199   1.190
 7124SOL     OW22270   0.450   5.110   0.360
 7124SOL    HW122271   0.536   5.119   0.410
 7124SOL    HW222272   0.402   5.197   0.360
 7125SOL     OW22273   6.454   6.260   2.465
 7125SOL    HW122274   6.364   6.223   2.488
 7125SOL    HW222275   6.472   6.245   2.367
 7126SOL     OW22276   1.060   4.733   0.488
 7126SOL    HW122277   1.121   4.667   0.444
 7126SOL    HW222278   0.967   4.696   0.492
 7127SOL     OW22279   3.632   6.361   4.489
 7127SOL    HW122280   3.541   6.319   4.486
 7127SOL    HW222281   3.701   6.289   4.481
 7128SOL     OW22282   3.193   4.158   1.417
 7128SOL    HW122283   3.132   4.080   1.408
 7128SOL    HW222284   3.281   4.137   1.373
 7129SOL     OW22285   2.243   0.051   1.987
 7129SOL    HW122286   2.315   0.097   2.039
 7129SOL    HW222287   2.285   7.011   1.920
 7130SOL     OW22288   2.129   4.321   3.916
 7130SOL    HW122289   2.113   4.323   3.818
 7130SOL    HW222290   2.165   4.409   3.946
 7131SOL     OW22291   2.728   0.827   2.897
 7131SOL    HW122292   2.712   0.771   2.815
 7131SOL    HW222293   2.681   0.915   2.886
 7132SOL     OW22294   3.879   3.949   3.316
 7132SOL    HW122295   3.948   3.898   3.367
 7132SOL    HW222296   3.843   4.023   3.373
 7133SOL     OW22297   5.055   4.942   3.139
 7133SOL    HW122298   5.126   4.916   3.072
 7133SOL    HW222299   5.075   5.034   3.173
 7134SOL     OW22300   5.976   4.923   4.268
 7134SOL    HW122301   5.892   4.891   4.311
 7134SOL    HW222302   6.051   4.860   4.292
 7135SOL     OW22303   0.837   2.033   4.986
 7135SOL    HW122304   0.919   2.016   4.931
 7135SOL    HW222305   0.837   2.128   5.017
 7136SOL     OW22306   1.993   1.012   0.602
 7136SOL    HW122307   2.065   1.042   0.539
 7136SOL    HW222308   1.966   0.918   0.580
 7137SOL     OW22309   4.843   0.478   4.574
 7137SOL    HW122310   4.913   0.425   4.622
 7137SOL    HW222311   4.755   0.465   4.620
 7138SOL     OW22312   2.068   4.066   1.147
 7138SOL    HW122313   2.007   4.037   1.220
 7138SOL    HW222314   2.135   4.131   1.183
 7139SOL     OW22315   4.368   3.028   1.510
 7139SOL    HW122316   4.278   2.988   1.522
 7139SOL    HW222317   4.391   3.084   1.590
 7140SOL     OW22318   6.109   4.181   5.368
 7140SOL    HW122319   6.194   4.231   5.354
 7140SOL    HW222320   6.129   4.089   5.404
 7141SOL     OW22321   2.922   6.725   0.941
 7141SOL    HW122322   2.977   6.676   1.008
 7141SOL    HW222323   2.956   6.705   0.849
 7142SOL     OW22324   3.894   6.462   4.145
 7142SOL    HW122325   3.819   6.403   4.173
 7142SOL    HW222326   3.949   6.487   4.225
 7143SOL     OW22327   1.462   3.920   5.737
 7143SOL    HW122328   1.386   3.887   5.681
 7143SOL    HW222329   1.537   3.950   5.678
 7144SOL     OW22330   1.041   1.807   3.399
 7144SOL    HW122331   1.010   1.884   3.455
 7144SOL    HW222332   1.140   1.808   3.392
 7145SOL     OW22333   4.727   6.587   6.861
 7145SOL    HW122334   4.783   6.650   6.808
 7145SOL    HW222335   4.785   6.512   6.895
 7146SOL     OW22336   3.014   5.547   0.343
 7146SOL    HW122337   2.991   5.626   0.400
 7146SOL    HW222338   2.966   5.466   0.378
 7147SOL     OW22339   0.477   0.193   3.032
 7147SOL    HW122340   0.555   0.180   2.970
 7147SOL    HW222341   0.498   0.266   3.097
 7148SOL     OW22342   1.471   0.632   1.674
 7148SOL    HW122343   1.500   0.568   1.745
 7148SOL    HW222344   1.515   0.608   1.587
 7149SOL     OW22345   6.578   1.237   3.422
 7149SOL    HW122346   6.610   1.148   3.457
 7149SOL    HW222347   6.605   1.246   3.326
 7150SOL     OW22348   6.308   2.889   6.964
 7150SOL    HW122349   6.404   2.881   6.990
 7150SOL    HW222350   6.281   2.986   6.965
 7151SOL     OW22351   3.052   5.686   1.869
 7151SOL    HW122352   3.141   5.657   1.834
 7151SOL    HW222353   3.063   5.773   1.918
 7152SOL     OW22354   1.648   2.699   3.583
 7152SOL    HW122355   1.687   2.774   3.636
 7152SOL    HW222356   1.721   2.647   3.541
 7153SOL     OW22357   3.836   1.385   3.845
 7153SOL    HW122358   3.746   1.398   3.886
 7153SOL    HW222359   3.838   1.299   3.794
 7154SOL     OW22360   4.640   5.422   3.871
 7154SOL    HW122361   4.661   5.339   3.819
 7154SOL    HW222362   4.547   5.416   3.908
 7155SOL     OW22363   1.901   0.001   1.170
 7155SOL    HW122364   1.936   0.070   1.234
 7155SOL    HW222365   1.947   6.936   1.186
 7156SOL     OW22366   6.742   5.488   4.708
 7156SOL    HW122367   6.708   5.397   4.684
 7156SOL    HW222368   6.841   5.483   4.723
 7157SOL     OW22369   4.955   4.957   0.585
 7157SOL    HW122370   5.039   4.930   0.631
 7157SOL    HW222371   4.877   4.913   0.629
 7158SOL     OW22372   6.503   6.691   2.921
 7158SOL    HW122373   6.596   6.713   2.949
 7158SOL    HW222374   6.491   6.591   2.922
 7159SOL     OW22375   0.854   5.559   0.370
 7159SOL    HW122376   0.755   5.544   0.365
 7159SOL    HW222377   0.872   5.650   0.408
 7160SOL     OW22378   6.165   0.411   2.086
 7160SOL    HW122379   6.195   0.316   2.078
 7160SOL    HW222380   6.165   0.439   2.182
 7161SOL     OW22381   3.530   3.259   4.349
 7161SOL    HW122382   3.616   3.306   4.328
 7161SOL    HW222383   3.527   3.172   4.300
 7162SOL     OW22384   3.417   4.988   4.101
 7162SOL    HW122385   3.509   4.969   4.067
 7162SOL    HW222386   3.391   5.081   4.075
 7163SOL     OW22387   2.941   0.351   3.072
 7163SOL    HW122388   2.989   0.360   2.985
 7163SOL    HW222389   2.989   0.283   3.129
 7164SOL     OW22390   2.168   0.856   3.184
 7164SOL    HW122391   2.253   0.879   3.137
 7164SOL    HW222392   2.143   0.931   3.245
 7165SOL     OW22393   5.202   1.318   0.704
 7165SOL    HW122394   5.220   1.413   0.731
 7165SOL    HW222395   5.103   1.304   0.697
 7166SOL     OW22396   5.214   5.096   0.939
 7166SOL    HW122397   5.131   5.138   0.902
 7166SOL    HW222398   5.269   5.165   0.985
 7167SOL     OW22399   5.074   3.408   5.091
 7167SOL    HW122400   5.016   3.384   5.169
 7167SOL    HW222401   5.064   3.340   5.019
 7168SOL     OW22402   1.135   0.549   4.044
 7168SOL    HW122403   1.076   0.494   3.985
 7168SOL    HW222404   1.124   0.521   4.139
 7169SOL     OW22405   1.670   2.884   5.443
 7169SOL    HW122406   1.606   2.881   5.520
 7169SOL    HW222407   1.661   2.800   5.389
 7170SOL     OW22408   6.155   5.124   4.170
 7170SOL    HW122409   6.108   5.160   4.089
 7170SOL    HW222410   6.108   5.042   4.202
 7171SOL     OW22411   4.462   3.243   5.384
 7171SOL    HW122412   4.479   3.339   5.366
 7171SOL    HW222413   4.373   3.217   5.346
 7172SOL     OW22414   1.308   0.137   0.236
 7172SOL    HW122415   1.320   0.041   0.263
 7172SOL    HW222416   1.212   0.162   0.245
 7173SOL     OW22417   0.138   6.577   5.654
 7173SOL    HW122418   0.176   6.530   5.574
 7173SOL    HW222419   0.098   6.510   5.716
 7174SOL     OW22420   1.945   5.199   0.021
 7174SOL    HW122421   1.895   5.259   6.981
 7174SOL    HW222422   1.953   5.243   0.110
 7175SOL     OW22423   6.038   4.205   6.809
 7175SOL    HW122424   5.982   4.268   6.755
 7175SOL    HW222425   6.113   4.170   6.753
 7176SOL     OW22426   5.881   4.251   1.172
 7176SOL    HW122427   5.881   4.210   1.263
 7176SOL    HW222428   5.973   4.246   1.133
 7177SOL     OW22429   1.074   5.230   2.686
 7177SOL    HW122430   1.034   5.308   2.734
 7177SOL    HW222431   1.002   5.166   2.660
 7178SOL     OW22432   0.914   2.792   5.211
 7178SOL    HW122433   0.963   2.859   5.156
 7178SOL    HW222434   0.978   2.728   5.252
 7179SOL     OW22435   2.723   4.269   5.753
 7179SOL    HW122436   2.777   4.349   5.777
 7179SOL    HW222437   2.744   4.242   5.659
 7180SOL     OW22438   0.918   6.079   2.230
 7180SOL    HW122439   0.877   6.023   2.158
 7180SOL    HW222440   0.930   6.024   2.312
 7181SOL     OW22441   4.860   0.292   1.113
 7181SOL    HW122442   4.823   0.207   1.076
 7181SOL    HW222443   4.943   0.273   1.166
 7182SOL     OW22444   2.538   4.081   5.407
 7182SOL    HW122445   2.536   4.181   5.401
 7182SOL    HW222446   2.490   4.042   5.328
 7183SOL     OW22447   1.365   5.117   3.058
 7183SOL    HW122448   1.318   5.184   2.999
 7183SOL    HW222449   1.462   5.116   3.036
 7184SOL     OW22450   2.508   6.684   4.360
 7184SOL    HW122451   2.436   6.746   4.328
 7184SOL    HW222452   2.553   6.642   4.281
 7185SOL     OW22453   4.537   2.740   6.963
 7185SOL    HW122454   4.609   2.678   6.994
 7185SOL    HW222455   4.449   2.710   6.998
 7186SOL     OW22456   6.907   6.000   5.260
 7186SOL    HW122457   7.003   6.027   5.251
 7186SOL    HW222458   6.863   6.053   5.333
 7187SOL     OW22459   1.923   4.237   2.037
 7187SOL    HW122460   1.987   4.281   1.974
 7187SOL    HW222461   1.934   4.138   2.032
 7188SOL     OW22462   5.028   1.428   1.950
 7188SOL    HW122463   5.101   1.360   1.965
 7188SOL    HW222464   4.954   1.385   1.898
 7189SOL     OW22465   6.948   1.296   5.476
 7189SOL    HW122466   6.944   1.279   5.378
 7189SOL    HW222467   0.011   1.257   5.513
 7190SOL     OW22468   5.184   4.283   3.268
 7190SOL    HW122469   5.197   4.218   3.193
 7190SOL    HW222470   5.272   4.300   3.312
 7191SOL     OW22471   1.555   3.668   2.116
 7191SOL    HW122472   1.502   3.614   2.181
 7191SOL    HW222473   1.652   3.668   2.144
 7192SOL     OW22474   2.812   4.294   6.091
 7192SOL    HW122475   2.908   4.281   6.066
 7192SOL    HW222476   2.788   4.391   6.081
 7193SOL     OW22477   4.269   2.287   3.658
 7193SOL    HW122478   4.319   2.352   3.716
 7193SOL    HW222479   4.182   2.264   3.701
 7194SOL     OW22480   2.446   1.541   1.916
 7194SOL    HW122481   2.496   1.510   1.835
 7194SOL    HW222482   2.490   1.623   1.952
 7195SOL     OW22483   1.235   5.382   0.986
 7195SOL    HW122484   1.141   5.351   0.999
 7195SOL    HW222485   1.235   5.480   0.968
 7196SOL     OW22486   2.872   3.476   2.605
 7196SOL    HW122487   2.903   3.386   2.575
 7196SOL    HW222488   2.779   3.492   2.572
 7197SOL     OW22489   6.513   2.171   5.542
 7197SOL    HW122490   6.563   2.253   5.571
 7197SOL    HW222491   6.450   2.195   5.469
 7198SOL     OW22492   1.126   6.340   6.696
 7198SOL    HW122493   1.113   6.248   6.733
 7198SOL    HW222494   1.134   6.335   6.597
 7199SOL     OW22495   6.474   6.630   2.626
 7199SOL    HW122496   6.519   6.685   2.556
 7199SOL    HW222497   6.456   6.687   2.707
 7200SOL     OW22498   2.244   1.245   1.109
 7200SOL    HW122499   2.287   1.166   1.151
 7200SOL    HW222500   2.267   1.248   1.012
 7201SOL     OW22501   2.001   4.000   3.696
 7201SOL    HW122502   2.019   3.997   3.794
 7201SOL    HW222503   1.902   3.998   3.680
 7202SOL     OW22504   3.594   0.895   6.727
 7202SOL    HW122505   3.536   0.971   6.698
 7202SOL    HW222506   3.600   0.828   6.653
 7203SOL     OW22507   5.279   0.994   6.888
 7203SOL    HW122508   5.270   1.053   6.969
 7203SOL    HW222509   5.217   1.028   6.817
 7204SOL     OW22510   6.071   1.187   3.562
 7204SOL    HW122511   6.166   1.164   3.541
 7204SOL    HW222512   6.013   1.109   3.542
 7205SOL     OW22513   2.411   4.761   2.454
 7205SOL    HW122514   2.325   4.712   2.471
 7205SOL    HW222515   2.474   4.701   2.406
 7206SOL     OW22516   6.528   0.948   1.308
 7206SOL    HW122517   6.522   1.033   1.255
 7206SOL    HW222518   6.555   0.969   1.402
 7207SOL     OW22519   3.517   0.141   1.387
 7207SOL    HW122520   3.575   0.121   1.466
 7207SOL    HW222521   3.465   0.059   1.363
 7208SOL     OW22522   3.387   0.187   5.791
 7208SOL    HW122523   3.445   0.158   5.714
 7208SOL    HW222524   3.324   0.114   5.814
 7209SOL     OW22525   3.736   3.417   4.267
 7209SOL    HW122526   3.834   3.417   4.247
 7209SOL    HW222527   3.717   3.482   4.341
 7210SOL     OW22528   4.708   1.256   3.961
 7210SOL    HW122529   4.706   1.287   3.866
 7210SOL    HW222530   4.697   1.335   4.022
 7211SOL     OW22531   1.726   5.312   3.427
 7211SOL    HW122532   1.788   5.309   3.506
 7211SOL    HW222533   1.667   5.231   3.428
 7212SOL     OW22534   6.048   6.520   4.182
 7212SOL    HW122535   6.100   6.450   4.230
 7212SOL    HW222536   6.073   6.610   4.218
 7213SOL     OW22537   6.316   0.873   5.406
 7213SOL    HW122538   6.249   0.947   5.398
 7213SOL    HW222539   6.407   0.912   5.416
 7214SOL     OW22540   1.836   5.242   4.766
 7214SOL    HW122541   1.799   5.182   4.837
 7214SOL    HW222542   1.920   5.286   4.800
 7215SOL     OW22543   1.026   3.527   3.661
 7215SOL    HW122544   0.981   3.614   3.643
 7215SOL    HW222545   1.124   3.542   3.676
 7216SOL     OW22546   2.598   0.439   0.387
 7216SOL    HW122547   2.557   0.357   0.428
 7216SOL    HW222548   2.634   0.416   0.297
 7217SOL     OW22549   0.922   2.699   2.294
 7217SOL    HW122550   0.926   2.720   2.392
 7217SOL    HW222551   1.010   2.721   2.252
 7218SOL     OW22552   5.084   2.890   5.617
 7218SOL    HW122553   5.177   2.854   5.630
 7218SOL    HW222554   5.018   2.826   5.654
 7219SOL     OW22555   3.787   0.904   2.834
 7219SOL    HW122556   3.849   0.866   2.766
 7219SOL    HW222557   3.799   1.004   2.838
 7220SOL     OW22558   6.637   1.115   2.636
 7220SOL    HW122559   6.716   1.103   2.575
 7220SOL    HW222560   6.601   1.025   2.661
 7221SOL     OW22561   5.255   4.960   6.257
 7221SOL    HW122562   5.170   4.958   6.311
 7221SOL    HW222563   5.311   4.881   6.281
 7222SOL     OW22564   0.210   5.850   1.580
 7222SOL    HW122565   0.113   5.837   1.565
 7222SOL    HW222566   0.260   5.839   1.494
 7223SOL     OW22567   3.582   1.290   5.776
 7223SOL    HW122568   3.589   1.190   5.765
 7223SOL    HW222569   3.563   1.332   5.688
 7224SOL     OW22570   5.246   6.889   5.044
 7224SOL    HW122571   5.157   6.891   5.000
 7224SOL    HW222572   5.246   6.952   5.121
 7225SOL     OW22573   2.394   6.730   6.998
 7225SOL    HW122574   2.431   6.665   0.042
 7225SOL    HW222575   2.351   6.806   0.025
 7226SOL     OW22576   0.355   6.402   0.612
 7226SOL    HW122577   0.366   6.319   0.558
 7226SOL    HW222578   0.440   6.454   0.612
 7227SOL     OW22579   0.118   2.521   0.107
 7227SOL    HW122580   0.042   2.469   0.146
 7227SOL    HW222581   0.082   2.590   0.045
 7228SOL     OW22582   0.954   0.815   2.224
 7228SOL    HW122583   0.944   0.887   2.293
 7228SOL    HW222584   0.998   0.735   2.265
 7229SOL     OW22585   0.614   0.629   3.971
 7229SOL    HW122586   0.581   0.613   4.064
 7229SOL    HW222587   0.574   0.560   3.909
 7230SOL     OW22588   5.066   4.241   3.652
 7230SOL    HW122589   5.025   4.183   3.581
 7230SOL    HW222590   5.117   4.316   3.609
 7231SOL     OW22591   5.944   0.997   6.599
 7231SOL    HW122592   6.035   0.956   6.598
 7231SOL    HW222593   5.909   0.999   6.693
 7232SOL     OW22594   4.312   4.767   1.879
 7232SOL    HW122595   4.371   4.707   1.932
 7232SOL    HW222596   4.343   4.769   1.784
 7233SOL     OW22597   6.798   2.228   6.384
 7233SOL    HW122598   6.854   2.163   6.435
 7233SOL    HW222599   6.804   2.318   6.426
 7234SOL     OW22600   6.319   2.003   1.725
 7234SOL    HW122601   6.346   1.907   1.736
 7234SOL    HW222602   6.250   2.026   1.794
 7235SOL     OW22603   5.658   3.538   5.077
 7235SOL    HW122604   5.562   3.566   5.064
 7235SOL    HW222605   5.709   3.613   5.120
 7236SOL     OW22606   3.373   0.437   2.805
 7236SOL    HW122607   3.329   0.417   2.718
 7236SOL    HW222608   3.468   0.464   2.789
 7237SOL     OW22609   5.904   5.808   5.768
 7237SOL    HW122610   5.835   5.775   5.831
 7237SOL    HW222611   5.891   5.905   5.752
 7238SOL     OW22612   2.010   1.791   1.473
 7238SOL    HW122613   1.936   1.759   1.415
 7238SOL    HW222614   1.984   1.782   1.569
 7239SOL     OW22615   3.402   1.704   1.732
 7239SOL    HW122616   3.443   1.613   1.732
 7239SOL    HW222617   3.360   1.722   1.821
 7240SOL     OW22618   2.690   4.275   0.323
 7240SOL    HW122619   2.751   4.332   0.377
 7240SOL    HW222620   2.655   4.200   0.380
 7241SOL     OW22621   3.824   6.980   4.917
 7241SOL    HW122622   3.794   0.032   4.855
 7241SOL    HW222623   3.756   6.968   4.989
 7242SOL     OW22624   5.430   4.521   6.627
 7242SOL    HW122625   5.344   4.489   6.588
 7242SOL    HW222626   5.506   4.472   6.585
 7243SOL     OW22627   0.558   5.839   0.461
 7243SOL    HW122628   0.652   5.825   0.492
 7243SOL    HW222629   0.553   5.829   0.362
 7244SOL     OW22630   6.035   1.123   1.632
 7244SOL    HW122631   6.025   1.026   1.653
 7244SOL    HW222632   6.118   1.158   1.676
 7245SOL     OW22633   0.002   1.598   3.970
 7245SOL    HW122634   0.015   1.592   4.069
 7245SOL    HW222635   0.091   1.604   3.925
 7246SOL     OW22636   6.698   6.403   5.900
 7246SOL    HW122637   6.702   6.451   5.812
 7246SOL    HW222638   6.667   6.467   5.971
 7247SOL     OW22639   3.217   5.139   2.808
 7247SOL    HW122640   3.270   5.055   2.820
 7247SOL    HW222641   3.229   5.197   2.888
 7248SOL     OW22642   3.596   0.807   4.438
 7248SOL    HW122643   3.561   0.755   4.360
 7248SOL    HW222644   3.674   0.862   4.409
 7249SOL     OW22645   6.386   5.306   0.312
 7249SOL    HW122646   6.434   5.371   0.254
 7249SOL    HW222647   6.374   5.345   0.403
 7250SOL     OW22648   3.181   4.609   6.229
 7250SOL    HW122649   3.179   4.514   6.258
 7250SOL    HW222650   3.118   4.663   6.286
 7251SOL     OW22651   5.771   0.169   5.155
 7251SOL    HW122652   5.720   0.114   5.220
 7251SOL    HW222653   5.741   0.265   5.161
 7252SOL     OW22654   3.781   3.325   5.054
 7252SOL    HW122655   3.809   3.244   5.105
 7252SOL    HW222656   3.821   3.322   4.962
 7253SOL     OW22657   5.216   5.996   1.407
 7253SOL    HW122658   5.179   6.048   1.331
 7253SOL    HW222659   5.311   6.025   1.424
 7254SOL     OW22660   4.298   6.290   4.904
 7254SOL    HW122661   4.261   6.218   4.962
 7254SOL    HW222662   4.384   6.260   4.863
 7255SOL     OW22663   3.462   3.789   2.355
 7255SOL    HW122664   3.549   3.743   2.339
 7255SOL    HW222665   3.428   3.826   2.269
 7256SOL     OW22666   4.398   4.948   4.330
 7256SOL    HW122667   4.386   4.851   4.311
 7256SOL    HW222668   4.494   4.972   4.322
 7257SOL     OW22669   6.013   4.096   3.141
 7257SOL    HW122670   5.969   4.021   3.189
 7257SOL    HW222671   5.945   4.149   3.090
 7258SOL     OW22672   3.525   6.752   4.440
 7258SOL    HW122673   3.607   6.705   4.474
 7258SOL    HW222674   3.550   6.812   4.364
 7259SOL     OW22675   2.148   5.197   5.953
 7259SOL    HW122676   2.143   5.217   6.050
 7259SOL    HW222677   2.239   5.222   5.918
 7260SOL     OW22678   3.868   1.733   1.981
 7260SOL    HW122679   3.838   1.828   1.972
 7260SOL    HW222680   3.900   1.717   2.074
 7261SOL     OW22681   1.311   3.841   2.043
 7261SOL    HW122682   1.308   3.903   2.121
 7261SOL    HW222683   1.391   3.781   2.051
 7262SOL     OW22684   6.182   1.741   5.177
 7262SOL    HW122685   6.239   1.702   5.105
 7262SOL    HW222686   6.235   1.747   5.262
 7263SOL     OW22687   3.215   5.940   1.898
 7263SOL    HW122688   3.175   5.981   1.980
 7263SOL    HW222689   3.212   6.006   1.823
 7264SOL     OW22690   0.449   6.991   5.663
 7264SOL    HW122691   0.360   6.948   5.676
 7264SOL    HW222692   0.453   0.009   5.572
 7265SOL     OW22693   4.364   4.748   6.038
 7265SOL    HW122694   4.305   4.787   5.968
 7265SOL    HW222695   4.454   4.728   5.999
 7266SOL     OW22696   5.592   0.847   2.125
 7266SOL    HW122697   5.580   0.946   2.122
 7266SOL    HW222698   5.544   0.810   2.205
 7267SOL     OW22699   0.018   4.130   3.936
 7267SOL    HW122700   6.962   4.167   3.987
 7267SOL    HW222701   7.017   4.124   3.839
 7268SOL     OW22702   3.036   6.880   1.569
 7268SOL    HW122703   3.027   6.807   1.501
 7268SOL    HW222704   3.059   6.966   1.523
 7269SOL     OW22705   1.389   6.594   1.520
 7269SOL    HW122706   1.333   6.522   1.478
 7269SOL    HW222707   1.337   6.679   1.526
 7270SOL     OW22708   3.351   1.325   2.881
 7270SOL    HW122709   3.290   1.264   2.931
 7270SOL    HW222710   3.348   1.302   2.784
 7271SOL     OW22711   6.693   3.959   3.257
 7271SOL    HW122712   6.657   3.949   3.349
 7271SOL    HW222713   6.656   3.887   3.198
 7272SOL     OW22714   5.509   2.216   1.516
 7272SOL    HW122715   5.597   2.169   1.509
 7272SOL    HW222716   5.493   2.243   1.611
 7273SOL     OW22717   5.494   4.721   6.883
 7273SOL    HW122718   5.514   4.696   6.788
 7273SOL    HW222719   5.405   4.684   6.909
 7274SOL     OW22720   0.110   4.956   5.327
 7274SOL    HW122721   0.024   4.976   5.374
 7274SOL    HW222722   0.094   4.956   5.228
 7275SOL     OW22723   6.416   6.797   0.855
 7275SOL    HW122724   6.318   6.809   0.840
 7275SOL    HW222725   6.433   6.708   0.897
 7276SOL     OW22726   2.880   1.979   3.515
 7276SOL    HW122727   2.899   2.073   3.544
 7276SOL    HW222728   2.912   1.965   3.422
 7277SOL     OW22729   5.748   1.536   4.648
 7277SOL    HW122730   5.812   1.607   4.678
 7277SOL    HW222731   5.779   1.498   4.561
 7278SOL     OW22732   2.520   1.469   3.071
 7278SOL    HW122733   2.475   1.546   3.025
 7278SOL    HW222734   2.610   1.454   3.031
 7279SOL     OW22735   4.524   4.702   0.940
 7279SOL    HW122736   4.550   4.738   1.030
 7279SOL    HW222737   4.572   4.615   0.925
 7280SOL     OW22738   6.117   2.266   5.649
 7280SOL    HW122739   6.057   2.232   5.576
 7280SOL    HW222740   6.176   2.338   5.612
 7281SOL     OW22741   4.457   5.391   2.074
 7281SOL    HW122742   4.420   5.404   2.166
 7281SOL    HW222743   4.521   5.465   2.052
 7282SOL     OW22744   6.536   4.196   2.637
 7282SOL    HW122745   6.511   4.159   2.727
 7282SOL    HW222746   6.508   4.292   2.632
 7283SOL     OW22747   4.259   4.961   2.842
 7283SOL    HW122748   4.215   4.881   2.883
 7283SOL    HW222749   4.338   4.932   2.787
 7284SOL     OW22750   6.918   1.717   3.188
 7284SOL    HW122751   6.859   1.727   3.108
 7284SOL    HW222752   6.942   1.808   3.223
 7285SOL     OW22753   4.935   3.062   1.778
 7285SOL    HW122754   4.890   3.048   1.866
 7285SOL    HW222755   4.870   3.047   1.704
 7286SOL     OW22756   0.001   1.198   2.687
 7286SOL    HW122757   0.077   1.152   2.641
 7286SOL    HW222758   0.004   1.177   2.785
 7287SOL     OW22759   1.723   2.703   3.296
 7287SOL    HW122760   1.805   2.712   3.240
 7287SOL    HW222761   1.693   2.794   3.325
 7288SOL     OW22762   2.916   1.902   2.652
 7288SOL    HW122763   3.003   1.951   2.656
 7288SOL    HW222764   2.853   1.942   2.718
 7289SOL     OW22765   6.520   1.689   1.259
 7289SOL    HW122766   6.575   1.641   1.191
 7289SOL    HW222767   6.566   1.774   1.286
 7290SOL     OW22768   3.191   1.522   5.603
 7290SOL    HW122769   3.131   1.600   5.588
 7290SOL    HW222770   3.250   1.540   5.682
 7291SOL     OW22771   3.870   1.282   0.630
 7291SOL    HW122772   3.888   1.187   0.605
 7291SOL    HW222773   3.953   1.337   0.618
 7292SOL     OW22774   2.820   0.620   2.379
 7292SOL    HW122775   2.816   0.719   2.392
 7292SOL    HW222776   2.845   0.576   2.466
 7293SOL     OW22777   0.740   1.671   3.998
 7293SOL    HW122778   0.749   1.709   3.906
 7293SOL    HW222779   0.680   1.729   4.053
 7294SOL     OW22780   3.693   6.512   2.253
 7294SOL    HW122781   3.669   6.579   2.323
 7294SOL    HW222782   3.657   6.541   2.165
 7295SOL     OW22783   6.547   5.302   1.693
 7295SOL    HW122784   6.499   5.361   1.628
 7295SOL    HW222785   6.563   5.352   1.778
 7296SOL     OW22786   4.978   4.509   1.793
 7296SOL    HW122787   4.990   4.589   1.735
 7296SOL    HW222788   4.880   4.490   1.804
 7297SOL     OW22789   4.283   6.680   1.477
 7297SOL    HW122790   4.367   6.733   1.489
 7297SOL    HW222791   4.220   6.730   1.418
 7298SOL     OW22792   4.208   5.318   6.605
 7298SOL    HW122793   4.120   5.279   6.634
 7298SOL    HW222794   4.255   5.252   6.547
 7299SOL     OW22795   1.343   2.516   6.144
 7299SOL    HW122796   1.267   2.457   6.117
 7299SOL    HW222797   1.375   2.490   6.235
 7300SOL     OW22798   0.479   5.048   2.100
 7300SOL    HW122799   0.561   5.093   2.134
 7300SOL    HW222800   0.505   4.963   2.053
 7301SOL     OW22801   4.761   1.891   5.530
 7301SOL    HW122802   4.811   1.837   5.463
 7301SOL    HW222803   4.799   1.984   5.533
 7302SOL     OW22804   5.676   1.480   6.253
 7302SOL    HW122805   5.742   1.487   6.177
 7302SOL    HW222806   5.601   1.544   6.237
 7303SOL     OW22807   2.813   1.862   1.971
 7303SOL    HW122808   2.882   1.795   1.946
 7303SOL    HW222809   2.848   1.954   1.953
 7304SOL     OW22810   2.423   5.513   1.281
 7304SOL    HW122811   2.468   5.424   1.268
 7304SOL    HW222812   2.489   5.579   1.318
 7305SOL     OW22813   6.331   1.330   0.837
 7305SOL    HW122814   6.245   1.280   0.825
 7305SOL    HW222815   6.329   1.412   0.780
 7306SOL     OW22816   0.623   2.656   1.289
 7306SOL    HW122817   0.571   2.621   1.367
 7306SOL    HW222818   0.577   2.633   1.204
 7307SOL     OW22819   2.625   0.057   1.155
 7307SOL    HW122820   2.709   0.094   1.114
 7307SOL    HW222821   2.550   0.122   1.144
 7308SOL     OW22822   4.943   1.299   2.823
 7308SOL    HW122823   5.005   1.374   2.799
 7308SOL    HW222824   4.986   1.212   2.802
 7309SOL     OW22825   2.264   4.730   3.399
 7309SOL    HW122826   2.243   4.679   3.315
 7309SOL    HW222827   2.362   4.748   3.403
 7310SOL     OW22828   2.580   2.918   6.053
 7310SOL    HW122829   2.584   2.905   6.152
 7310SOL    HW222830   2.601   3.013   6.031
 7311SOL     OW22831   0.130   6.471   6.823
 7311SOL    HW122832   0.159   6.463   6.728
 7311SOL    HW222833   0.191   6.417   6.882
 7312SOL     OW22834   6.409   1.903   3.828
 7312SOL    HW122835   6.366   1.939   3.911
 7312SOL    HW222836   6.444   1.811   3.845
 7313SOL     OW22837   2.681   0.674   2.676
 7313SOL    HW122838   2.680   0.585   2.722
 7313SOL    HW222839   2.629   0.669   2.591
 7314SOL     OW22840   0.198   4.039   6.284
 7314SOL    HW122841   0.179   3.963   6.222
 7314SOL    HW222842   0.270   4.096   6.245
 7315SOL     OW22843   1.750   5.052   2.474
 7315SOL    HW122844   1.805   5.127   2.511
 7315SOL    HW222845   1.809   4.994   2.417
 7316SOL     OW22846   2.950   2.598   1.180
 7316SOL    HW122847   2.981   2.659   1.107
 7316SOL    HW222848   3.025   2.537   1.207
 7317SOL     OW22849   3.896   1.538   0.314
 7317SOL    HW122850   3.959   1.465   0.344
 7317SOL    HW222851   3.802   1.509   0.331
 7318SOL     OW22852   4.335   6.362   1.056
 7318SOL    HW122853   4.254   6.320   1.097
 7318SOL    HW222854   4.330   6.461   1.069
 7319SOL     OW22855   5.674   5.267   6.609
 7319SOL    HW122856   5.643   5.360   6.590
 7319SOL    HW222857   5.608   5.221   6.668
 7320SOL     OW22858   0.275   2.279   1.267
 7320SOL    HW122859   0.351   2.219   1.247
 7320SOL    HW222860   0.236   2.315   1.182
 7321SOL     OW22861   1.158   1.097   0.230
 7321SOL    HW122862   1.221   1.150   0.288
 7321SOL    HW222863   1.150   1.004   0.266
 7322SOL     OW22864   1.086   2.446   2.790
 7322SOL    HW122865   1.062   2.537   2.823
 7322SOL    HW222866   1.005   2.401   2.753
 7323SOL     OW22867   1.054   2.922   1.134
 7323SOL    HW122868   1.037   2.829   1.167
 7323SOL    HW222869   1.089   2.978   1.209
 7324SOL     OW22870   5.643   4.727   2.993
 7324SOL    HW122871   5.609   4.777   3.073
 7324SOL    HW222872   5.572   4.725   2.922
 7325SOL     OW22873   4.690   0.787   5.699
 7325SOL    HW122874   4.789   0.777   5.687
 7325SOL    HW222875   4.661   0.877   5.668
 7326SOL     OW22876   3.322   0.410   6.893
 7326SOL    HW122877   3.379   0.485   6.928
 7326SOL    HW222878   3.226   0.429   6.915
 7327SOL     OW22879   0.932   4.008   3.266
 7327SOL    HW122880   0.865   3.944   3.302
 7327SOL    HW222881   0.967   4.064   3.341
 7328SOL     OW22882   4.564   5.236   4.341
 7328SOL    HW122883   4.610   5.229   4.252
 7328SOL    HW222884   4.505   5.316   4.341
 7329SOL     OW22885   3.376   3.483   1.244
 7329SOL    HW122886   3.380   3.583   1.236
 7329SOL    HW222887   3.285   3.456   1.277
 7330SOL     OW22888   2.812   3.417   1.714
 7330SOL    HW122889   2.715   3.400   1.693
 7330SOL    HW222890   2.868   3.395   1.634
 7331SOL     OW22891   5.595   2.135   2.335
 7331SOL    HW122892   5.629   2.058   2.388
 7331SOL    HW222893   5.672   2.187   2.299
 7332SOL     OW22894   3.252   5.938   6.112
 7332SOL    HW122895   3.236   5.852   6.062
 7332SOL    HW222896   3.336   5.981   6.077
 7333SOL     OW22897   0.915   1.013   0.870
 7333SOL    HW122898   0.942   1.108   0.885
 7333SOL    HW222899   0.825   0.997   0.912
 7334SOL     OW22900   2.890   6.924   4.226
 7334SOL    HW122901   2.926   6.830   4.221
 7334SOL    HW222902   2.877   6.949   4.322
 7335SOL     OW22903   6.261   3.206   1.926
 7335SOL    HW122904   6.168   3.190   1.959
 7335SOL    HW222905   6.291   3.297   1.955
 7336SOL     OW22906   2.089   0.094   1.598
 7336SOL    HW122907   2.105   0.102   1.696
 7336SOL    HW222908   2.008   0.147   1.573
 7337SOL     OW22909   2.349   1.813   3.254
 7337SOL    HW122910   2.308   1.745   3.193
 7337SOL    HW222911   2.290   1.826   3.334
 7338SOL     OW22912   5.329   3.069   1.728
 7338SOL    HW122913   5.336   3.080   1.629
 7338SOL    HW222914   5.249   3.118   1.761
 7339SOL     OW22915   6.764   5.498   4.375
 7339SOL    HW122916   6.808   5.581   4.341
 7339SOL    HW222917   6.823   5.455   4.444
 7340SOL     OW22918   2.425   6.678   1.148
 7340SOL    HW122919   2.456   6.765   1.110
 7340SOL    HW222920   2.374   6.695   1.232
 7341SOL     OW22921   6.442   5.308   4.449
 7341SOL    HW122922   6.518   5.371   4.431
 7341SOL    HW222923   6.423   5.306   4.547
 7342SOL     OW22924   1.177   5.230   1.352
 7342SOL    HW122925   1.264   5.278   1.363
 7342SOL    HW222926   1.187   5.160   1.281
 7343SOL     OW22927   5.241   3.088   2.712
 7343SOL    HW122928   5.172   3.160   2.702
 7343SOL    HW222929   5.290   3.078   2.625
 7344SOL     OW22930   2.429   1.194   0.121
 7344SOL    HW122931   2.425   1.095   0.115
 7344SOL    HW222932   2.349   1.233   0.076
 7345SOL     OW22933   3.984   5.450   0.268
 7345SOL    HW122934   3.984   5.375   0.203
 7345SOL    HW222935   4.002   5.536   0.220
 7346SOL     OW22936   3.941   4.739   1.768
 7346SOL    HW122937   3.987   4.657   1.738
 7346SOL    HW222938   4.003   4.817   1.761
 7347SOL     OW22939   5.860   2.236   3.204
 7347SOL    HW122940   5.864   2.216   3.107
 7347SOL    HW222941   5.772   2.206   3.241
 7348SOL     OW22942   0.769   2.323   3.899
 7348SOL    HW122943   0.817   2.388   3.958
 7348SOL    HW222944   0.671   2.343   3.900
 7349SOL     OW22945   4.079   1.343   0.373
 7349SOL    HW122946   4.099   1.245   0.374
 7349SOL    HW222947   4.117   1.386   0.455
 7350SOL     OW22948   2.425   0.900   2.819
 7350SOL    HW122949   2.448   0.803   2.812
 7350SOL    HW222950   2.407   0.924   2.914
 7351SOL     OW22951   3.704   4.777   6.883
 7351SOL    HW122952   3.747   4.867   6.875
 7351SOL    HW222953   3.701   4.750   6.979
 7352SOL     OW22954   6.656   0.979   2.990
 7352SOL    HW122955   6.573   1.012   2.943
 7352SOL    HW222956   6.635   0.894   3.039
 7353SOL     OW22957   5.052   2.605   4.682
 7353SOL    HW122958   4.979   2.590   4.616
 7353SOL    HW222959   5.073   2.519   4.729
 7354SOL     OW22960   6.134   4.396   5.777
 7354SOL    HW122961   6.185   4.405   5.691
 7354SOL    HW222962   6.132   4.300   5.804
 7355SOL     OW22963   1.510   4.781   2.051
 7355SOL    HW122964   1.486   4.862   2.105
 7355SOL    HW222965   1.469   4.700   2.092
 7356SOL     OW22966   6.010   1.743   5.641
 7356SOL    HW122967   6.015   1.670   5.709
 7356SOL    HW222968   6.083   1.809   5.658
 7357SOL     OW22969   6.823   1.556   0.130
 7357SOL    HW122970   6.903   1.561   0.191
 7357SOL    HW222971   6.765   1.636   0.146
 7358SOL     OW22972   3.163   1.061   4.266
 7358SOL    HW122973   3.096   1.082   4.195
 7358SOL    HW222974   3.254   1.091   4.236
 7359SOL     OW22975   3.657   3.153   3.426
 7359SOL    HW122976   3.584   3.088   3.447
 7359SOL    HW222977   3.629   3.244   3.456
 7360SOL     OW22978   0.257   2.960   6.036
 7360SOL    HW122979   0.208   2.887   6.083
 7360SOL    HW222980   0.193   3.033   6.013
 7361SOL     OW22981   5.007   6.845   2.603
 7361SOL    HW122982   4.909   6.859   2.621
 7361SOL    HW222983   5.060   6.911   2.656
 7362SOL     OW22984   1.629   6.194   6.184
 7362SOL    HW122985   1.598   6.174   6.277
 7362SOL    HW222986   1.695   6.270   6.187
 7363SOL     OW22987   5.100   2.880   6.530
 7363SOL    HW122988   5.112   2.785   6.560
 7363SOL    HW222989   5.160   2.899   6.453
 7364SOL     OW22990   5.049   0.107   1.986
 7364SOL    HW122991   5.130   0.051   2.005
 7364SOL    HW222992   5.047   0.131   1.889
 7365SOL     OW22993   3.206   0.661   2.041
 7365SOL    HW122994   3.108   0.660   2.062
 7365SOL    HW222995   3.221   0.711   1.956
 7366SOL     OW22996   0.815   5.810   0.480
 7366SOL    HW122997   0.820   5.842   0.575
 7366SOL    HW222998   0.816   5.889   0.419
 7367SOL     OW22999   4.661   3.844   0.169
 7367SOL    HW123000   4.673   3.748   0.145
 7367SOL    HW223001   4.734   3.873   0.231
 7368SOL     OW23002   3.189   4.058   3.734
 7368SOL    HW123003   3.180   4.139   3.677
 7368SOL    HW223004   3.257   3.996   3.693
 7369SOL     OW23005   4.315   2.666   0.060
 7369SOL    HW123006   4.303   2.693   0.156
 7369SOL    HW223007   4.231   2.622   0.028
 7370SOL     OW23008   2.124   5.741   1.219
 7370SOL    HW123009   2.157   5.694   1.138
 7370SOL    HW223010   2.161   5.834   1.222
 7371SOL     OW23011   2.523   5.308   5.117
 7371SOL    HW123012   2.546   5.223   5.069
 7371SOL    HW223013   2.496   5.287   5.211
 7372SOL     OW23014   3.303   6.537   6.119
 7372SOL    HW123015   3.360   6.481   6.179
 7372SOL    HW223016   3.252   6.478   6.056
 7373SOL     OW23017   3.708   0.494   1.512
 7373SOL    HW123018   3.775   0.557   1.552
 7373SOL    HW223019   3.680   0.528   1.423
 7374SOL     OW23020   1.204   3.193   5.970
 7374SOL    HW123021   1.207   3.158   5.876
 7374SOL    HW223022   1.289   3.168   6.017
 7375SOL     OW23023   0.799   0.281   3.541
 7375SOL    HW123024   0.794   0.252   3.636
 7375SOL    HW223025   0.878   0.239   3.497
 7376SOL     OW23026   2.527   4.406   5.847
 7376SOL    HW123027   2.609   4.353   5.828
 7376SOL    HW223028   2.517   4.419   5.945
 7377SOL     OW23029   4.444   4.502   1.171
 7377SOL    HW123030   4.475   4.596   1.184
 7377SOL    HW223031   4.484   4.444   1.243
 7378SOL     OW23032   6.711   1.214   5.001
 7378SOL    HW123033   6.704   1.272   4.920
 7378SOL    HW223034   6.686   1.120   4.977
 7379SOL     OW23035   3.024   1.426   1.875
 7379SOL    HW123036   3.099   1.367   1.903
 7379SOL    HW223037   2.970   1.379   1.805
 7380SOL     OW23038   6.860   3.529   5.921
 7380SOL    HW123039   6.793   3.491   5.985
 7380SOL    HW223040   6.914   3.455   5.882
 7381SOL     OW23041   5.579   2.331   0.834
 7381SOL    HW123042   5.570   2.421   0.877
 7381SOL    HW223043   5.669   2.324   0.791
 7382SOL     OW23044   0.312   5.987   3.560
 7382SOL    HW123045   0.402   5.993   3.604
 7382SOL    HW223046   0.308   5.904   3.505
 7383SOL     OW23047   0.012   5.685   3.338
 7383SOL    HW123048   0.105   5.695   3.373
 7383SOL    HW223049   0.014   5.688   3.238
 7384SOL     OW23050   5.730   0.664   2.584
 7384SOL    HW123051   5.642   0.692   2.620
 7384SOL    HW223052   5.803   0.704   2.640
 7385SOL     OW23053   5.203   6.427   1.401
 7385SOL    HW123054   5.163   6.468   1.483
 7385SOL    HW223055   5.142   6.442   1.323
 7386SOL     OW23056   0.548   2.516   5.527
 7386SOL    HW123057   0.647   2.504   5.518
 7386SOL    HW223058   0.516   2.584   5.461
 7387SOL     OW23059   3.899   6.025   3.413
 7387SOL    HW123060   3.850   6.093   3.467
 7387SOL    HW223061   3.992   6.057   3.395
 7388SOL     OW23062   6.668   4.822   4.291
 7388SOL    HW123063   6.672   4.869   4.203
 7388SOL    HW223064   6.714   4.877   4.360
 7389SOL     OW23065   1.023   4.025   6.156
 7389SOL    HW123066   1.081   4.072   6.223
 7389SOL    HW223067   1.028   3.927   6.170
 7390SOL     OW23068   2.205   6.562   5.328
 7390SOL    HW123069   2.170   6.481   5.281
 7390SOL    HW223070   2.284   6.538   5.383
 7391SOL     OW23071   6.207   3.150   6.885
 7391SOL    HW123072   6.292   3.197   6.861
 7391SOL    HW223073   6.140   3.164   6.813
 7392SOL     OW23074   2.543   4.610   3.827
 7392SOL    HW123075   2.487   4.559   3.762
 7392SOL    HW223076   2.623   4.647   3.780
 7393SOL     OW23077   0.322   3.678   1.797
 7393SOL    HW123078   0.277   3.595   1.830
 7393SOL    HW223079   0.267   3.758   1.820
 7394SOL     OW23080   3.125   4.034   6.294
 7394SOL    HW123081   3.039   4.001   6.255
 7394SOL    HW223082   3.201   4.011   6.232
 7395SOL     OW23083   1.455   6.531   0.501
 7395SOL    HW123084   1.483   6.626   0.518
 7395SOL    HW223085   1.400   6.527   0.418
 7396SOL     OW23086   0.822   0.241   6.985
 7396SOL    HW123087   0.753   0.201   0.023
 7396SOL    HW223088   0.905   0.186   6.988
 7397SOL     OW23089   6.297   5.373   4.684
 7397SOL    HW123090   6.309   5.367   4.783
 7397SOL    HW223091   6.202   5.352   4.661
 7398SOL     OW23092   3.943   4.831   3.395
 7398SOL    HW123093   3.931   4.802   3.300
 7398SOL    HW223094   4.036   4.866   3.408
 7399SOL     OW23095   4.936   4.012   5.566
 7399SOL    HW123096   4.924   4.096   5.513
 7399SOL    HW223097   4.946   4.035   5.663
 7400SOL     OW23098   2.130   5.074   6.434
 7400SOL    HW123099   2.094   5.156   6.479
 7400SOL    HW223100   2.083   5.061   6.347
 7401SOL     OW23101   6.404   1.723   4.226
 7401SOL    HW123102   6.488   1.693   4.180
 7401SOL    HW223103   6.407   1.822   4.238
 7402SOL     OW23104   2.811   0.376   3.607
 7402SOL    HW123105   2.739   0.378   3.676
 7402SOL    HW223106   2.773   0.406   3.519
 7403SOL     OW23107   1.733   3.180   2.262
 7403SOL    HW123108   1.774   3.148   2.348
 7403SOL    HW223109   1.643   3.139   2.251
 7404SOL     OW23110   1.458   1.038   1.950
 7404SOL    HW123111   1.513   1.118   1.928
 7404SOL    HW223112   1.421   1.048   2.043
 7405SOL     OW23113   2.476   4.936   6.246
 7405SOL    HW123114   2.576   4.931   6.237
 7405SOL    HW223115   2.434   4.869   6.184
 7406SOL     OW23116   0.489   5.125   1.572
 7406SOL    HW123117   0.435   5.181   1.508
 7406SOL    HW223118   0.454   5.137   1.664
 7407SOL     OW23119   2.084   6.904   6.444
 7407SOL    HW123120   2.023   6.931   6.369
 7407SOL    HW223121   2.159   6.970   6.451
 7408SOL     OW23122   0.950   3.897   5.221
 7408SOL    HW123123   0.935   3.800   5.240
 7408SOL    HW223124   0.926   3.951   5.301
 7409SOL     OW23125   3.009   5.182   5.733
 7409SOL    HW123126   3.094   5.134   5.715
 7409SOL    HW223127   2.935   5.141   5.679
 7410SOL     OW23128   6.185   4.787   0.866
 7410SOL    HW123129   6.227   4.798   0.776
 7410SOL    HW223130   6.227   4.710   0.913
 7411SOL     OW23131   4.132   6.411   5.132
 7411SOL    HW123132   4.174   6.341   5.189
 7411SOL    HW223133   4.040   6.382   5.105
 7412SOL     OW23134   1.124   1.872   0.098
 7412SOL    HW123135   1.024   1.870   0.092
 7412SOL    HW223136   1.151   1.902   0.189
 7413SOL     OW23137   6.811   3.296   4.905
 7413SOL    HW123138   6.816   3.390   4.871
 7413SOL    HW223139   6.802   3.233   4.828
 7414SOL     OW23140   6.625   5.949   3.336
 7414SOL    HW123141   6.575   5.963   3.251
 7414SOL    HW223142   6.566   5.971   3.414
 7415SOL     OW23143   2.121   2.198   3.168
 7415SOL    HW123144   2.187   2.266   3.137
 7415SOL    HW223145   2.168   2.131   3.227
 7416SOL     OW23146   4.568   6.755   4.174
 7416SOL    HW123147   4.496   6.820   4.196
 7416SOL    HW223148   4.614   6.784   4.090
 7417SOL     OW23149   0.907   6.217   0.648
 7417SOL    HW123150   1.006   6.226   0.637
 7417SOL    HW223151   0.862   6.227   0.560
 7418SOL     OW23152   1.847   3.652   0.779
 7418SOL    HW123153   1.883   3.673   0.688
 7418SOL    HW223154   1.826   3.737   0.827
 7419SOL     OW23155   6.643   0.922   5.120
 7419SOL    HW123156   6.701   0.840   5.117
 7419SOL    HW223157   6.549   0.898   5.098
 7420SOL     OW23158   0.164   5.542   2.024
 7420SOL    HW123159   0.191   5.615   1.961
 7420SOL    HW223160   0.242   5.520   2.084
 7421SOL     OW23161   4.063   3.302   0.904
 7421SOL    HW123162   4.019   3.266   0.821
 7421SOL    HW223163   4.045   3.239   0.980
 7422SOL     OW23164   0.626   3.366   0.645
 7422SOL    HW123165   0.568   3.402   0.571
 7422SOL    HW223166   0.722   3.384   0.624
 7423SOL     OW23167   2.141   6.412   6.935
 7423SOL    HW123168   2.180   6.496   6.896
 7423SOL    HW223169   2.199   6.381   7.010
 7424SOL     OW23170   5.626   1.326   4.204
 7424SOL    HW123171   5.554   1.357   4.266
 7424SOL    HW223172   5.610   1.364   4.113
 7425SOL     OW23173   3.695   5.828   6.202
 7425SOL    HW123174   3.658   5.838   6.109
 7425SOL    HW223175   3.727   5.916   6.235
 7426SOL     OW23176   1.104   1.260   6.645
 7426SOL    HW123177   1.157   1.286   6.726
 7426SOL    HW223178   1.008   1.250   6.671
 7427SOL     OW23179   4.393   5.445   4.052
 7427SOL    HW123180   4.397   5.472   4.148
 7427SOL    HW223181   4.366   5.349   4.045
 7428SOL     OW23182   3.694   2.154   5.512
 7428SOL    HW123183   3.634   2.082   5.477
 7428SOL    HW223184   3.709   2.223   5.440
 7429SOL     OW23185   6.042   6.923   3.224
 7429SOL    HW123186   6.038   6.849   3.291
 7429SOL    HW223187   6.011   6.890   3.135
 7430SOL     OW23188   6.620   3.946   4.932
 7430SOL    HW123189   6.649   3.958   4.837
 7430SOL    HW223190   6.672   4.007   4.991
 7431SOL     OW23191   1.203   3.969   2.317
 7431SOL    HW123192   1.258   4.052   2.330
 7431SOL    HW223193   1.113   3.993   2.281
 7432SOL     OW23194   0.400   6.675   5.523
 7432SOL    HW123195   0.335   6.720   5.585
 7432SOL    HW223196   0.453   6.745   5.475
 7433SOL     OW23197   6.227   5.758   1.122
 7433SOL    HW123198   6.314   5.772   1.169
 7433SOL    HW223199   6.243   5.752   1.024
 7434SOL     OW23200   4.555   0.999   6.146
 7434SOL    HW123201   4.513   1.029   6.060
 7434SOL    HW223202   4.498   0.928   6.187
 7435SOL     OW23203   2.673   6.099   0.456
 7435SOL    HW123204   2.649   6.153   0.376
 7435SOL    HW223205   2.720   6.157   0.523
 7436SOL     OW23206   5.176   2.749   0.423
 7436SOL    HW123207   5.248   2.816   0.408
 7436SOL    HW223208   5.123   2.737   0.339
 7437SOL     OW23209   0.530   5.443   6.207
 7437SOL    HW123210   0.616   5.404   6.240
 7437SOL    HW223211   0.546   5.536   6.175
 7438SOL     OW23212   6.338   4.814   1.743
 7438SOL    HW123213   6.405   4.768   1.685
 7438SOL    HW223214   6.250   4.769   1.735
 7439SOL     OW23215   1.265   6.667   3.460
 7439SOL    HW123216   1.343   6.692   3.403
 7439SOL    HW223217   1.184   6.716   3.427
 7440SOL     OW23218   1.824   2.209   4.046
 7440SOL    HW123219   1.796   2.175   3.957
 7440SOL    HW223220   1.882   2.290   4.034
 7441SOL     OW23221   5.554   0.498   3.768
 7441SOL    HW123222   5.646   0.488   3.805
 7441SOL    HW223223   5.490   0.516   3.842
 7442SOL     OW23224   1.923   1.396   0.062
 7442SOL    HW123225   1.973   1.401   0.149
 7442SOL    HW223226   1.924   1.486   0.018
 7443SOL     OW23227   0.533   0.871   0.567
 7443SOL    HW123228   0.477   0.952   0.555
 7443SOL    HW223229   0.520   0.835   0.660
 7444SOL     OW23230   0.138   2.775   6.255
 7444SOL    HW123231   0.093   2.833   6.323
 7444SOL    HW223232   0.070   2.735   6.194
 7445SOL     OW23233   5.753   2.242   1.838
 7445SOL    HW123234   5.682   2.185   1.798
 7445SOL    HW223235   5.781   2.312   1.773
 7446SOL     OW23236   6.982   3.327   1.055
 7446SOL    HW123237   0.011   3.340   0.971
 7446SOL    HW223238   6.891   3.292   1.034
 7447SOL     OW23239   0.855   4.116   5.732
 7447SOL    HW123240   0.829   4.210   5.752
 7447SOL    HW223241   0.933   4.089   5.789
 7448SOL     OW23242   6.972   6.713   6.053
 7448SOL    HW123243   6.912   6.681   6.127
 7448SOL    HW223244   6.922   6.712   5.967
 7449SOL     OW23245   5.722   1.964   2.496
 7449SOL    HW123246   5.704   1.885   2.555
 7449SOL    HW223247   5.788   2.025   2.542
 7450SOL     OW23248   4.345   1.076   2.859
 7450SOL    HW123249   4.419   1.010   2.871
 7450SOL    HW223250   4.365   1.134   2.780
 7451SOL     OW23251   2.233   0.460   4.339
 7451SOL    HW123252   2.216   0.530   4.408
 7451SOL    HW223253   2.183   0.483   4.255
 7452SOL     OW23254   1.777   6.363   5.316
 7452SOL    HW123255   1.800   6.460   5.321
 7452SOL    HW223256   1.685   6.353   5.278
 7453SOL     OW23257   5.972   6.150   5.284
 7453SOL    HW123258   6.026   6.169   5.202
 7453SOL    HW223259   6.025   6.093   5.347
 7454SOL     OW23260   0.654   3.675   0.808
 7454SOL    HW123261   0.624   3.653   0.715
 7454SOL    HW223262   0.747   3.711   0.806
 7455SOL     OW23263   4.750   2.508   0.026
 7455SOL    HW123264   4.801   2.526   0.110
 7455SOL    HW223265   4.698   2.424   0.035
 7456SOL     OW23266   1.737   3.597   4.647
 7456SOL    HW123267   1.816   3.653   4.623
 7456SOL    HW223268   1.711   3.615   4.742
 7457SOL     OW23269   5.850   0.885   6.033
 7457SOL    HW123270   5.834   0.839   5.946
 7457SOL    HW223271   5.901   0.969   6.017
 7458SOL     OW23272   2.615   1.250   0.540
 7458SOL    HW123273   2.710   1.221   0.529
 7458SOL    HW223274   2.586   1.302   0.460
 7459SOL     OW23275   4.657   0.763   4.417
 7459SOL    HW123276   4.729   0.796   4.477
 7459SOL    HW223277   4.584   0.721   4.471
 7460SOL     OW23278   0.684   4.341   7.001
 7460SOL    HW123279   0.707   4.325   0.075
 7460SOL    HW223280   0.669   4.438   6.986
 7461SOL     OW23281   5.335   1.022   4.179
 7461SOL    HW123282   5.332   1.039   4.081
 7461SOL    HW223283   5.283   1.093   4.227
 7462SOL     OW23284   2.459   1.671   2.248
 7462SOL    HW123285   2.493   1.706   2.161
 7462SOL    HW223286   2.421   1.746   2.302
 7463SOL     OW23287   4.044   3.804   2.709
 7463SOL    HW123288   4.098   3.828   2.790
 7463SOL    HW223289   3.947   3.802   2.732
 7464SOL     OW23290   5.582   5.978   1.015
 7464SOL    HW123291   5.676   5.997   0.984
 7464SOL    HW223292   5.553   5.889   0.980
 7465SOL     OW23293   2.584   0.374   1.680
 7465SOL    HW123294   2.574   0.355   1.778
 7465SOL    HW223295   2.675   0.410   1.662
 7466SOL     OW23296   0.928   0.694   6.832
 7466SOL    HW123297   0.960   0.653   6.917
 7466SOL    HW223298   0.997   0.681   6.761
 7467SOL     OW23299   6.869   1.666   1.005
 7467SOL    HW123300   6.942   1.625   0.950
 7467SOL    HW223301   6.785   1.614   0.993
 7468SOL     OW23302   6.388   2.803   2.820
 7468SOL    HW123303   6.293   2.794   2.791
 7468SOL    HW223304   6.397   2.771   2.915
 7469SOL     OW23305   0.960   1.333   1.306
 7469SOL    HW123306   0.918   1.418   1.274
 7469SOL    HW223307   1.009   1.350   1.391
 7470SOL     OW23308   6.802   2.578   2.304
 7470SOL    HW123309   6.779   2.665   2.347
 7470SOL    HW223310   6.770   2.579   2.209
 7471SOL     OW23311   5.715   6.228   5.570
 7471SOL    HW123312   5.671   6.185   5.491
 7471SOL    HW223313   5.716   6.164   5.647
 7472SOL     OW23314   3.418   6.537   3.101
 7472SOL    HW123315   3.372   6.471   3.160
 7472SOL    HW223316   3.360   6.561   3.024
 7473SOL     OW23317   6.712   3.488   4.359
 7473SOL    HW123318   6.660   3.404   4.342
 7473SOL    HW223319   6.756   3.483   4.449
 7474SOL     OW23320   3.664   1.162   3.086
 7474SOL    HW123321   3.624   1.075   3.057
 7474SOL    HW223322   3.631   1.185   3.177
 7475SOL     OW23323   4.068   1.113   1.034
 7475SOL    HW123324   4.114   1.088   1.119
 7475SOL    HW223325   4.100   1.204   1.005
 7476SOL     OW23326   4.078   6.926   4.792
 7476SOL    HW123327   4.149   6.934   4.862
 7476SOL    HW223328   3.989   6.947   4.831
 7477SOL     OW23329   4.377   1.989   3.692
 7477SOL    HW123330   4.375   2.089   3.688
 7477SOL    HW223331   4.289   1.952   3.662
 7478SOL     OW23332   1.124   4.683   0.761
 7478SOL    HW123333   1.066   4.745   0.814
 7478SOL    HW223334   1.126   4.714   0.666
 7479SOL     OW23335   4.652   0.491   6.660
 7479SOL    HW123336   4.611   0.566   6.608
 7479SOL    HW223337   4.709   0.436   6.600
 7480SOL     OW23338   6.873   5.259   1.028
 7480SOL    HW123339   6.839   5.248   0.934
 7480SOL    HW223340   6.879   5.356   1.050
 7481SOL     OW23341   5.739   5.481   0.771
 7481SOL    HW123342   5.814   5.522   0.719
 7481SOL    HW223343   5.669   5.448   0.708
 7482SOL     OW23344   4.767   0.417   3.338
 7482SOL    HW123345   4.692   0.473   3.304
 7482SOL    HW223346   4.782   0.437   3.435
 7483SOL     OW23347   3.261   0.649   5.523
 7483SOL    HW123348   3.286   0.573   5.583
 7483SOL    HW223349   3.162   0.652   5.511
 7484SOL     OW23350   1.781   6.712   2.439
 7484SOL    HW123351   1.797   6.803   2.478
 7484SOL    HW223352   1.755   6.721   2.343
 7485SOL     OW23353   2.157   6.353   6.459
 7485SOL    HW123354   2.150   6.453   6.461
 7485SOL    HW223355   2.224   6.323   6.527
 7486SOL     OW23356   2.592   6.751   5.560
 7486SOL    HW123357   2.546   6.759   5.472
 7486SOL    HW223358   2.678   6.701   5.549
 7487SOL     OW23359   3.432   5.985   4.344
 7487SOL    HW123360   3.365   5.928   4.392
 7487SOL    HW223361   3.524   5.950   4.362
 7488SOL     OW23362   3.891   0.847   6.088
 7488SOL    HW123363   3.901   0.928   6.145
 7488SOL    HW223364   3.874   0.874   5.993
 7489SOL     OW23365   5.302   3.601   3.578
 7489SOL    HW123366   5.303   3.556   3.667
 7489SOL    HW223367   5.292   3.700   3.591
 7490SOL     OW23368   5.358   1.208   1.255
 7490SOL    HW123369   5.445   1.231   1.212
 7490SOL    HW223370   5.286   1.269   1.221
 7491SOL     OW23371   6.843   5.443   6.599
 7491SOL    HW123372   6.755   5.434   6.554
 7491SOL    HW223373   6.903   5.501   6.544
 7492SOL     OW23374   1.652   2.774   4.778
 7492SOL    HW123375   1.621   2.720   4.699
 7492SOL    HW223376   1.595   2.856   4.787
 7493SOL     OW23377   4.861   3.843   6.647
 7493SOL    HW123378   4.821   3.804   6.730
 7493SOL    HW223379   4.789   3.855   6.578
 7494SOL     OW23380   5.373   0.765   1.960
 7494SOL    HW123381   5.361   0.834   1.889
 7494SOL    HW223382   5.458   0.784   2.010
 7495SOL     OW23383   1.183   2.026   1.276
 7495SOL    HW123384   1.100   1.981   1.310
 7495SOL    HW223385   1.158   2.106   1.221
 7496SOL     OW23386   0.593   5.081   6.345
 7496SOL    HW123387   0.593   4.999   6.401
 7496SOL    HW223388   0.542   5.064   6.260
 7497SOL     OW23389   1.676   4.401   2.010
 7497SOL    HW123390   1.760   4.352   2.033
 7497SOL    HW223391   1.641   4.369   1.922
 7498SOL     OW23392   3.920   1.984   3.952
 7498SOL    HW123393   3.829   1.973   3.912
 7498SOL    HW223394   3.911   2.024   4.043
 7499SOL     OW23395   5.230   6.567   4.352
 7499SOL    HW123396   5.231   6.667   4.358
 7499SOL    HW223397   5.307   6.536   4.296
 7500SOL     OW23398   5.140   4.931   1.201
 7500SOL    HW123399   5.180   4.975   1.282
 7500SOL    HW223400   5.126   5.000   1.130
 7501SOL     OW23401   0.293   4.162   3.917
 7501SOL    HW123402   0.196   4.147   3.932
 7501SOL    HW223403   0.311   4.261   3.910
 7502SOL     OW23404   2.570   1.394   4.927
 7502SOL    HW123405   2.640   1.464   4.940
 7502SOL    HW223406   2.602   1.307   4.965
 7503SOL     OW23407   2.710   2.050   6.970
 7503SOL    HW123408   2.713   2.021   0.044
 7503SOL    HW223409   2.628   2.105   6.955
 7504SOL     OW23410   3.989   5.861   3.035
 7504SOL    HW123411   3.944   5.910   2.960
 7504SOL    HW223412   4.073   5.908   3.061
 7505SOL     OW23413   1.689   1.707   5.346
 7505SOL    HW123414   1.739   1.779   5.298
 7505SOL    HW223415   1.699   1.720   5.445
 7506SOL     OW23416   3.812   1.511   2.722
 7506SOL    HW123417   3.905   1.479   2.704
 7506SOL    HW223418   3.766   1.449   2.785
 7507SOL     OW23419   0.816   5.945   5.889
 7507SOL    HW123420   0.826   6.043   5.909
 7507SOL    HW223421   0.797   5.933   5.792
 7508SOL     OW23422   5.359   0.080   2.967
 7508SOL    HW123423   5.434   0.072   3.033
 7508SOL    HW223424   5.392   0.127   2.885
 7509SOL     OW23425   4.494   3.944   6.070
 7509SOL    HW123426   4.523   3.879   6.000
 7509SOL    HW223427   4.537   4.033   6.052
 7510SOL     OW23428   3.791   4.070   4.765
 7510SOL    HW123429   3.843   4.070   4.679
 7510SOL    HW223430   3.700   4.106   4.749
 7511SOL     OW23431   0.896   0.856   1.829
 7511SOL    HW123432   0.921   0.822   1.738
 7511SOL    HW223433   0.979   0.879   1.880
 7512SOL     OW23434   2.140   3.076   1.873
 7512SOL    HW123435   2.126   2.978   1.864
 7512SOL    HW223436   2.079   3.112   1.944
 7513SOL     OW23437   1.180   2.412   0.122
 7513SOL    HW123438   1.213   2.474   0.193
 7513SOL    HW223439   1.159   2.464   0.040
 7514SOL     OW23440   2.427   5.651   3.088
 7514SOL    HW123441   2.334   5.652   3.124
 7514SOL    HW223442   2.454   5.743   3.062
 7515SOL     OW23443   6.600   5.912   2.498
 7515SOL    HW123444   6.573   5.885   2.591
 7515SOL    HW223445   6.529   5.887   2.434
 7516SOL     OW23446   0.195   0.850   3.159
 7516SOL    HW123447   0.158   0.769   3.115
 7516SOL    HW223448   0.170   0.851   3.256
 7517SOL     OW23449   0.840   3.739   1.683
 7517SOL    HW123450   0.792   3.798   1.748
 7517SOL    HW223451   0.778   3.668   1.650
 7518SOL     OW23452   4.952   5.297   3.727
 7518SOL    HW123453   4.954   5.293   3.627
 7518SOL    HW223454   4.990   5.384   3.758
 7519SOL     OW23455   2.340   6.060   3.698
 7519SOL    HW123456   2.416   6.024   3.645
 7519SOL    HW223457   2.370   6.141   3.749
 7520SOL     OW23458   1.635   6.382   3.902
 7520SOL    HW123459   1.545   6.339   3.901
 7520SOL    HW223460   1.655   6.420   3.812
 7521SOL     OW23461   4.534   4.258   5.499
 7521SOL    HW123462   4.552   4.334   5.561
 7521SOL    HW223463   4.556   4.286   5.405
 7522SOL     OW23464   2.289   0.985   1.217
 7522SOL    HW123465   2.386   1.002   1.236
 7522SOL    HW223466   2.271   0.887   1.221
 7523SOL     OW23467   5.751   0.356   6.598
 7523SOL    HW123468   5.760   0.428   6.529
 7523SOL    HW223469   5.732   0.399   6.687
 7524SOL     OW23470   0.233   1.390   5.110
 7524SOL    HW123471   0.190   1.462   5.164
 7524SOL    HW223472   0.177   1.371   5.029
 7525SOL     OW23473   1.005   0.390   0.558
 7525SOL    HW123474   0.975   0.305   0.600
 7525SOL    HW223475   1.034   0.454   0.629
 7526SOL     OW23476   3.453   2.852   4.873
 7526SOL    HW123477   3.534   2.871   4.819
 7526SOL    HW223478   3.478   2.840   4.969
 7527SOL     OW23479   5.591   4.877   3.214
 7527SOL    HW123480   5.655   4.912   3.282
 7527SOL    HW223481   5.498   4.878   3.252
 7528SOL     OW23482   5.873   3.172   6.870
 7528SOL    HW123483   5.903   3.142   6.780
 7528SOL    HW223484   5.780   3.140   6.887
 7529SOL     OW23485   3.148   1.429   6.131
 7529SOL    HW123486   3.072   1.363   6.132
 7529SOL    HW223487   3.217   1.398   6.066
 7530SOL     OW23488   0.986   4.052   2.137
 7530SOL    HW123489   0.934   3.972   2.108
 7530SOL    HW223490   0.923   4.123   2.169
 7531SOL     OW23491   4.169   1.930   3.512
 7531SOL    HW123492   4.141   1.886   3.597
 7531SOL    HW223493   4.094   1.925   3.445
 7532SOL     OW23494   5.405   5.435   2.372
 7532SOL    HW123495   5.387   5.342   2.404
 7532SOL    HW223496   5.368   5.500   2.438
 7533SOL     OW23497   3.750   1.172   4.343
 7533SOL    HW123498   3.666   1.185   4.395
 7533SOL    HW223499   3.729   1.170   4.246
 7534SOL     OW23500   5.123   6.391   4.511
 7534SOL    HW123501   5.125   6.454   4.588
 7534SOL    HW223502   5.179   6.427   4.436
 7535SOL     OW23503   3.137   2.838   5.580
 7535SOL    HW123504   3.229   2.878   5.570
 7535SOL    HW223505   3.143   2.739   5.573
 7536SOL     OW23506   4.800   6.026   4.270
 7536SOL    HW123507   4.718   6.023   4.326
 7536SOL    HW223508   4.776   6.011   4.174
 7537SOL     OW23509   1.696   4.899   5.643
 7537SOL    HW123510   1.730   4.819   5.692
 7537SOL    HW223511   1.770   4.965   5.631
 7538SOL     OW23512   2.954   3.202   2.517
 7538SOL    HW123513   2.989   3.131   2.578
 7538SOL    HW223514   2.916   3.160   2.434
 7539SOL     OW23515   2.215   3.113   4.831
 7539SOL    HW123516   2.129   3.091   4.877
 7539SOL    HW223517   2.290   3.113   4.897
 7540SOL     OW23518   2.583   1.645   0.020
 7540SOL    HW123519   2.660   1.582   0.019
 7540SOL    HW223520   2.507   1.605   0.071
 7541SOL     OW23521   6.436   2.649   5.583
 7541SOL    HW123522   6.388   2.734   5.608
 7541SOL    HW223523   6.520   2.671   5.535
 7542SOL     OW23524   1.524   6.450   5.978
 7542SOL    HW123525   1.459   6.445   5.903
 7542SOL    HW223526   1.476   6.470   6.063
 7543SOL     OW23527   3.878   2.966   0.167
 7543SOL    HW123528   3.881   2.879   0.118
 7543SOL    HW223529   3.971   2.990   0.198
 7544SOL     OW23530   2.219   2.206   2.727
 7544SOL    HW123531   2.238   2.272   2.654
 7544SOL    HW223532   2.272   2.231   2.809
 7545SOL     OW23533   5.556   6.886   3.931
 7545SOL    HW123534   5.542   6.904   4.028
 7545SOL    HW223535   5.574   6.789   3.917
 7546SOL     OW23536   4.462   0.703   6.848
 7546SOL    HW123537   4.393   0.771   6.821
 7546SOL    HW223538   4.529   0.746   6.908
 7547SOL     OW23539   3.367   0.233   0.486
 7547SOL    HW123540   3.303   0.171   0.531
 7547SOL    HW223541   3.333   0.254   0.394
 7548SOL     OW23542   1.745   2.161   1.457
 7548SOL    HW123543   1.814   2.118   1.515
 7548SOL    HW223544   1.690   2.090   1.412
 7549SOL     OW23545   5.570   2.020   2.896
 7549SOL    HW123546   5.501   1.956   2.862
 7549SOL    HW223547   5.544   2.113   2.870
 7550SOL     OW23548   1.856   5.567   2.388
 7550SOL    HW123549   1.886   5.473   2.376
 7550SOL    HW223550   1.860   5.591   2.485
 7551SOL     OW23551   5.053   3.499   6.483
 7551SOL    HW123552   5.055   3.447   6.569
 7551SOL    HW223553   5.116   3.576   6.489
 7552SOL     OW23554   3.065   5.140   4.130
 7552SOL    HW123555   3.128   5.177   4.061
 7552SOL    HW223556   3.062   5.041   4.123
 7553SOL     OW23557   3.885   5.150   6.001
 7553SOL    HW123558   3.957   5.097   6.044
 7553SOL    HW223559   3.797   5.127   6.042
 7554SOL     OW23560   6.563   1.033   0.715
 7554SOL    HW123561   6.518   1.074   0.635
 7554SOL    HW223562   6.662   1.029   0.698
 7555SOL     OW23563   0.702   6.256   5.621
 7555SOL    HW123564   0.621   6.312   5.635
 7555SOL    HW223565   0.741   6.274   5.531
 7556SOL     OW23566   0.740   2.990   4.936
 7556SOL    HW123567   0.813   3.058   4.943
 7556SOL    HW223568   0.768   2.915   4.877
 7557SOL     OW23569   4.801   3.905   0.448
 7557SOL    HW123570   4.866   3.979   0.436
 7557SOL    HW223571   4.722   3.937   0.501
 7558SOL     OW23572   1.626   3.333   3.438
 7558SOL    HW123573   1.586   3.332   3.530
 7558SOL    HW223574   1.558   3.367   3.373
 7559SOL     OW23575   0.518   4.175   0.800
 7559SOL    HW123576   0.536   4.121   0.883
 7559SOL    HW223577   0.453   4.247   0.821
 7560SOL     OW23578   5.256   6.718   0.348
 7560SOL    HW123579   5.343   6.684   0.312
 7560SOL    HW223580   5.185   6.712   0.278
 7561SOL     OW23581   0.229   3.214   0.540
 7561SOL    HW123582   0.281   3.294   0.568
 7561SOL    HW223583   0.156   3.196   0.606
 7562SOL     OW23584   5.381   6.213   4.902
 7562SOL    HW123585   5.300   6.228   4.958
 7562SOL    HW223586   5.462   6.211   4.960
 7563SOL     OW23587   2.852   0.881   2.391
 7563SOL    HW123588   2.866   0.878   2.490
 7563SOL    HW223589   2.899   0.961   2.353
 7564SOL     OW23590   5.208   7.007   3.335
 7564SOL    HW123591   5.215   6.908   3.347
 7564SOL    HW223592   5.165   0.005   3.247
 7565SOL     OW23593   4.960   4.579   0.352
 7565SOL    HW123594   4.870   4.595   0.392
 7565SOL    HW223595   4.969   4.483   0.328
 7566SOL     OW23596   1.346   5.389   3.892
 7566SOL    HW123597   1.431   5.427   3.855
 7566SOL    HW223598   1.358   5.291   3.909
 7567SOL     OW23599   3.069   4.394   0.104
 7567SOL    HW123600   3.095   4.350   0.018
 7567SOL    HW223601   3.080   4.493   0.095
 7568SOL     OW23602   4.376   4.976   3.566
 7568SOL    HW123603   4.406   5.065   3.533
 7568SOL    HW223604   4.444   4.907   3.541
 7569SOL     OW23605   3.913   6.724   0.624
 7569SOL    HW123606   3.991   6.673   0.588
 7569SOL    HW223607   3.943   6.779   0.703
 7570SOL     OW23608   6.162   5.394   3.588
 7570SOL    HW123609   6.076   5.414   3.541
 7570SOL    HW223610   6.179   5.466   3.655
 7571SOL     OW23611   5.519   4.465   2.237
 7571SOL    HW123612   5.599   4.420   2.277
 7571SOL    HW223613   5.549   4.526   2.164
 7572SOL     OW23614   2.758   1.196   4.727
 7572SOL    HW123615   2.811   1.272   4.765
 7572SOL    HW223616   2.794   1.110   4.762
 7573SOL     OW23617   2.084   5.850   4.374
 7573SOL    HW123618   2.132   5.919   4.427
 7573SOL    HW223619   2.066   5.885   4.282
 7574SOL     OW23620   4.708   5.931   3.096
 7574SOL    HW123621   4.760   6.004   3.140
 7574SOL    HW223622   4.695   5.855   3.160
 7575SOL     OW23623   3.593   1.927   5.059
 7575SOL    HW123624   3.668   1.983   5.095
 7575SOL    HW223625   3.629   1.842   5.021
 7576SOL     OW23626   6.413   2.607   0.545
 7576SOL    HW123627   6.463   2.559   0.617
 7576SOL    HW223628   6.477   2.663   0.492
 7577SOL     OW23629   6.001   0.421   5.329
 7577SOL    HW123630   6.087   0.393   5.284
 7577SOL    HW223631   5.947   0.476   5.265
 7578SOL     OW23632   2.409   5.012   4.157
 7578SOL    HW123633   2.321   5.010   4.203
 7578SOL    HW223634   2.470   4.944   4.199
 7579SOL     OW23635   4.121   1.829   2.561
 7579SOL    HW123636   4.038   1.885   2.569
 7579SOL    HW223637   4.190   1.879   2.509
 7580SOL     OW23638   1.800   3.960   2.303
 7580SOL    HW123639   1.889   4.005   2.309
 7580SOL    HW223640   1.797   3.881   2.364
 7581SOL     OW23641   5.696   0.583   1.012
 7581SOL    HW123642   5.653   0.514   1.070
 7581SOL    HW223643   5.634   0.660   1.000
 7582SOL     OW23644   3.094   1.061   1.359
 7582SOL    HW123645   3.185   1.071   1.318
 7582SOL    HW223646   3.029   1.032   1.288
 7583SOL     OW23647   5.975   3.594   2.646
 7583SOL    HW123648   5.926   3.515   2.682
 7583SOL    HW223649   5.948   3.676   2.696
 7584SOL     OW23650   2.607   6.944   1.440
 7584SOL    HW123651   2.592   6.973   1.345
 7584SOL    HW223652   2.617   6.844   1.443
 7585SOL     OW23653   1.823   5.073   5.882
 7585SOL    HW123654   1.797   5.038   5.792
 7585SOL    HW223655   1.904   5.025   5.915
 7586SOL     OW23656   2.949   1.052   2.637
 7586SOL    HW123657   2.985   1.145   2.640
 7586SOL    HW223658   2.849   1.054   2.637
 7587SOL     OW23659   0.569   1.547   6.071
 7587SOL    HW123660   0.599   1.465   6.022
 7587SOL    HW223661   0.648   1.592   6.112
 7588SOL     OW23662   0.386   4.114   2.305
 7588SOL    HW123663   0.407   4.204   2.267
 7588SOL    HW223664   0.333   4.061   2.239
 7589SOL     OW23665   6.176   5.464   0.849
 7589SOL    HW123666   6.263   5.500   0.883
 7589SOL    HW223667   6.107   5.471   0.920
 7590SOL     OW23668   1.843   0.772   6.459
 7590SOL    HW123669   1.793   0.693   6.494
 7590SOL    HW223670   1.779   0.840   6.424
 7591SOL     OW23671   6.794   4.509   0.180
 7591SOL    HW123672   6.740   4.446   0.123
 7591SOL    HW223673   6.739   4.538   0.258
 7592SOL     OW23674   5.368   5.432   6.804
 7592SOL    HW123675   5.311   5.406   6.726
 7592SOL    HW223676   5.340   5.522   6.837
 7593SOL     OW23677   5.379   2.300   6.758
 7593SOL    HW123678   5.388   2.201   6.773
 7593SOL    HW223679   5.392   2.347   6.845
 7594SOL     OW23680   1.304   5.971   3.646
 7594SOL    HW123681   1.298   5.918   3.562
 7594SOL    HW223682   1.214   6.011   3.666
 7595SOL     OW23683   6.578   2.799   6.953
 7595SOL    HW123684   6.590   2.809   6.854
 7595SOL    HW223685   6.594   2.887   6.998
 7596SOL     OW23686   5.507   4.559   1.739
 7596SOL    HW123687   5.544   4.505   1.815
 7596SOL    HW223688   5.457   4.499   1.677
 7597SOL     OW23689   3.567   5.193   1.714
 7597SOL    HW123690   3.599   5.287   1.720
 7597SOL    HW223691   3.633   5.133   1.761
 7598SOL     OW23692   0.065   0.989   3.447
 7598SOL    HW123693   0.017   1.040   3.375
 7598SOL    HW223694   0.118   1.053   3.503
 7599SOL     OW23695   6.474   1.732   2.898
 7599SOL    HW123696   6.467   1.822   2.853
 7599SOL    HW223697   6.486   1.661   2.828
 7600SOL     OW23698   2.086   1.381   1.552
 7600SOL    HW123699   2.135   1.395   1.465
 7600SOL    HW223700   2.079   1.468   1.600
 7601SOL     OW23701   2.152   6.571   4.364
 7601SOL    HW123702   2.228   6.550   4.425
 7601SOL    HW223703   2.161   6.665   4.331
 7602SOL     OW23704   0.262   3.803   4.427
 7602SOL    HW123705   0.316   3.737   4.377
 7602SOL    HW223706   0.303   3.819   4.517
 7603SOL     OW23707   1.298   6.521   1.259
 7603SOL    HW123708   1.295   6.435   1.309
 7603SOL    HW223709   1.390   6.535   1.221
 7604SOL     OW23710   4.585   5.753   5.216
 7604SOL    HW123711   4.531   5.690   5.160
 7604SOL    HW223712   4.657   5.702   5.263
 7605SOL     OW23713   6.684   4.377   6.988
 7605SOL    HW123714   6.738   4.309   6.937
 7605SOL    HW223715   6.598   4.336   7.017
 7606SOL     OW23716   5.967   2.134   2.719
 7606SOL    HW123717   6.031   2.063   2.689
 7606SOL    HW223718   5.966   2.209   2.652
 7607SOL     OW23719   4.482   6.737   6.949
 7607SOL    HW123720   4.480   6.776   6.858
 7607SOL    HW223721   4.576   6.717   6.975
 7608SOL     OW23722   3.223   3.502   3.780
 7608SOL    HW123723   3.273   3.416   3.771
 7608SOL    HW223724   3.138   3.486   3.831
 7609SOL     OW23725   1.166   3.534   4.037
 7609SOL    HW123726   1.096   3.591   4.081
 7609SOL    HW223727   1.157   3.440   4.068
 7610SOL     OW23728   5.537   0.346   0.921
 7610SOL    HW123729   5.538   0.395   0.834
 7610SOL    HW223730   5.454   0.369   0.972
 7611SOL     OW23731   1.398   2.235   0.268
 7611SOL    HW123732   1.445   2.228   0.180
 7611SOL    HW223733   1.343   2.319   0.270
 7612SOL     OW23734   3.656   1.937   3.315
 7612SOL    HW123735   3.618   1.870   3.250
 7612SOL    HW223736   3.699   2.011   3.264
 7613SOL     OW23737   4.982   0.871   1.746
 7613SOL    HW123738   5.067   0.870   1.694
 7613SOL    HW223739   4.985   0.798   1.815
 7614SOL     OW23740   4.303   2.316   0.903
 7614SOL    HW123741   4.324   2.262   0.822
 7614SOL    HW223742   4.234   2.268   0.958
 7615SOL     OW23743   3.925   4.518   6.309
 7615SOL    HW123744   3.874   4.509   6.224
 7615SOL    HW223745   4.004   4.456   6.307
 7616SOL     OW23746   6.510   3.129   3.254
 7616SOL    HW123747   6.436   3.063   3.266
 7616SOL    HW223748   6.481   3.202   3.193
 7617SOL     OW23749   3.411   4.968   3.069
 7617SOL    HW123750   3.389   4.938   2.976
 7617SOL    HW223751   3.461   5.055   3.065
 7618SOL     OW23752   2.068   2.800   6.558
 7618SOL    HW123753   2.150   2.781   6.504
 7618SOL    HW223754   2.003   2.854   6.504
 7619SOL     OW23755   6.076   3.742   5.363
 7619SOL    HW123756   6.094   3.750   5.265
 7619SOL    HW223757   5.977   3.739   5.379
 7620SOL     OW23758   3.522   6.617   1.750
 7620SOL    HW123759   3.556   6.536   1.798
 7620SOL    HW223760   3.480   6.679   1.816
 7621SOL     OW23761   2.244   0.741   1.539
 7621SOL    HW123762   2.314   0.681   1.576
 7621SOL    HW223763   2.237   0.729   1.440
 7622SOL     OW23764   3.919   2.471   0.374
 7622SOL    HW123765   3.873   2.383   0.382
 7622SOL    HW223766   3.903   2.525   0.457
 7623SOL     OW23767   4.883   0.258   5.469
 7623SOL    HW123768   4.821   0.264   5.390
 7623SOL    HW223769   4.974   0.288   5.441
 7624SOL     OW23770   0.843   0.842   3.322
 7624SOL    HW123771   0.805   0.768   3.377
 7624SOL    HW223772   0.938   0.858   3.348
 7625SOL     OW23773   4.765   0.820   1.247
 7625SOL    HW123774   4.765   0.730   1.204
 7625SOL    HW223775   4.859   0.848   1.265
 7626SOL     OW23776   1.906   6.113   4.580
 7626SOL    HW123777   1.963   6.074   4.652
 7626SOL    HW223778   1.935   6.207   4.562
 7627SOL     OW23779   6.614   2.446   0.968
 7627SOL    HW123780   6.690   2.438   1.033
 7627SOL    HW223781   6.532   2.478   1.017
 7628SOL     OW23782   3.355   1.422   0.597
 7628SOL    HW123783   3.453   1.400   0.601
 7628SOL    HW223784   3.311   1.396   0.683
 7629SOL     OW23785   0.030   5.665   3.045
 7629SOL    HW123786   0.066   5.756   3.027
 7629SOL    HW223787   0.104   5.604   3.074
 7630SOL     OW23788   6.311   0.549   2.799
 7630SOL    HW123789   6.404   0.522   2.772
 7630SOL    HW223790   6.308   0.567   2.897
 7631SOL     OW23791   0.275   2.283   3.403
 7631SOL    HW123792   0.258   2.358   3.468
 7631SOL    HW223793   0.322   2.319   3.322
 7632SOL     OW23794   4.995   2.179   0.166
 7632SOL    HW123795   4.916   2.234   0.194
 7632SOL    HW223796   5.058   2.236   0.113
 7633SOL     OW23797   5.382   4.074   6.963
 7633SOL    HW123798   5.366   4.133   6.884
 7633SOL    HW223799   5.310   4.088   0.009
 7634SOL     OW23800   2.198   1.017   1.929
 7634SOL    HW123801   2.159   1.095   1.879
 7634SOL    HW223802   2.296   1.032   1.941
 7635SOL     OW23803   2.819   4.746   5.728
 7635SOL    HW123804   2.814   4.823   5.664
 7635SOL    HW223805   2.913   4.712   5.732
 7636SOL     OW23806   0.685   0.385   4.400
 7636SOL    HW123807   0.672   0.302   4.346
 7636SOL    HW223808   0.759   0.370   4.466
 7637SOL     OW23809   1.775   6.089   4.192
 7637SOL    HW123810   1.802   6.047   4.279
 7637SOL    HW223811   1.842   6.160   4.168
 7638SOL     OW23812   5.156   4.896   1.731
 7638SOL    HW123813   5.130   4.821   1.670
 7638SOL    HW223814   5.133   4.984   1.689
 7639SOL     OW23815   0.449   1.679   5.254
 7639SOL    HW123816   0.382   1.670   5.329
 7639SOL    HW223817   0.494   1.768   5.260
 7640SOL     OW23818   2.571   1.879   0.632
 7640SOL    HW123819   2.471   1.891   0.631
 7640SOL    HW223820   2.598   1.834   0.716
 7641SOL     OW23821   5.911   3.944   2.306
 7641SOL    HW123822   5.916   3.975   2.211
 7641SOL    HW223823   5.998   3.965   2.352
 7642SOL     OW23824   2.418   1.940   2.340
 7642SOL    HW123825   2.485   1.967   2.410
 7642SOL    HW223826   2.391   2.020   2.287
 7643SOL     OW23827   4.741   2.915   3.296
 7643SOL    HW123828   4.647   2.946   3.309
 7643SOL    HW223829   4.750   2.820   3.328
 7644SOL     OW23830   6.977   3.162   2.709
 7644SOL    HW123831   6.917   3.208   2.774
 7644SOL    HW223832   6.943   3.069   2.692
 7645SOL     OW23833   4.094   4.096   0.078
 7645SOL    HW123834   4.163   4.110   0.149
 7645SOL    HW223835   4.068   4.000   0.074
 7646SOL     OW23836   2.229   2.013   1.799
 7646SOL    HW123837   2.316   2.011   1.848
 7646SOL    HW223838   2.200   1.919   1.778
 7647SOL     OW23839   2.451   3.973   1.617
 7647SOL    HW123840   2.385   3.947   1.688
 7647SOL    HW223841   2.533   3.917   1.626
 7648SOL     OW23842   4.077   1.190   3.759
 7648SOL    HW123843   4.109   1.102   3.795
 7648SOL    HW223844   4.136   1.218   3.683
 7649SOL     OW23845   2.719   0.669   1.824
 7649SOL    HW123846   2.642   0.676   1.886
 7649SOL    HW223847   2.720   0.748   1.762
 7650SOL     OW23848   6.402   4.178   1.978
 7650SOL    HW123849   6.405   4.254   2.043
 7650SOL    HW223850   6.449   4.098   2.017
 7651SOL     OW23851   3.241   1.209   6.475
 7651SOL    HW123852   3.229   1.307   6.463
 7651SOL    HW223853   3.180   1.176   6.547
 7652SOL     OW23854   0.551   3.578   2.346
 7652SOL    HW123855   0.485   3.637   2.392
 7652SOL    HW223856   0.521   3.483   2.351
 7653SOL     OW23857   2.490   2.057   1.904
 7653SOL    HW123858   2.514   2.089   1.996
 7653SOL    HW223859   2.563   2.082   1.840
 7654SOL     OW23860   4.955   3.754   3.559
 7654SOL    HW123861   5.036   3.776   3.614
 7654SOL    HW223862   4.972   3.670   3.508
 7655SOL     OW23863   3.884   6.267   5.322
 7655SOL    HW123864   3.844   6.182   5.357
 7655SOL    HW223865   3.822   6.307   5.254
 7656SOL     OW23866   0.204   6.288   5.589
 7656SOL    HW123867   0.297   6.251   5.585
 7656SOL    HW223868   0.139   6.214   5.572
 7657SOL     OW23869   3.309   1.560   4.039
 7657SOL    HW123870   3.283   1.655   4.053
 7657SOL    HW223871   3.298   1.536   3.943
 7658SOL     OW23872   4.179   1.061   6.083
 7658SOL    HW123873   4.146   1.119   6.157
 7658SOL    HW223874   4.245   1.111   6.027
 7659SOL     OW23875   5.906   6.760   0.833
 7659SOL    HW123876   5.864   6.765   0.742
 7659SOL    HW223877   5.906   6.665   0.864
 7660SOL     OW23878   5.755   5.401   3.265
 7660SOL    HW123879   5.807   5.326   3.223
 7660SOL    HW223880   5.708   5.367   3.346
 7661SOL     OW23881   6.568   3.052   3.669
 7661SOL    HW123882   6.474   3.029   3.695
 7661SOL    HW223883   6.623   2.968   3.668
 7662SOL     OW23884   0.963   4.980   2.085
 7662SOL    HW123885   1.029   4.906   2.098
 7662SOL    HW223886   0.931   4.981   1.991
 7663SOL     OW23887   0.010   4.910   6.079
 7663SOL    HW123888   6.987   4.959   6.154
 7663SOL    HW223889   0.081   4.968   6.039
 7664SOL     OW23890   2.374   5.146   3.367
 7664SOL    HW123891   2.418   5.119   3.281
 7664SOL    HW223892   2.278   5.116   3.365
 7665SOL     OW23893   3.042   6.763   4.839
 7665SOL    HW123894   3.018   6.706   4.918
 7665SOL    HW223895   3.017   6.716   4.755
 7666SOL     OW23896   1.455   0.844   1.251
 7666SOL    HW123897   1.474   0.890   1.338
 7666SOL    HW223898   1.455   0.911   1.177
 7667SOL     OW23899   4.250   6.426   6.693
 7667SOL    HW123900   4.194   6.407   6.774
 7667SOL    HW223901   4.342   6.450   6.721
 7668SOL     OW23902   3.592   3.952   1.351
 7668SOL    HW123903   3.546   4.039   1.335
 7668SOL    HW223904   3.690   3.967   1.361
 7669SOL     OW23905   5.252   0.116   4.261
 7669SOL    HW123906   5.155   0.118   4.236
 7669SOL    HW223907   5.265   0.153   4.352
 7670SOL     OW23908   1.458   5.361   0.441
 7670SOL    HW123909   1.359   5.357   0.447
 7670SOL    HW223910   1.495   5.268   0.438
 7671SOL     OW23911   6.342   2.867   4.279
 7671SOL    HW123912   6.313   2.809   4.354
 7671SOL    HW223913   6.271   2.867   4.208
 7672SOL     OW23914   5.822   0.700   3.227
 7672SOL    HW123915   5.798   0.680   3.132
 7672SOL    HW223916   5.752   0.663   3.287
 7673SOL     OW23917   0.766   4.438   0.975
 7673SOL    HW123918   0.807   4.356   1.014
 7673SOL    HW223919   0.793   4.446   0.879
 7674SOL     OW23920   6.185   1.433   5.311
 7674SOL    HW123921   6.113   1.488   5.353
 7674SOL    HW223922   6.154   1.397   5.223
 7675SOL     OW23923   4.377   6.598   2.904
 7675SOL    HW123924   4.372   6.637   2.996
 7675SOL    HW223925   4.286   6.573   2.873
 7676SOL     OW23926   1.539   0.949   0.493
 7676SOL    HW123927   1.483   1.025   0.460
 7676SOL    HW223928   1.537   0.946   0.593
 7677SOL     OW23929   1.200   2.993   2.538
 7677SOL    HW123930   1.184   2.908   2.589
 7677SOL    HW223931   1.297   3.017   2.544
 7678SOL     OW23932   6.375   6.467   0.693
 7678SOL    HW123933   6.414   6.507   0.776
 7678SOL    HW223934   6.449   6.429   0.637
 7679SOL     OW23935   0.840   5.253   4.936
 7679SOL    HW123936   0.910   5.322   4.915
 7679SOL    HW223937   0.828   5.193   4.857
 7680SOL     OW23938   3.420   2.989   0.122
 7680SOL    HW123939   3.398   3.081   0.153
 7680SOL    HW223940   3.488   2.994   0.049
 7681SOL     OW23941   2.678   1.899   0.172
 7681SOL    HW123942   2.776   1.918   0.165
 7681SOL    HW223943   2.660   1.806   0.139
 7682SOL     OW23944   2.700   0.178   2.289
 7682SOL    HW123945   2.634   0.244   2.325
 7682SOL    HW223946   2.726   0.204   2.196
 7683SOL     OW23947   5.129   2.090   3.339
 7683SOL    HW123948   5.061   2.136   3.395
 7683SOL    HW223949   5.105   2.099   3.243
 7684SOL     OW23950   4.164   2.459   5.965
 7684SOL    HW123951   4.127   2.389   6.026
 7684SOL    HW223952   4.129   2.444   5.873
 7685SOL     OW23953   3.401   2.863   0.564
 7685SOL    HW123954   3.363   2.845   0.473
 7685SOL    HW223955   3.361   2.947   0.600
 7686SOL     OW23956   4.332   6.285   4.112
 7686SOL    HW123957   4.392   6.313   4.037
 7686SOL    HW223958   4.288   6.366   4.151
 7687SOL     OW23959   5.212   5.243   5.624
 7687SOL    HW123960   5.291   5.239   5.562
 7687SOL    HW223961   5.168   5.332   5.616
 7688SOL     OW23962   0.416   6.311   4.537
 7688SOL    HW123963   0.324   6.351   4.527
 7688SOL    HW223964   0.484   6.384   4.530
 7689SOL     OW23965   4.820   6.703   4.902
 7689SOL    HW123966   4.874   6.687   4.819
 7689SOL    HW223967   4.730   6.739   4.876
 7690SOL     OW23968   6.387   4.757   3.589
 7690SOL    HW123969   6.374   4.848   3.628
 7690SOL    HW223970   6.483   4.730   3.598
 7691SOL     OW23971   5.155   3.088   4.524
 7691SOL    HW123972   5.111   3.012   4.475
 7691SOL    HW223973   5.099   3.170   4.514
 7692SOL     OW23974   1.949   6.753   1.913
 7692SOL    HW123975   1.964   6.726   1.818
 7692SOL    HW223976   1.874   6.819   1.918
 7693SOL     OW23977   4.408   1.221   6.214
 7693SOL    HW123978   4.455   1.133   6.225
 7693SOL    HW223979   4.385   1.258   6.303
 7694SOL     OW23980   7.003   5.444   4.748
 7694SOL    HW123981   0.024   5.533   4.733
 7694SOL    HW223982   0.023   5.400   4.827
 7695SOL     OW23983   4.326   6.640   1.064
 7695SOL    HW123984   4.315   6.696   0.982
 7695SOL    HW223985   4.249   6.655   1.125
 7696SOL     OW23986   6.998   3.318   5.569
 7696SOL    HW123987   0.012   3.291   5.479
 7696SOL    HW223988   6.909   3.275   5.583
 7697SOL     OW23989   3.075   1.329   2.732
 7697SOL    HW123990   3.048   1.425   2.740
 7697SOL    HW223991   3.173   1.321   2.747
 7698SOL     OW23992   6.640   2.794   5.901
 7698SOL    HW123993   6.592   2.707   5.892
 7698SOL    HW223994   6.711   2.800   5.831
 7699SOL     OW23995   2.615   5.250   6.619
 7699SOL    HW123996   2.624   5.254   6.718
 7699SOL    HW223997   2.528   5.207   6.595
 7700SOL     OW23998   5.187   6.635   4.941
 7700SOL    HW123999   5.237   6.567   4.994
 7700SOL    HW224000   5.181   6.720   4.993
 7701SOL     OW24001   0.081   1.988   4.423
 7701SOL    HW124002   0.113   2.067   4.371
 7701SOL    HW224003   0.094   2.005   4.521
 7702SOL     OW24004   3.345   6.260   5.826
 7702SOL    HW124005   3.282   6.183   5.819
 7702SOL    HW224006   3.392   6.257   5.914
 7703SOL     OW24007   0.784   1.111   6.099
 7703SOL    HW124008   0.828   1.054   6.029
 7703SOL    HW224009   0.710   1.060   6.142
 7704SOL     OW24010   4.161   4.637   6.904
 7704SOL    HW124011   4.183   4.597   6.993
 7704SOL    HW224012   4.229   4.606   6.837
 7705SOL     OW24013   3.309   5.161   5.189
 7705SOL    HW124014   3.267   5.155   5.098
 7705SOL    HW224015   3.363   5.079   5.206
 7706SOL     OW24016   6.750   1.046   5.338
 7706SOL    HW124017   6.826   1.097   5.297
 7706SOL    HW224018   6.705   0.991   5.268
 7707SOL     OW24019   6.895   5.182   6.272
 7707SOL    HW124020   6.979   5.235   6.275
 7707SOL    HW224021   6.883   5.133   6.358
 7708SOL     OW24022   4.734   0.003   4.602
 7708SOL    HW124023   4.673   0.061   4.549
 7708SOL    HW224024   4.726   6.930   4.571
 7709SOL     OW24025   4.268   2.114   2.052
 7709SOL    HW124026   4.331   2.171   1.999
 7709SOL    HW224027   4.217   2.055   1.990
 7710SOL     OW24028   2.260   1.043   0.371
 7710SOL    HW124029   2.217   0.957   0.399
 7710SOL    HW224030   2.291   1.035   0.276
 7711SOL     OW24031   5.318   6.418   5.400
 7711SOL    HW124032   5.344   6.465   5.315
 7711SOL    HW224033   5.238   6.360   5.382
 7712SOL     OW24034   5.952   5.466   1.016
 7712SOL    HW124035   5.956   5.438   1.112
 7712SOL    HW224036   5.878   5.416   0.970
 7713SOL     OW24037   1.701   4.152   6.278
 7713SOL    HW124038   1.766   4.097   6.226
 7713SOL    HW224039   1.633   4.091   6.320
 7714SOL     OW24040   6.188   4.265   4.140
 7714SOL    HW124041   6.269   4.207   4.136
 7714SOL    HW224042   6.206   4.350   4.091
 7715SOL     OW24043   4.716   0.036   1.356
 7715SOL    HW124044   4.648   6.993   1.320
 7715SOL    HW224045   4.671   0.097   1.421
 7716SOL     OW24046   4.509   1.728   3.666
 7716SOL    HW124047   4.429   1.668   3.670
 7716SOL    HW224048   4.482   1.821   3.691
 7717SOL     OW24049   2.810   1.279   5.745
 7717SOL    HW124050   2.769   1.306   5.658
 7717SOL    HW224051   2.909   1.271   5.734
 7718SOL     OW24052   2.960   0.088   3.934
 7718SOL    HW124053   3.003   0.177   3.918
 7718SOL    HW224054   3.030   0.016   3.926
 7719SOL     OW24055   6.830   2.144   4.303
 7719SOL    HW124056   6.795   2.197   4.225
 7719SOL    HW224057   6.929   2.155   4.308
 7720SOL     OW24058   5.855   5.948   1.899
 7720SOL    HW124059   5.938   6.003   1.898
 7720SOL    HW224060   5.816   5.945   1.807
 7721SOL     OW24061   1.711   4.479   2.702
 7721SOL    HW124062   1.681   4.573   2.686
 7721SOL    HW224063   1.643   4.431   2.757
 7722SOL     OW24064   6.734   4.658   3.933
 7722SOL    HW124065   6.709   4.748   3.969
 7722SOL    HW224066   6.668   4.629   3.865
 7723SOL     OW24067   6.650   3.112   0.794
 7723SOL    HW124068   6.553   3.137   0.799
 7723SOL    HW224069   6.665   3.054   0.714
 7724SOL     OW24070   1.225   4.377   1.253
 7724SOL    HW124071   1.159   4.428   1.198
 7724SOL    HW224072   1.317   4.391   1.215
 7725SOL     OW24073   5.457   3.233   4.095
 7725SOL    HW124074   5.371   3.275   4.066
 7725SOL    HW224075   5.482   3.266   4.185
 7726SOL     OW24076   0.508   4.479   3.019
 7726SOL    HW124077   0.435   4.546   3.000
 7726SOL    HW224078   0.478   4.388   2.992
 7727SOL     OW24079   6.606   2.303   2.670
 7727SOL    HW124080   6.603   2.207   2.643
 7727SOL    HW224081   6.647   2.357   2.597
 7728SOL     OW24082   1.841   3.010   3.140
 7728SOL    HW124083   1.828   3.046   3.233
 7728SOL    HW224084   1.933   3.034   3.108
 7729SOL     OW24085   5.191   2.315   0.884
 7729SOL    HW124086   5.232   2.230   0.853
 7729SOL    HW224087   5.239   2.392   0.842
 7730SOL     OW24088   5.163   0.723   3.001
 7730SOL    HW124089   5.090   0.716   3.070
 7730SOL    HW224090   5.233   0.655   3.019
 7731SOL     OW24091   6.082   1.119   0.005
 7731SOL    HW124092   6.100   1.165   6.940
 7731SOL    HW224093   6.166   1.073   0.036
 7732SOL     OW24094   4.103   5.615   0.624
 7732SOL    HW124095   4.005   5.631   0.623
 7732SOL    HW224096   4.152   5.702   0.614
 7733SOL     OW24097   3.366   0.023   2.082
 7733SOL    HW124098   3.379   0.014   2.181
 7733SOL    HW224099   3.284   0.078   2.065
 7734SOL     OW24100   1.943   2.435   3.165
 7734SOL    HW124101   2.042   2.427   3.175
 7734SOL    HW224102   1.922   2.496   3.088
 7735SOL     OW24103   5.118   4.434   6.768
 7735SOL    HW124104   5.151   4.418   6.675
 7735SOL    HW224105   5.165   4.514   6.807
 7736SOL     OW24106   6.255   4.905   0.248
 7736SOL    HW124107   6.221   4.961   0.172
 7736SOL    HW224108   6.352   4.886   0.235
 7737SOL     OW24109   4.715   1.792   0.452
 7737SOL    HW124110   4.777   1.865   0.424
 7737SOL    HW224111   4.700   1.796   0.551
 7738SOL     OW24112   2.509   5.361   0.219
 7738SOL    HW124113   2.606   5.376   0.199
 7738SOL    HW224114   2.482   5.271   0.185
 7739SOL     OW24115   6.415   2.218   1.208
 7739SOL    HW124116   6.405   2.153   1.133
 7739SOL    HW224117   6.391   2.174   1.295
 7740SOL     OW24118   7.014   0.260   2.827
 7740SOL    HW124119   0.046   0.176   2.819
 7740SOL    HW224120   6.993   0.277   2.923
 7741SOL     OW24121   1.964   5.792   4.685
 7741SOL    HW124122   1.864   5.792   4.687
 7741SOL    HW224123   1.995   5.743   4.604
 7742SOL     OW24124   6.743   1.560   3.910
 7742SOL    HW124125   6.840   1.553   3.932
 7742SOL    HW224126   6.730   1.622   3.833
 7743SOL     OW24127   4.577   2.565   4.359
 7743SOL    HW124128   4.560   2.470   4.335
 7743SOL    HW224129   4.517   2.625   4.306
 7744SOL     OW24130   6.635   0.171   4.074
 7744SOL    HW124131   6.696   0.120   4.135
 7744SOL    HW224132   6.566   0.219   4.129
 7745SOL     OW24133   4.339   3.079   6.105
 7745SOL    HW124134   4.336   3.028   6.019
 7745SOL    HW224135   4.320   3.175   6.087
 7746SOL     OW24136   1.333   1.109   0.437
 7746SOL    HW124137   1.266   1.153   0.496
 7746SOL    HW224138   1.367   1.175   0.370
 7747SOL     OW24139   5.186   6.096   1.090
 7747SOL    HW124140   5.268   6.138   1.129
 7747SOL    HW224141   5.108   6.115   1.149
 7748SOL     OW24142   3.116   4.351   6.228
 7748SOL    HW124143   3.139   4.273   6.286
 7748SOL    HW224144   3.165   4.345   6.142
 7749SOL     OW24145   5.361   2.784   5.590
 7749SOL    HW124146   5.453   2.787   5.551
 7749SOL    HW224147   5.306   2.716   5.541
 7750SOL     OW24148   0.017   5.421   2.511
 7750SOL    HW124149   0.004   5.363   2.431
 7750SOL    HW224150   6.986   5.384   2.588
 7751SOL     OW24151   0.770   2.636   2.096
 7751SOL    HW124152   0.829   2.662   2.172
 7751SOL    HW224153   0.685   2.689   2.100
 7752SOL     OW24154   4.553   1.822   4.137
 7752SOL    HW124155   4.632   1.811   4.076
 7752SOL    HW224156   4.500   1.902   4.110
 7753SOL     OW24157   3.208   1.486   4.904
 7753SOL    HW124158   3.256   1.573   4.892
 7753SOL    HW224159   3.250   1.416   4.846
 7754SOL     OW24160   4.604   5.962   1.913
 7754SOL    HW124161   4.519   6.004   1.945
 7754SOL    HW224162   4.681   6.022   1.934
 7755SOL     OW24163   0.267   4.509   5.855
 7755SOL    HW124164   0.314   4.565   5.924
 7755SOL    HW224165   0.334   4.474   5.790
 7756SOL     OW24166   2.742   5.476   1.490
 7756SOL    HW124167   2.805   5.403   1.468
 7756SOL    HW224168   2.683   5.495   1.411
 7757SOL     OW24169   0.275   4.342   1.955
 7757SOL    HW124170   0.216   4.281   2.007
 7757SOL    HW224171   0.357   4.292   1.925
 7758SOL     OW24172   1.551   1.287   4.972
 7758SOL    HW124173   1.594   1.364   5.020
 7758SOL    HW224174   1.504   1.321   4.890
 7759SOL     OW24175   2.629   2.555   6.585
 7759SOL    HW124176   2.687   2.495   6.639
 7759SOL    HW224177   2.594   2.505   6.506
 7760SOL     OW24178   4.176   2.941   0.489
 7760SOL    HW124179   4.174   3.039   0.511
 7760SOL    HW224180   4.104   2.894   0.540
 7761SOL     OW24181   4.778   5.327   4.118
 7761SOL    HW124182   4.750   5.231   4.120
 7761SOL    HW224183   4.744   5.369   4.034
 7762SOL     OW24184   6.089   1.725   2.840
 7762SOL    HW124185   6.019   1.680   2.785
 7762SOL    HW224186   6.070   1.709   2.937
 7763SOL     OW24187   2.479   0.034   4.129
 7763SOL    HW124188   2.443   6.968   4.097
 7763SOL    HW224189   2.537   0.073   4.058
 7764SOL     OW24190   2.790   3.887   5.714
 7764SOL    HW124191   2.765   3.927   5.626
 7764SOL    HW224192   2.798   3.788   5.704
 7765SOL     OW24193   6.487   3.445   5.552
 7765SOL    HW124194   6.533   3.534   5.543
 7765SOL    HW224195   6.471   3.407   5.461
 7766SOL     OW24196   5.879   3.944   6.071
 7766SOL    HW124197   5.924   4.025   6.034
 7766SOL    HW224198   5.944   3.892   6.126
 7767SOL     OW24199   3.457   0.597   3.849
 7767SOL    HW124200   3.384   0.665   3.837
 7767SOL    HW224201   3.434   0.514   3.799
 7768SOL     OW24202   4.204   4.916   3.362
 7768SOL    HW124203   4.252   4.961   3.438
 7768SOL    HW224204   4.253   4.833   3.335
 7769SOL     OW24205   3.612   2.747   5.367
 7769SOL    HW124206   3.512   2.747   5.368
 7769SOL    HW224207   3.646   2.768   5.459
 7770SOL     OW24208   2.143   3.362   4.699
 7770SOL    HW124209   2.140   3.437   4.766
 7770SOL    HW224210   2.188   3.283   4.740
 7771SOL     OW24211   2.683   2.636   6.197
 7771SOL    HW124212   2.647   2.725   6.167
 7771SOL    HW224213   2.747   2.650   6.272
 7772SOL     OW24214   4.991   6.487   1.579
 7772SOL    HW124215   4.927   6.409   1.574
 7772SOL    HW224216   4.950   6.566   1.534
 7773SOL     OW24217   3.044   6.345   6.797
 7773SOL    HW124218   3.083   6.257   6.771
 7773SOL    HW224219   3.081   6.373   6.885
 7774SOL     OW24220   4.104   1.495   2.155
 7774SOL    HW124221   4.067   1.424   2.096
 7774SOL    HW224222   4.061   1.491   2.245
 7775SOL     OW24223   2.843   1.210   7.007
 7775SOL    HW124224   2.939   1.225   6.985
 7775SOL    HW224225   2.831   1.116   0.018
 7776SOL     OW24226   1.426   1.419   4.754
 7776SOL    HW124227   1.399   1.363   4.676
 7776SOL    HW224228   1.388   1.511   4.744
 7777SOL     OW24229   6.348   5.221   3.750
 7777SOL    HW124230   6.298   5.271   3.679
 7777SOL    HW224231   6.414   5.282   3.793
 7778SOL     OW24232   6.975   4.788   2.825
 7778SOL    HW124233   6.877   4.794   2.805
 7778SOL    HW224234   7.018   4.877   2.808
 7779SOL     OW24235   3.835   6.006   2.506
 7779SOL    HW124236   3.919   5.982   2.456
 7779SOL    HW224237   3.846   6.096   2.548
 7780SOL     OW24238   6.374   6.268   4.710
 7780SOL    HW124239   6.316   6.193   4.678
 7780SOL    HW224240   6.316   6.343   4.744
 7781SOL     OW24241   1.172   2.915   0.850
 7781SOL    HW124242   1.087   2.901   0.798
 7781SOL    HW224243   1.153   2.905   0.947
 7782SOL     OW24244   5.574   2.974   4.196
 7782SOL    HW124245   5.497   3.019   4.150
 7782SOL    HW224246   5.546   2.947   4.288
 7783SOL     OW24247   1.686   6.941   4.974
 7783SOL    HW124248   1.786   6.938   4.978
 7783SOL    HW224249   1.656   6.922   4.881
 7784SOL     OW24250   1.719   2.059   1.998
 7784SOL    HW124251   1.692   1.981   2.054
 7784SOL    HW224252   1.730   2.029   1.903
 7785SOL     OW24253   0.545   6.978   2.753
 7785SOL    HW124254   0.633   6.931   2.742
 7785SOL    HW224255   0.489   6.927   2.819
 7786SOL     OW24256   4.202   0.882   5.761
 7786SOL    HW124257   4.112   0.862   5.798
 7786SOL    HW224258   4.207   0.978   5.734
 7787SOL     OW24259   2.260   2.479   1.520
 7787SOL    HW124260   2.278   2.433   1.433
 7787SOL    HW224261   2.311   2.435   1.593
 7788SOL     OW24262   6.923   4.598   1.418
 7788SOL    HW124263   6.973   4.684   1.408
 7788SOL    HW224264   6.871   4.579   1.334
 7789SOL     OW24265   2.861   1.647   5.586
 7789SOL    HW124266   2.829   1.615   5.497
 7789SOL    HW224267   2.946   1.698   5.575
 7790SOL     OW24268   4.482   4.578   1.983
 7790SOL    HW124269   4.497   4.482   2.005
 7790SOL    HW224270   4.565   4.631   2.006
 7791SOL     OW24271   2.758   4.991   2.222
 7791SOL    HW124272   2.772   4.892   2.229
 7791SOL    HW224273   2.845   5.038   2.237
 7792SOL     OW24274   0.716   1.936   2.719
 7792SOL    HW124275   0.766   1.881   2.652
 7792SOL    HW224276   0.625   1.897   2.734
 7793SOL     OW24277   4.779   0.963   6.295
 7793SOL    HW124278   4.777   0.867   6.325
 7793SOL    HW224279   4.702   0.979   6.233
 7794SOL     OW24280   0.186   6.962   3.340
 7794SOL    HW124281   0.253   7.005   3.279
 7794SOL    HW224282   0.234   6.914   3.414
 7795SOL     OW24283   3.152   5.660   6.957
 7795SOL    HW124284   3.212   5.717   6.901
 7795SOL    HW224285   3.200   5.635   0.020
 7796SOL     OW24286   3.653   3.608   0.140
 7796SOL    HW124287   3.571   3.591   0.086
 7796SOL    HW224288   3.651   3.550   0.222
 7797SOL     OW24289   0.919   5.980   2.984
 7797SOL    HW124290   0.853   5.958   3.056
 7797SOL    HW224291   0.906   5.918   2.907
 7798SOL     OW24292   1.213   3.570   0.903
 7798SOL    HW124293   1.165   3.486   0.927
 7798SOL    HW224294   1.273   3.597   0.978
 7799SOL     OW24295   2.166   5.436   3.620
 7799SOL    HW124296   2.258   5.403   3.598
 7799SOL    HW224297   2.156   5.530   3.589
 7800SOL     OW24298   0.814   6.346   2.262
 7800SOL    HW124299   0.805   6.327   2.359
 7800SOL    HW224300   0.821   6.260   2.211
 7801SOL     OW24301   1.450   2.038   1.660
 7801SOL    HW124302   1.369   2.057   1.604
 7801SOL    HW224303   1.506   2.121   1.667
 7802SOL     OW24304   6.834   3.873   4.468
 7802SOL    HW124305   6.802   3.905   4.379
 7802SOL    HW224306   6.931   3.896   4.479
 7803SOL     OW24307   4.005   2.911   5.736
 7803SOL    HW124308   4.034   2.863   5.819
 7803SOL    HW224309   3.955   2.994   5.761
 7804SOL     OW24310   3.348   1.762   5.126
 7804SOL    HW124311   3.404   1.833   5.081
 7804SOL    HW224312   3.395   1.674   5.118
 7805SOL     OW24313   5.404   3.217   0.789
 7805SOL    HW124314   5.405   3.117   0.790
 7805SOL    HW224315   5.476   3.250   0.727
 7806SOL     OW24316   6.378   1.588   5.733
 7806SOL    HW124317   6.436   1.566   5.812
 7806SOL    HW224318   6.322   1.508   5.710
 7807SOL     OW24319   2.054   4.626   5.922
 7807SOL    HW124320   2.128   4.591   5.864
 7807SOL    HW224321   2.093   4.668   6.004
 7808SOL     OW24322   5.784   3.641   2.932
 7808SOL    HW124323   5.777   3.555   2.882
 7808SOL    HW224324   5.794   3.717   2.867
 7809SOL     OW24325   4.849   4.968   2.727
 7809SOL    HW124326   4.810   4.917   2.651
 7809SOL    HW224327   4.891   4.904   2.792
 7810SOL     OW24328   3.726   6.367   5.625
 7810SOL    HW124329   3.822   6.364   5.598
 7810SOL    HW224330   3.676   6.293   5.580
 7811SOL     OW24331   1.665   6.437   3.233
 7811SOL    HW124332   1.589   6.372   3.237
 7811SOL    HW224333   1.736   6.401   3.172
 7812SOL     OW24334   3.134   2.173   6.083
 7812SOL    HW124335   3.156   2.219   5.997
 7812SOL    HW224336   3.218   2.139   6.125
 7813SOL     OW24337   5.736   0.767   0.580
 7813SOL    HW124338   5.693   0.852   0.613
 7813SOL    HW224339   5.732   0.765   0.480
 7814SOL     OW24340   6.485   2.841   1.762
 7814SOL    HW124341   6.446   2.771   1.702
 7814SOL    HW224342   6.454   2.931   1.731
 7815SOL     OW24343   5.987   3.812   5.768
 7815SOL    HW124344   5.894   3.791   5.736
 7815SOL    HW224345   6.006   3.757   5.850
 7816SOL     OW24346   0.509   0.541   5.470
 7816SOL    HW124347   0.486   0.634   5.498
 7816SOL    HW224348   0.575   0.544   5.395
 7817SOL     OW24349   3.059   3.012   6.651
 7817SOL    HW124350   2.994   3.087   6.661
 7817SOL    HW224351   3.028   2.933   6.704
 7818SOL     OW24352   5.709   0.841   3.660
 7818SOL    HW124353   5.651   0.818   3.738
 7818SOL    HW224354   5.651   0.863   3.581
 7819SOL     OW24355   1.783   3.571   3.935
 7819SOL    HW124356   1.762   3.647   3.997
 7819SOL    HW224357   1.775   3.485   3.985
 7820SOL     OW24358   1.699   6.727   6.248
 7820SOL    HW124359   1.754   6.795   6.199
 7820SOL    HW224360   1.758   6.653   6.279
 7821SOL     OW24361   5.000   5.929   6.462
 7821SOL    HW124362   4.992   5.871   6.380
 7821SOL    HW224363   5.013   5.871   6.542
 7822SOL     OW24364   0.364   0.931   4.788
 7822SOL    HW124365   0.357   0.866   4.712
 7822SOL    HW224366   0.351   1.024   4.753
 7823SOL     OW24367   2.054   3.359   5.594
 7823SOL    HW124368   2.082   3.263   5.589
 7823SOL    HW224369   2.126   3.417   5.557
 7824SOL     OW24370   5.651   2.834   3.563
 7824SOL    HW124371   5.644   2.932   3.579
 7824SOL    HW224372   5.725   2.816   3.498
 7825SOL     OW24373   3.692   3.670   2.215
 7825SOL    HW124374   3.777   3.618   2.219
 7825SOL    HW224375   3.665   3.685   2.120
 7826SOL     OW24376   6.401   7.016   1.064
 7826SOL    HW124377   6.313   0.033   1.090
 7826SOL    HW224378   6.386   6.943   0.996
 7827SOL     OW24379   4.832   3.840   1.041
 7827SOL    HW124380   4.846   3.873   0.948
 7827SOL    HW224381   4.876   3.751   1.053
 7828SOL     OW24382   0.863   5.687   0.812
 7828SOL    HW124383   0.844   5.784   0.794
 7828SOL    HW224384   0.893   5.676   0.907
 7829SOL     OW24385   4.050   3.235   2.634
 7829SOL    HW124386   4.036   3.163   2.566
 7829SOL    HW224387   4.044   3.195   2.726
 7830SOL     OW24388   5.897   2.971   0.051
 7830SOL    HW124389   5.942   2.899   7.021
 7830SOL    HW224390   5.906   3.058   0.003
 7831SOL     OW24391   1.864   2.473   6.665
 7831SOL    HW124392   1.819   2.528   6.594
 7831SOL    HW224393   1.883   2.382   6.630
 7832SOL     OW24394   2.772   2.481   5.235
 7832SOL    HW124395   2.795   2.408   5.170
 7832SOL    HW224396   2.856   2.510   5.282
 7833SOL     OW24397   1.322   0.270   0.609
 7833SOL    HW124398   1.263   0.350   0.615
 7833SOL    HW224399   1.405   0.294   0.557
 7834SOL     OW24400   0.265   0.342   1.248
 7834SOL    HW124401   0.285   0.252   1.208
 7834SOL    HW224402   0.173   0.342   1.286
 7835SOL     OW24403   1.980   2.617   5.030
 7835SOL    HW124404   2.021   2.693   5.080
 7835SOL    HW224405   2.049   2.546   5.016
 7836SOL     OW24406   2.616   0.024   0.383
 7836SOL    HW124407   2.627   6.986   0.304
 7836SOL    HW224408   2.520   0.049   0.393
 7837SOL     OW24409   6.094   0.312   3.582
 7837SOL    HW124410   6.088   0.217   3.551
 7837SOL    HW224411   6.004   0.354   3.576
 7838SOL     OW24412   3.928   7.021   3.322
 7838SOL    HW124413   3.870   6.993   3.245
 7838SOL    HW224414   3.964   6.940   3.368
 7839SOL     OW24415   6.350   5.012   4.425
 7839SOL    HW124416   6.389   5.038   4.337
 7839SOL    HW224417   6.343   5.093   4.483
 7840SOL     OW24418   4.963   3.174   5.797
 7840SOL    HW124419   4.983   3.076   5.794
 7840SOL    HW224420   4.924   3.198   5.885
 7841SOL     OW24421   1.290   1.909   6.372
 7841SOL    HW124422   1.360   1.842   6.345
 7841SOL    HW224423   1.308   1.940   6.465
 7842SOL     OW24424   3.177   1.161   3.019
 7842SOL    HW124425   3.077   1.158   3.011
 7842SOL    HW224426   3.214   1.070   3.005
 7843SOL     OW24427   5.363   3.420   1.445
 7843SOL    HW124428   5.327   3.447   1.356
 7843SOL    HW224429   5.335   3.326   1.465
 7844SOL     OW24430   4.640   1.455   4.124
 7844SOL    HW124431   4.550   1.496   4.105
 7844SOL    HW224432   4.687   1.509   4.194
 7845SOL     OW24433   0.384   0.933   4.116
 7845SOL    HW124434   0.450   0.971   4.052
 7845SOL    HW224435   0.406   0.962   4.209
 7846SOL     OW24436   3.444   6.970   2.399
 7846SOL    HW124437   3.473   7.016   2.483
 7846SOL    HW224438   3.473   6.875   2.402
 7847SOL     OW24439   0.192   0.364   0.070
 7847SOL    HW124440   0.216   0.347   0.165
 7847SOL    HW224441   0.269   0.407   0.023
 7848SOL     OW24442   4.761   4.316   0.649
 7848SOL    HW124443   4.678   4.263   0.663
 7848SOL    HW224444   4.815   4.317   0.733
 7849SOL     OW24445   5.776   3.972   5.209
 7849SOL    HW124446   5.849   4.022   5.161
 7849SOL    HW224447   5.803   3.877   5.220
 7850SOL     OW24448   0.346   0.739   4.593
 7850SOL    HW124449   0.434   0.694   4.576
 7850SOL    HW224450   0.272   0.676   4.569
 7851SOL     OW24451   5.037   0.197   6.717
 7851SOL    HW124452   5.066   0.102   6.707
 7851SOL    HW224453   5.110   0.250   6.759
 7852SOL     OW24454   2.561   6.201   6.928
 7852SOL    HW124455   2.515   6.137   6.866
 7852SOL    HW224456   2.495   6.234   6.996
 7853SOL     OW24457   2.326   3.403   0.719
 7853SOL    HW124458   2.350   3.314   0.680
 7853SOL    HW224459   2.283   3.391   0.808
 7854SOL     OW24460   3.517   3.849   2.623
 7854SOL    HW124461   3.546   3.944   2.616
 7854SOL    HW224462   3.480   3.818   2.535
 7855SOL     OW24463   3.712   6.624   5.836
 7855SOL    HW124464   3.701   6.534   5.878
 7855SOL    HW224465   3.728   6.692   5.908
 7856SOL     OW24466   4.901   2.944   6.344
 7856SOL    HW124467   4.967   2.904   6.408
 7856SOL    HW224468   4.811   2.951   6.388
 7857SOL     OW24469   0.805   1.395   5.023
 7857SOL    HW124470   0.733   1.430   5.083
 7857SOL    HW224471   0.857   1.471   4.985
 7858SOL     OW24472   6.135   3.986   3.470
 7858SOL    HW124473   6.039   3.964   3.452
 7858SOL    HW224474   6.142   4.082   3.498
 7859SOL     OW24475   1.114   5.723   6.655
 7859SOL    HW124476   1.044   5.786   6.621
 7859SOL    HW224477   1.078   5.671   6.732
 7860SOL     OW24478   3.130   0.107   1.963
 7860SOL    HW124479   3.126   0.008   1.972
 7860SOL    HW224480   3.056   0.139   1.904
 7861SOL     OW24481   5.716   4.394   0.684
 7861SOL    HW124482   5.741   4.311   0.734
 7861SOL    HW224483   5.642   4.441   0.731
 7862SOL     OW24484   2.902   4.682   1.623
 7862SOL    HW124485   2.885   4.624   1.543
 7862SOL    HW224486   2.881   4.632   1.706
 7863SOL     OW24487   6.966   5.917   1.946
 7863SOL    HW124488   6.911   5.940   2.026
 7863SOL    HW224489   0.028   5.972   1.947
 7864SOL     OW24490   1.077   5.372   4.497
 7864SOL    HW124491   1.021   5.290   4.510
 7864SOL    HW224492   1.159   5.365   4.553
 7865SOL     OW24493   3.117   0.002   2.629
 7865SOL    HW124494   3.205   0.030   2.668
 7865SOL    HW224495   3.131   6.996   2.534
 7866SOL     OW24496   2.904   2.292   4.155
 7866SOL    HW124497   2.932   2.262   4.064
 7866SOL    HW224498   2.976   2.350   4.194
 7867SOL     OW24499   5.339   4.602   2.373
 7867SOL    HW124500   5.407   4.554   2.319
 7867SOL    HW224501   5.368   4.697   2.385
 7868SOL     OW24502   5.378   0.072   0.792
 7868SOL    HW124503   5.415   0.162   0.818
 7868SOL    HW224504   5.449   0.020   0.745
 7869SOL     OW24505   0.267   3.225   2.021
 7869SOL    HW124506   0.254   3.324   2.015
 7869SOL    HW224507   0.245   3.183   1.933
 7870SOL     OW24508   0.129   6.099   3.754
 7870SOL    HW124509   0.125   6.058   3.845
 7870SOL    HW224510   0.189   6.045   3.695
 7871SOL     OW24511   5.153   3.089   3.320
 7871SOL    HW124512   5.114   3.094   3.412
 7871SOL    HW224513   5.145   3.179   3.276
 7872SOL     OW24514   6.697   3.144   3.447
 7872SOL    HW124515   6.644   3.103   3.520
 7872SOL    HW224516   6.637   3.165   3.369
 7873SOL     OW24517   0.379   5.005   5.194
 7873SOL    HW124518   0.286   5.001   5.158
 7873SOL    HW224519   0.396   4.924   5.250
 7874SOL     OW24520   5.335   0.785   0.346
 7874SOL    HW124521   5.421   0.745   0.316
 7874SOL    HW224522   5.339   0.803   0.445
 7875SOL     OW24523   4.483   3.226   6.547
 7875SOL    HW124524   4.406   3.184   6.499
 7875SOL    HW224525   4.453   3.255   6.638
 7876SOL     OW24526   6.715   0.548   3.838
 7876SOL    HW124527   6.757   0.471   3.887
 7876SOL    HW224528   6.766   0.631   3.858
 7877SOL     OW24529   6.866   2.183   2.098
 7877SOL    HW124530   6.897   2.138   2.014
 7877SOL    HW224531   6.926   2.261   2.117
 7878SOL     OW24532   4.774   3.420   1.798
 7878SOL    HW124533   4.733   3.329   1.785
 7878SOL    HW224534   4.777   3.468   1.710
 7879SOL     OW24535   5.420   0.658   4.564
 7879SOL    HW124536   5.380   0.704   4.485
 7879SOL    HW224537   5.513   0.693   4.580
 7880SOL     OW24538   0.704   6.762   6.565
 7880SOL    HW124539   0.624   6.822   6.567
 7880SOL    HW224540   0.750   6.772   6.476
 7881SOL     OW24541   6.991   4.968   4.140
 7881SOL    HW124542   0.045   4.908   4.113
 7881SOL    HW224543   7.016   5.063   4.123
 7882SOL     OW24544   0.202   3.935   2.108
 7882SOL    HW124545   0.221   3.853   2.162
 7882SOL    HW224546   0.177   3.908   2.015
 7883SOL     OW24547   3.733   1.616   4.118
 7883SOL    HW124548   3.755   1.659   4.206
 7883SOL    HW224549   3.817   1.579   4.078
 7884SOL     OW24550   0.426   3.622   4.266
 7884SOL    HW124551   0.506   3.566   4.244
 7884SOL    HW224552   0.442   3.716   4.234
 7885SOL     OW24553   6.314   5.268   3.420
 7885SOL    HW124554   6.266   5.322   3.489
 7885SOL    HW224555   6.396   5.317   3.392
 7886SOL     OW24556   4.868   3.111   3.110
 7886SOL    HW124557   4.906   3.059   3.033
 7886SOL    HW224558   4.841   3.049   3.183
 7887SOL     OW24559   2.476   3.628   0.792
 7887SOL    HW124560   2.535   3.603   0.868
 7887SOL    HW224561   2.409   3.556   0.776
 7888SOL     OW24562   5.994   2.405   4.364
 7888SOL    HW124563   5.991   2.502   4.338
 7888SOL    HW224564   5.981   2.396   4.463
 7889SOL     OW24565   5.313   5.291   0.290
 7889SOL    HW124566   5.279   5.382   0.266
 7889SOL    HW224567   5.255   5.252   0.362
 7890SOL     OW24568   1.604   3.654   4.343
 7890SOL    HW124569   1.518   3.680   4.300
 7890SOL    HW224570   1.637   3.731   4.399
 7891SOL     OW24571   6.955   1.828   4.233
 7891SOL    HW124572   7.010   1.899   4.277
 7891SOL    HW224573   6.996   1.738   4.253
 7892SOL     OW24574   0.185   1.869   5.988
 7892SOL    HW124575   0.280   1.837   5.984
 7892SOL    HW224576   0.159   1.905   5.899
 7893SOL     OW24577   6.202   0.445   0.387
 7893SOL    HW124578   6.111   0.486   0.384
 7893SOL    HW224579   6.267   0.504   0.340
 7894SOL     OW24580   3.104   1.707   5.992
 7894SOL    HW124581   3.009   1.735   5.983
 7894SOL    HW224582   3.112   1.634   6.060
 7895SOL     OW24583   4.361   6.129   3.532
 7895SOL    HW124584   4.450   6.134   3.488
 7895SOL    HW224585   4.349   6.208   3.593
 7896SOL     OW24586   2.799   2.366   1.058
 7896SOL    HW124587   2.802   2.395   0.962
 7896SOL    HW224588   2.800   2.447   1.117
 7897SOL     OW24589   3.122   3.304   0.660
 7897SOL    HW124590   3.097   3.392   0.619
 7897SOL    HW224591   3.142   3.239   0.587
 7898SOL     OW24592   5.641   6.611   3.552
 7898SOL    HW124593   5.608   6.569   3.637
 7898SOL    HW224594   5.702   6.687   3.575
 7899SOL     OW24595   6.232   4.752   3.058
 7899SOL    HW124596   6.166   4.681   3.084
 7899SOL    HW224597   6.183   4.838   3.040
 7900SOL     OW24598   0.671   4.476   1.445
 7900SOL    HW124599   0.737   4.525   1.502
 7900SOL    HW224600   0.641   4.394   1.494
 7901SOL     OW24601   6.242   1.406   6.303
 7901SOL    HW124602   6.329   1.434   6.343
 7901SOL    HW224603   6.239   1.433   6.206
 7902SOL     OW24604   1.059   6.826   3.330
 7902SOL    HW124605   1.090   6.867   3.245
 7902SOL    HW224606   0.978   6.875   3.363
 7903SOL     OW24607   2.862   2.260   5.098
 7903SOL    HW124608   2.961   2.246   5.098
 7903SOL    HW224609   2.828   2.259   5.004
 7904SOL     OW24610   4.975   1.460   2.263
 7904SOL    HW124611   4.985   1.425   2.169
 7904SOL    HW224612   4.888   1.430   2.301
 7905SOL     OW24613   5.635   0.923   0.963
 7905SOL    HW124614   5.586   0.915   0.876
 7905SOL    HW224615   5.583   0.875   1.034
 7906SOL     OW24616   1.855   5.575   0.356
 7906SOL    HW124617   1.879   5.644   0.288
 7906SOL    HW224618   1.764   5.539   0.337
 7907SOL     OW24619   6.523   0.362   2.747
 7907SOL    HW124620   6.556   0.283   2.696
 7907SOL    HW224621   6.537   0.347   2.845
 7908SOL     OW24622   1.053   0.386   6.590
 7908SOL    HW124623   0.987   0.426   6.527
 7908SOL    HW224624   1.129   0.450   6.603
 7909SOL     OW24625   5.721   4.858   1.945
 7909SOL    HW124626   5.816   4.835   1.968
 7909SOL    HW224627   5.719   4.904   1.856
 7910SOL     OW24628   1.532   3.796   0.282
 7910SOL    HW124629   1.483   3.763   0.201
 7910SOL    HW224630   1.629   3.810   0.258
 7911SOL     OW24631   1.181   4.200   0.087
 7911SOL    HW124632   1.154   4.111   0.049
 7911SOL    HW224633   1.109   4.233   0.147
 7912SOL     OW24634   5.887   5.924   0.581
 7912SOL    HW124635   5.795   5.904   0.612
 7912SOL    HW224636   5.887   6.007   0.526
 7913SOL     OW24637   0.889   4.202   1.087
 7913SOL    HW124638   0.829   4.150   1.026
 7913SOL    HW224639   0.936   4.139   1.148
 7914SOL     OW24640   6.494   5.712   4.877
 7914SOL    HW124641   6.447   5.800   4.892
 7914SOL    HW224642   6.480   5.684   4.782
 7915SOL     OW24643   3.583   5.928   2.534
 7915SOL    HW124644   3.537   5.923   2.445
 7915SOL    HW224645   3.682   5.928   2.521
 7916SOL     OW24646   1.690   0.630   4.829
 7916SOL    HW124647   1.641   0.558   4.879
 7916SOL    HW224648   1.645   0.717   4.843
 7917SOL     OW24649   4.529   3.765   0.745
 7917SOL    HW124650   4.612   3.767   0.802
 7917SOL    HW224651   4.456   3.719   0.795
 7918SOL     OW24652   1.813   1.760   4.631
 7918SOL    HW124653   1.901   1.782   4.589
 7918SOL    HW224654   1.822   1.763   4.730
 7919SOL     OW24655   2.108   6.277   3.603
 7919SOL    HW124656   2.194   6.228   3.615
 7919SOL    HW224657   2.126   6.372   3.577
 7920SOL     OW24658   4.829   0.582   1.109
 7920SOL    HW124659   4.856   0.487   1.092
 7920SOL    HW224660   4.904   0.629   1.156
 7921SOL     OW24661   4.776   1.879   2.047
 7921SOL    HW124662   4.841   1.830   1.990
 7921SOL    HW224663   4.758   1.969   2.008
 7922SOL     OW24664   1.441   5.296   1.156
 7922SOL    HW124665   1.409   5.319   1.248
 7922SOL    HW224666   1.362   5.286   1.095
 7923SOL     OW24667   5.028   1.749   0.191
 7923SOL    HW124668   4.977   1.696   0.259
 7923SOL    HW224669   4.964   1.790   0.125
 7924SOL     OW24670   6.162   6.363   0.841
 7924SOL    HW124671   6.075   6.413   0.840
 7924SOL    HW224672   6.228   6.411   0.782
 7925SOL     OW24673   1.872   6.566   0.535
 7925SOL    HW124674   1.870   6.619   0.620
 7925SOL    HW224675   1.967   6.546   0.511
 7926SOL     OW24676   4.312   5.552   6.968
 7926SOL    HW124677   4.257   5.542   6.885
 7926SOL    HW224678   4.282   5.634   7.017
 7927SOL     OW24679   4.685   0.264   2.683
 7927SOL    HW124680   4.753   0.214   2.737
 7927SOL    HW224681   4.665   0.351   2.729
 7928SOL     OW24682   6.781   1.695   3.481
 7928SOL    HW124683   6.865   1.722   3.526
 7928SOL    HW224684   6.798   1.617   3.421
 7929SOL     OW24685   4.048   4.450   5.989
 7929SOL    HW124686   4.099   4.490   6.064
 7929SOL    HW224687   4.016   4.359   6.015
 7930SOL     OW24688   4.477   6.030   5.651
 7930SOL    HW124689   4.505   5.985   5.566
 7930SOL    HW224690   4.380   6.052   5.646
 7931SOL     OW24691   3.356   2.060   1.073
 7931SOL    HW124692   3.403   2.134   1.025
 7931SOL    HW224693   3.364   2.075   1.172
 7932SOL     OW24694   1.378   5.200   2.617
 7932SOL    HW124695   1.284   5.222   2.643
 7932SOL    HW224696   1.428   5.284   2.598
 7933SOL     OW24697   0.591   1.128   6.663
 7933SOL    HW124698   0.531   1.164   6.734
 7933SOL    HW224699   0.682   1.168   6.672
 7934SOL     OW24700   0.950   4.891   1.272
 7934SOL    HW124701   0.893   4.939   1.338
 7934SOL    HW224702   1.040   4.933   1.269
 7935SOL     OW24703   4.791   3.039   3.576
 7935SOL    HW124704   4.752   2.999   3.659
 7935SOL    HW224705   4.784   2.974   3.501
 7936SOL     OW24706   3.487   6.167   4.117
 7936SOL    HW124707   3.403   6.177   4.063
 7936SOL    HW224708   3.489   6.076   4.158
 7937SOL     OW24709   3.466   0.192   6.828
 7937SOL    HW124710   3.408   0.273   6.823
 7937SOL    HW224711   3.433   0.132   6.900
 7938SOL     OW24712   4.085   6.716   4.385
 7938SOL    HW124713   4.014   6.786   4.382
 7938SOL    HW224714   4.102   6.688   4.479
 7939SOL     OW24715   0.861   1.757   3.196
 7939SOL    HW124716   0.867   1.658   3.182
 7939SOL    HW224717   0.941   1.787   3.248
 7940SOL     OW24718   5.191   1.443   2.809
 7940SOL    HW124719   5.234   1.360   2.775
 7940SOL    HW224720   5.204   1.448   2.908
 7941SOL     OW24721   3.781   6.744   1.668
 7941SOL    HW124722   3.841   6.706   1.739
 7941SOL    HW224723   3.689   6.706   1.681
 7942SOL     OW24724   0.821   4.680   1.179
 7942SOL    HW124725   0.885   4.742   1.224
 7942SOL    HW224726   0.730   4.692   1.217
 7943SOL     OW24727   1.248   5.599   6.345
 7943SOL    HW124728   1.177   5.529   6.352
 7943SOL    HW224729   1.300   5.601   6.430
 7944SOL     OW24730   1.778   2.575   0.529
 7944SOL    HW124731   1.679   2.580   0.518
 7944SOL    HW224732   1.803   2.487   0.570
 7945SOL     OW24733   5.674   4.478   3.130
 7945SOL    HW124734   5.666   4.510   3.225
 7945SOL    HW224735   5.673   4.557   3.069
 7946SOL     OW24736   3.881   1.067   5.633
 7946SOL    HW124737   3.832   1.141   5.587
 7946SOL    HW224738   3.861   0.981   5.587
 7947SOL     OW24739   0.883   3.463   6.188
 7947SOL    HW124740   0.892   3.547   6.135
 7947SOL    HW224741   0.909   3.385   6.132
 7948SOL     OW24742   1.340   4.248   2.289
 7948SOL    HW124743   1.315   4.297   2.373
 7948SOL    HW224744   1.440   4.244   2.281
 7949SOL     OW24745   3.700   5.628   6.462
 7949SOL    HW124746   3.605   5.644   6.436
 7949SOL    HW224747   3.758   5.700   6.423
 7950SOL     OW24748   5.388   4.837   5.409
 7950SOL    HW124749   5.407   4.798   5.319
 7950SOL    HW224750   5.315   4.785   5.453
 7951SOL     OW24751   2.920   5.773   3.114
 7951SOL    HW124752   2.978   5.840   3.068
 7951SOL    HW224753   2.906   5.801   3.209
 7952SOL     OW24754   5.725   4.075   6.709
 7952SOL    HW124755   5.646   4.083   6.647
 7952SOL    HW224756   5.800   4.131   6.674
 7953SOL     OW24757   2.527   0.688   1.031
 7953SOL    HW124758   2.439   0.720   0.997
 7953SOL    HW224759   2.597   0.758   1.015
 7954SOL     OW24760   3.730   3.544   6.777
 7954SOL    HW124761   3.764   3.454   6.751
 7954SOL    HW224762   3.635   3.536   6.806
 7955SOL     OW24763   1.611   1.404   6.961
 7955SOL    HW124764   1.700   1.387   7.004
 7955SOL    HW224765   1.597   1.502   6.952
 7956SOL     OW24766   5.944   6.167   0.481
 7956SOL    HW124767   6.031   6.163   0.432
 7956SOL    HW224768   5.960   6.162   0.579
 7957SOL     OW24769   4.378   0.966   5.187
 7957SOL    HW124770   4.369   1.065   5.186
 7957SOL    HW224771   4.337   0.929   5.270
 7958SOL     OW24772   5.802   2.940   0.356
 7958SOL    HW124773   5.829   3.017   0.414
 7958SOL    HW224774   5.847   2.948   0.267
 7959SOL     OW24775   5.743   1.321   6.493
 7959SOL    HW124776   5.816   1.387   6.474
 7959SOL    HW224777   5.693   1.302   6.408
 7960SOL     OW24778   0.483   0.585   5.790
 7960SOL    HW124779   0.563   0.534   5.823
 7960SOL    HW224780   0.498   0.614   5.696
 7961SOL     OW24781   6.413   6.269   0.290
 7961SOL    HW124782   6.385   6.318   0.208
 7961SOL    HW224783   6.471   6.328   0.347
 7962SOL     OW24784   5.295   6.951   5.386
 7962SOL    HW124785   5.289   7.008   5.467
 7962SOL    HW224786   5.221   6.884   5.387
 7963SOL     OW24787   0.326   5.253   4.531
 7963SOL    HW124788   0.368   5.337   4.565
 7963SOL    HW224789   0.395   5.197   4.485
 7964SOL     OW24790   6.967   4.765   2.379
 7964SOL    HW124791   6.882   4.769   2.327
 7964SOL    HW224792   6.948   4.731   2.471
 7965SOL     OW24793   3.573   2.366   6.477
 7965SOL    HW124794   3.479   2.361   6.512
 7965SOL    HW224795   3.632   2.410   6.544
 7966SOL     OW24796   4.807   3.937   5.053
 7966SOL    HW124797   4.759   3.996   5.118
 7966SOL    HW224798   4.787   3.841   5.074
 7967SOL     OW24799   1.493   4.651   2.438
 7967SOL    HW124800   1.471   4.609   2.350
 7967SOL    HW224801   1.436   4.611   2.510
 7968SOL     OW24802   0.189   2.298   4.553
 7968SOL    HW124803   0.138   2.296   4.468
 7968SOL    HW224804   0.181   2.389   4.595
 7969SOL     OW24805   4.819   4.904   0.143
 7969SOL    HW124806   4.862   4.978   0.091
 7969SOL    HW224807   4.890   4.853   0.192
 7970SOL     OW24808   5.750   2.886   2.438
 7970SOL    HW124809   5.673   2.898   2.375
 7970SOL    HW224810   5.781   2.975   2.471
 7971SOL     OW24811   3.157   1.057   0.411
 7971SOL    HW124812   3.137   1.033   0.316
 7971SOL    HW224813   3.181   1.154   0.417
 7972SOL     OW24814   3.936   3.576   3.321
 7972SOL    HW124815   3.854   3.634   3.315
 7972SOL    HW224816   3.999   3.599   3.247
 7973SOL     OW24817   6.186   3.991   2.353
 7973SOL    HW124818   6.193   3.941   2.267
 7973SOL    HW224819   6.275   4.029   2.377
 7974SOL     OW24820   6.597   2.070   6.203
 7974SOL    HW124821   6.646   2.144   6.247
 7974SOL    HW224822   6.503   2.099   6.183
 7975SOL     OW24823   4.945   0.453   1.446
 7975SOL    HW124824   4.999   0.459   1.530
 7975SOL    HW224825   4.988   0.510   1.376
 7976SOL     OW24826   0.801   0.052   0.259
 7976SOL    HW124827   0.874   0.117   0.281
 7976SOL    HW224828   0.829   7.018   0.180
 7977SOL     OW24829   6.031   5.503   2.747
 7977SOL    HW124830   5.995   5.459   2.830
 7977SOL    HW224831   6.039   5.601   2.762
 7978SOL     OW24832   0.328   4.662   1.610
 7978SOL    HW124833   0.252   4.723   1.631
 7978SOL    HW224834   0.300   4.567   1.627
 7979SOL     OW24835   1.728   3.125   4.540
 7979SOL    HW124836   1.787   3.044   4.538
 7979SOL    HW224837   1.785   3.207   4.545
 7980SOL     OW24838   4.140   5.535   6.748
 7980SOL    HW124839   4.174   5.469   6.681
 7980SOL    HW224840   4.112   5.619   6.700
 7981SOL     OW24841   1.270   4.664   2.823
 7981SOL    HW124842   1.240   4.586   2.878
 7981SOL    HW224843   1.244   4.649   2.728
 7982SOL     OW24844   6.984   2.073   5.212
 7982SOL    HW124845   6.988   1.993   5.272
 7982SOL    HW224846   6.922   2.055   5.136
 7983SOL     OW24847   5.203   1.635   1.777
 7983SOL    HW124848   5.115   1.598   1.747
 7983SOL    HW224849   5.259   1.563   1.816
 7984SOL     OW24850   0.565   2.232   2.755
 7984SOL    HW124851   0.632   2.260   2.824
 7984SOL    HW224852   0.480   2.283   2.768
 7985SOL     OW24853   2.457   2.180   5.288
 7985SOL    HW124854   2.543   2.151   5.329
 7985SOL    HW224855   2.425   2.264   5.332
 7986SOL     OW24856   2.849   0.937   3.764
 7986SOL    HW124857   2.771   0.979   3.718
 7986SOL    HW224858   2.924   0.927   3.699
 7987SOL     OW24859   1.331   3.216   0.242
 7987SOL    HW124860   1.382   3.147   0.294
 7987SOL    HW224861   1.368   3.307   0.261
 7988SOL     OW24862   0.114   1.613   0.598
 7988SOL    HW124863   0.070   1.546   0.537
 7988SOL    HW224864   0.124   1.700   0.550
 7989SOL     OW24865   0.355   4.648   7.015
 7989SOL    HW124866   0.417   4.580   0.032
 7989SOL    HW224867   0.297   4.605   6.946
 7990SOL     OW24868   3.774   5.276   5.458
 7990SOL    HW124869   3.869   5.299   5.478
 7990SOL    HW224870   3.733   5.349   5.403
 7991SOL     OW24871   6.161   1.193   5.071
 7991SOL    HW124872   6.148   1.284   5.032
 7991SOL    HW224873   6.251   1.186   5.113
 7992SOL     OW24874   2.855   0.130   0.351
 7992SOL    HW124875   2.757   0.112   0.340
 7992SOL    HW224876   2.904   0.044   0.362
 7993SOL     OW24877   6.640   5.925   1.441
 7993SOL    HW124878   6.576   5.897   1.513
 7993SOL    HW224879   6.629   6.023   1.424
 7994SOL     OW24880   5.584   0.579   3.362
 7994SOL    HW124881   5.629   0.495   3.334
 7994SOL    HW224882   5.512   0.558   3.428
 7995SOL     OW24883   0.333   4.538   1.276
 7995SOL    HW124884   0.418   4.527   1.224
 7995SOL    HW224885   0.329   4.630   1.315
 7996SOL     OW24886   3.396   0.808   2.709
 7996SOL    HW124887   3.391   0.730   2.646
 7996SOL    HW224888   3.355   0.782   2.797
 7997SOL     OW24889   1.075   2.132   6.998
 7997SOL    HW124890   1.112   2.203   0.038
 7997SOL    HW224891   1.111   2.043   0.003
 7998SOL     OW24892   2.710   1.312   0.868
 7998SOL    HW124893   2.702   1.282   0.772
 7998SOL    HW224894   2.708   1.412   0.872
 7999SOL     OW24895   0.882   0.797   4.775
 7999SOL    HW124896   0.828   0.713   4.765
 7999SOL    HW224897   0.945   0.787   4.852
 8000SOL     OW24898   4.577   5.388   6.865
 8000SOL    HW124899   4.511   5.457   6.896
 8000SOL    HW224900   4.529   5.316   6.816
 8001SOL     OW24901   4.422   6.449   1.387
 8001SOL    HW124902   4.371   6.534   1.403
 8001SOL    HW224903   4.373   6.372   1.428
 8002SOL     OW24904   0.939   6.752   5.037
 8002SOL    HW124905   0.925   6.845   5.071
 8002SOL    HW224906   0.944   6.753   4.937
 8003SOL     OW24907   2.337   6.540   2.393
 8003SOL    HW124908   2.426   6.496   2.396
 8003SOL    HW224909   2.341   6.618   2.331
 8004SOL     OW24910   1.231   3.330   3.639
 8004SOL    HW124911   1.169   3.305   3.565
 8004SOL    HW224912   1.187   3.312   3.727
 8005SOL     OW24913   2.927   0.624   3.444
 8005SOL    HW124914   2.838   0.638   3.401
 8005SOL    HW224915   2.992   0.593   3.375
 8006SOL     OW24916   3.514   4.723   5.373
 8006SOL    HW124917   3.524   4.763   5.465
 8006SOL    HW224918   3.548   4.629   5.374
 8007SOL     OW24919   6.411   0.433   6.709
 8007SOL    HW124920   6.477   0.500   6.742
 8007SOL    HW224921   6.411   0.432   6.609
 8008SOL     OW24922   5.394   6.834   6.304
 8008SOL    HW124923   5.316   6.895   6.314
 8008SOL    HW224924   5.415   6.791   6.392
 8009SOL     OW24925   4.865   1.517   5.948
 8009SOL    HW124926   4.845   1.608   5.911
 8009SOL    HW224927   4.813   1.504   6.033
 8010SOL     OW24928   2.607   1.630   5.667
 8010SOL    HW124929   2.583   1.700   5.601
 8010SOL    HW224930   2.689   1.582   5.637
 8011SOL     OW24931   4.056   1.627   1.794
 8011SOL    HW124932   3.982   1.658   1.854
 8011SOL    HW224933   4.143   1.663   1.828
 8012SOL     OW24934   6.886   1.926   5.620
 8012SOL    HW124935   6.906   2.022   5.640
 8012SOL    HW224936   6.795   1.903   5.653
 8013SOL     OW24937   2.852   2.234   2.704
 8013SOL    HW124938   2.911   2.227   2.784
 8013SOL    HW224939   2.804   2.147   2.690
 8014SOL     OW24940   1.872   0.745   2.649
 8014SOL    HW124941   1.859   0.773   2.744
 8014SOL    HW224942   1.915   0.820   2.598
 8015SOL     OW24943   2.540   6.897   5.288
 8015SOL    HW124944   2.501   6.945   5.366
 8015SOL    HW224945   2.532   6.954   5.206
 8016SOL     OW24946   3.813   1.736   4.803
 8016SOL    HW124947   3.875   1.691   4.739
 8016SOL    HW224948   3.799   1.831   4.774
 8017SOL     OW24949   6.095   6.628   1.150
 8017SOL    HW124950   6.113   6.657   1.056
 8017SOL    HW224951   6.132   6.696   1.214
 8018SOL     OW24952   3.904   1.893   6.917
 8018SOL    HW124953   3.866   1.861   6.830
 8018SOL    HW224954   3.893   1.821   6.986
 8019SOL     OW24955   2.334   3.682   1.622
 8019SOL    HW124956   2.419   3.713   1.666
 8019SOL    HW224957   2.355   3.611   1.555
 8020SOL     OW24958   0.046   0.636   5.470
 8020SOL    HW124959   0.093   0.595   5.548
 8020SOL    HW224960   7.002   0.571   5.432
 8021SOL     OW24961   1.317   2.527   1.500
 8021SOL    HW124962   1.237   2.473   1.474
 8021SOL    HW224963   1.399   2.489   1.457
 8022SOL     OW24964   4.753   1.322   1.866
 8022SOL    HW124965   4.721   1.406   1.820
 8022SOL    HW224966   4.681   1.287   1.925
 8023SOL     OW24967   4.745   5.502   2.517
 8023SOL    HW124968   4.715   5.597   2.513
 8023SOL    HW224969   4.756   5.467   2.424
 8024SOL     OW24970   2.375   0.840   6.488
 8024SOL    HW124971   2.314   0.907   6.446
 8024SOL    HW224972   2.395   0.867   6.582
 8025SOL     OW24973   1.520   5.445   0.868
 8025SOL    HW124974   1.455   5.399   0.930
 8025SOL    HW224975   1.480   5.530   0.834
 8026SOL     OW24976   1.030   5.447   6.406
 8026SOL    HW124977   0.965   5.403   6.344
 8026SOL    HW224978   1.029   5.401   6.495
 8027SOL     OW24979   3.289   0.266   0.200
 8027SOL    HW124980   3.342   0.343   0.166
 8027SOL    HW224981   3.332   0.181   0.173
 8028SOL     OW24982   3.129   5.477   5.303
 8028SOL    HW124983   3.192   5.546   5.265
 8028SOL    HW224984   3.181   5.411   5.357
 8029SOL     OW24985   6.799   6.893   0.193
 8029SOL    HW124986   6.805   6.992   0.206
 8029SOL    HW224987   6.757   6.851   0.274
 8030SOL     OW24988   0.799   4.008   0.677
 8030SOL    HW124989   0.823   3.916   0.707
 8030SOL    HW224990   0.752   4.056   0.751
 8031SOL     OW24991   6.890   0.887   2.894
 8031SOL    HW124992   6.968   0.911   2.952
 8031SOL    HW224993   6.813   0.948   2.914
 8032SOL     OW24994   5.422   3.104   1.236
 8032SOL    HW124995   5.506   3.155   1.217
 8032SOL    HW224996   5.432   3.010   1.203
 8033SOL     OW24997   4.896   3.601   0.759
 8033SOL    HW124998   4.907   3.700   0.772
 8033SOL    HW224999   4.843   3.563   0.835
 8034SOL     OW25000   5.887   0.431   5.730
 8034SOL    HW125001   5.980   0.469   5.727
 8034SOL    HW225002   5.821   0.506   5.734
 8035SOL     OW25003   5.778   1.543   3.076
 8035SOL    HW125004   5.877   1.535   3.087
 8035SOL    HW225005   5.757   1.616   3.010
 8036SOL     OW25006   6.416   2.646   4.004
 8036SOL    HW125007   6.366   2.610   3.926
 8036SOL    HW225008   6.413   2.746   4.003
 8037SOL     OW25009   0.929   2.425   5.857
 8037SOL    HW125010   1.006   2.466   5.906
 8037SOL    HW225011   0.845   2.474   5.881
 8038SOL     OW25012   0.359   4.864   2.836
 8038SOL    HW125013   0.402   4.954   2.828
 8038SOL    HW225014   0.297   4.850   2.758
 8039SOL     OW25015   1.067   2.421   5.539
 8039SOL    HW125016   1.087   2.491   5.607
 8039SOL    HW225017   1.035   2.465   5.455
 8040SOL     OW25018   1.895   5.461   5.814
 8040SOL    HW125019   1.877   5.454   5.913
 8040SOL    HW225020   1.959   5.536   5.797
 8041SOL     OW25021   3.976   1.173   3.349
 8041SOL    HW125022   3.976   1.188   3.250
 8041SOL    HW225023   4.068   1.188   3.384
 8042SOL     OW25024   4.113   4.304   5.750
 8042SOL    HW125025   4.097   4.370   5.823
 8042SOL    HW225026   4.032   4.297   5.692
 8043SOL     OW25027   5.414   5.027   6.635
 8043SOL    HW125028   5.437   5.088   6.711
 8043SOL    HW225029   5.449   5.066   6.550
 8044SOL     OW25030   2.860   3.682   1.775
 8044SOL    HW125031   2.875   3.585   1.761
 8044SOL    HW225032   2.897   3.733   1.697
 8045SOL     OW25033   0.690   1.232   3.039
 8045SOL    HW125034   0.680   1.330   3.021
 8045SOL    HW225035   0.721   1.186   2.956
 8046SOL     OW25036   0.284   5.213   2.212
 8046SOL    HW125037   0.243   5.138   2.263
 8046SOL    HW225038   0.352   5.176   2.148
 8047SOL     OW25039   3.554   6.788   6.933
 8047SOL    HW125040   3.620   6.862   6.915
 8047SOL    HW225041   3.463   6.817   6.903
 8048SOL     OW25042   4.117   2.525   6.954
 8048SOL    HW125043   4.081   2.448   6.901
 8048SOL    HW225044   4.159   2.591   6.892
 8049SOL     OW25045   1.540   1.676   0.290
 8049SOL    HW125046   1.613   1.717   0.344
 8049SOL    HW225047   1.562   1.580   0.271
 8050SOL     OW25048   0.441   4.424   5.660
 8050SOL    HW125049   0.398   4.336   5.642
 8050SOL    HW225050   0.527   4.430   5.609
 8051SOL     OW25051   3.919   5.987   3.961
 8051SOL    HW125052   3.843   6.042   3.994
 8051SOL    HW225053   3.988   5.978   4.032
 8052SOL     OW25054   2.357   2.675   2.295
 8052SOL    HW125055   2.294   2.597   2.291
 8052SOL    HW225056   2.435   2.658   2.235
 8053SOL     OW25057   2.289   2.801   6.413
 8053SOL    HW125058   2.293   2.715   6.361
 8053SOL    HW225059   2.376   2.815   6.461
 8054SOL     OW25060   4.896   3.391   5.302
 8054SOL    HW125061   4.844   3.444   5.235
 8054SOL    HW225062   4.862   3.411   5.394
 8055SOL     OW25063   6.352   0.167   6.604
 8055SOL    HW125064   6.282   0.167   6.532
 8055SOL    HW225065   6.360   0.259   6.643
 8056SOL     OW25066   2.159   1.503   4.643
 8056SOL    HW125067   2.250   1.466   4.623
 8056SOL    HW225068   2.137   1.487   4.740
 8057SOL     OW25069   2.868   2.206   2.240
 8057SOL    HW125070   2.962   2.188   2.269
 8057SOL    HW225071   2.869   2.268   2.161
 8058SOL     OW25072   3.522   6.207   2.578
 8058SOL    HW125073   3.559   6.242   2.492
 8058SOL    HW225074   3.534   6.107   2.581
 8059SOL     OW25075   2.770   3.342   6.388
 8059SOL    HW125076   2.697   3.383   6.333
 8059SOL    HW225077   2.738   3.257   6.429
 8060SOL     OW25078   6.404   0.144   5.614
 8060SOL    HW125079   6.432   0.061   5.662
 8060SOL    HW225080   6.373   0.212   5.681
 8061SOL     OW25081   6.686   0.474   2.079
 8061SOL    HW125082   6.777   0.488   2.041
 8061SOL    HW225083   6.690   0.479   2.178
 8062SOL     OW25084   4.320   5.585   5.725
 8062SOL    HW125085   4.230   5.628   5.719
 8062SOL    HW225086   4.311   5.495   5.768
 8063SOL     OW25087   3.784   5.850   3.251
 8063SOL    HW125088   3.835   5.840   3.166
 8063SOL    HW225089   3.838   5.901   3.317
 8064SOL     OW25090   5.960   1.405   1.012
 8064SOL    HW125091   5.971   1.452   0.924
 8064SOL    HW225092   5.872   1.357   1.013
 8065SOL     OW25093   3.213   5.508   6.004
 8065SOL    HW125094   3.210   5.458   5.918
 8065SOL    HW225095   3.308   5.519   6.033
 8066SOL     OW25096   0.359   6.898   4.884
 8066SOL    HW125097   0.433   6.958   4.916
 8066SOL    HW225098   0.398   6.821   4.835
 8067SOL     OW25099   5.063   3.163   3.619
 8067SOL    HW125100   5.127   3.095   3.655
 8067SOL    HW225101   4.974   3.120   3.603
 8068SOL     OW25102   6.386   4.294   0.938
 8068SOL    HW125103   6.335   4.216   0.971
 8068SOL    HW225104   6.463   4.313   0.999
 8069SOL     OW25105   2.592   5.059   2.577
 8069SOL    HW125106   2.618   4.988   2.511
 8069SOL    HW225107   2.624   5.034   2.668
 8070SOL     OW25108   5.142   5.034   0.180
 8070SOL    HW125109   5.133   5.092   0.262
 8070SOL    HW225110   5.125   4.939   0.205
 8071SOL     OW25111   2.927   6.752   5.550
 8071SOL    HW125112   2.996   6.818   5.520
 8071SOL    HW225113   2.887   6.782   5.636
 8072SOL     OW25114   1.740   2.700   5.709
 8072SOL    HW125115   1.650   2.702   5.667
 8072SOL    HW225116   1.753   2.782   5.765
 8073SOL     OW25117   3.812   0.413   6.490
 8073SOL    HW125118   3.759   0.450   6.414
 8073SOL    HW225119   3.757   0.416   6.573
 8074SOL     OW25120   1.385   1.339   6.608
 8074SOL    HW125121   1.321   1.414   6.593
 8074SOL    HW225122   1.456   1.341   6.538
 8075SOL     OW25123   0.881   6.762   0.813
 8075SOL    HW125124   0.961   6.806   0.771
 8075SOL    HW225125   0.824   6.831   0.857
 8076SOL     OW25126   0.077   6.135   0.547
 8076SOL    HW125127   0.016   6.115   0.624
 8076SOL    HW225128   0.167   6.161   0.582
 8077SOL     OW25129   4.358   4.923   0.817
 8077SOL    HW125130   4.377   4.886   0.726
 8077SOL    HW225131   4.403   4.866   0.886
 8078SOL     OW25132   0.374   0.443   2.087
 8078SOL    HW125133   0.448   0.501   2.120
 8078SOL    HW225134   0.343   0.384   2.161
 8079SOL     OW25135   1.466   2.431   5.408
 8079SOL    HW125136   1.422   2.516   5.378
 8079SOL    HW225137   1.454   2.421   5.507
 8080SOL     OW25138   1.426   2.683   2.627
 8080SOL    HW125139   1.371   2.760   2.594
 8080SOL    HW225140   1.427   2.683   2.727
 8081SOL     OW25141   6.413   5.860   4.229
 8081SOL    HW125142   6.495   5.909   4.201
 8081SOL    HW225143   6.352   5.922   4.278
 8082SOL     OW25144   4.145   1.983   1.847
 8082SOL    HW125145   4.047   1.965   1.837
 8082SOL    HW225146   4.195   1.896   1.847
 8083SOL     OW25147   6.070   2.765   4.803
 8083SOL    HW125148   6.000   2.822   4.847
 8083SOL    HW225149   6.038   2.737   4.712
 8084SOL     OW25150   2.882   0.980   6.106
 8084SOL    HW125151   2.862   0.969   6.008
 8084SOL    HW225152   2.821   0.920   6.159
 8085SOL     OW25153   0.947   6.154   4.369
 8085SOL    HW125154   1.034   6.156   4.320
 8085SOL    HW225155   0.962   6.173   4.466
 8086SOL     OW25156   6.750   1.285   1.907
 8086SOL    HW125157   6.807   1.355   1.948
 8086SOL    HW225158   6.806   1.207   1.880
 8087SOL     OW25159   1.248   0.945   0.878
 8087SOL    HW125160   1.240   0.846   0.893
 8087SOL    HW225161   1.158   0.987   0.882
 8088SOL     OW25162   6.118   6.886   5.246
 8088SOL    HW125163   6.058   6.936   5.183
 8088SOL    HW225164   6.121   6.934   5.333
 8089SOL     OW25165   5.234   2.731   6.097
 8089SOL    HW125166   5.270   2.639   6.113
 8089SOL    HW225167   5.234   2.782   6.182
 8090SOL     OW25168   4.056   1.736   5.353
 8090SOL    HW125169   3.993   1.762   5.280
 8090SOL    HW225170   4.075   1.638   5.347
 8091SOL     OW25171   1.902   4.795   4.580
 8091SOL    HW125172   1.973   4.833   4.639
 8091SOL    HW225173   1.932   4.706   4.545
 8092SOL     OW25174   4.992   2.430   5.427
 8092SOL    HW125175   4.912   2.488   5.412
 8092SOL    HW225176   4.969   2.335   5.409
 8093SOL     OW25177   4.426   6.374   2.244
 8093SOL    HW125178   4.499   6.421   2.292
 8093SOL    HW225179   4.408   6.420   2.157
 8094SOL     OW25180   1.827   3.735   3.477
 8094SOL    HW125181   1.867   3.729   3.569
 8094SOL    HW225182   1.730   3.710   3.482
 8095SOL     OW25183   0.977   4.546   5.865
 8095SOL    HW125184   1.026   4.564   5.779
 8095SOL    HW225185   0.906   4.477   5.849
 8096SOL     OW25186   0.919   6.236   1.650
 8096SOL    HW125187   0.827   6.205   1.625
 8096SOL    HW225188   0.916   6.276   1.742
 8097SOL     OW25189   3.819   5.457   5.067
 8097SOL    HW125190   3.851   5.531   5.127
 8097SOL    HW225191   3.878   5.377   5.079
 8098SOL     OW25192   1.220   5.516   5.105
 8098SOL    HW125193   1.249   5.474   5.191
 8098SOL    HW225194   1.300   5.529   5.046
 8099SOL     OW25195   2.547   5.703   3.643
 8099SOL    HW125196   2.497   5.640   3.702
 8099SOL    HW225197   2.511   5.795   3.653
 8100SOL     OW25198   0.151   0.389   6.696
 8100SOL    HW125199   0.197   0.304   6.719
 8100SOL    HW225200   0.213   0.447   6.643
 8101SOL     OW25201   2.521   5.785   2.047
 8101SOL    HW125202   2.566   5.726   2.115
 8101SOL    HW225203   2.444   5.832   2.090
 8102SOL     OW25204   1.318   2.993   4.684
 8102SOL    HW125205   1.248   3.037   4.741
 8102SOL    HW225206   1.408   3.028   4.709
 8103SOL     OW25207   3.433   1.394   2.389
 8103SOL    HW125208   3.435   1.347   2.301
 8103SOL    HW225209   3.515   1.449   2.401
 8104SOL     OW25210   2.429   6.744   0.354
 8104SOL    HW125211   2.434   6.665   0.293
 8104SOL    HW225212   2.490   6.816   0.321
 8105SOL     OW25213   6.846   1.048   2.497
 8105SOL    HW125214   6.912   1.092   2.558
 8105SOL    HW225215   6.874   1.062   2.402
 8106SOL     OW25216   2.489   6.216   5.253
 8106SOL    HW125217   2.519   6.273   5.176
 8106SOL    HW225218   2.548   6.135   5.259
 8107SOL     OW25219   1.677   5.705   5.797
 8107SOL    HW125220   1.680   5.739   5.891
 8107SOL    HW225221   1.644   5.610   5.797
 8108SOL     OW25222   7.018   1.545   6.930
 8108SOL    HW125223   0.086   1.519   6.895
 8108SOL    HW225224   0.008   1.607   7.007
 8109SOL     OW25225   6.581   3.175   0.472
 8109SOL    HW125226   6.677   3.155   0.492
 8109SOL    HW225227   6.562   3.157   0.376
 8110SOL     OW25228   4.086   4.996   0.821
 8110SOL    HW125229   4.022   4.924   0.847
 8110SOL    HW225230   4.179   4.969   0.847
 8111SOL     OW25231   6.274   1.200   3.083
 8111SOL    HW125232   6.359   1.248   3.061
 8111SOL    HW225233   6.206   1.220   3.012
 8112SOL     OW25234   0.770   3.062   5.811
 8112SOL    HW125235   0.674   3.083   5.829
 8112SOL    HW225236   0.791   2.970   5.844
 8113SOL     OW25237   5.496   2.656   0.647
 8113SOL    HW125238   5.590   2.638   0.619
 8113SOL    HW225239   5.447   2.702   0.573
 8114SOL     OW25240   1.781   4.453   1.623
 8114SOL    HW125241   1.833   4.407   1.551
 8114SOL    HW225242   1.844   4.503   1.683
 8115SOL     OW25243   2.323   0.867   6.893
 8115SOL    HW125244   2.259   0.917   6.835
 8115SOL    HW225245   2.411   0.858   6.846
 8116SOL     OW25246   2.939   4.510   1.360
 8116SOL    HW125247   3.019   4.496   1.418
 8116SOL    HW225248   2.907   4.421   1.325
 8117SOL     OW25249   3.014   6.728   2.520
 8117SOL    HW125250   3.051   6.813   2.483
 8117SOL    HW225251   3.018   6.657   2.450
 8118SOL     OW25252   6.440   3.171   0.228
 8118SOL    HW125253   6.405   3.077   0.237
 8118SOL    HW225254   6.365   3.233   0.206
 8119SOL     OW25255   5.733   5.990   6.462
 8119SOL    HW125256   5.737   6.071   6.521
 8119SOL    HW225257   5.821   5.942   6.464
 8120SOL     OW25258   2.175   6.015   1.213
 8120SOL    HW125259   2.182   6.084   1.141
 8120SOL    HW225260   2.202   6.056   1.301
 8121SOL     OW25261   1.169   2.837   2.236
 8121SOL    HW125262   1.265   2.825   2.210
 8121SOL    HW225263   1.150   2.934   2.249
 8122SOL     OW25264   0.894   4.377   2.427
 8122SOL    HW125265   0.858   4.321   2.353
 8122SOL    HW225266   0.968   4.435   2.392
 8123SOL     OW25267   0.341   1.930   5.554
 8123SOL    HW125268   0.301   1.879   5.477
 8123SOL    HW225269   0.429   1.889   5.579
 8124SOL     OW25270   5.736   4.822   4.413
 8124SOL    HW125271   5.652   4.831   4.359
 8124SOL    HW225272   5.717   4.767   4.494
 8125SOL     OW25273   0.582   6.730   2.458
 8125SOL    HW125274   0.651   6.705   2.391
 8125SOL    HW225275   0.625   6.746   2.547
 8126SOL     OW25276   3.875   4.829   4.433
 8126SOL    HW125277   3.849   4.795   4.523
 8126SOL    HW225278   3.975   4.829   4.425
 8127SOL     OW25279   3.266   2.819   0.294
 8127SOL    HW125280   3.193   2.884   0.316
 8127SOL    HW225281   3.317   2.852   0.214
 8128SOL     OW25282   3.341   2.706   1.791
 8128SOL    HW125283   3.333   2.728   1.888
 8128SOL    HW225284   3.263   2.650   1.763
 8129SOL     OW25285   1.319   2.895   0.611
 8129SOL    HW125286   1.285   2.885   0.705
 8129SOL    HW225287   1.253   2.948   0.557
 8130SOL     OW25288   1.837   4.922   6.816
 8130SOL    HW125289   1.924   4.967   6.794
 8130SOL    HW225290   1.824   4.922   6.915
 8131SOL     OW25291   2.305   4.037   0.958
 8131SOL    HW125292   2.274   4.075   0.870
 8131SOL    HW225293   2.229   4.039   1.023
 8132SOL     OW25294   0.020   6.793   4.585
 8132SOL    HW125295   6.970   6.773   4.651
 8132SOL    HW225296   0.102   6.739   4.607
 8133SOL     OW25297   3.262   5.031   0.859
 8133SOL    HW125298   3.213   4.978   0.928
 8133SOL    HW225299   3.204   5.044   0.779
 8134SOL     OW25300   6.159   0.747   5.193
 8134SOL    HW125301   6.181   0.665   5.141
 8134SOL    HW225302   6.209   0.746   5.280
 8135SOL     OW25303   2.407   6.629   1.573
 8135SOL    HW125304   2.423   6.531   1.583
 8135SOL    HW225305   2.492   6.678   1.591
 8136SOL     OW25306   4.576   5.084   2.536
 8136SOL    HW125307   4.626   5.126   2.611
 8136SOL    HW225308   4.616   5.113   2.449
 8137SOL     OW25309   4.062   1.870   4.429
 8137SOL    HW125310   4.119   1.843   4.506
 8137SOL    HW225311   4.111   1.855   4.343
 8138SOL     OW25312   5.246   0.961   1.165
 8138SOL    HW125313   5.304   0.897   1.216
 8138SOL    HW225314   5.276   1.054   1.185
 8139SOL     OW25315   0.768   1.442   2.416
 8139SOL    HW125316   0.738   1.494   2.496
 8139SOL    HW225317   0.809   1.504   2.349
 8140SOL     OW25318   3.554   1.234   3.631
 8140SOL    HW125319   3.633   1.196   3.680
 8140SOL    HW225320   3.487   1.162   3.614
 8141SOL     OW25321   4.250   5.619   4.749
 8141SOL    HW125322   4.188   5.572   4.812
 8141SOL    HW225323   4.264   5.564   4.668
 8142SOL     OW25324   6.103   5.575   0.400
 8142SOL    HW125325   6.105   5.661   0.450
 8142SOL    HW225326   6.185   5.522   0.420
 8143SOL     OW25327   6.017   4.149   5.629
 8143SOL    HW125328   6.016   4.187   5.536
 8143SOL    HW225329   5.935   4.177   5.678
 8144SOL     OW25330   5.509   6.691   6.843
 8144SOL    HW125331   5.446   6.616   6.824
 8144SOL    HW225332   5.476   6.744   6.920
 8145SOL     OW25333   6.240   6.062   2.556
 8145SOL    HW125334   6.223   6.064   2.458
 8145SOL    HW225335   6.257   5.968   2.585
 8146SOL     OW25336   3.303   1.053   5.034
 8146SOL    HW125337   3.399   1.040   5.006
 8146SOL    HW225338   3.267   0.967   5.070
 8147SOL     OW25339   5.185   1.937   3.984
 8147SOL    HW125340   5.252   1.868   4.010
 8147SOL    HW225341   5.165   1.928   3.887
 8148SOL     OW25342   5.776   3.084   3.131
 8148SOL    HW125343   5.814   3.085   3.039
 8148SOL    HW225344   5.702   3.151   3.138
 8149SOL     OW25345   3.814   4.920   3.616
 8149SOL    HW125346   3.861   4.866   3.547
 8149SOL    HW225347   3.846   5.015   3.613
 8150SOL     OW25348   0.773   5.155   6.552
 8150SOL    HW125349   0.692   5.164   6.494
 8150SOL    HW225350   0.846   5.109   6.502
 8151SOL     OW25351   1.049   1.971   5.289
 8151SOL    HW125352   0.990   1.892   5.302
 8151SOL    HW225353   1.142   1.950   5.320
 8152SOL     OW25354   1.757   0.649   3.400
 8152SOL    HW125355   1.715   0.739   3.391
 8152SOL    HW225356   1.767   0.627   3.497
 8153SOL     OW25357   2.635   6.306   0.692
 8153SOL    HW125358   2.615   6.214   0.725
 8153SOL    HW225359   2.677   6.360   0.765
 8154SOL     OW25360   1.765   6.753   3.770
 8154SOL    HW125361   1.674   6.770   3.807
 8154SOL    HW225362   1.764   6.667   3.719
 8155SOL     OW25363   3.184   3.382   2.947
 8155SOL    HW125364   3.137   3.456   2.899
 8155SOL    HW225365   3.164   3.388   3.045
 8156SOL     OW25366   6.163   0.532   5.826
 8156SOL    HW125367   6.239   0.584   5.864
 8156SOL    HW225368   6.150   0.557   5.730
 8157SOL     OW25369   6.008   4.461   6.927
 8157SOL    HW125370   6.066   4.516   6.867
 8157SOL    HW225371   6.005   4.367   6.894
 8158SOL     OW25372   1.528   5.256   2.169
 8158SOL    HW125373   1.512   5.305   2.255
 8158SOL    HW225374   1.529   5.322   2.093
 8159SOL     OW25375   2.019   6.226   2.329
 8159SOL    HW125376   2.065   6.137   2.323
 8159SOL    HW225377   2.048   6.283   2.252
 8160SOL     OW25378   4.187   2.478   1.731
 8160SOL    HW125379   4.180   2.554   1.666
 8160SOL    HW225380   4.102   2.424   1.728
 8161SOL     OW25381   4.968   1.284   0.161
 8161SOL    HW125382   4.886   1.337   0.137
 8161SOL    HW225383   5.044   1.347   0.178
 8162SOL     OW25384   5.181   0.270   1.303
 8162SOL    HW125385   5.242   0.194   1.282
 8162SOL    HW225386   5.118   0.243   1.377
 8163SOL     OW25387   2.188   4.097   5.297
 8163SOL    HW125388   2.265   4.046   5.259
 8163SOL    HW225389   2.195   4.098   5.396
 8164SOL     OW25390   4.370   2.331   1.902
 8164SOL    HW125391   4.463   2.359   1.881
 8164SOL    HW225392   4.307   2.379   1.841
 8165SOL     OW25393   2.197   4.562   1.675
 8165SOL    HW125394   2.172   4.639   1.617
 8165SOL    HW225395   2.274   4.587   1.733
 8166SOL     OW25396   2.568   6.730   1.891
 8166SOL    HW125397   2.646   6.672   1.864
 8166SOL    HW225398   2.595   6.788   1.968
 8167SOL     OW25399   6.224   2.547   4.235
 8167SOL    HW125400   6.282   2.612   4.185
 8167SOL    HW225401   6.172   2.492   4.170
 8168SOL     OW25402   3.642   1.372   2.904
 8168SOL    HW125403   3.644   1.298   2.971
 8168SOL    HW225404   3.549   1.383   2.869
 8169SOL     OW25405   4.448   3.739   6.347
 8169SOL    HW125406   4.536   3.782   6.367
 8169SOL    HW225407   4.383   3.809   6.317
 8170SOL     OW25408   0.853   5.623   3.745
 8170SOL    HW125409   0.943   5.638   3.786
 8170SOL    HW225410   0.803   5.554   3.798
 8171SOL     OW25411   0.532   2.245   5.620
 8171SOL    HW125412   0.618   2.295   5.629
 8171SOL    HW225413   0.468   2.298   5.566
 8172SOL     OW25414   0.622   6.369   1.347
 8172SOL    HW125415   0.578   6.395   1.261
 8172SOL    HW225416   0.552   6.349   1.415
 8173SOL     OW25417   4.321   1.915   6.622
 8173SOL    HW125418   4.321   1.855   6.542
 8173SOL    HW225419   4.341   2.008   6.594
 8174SOL     OW25420   6.034   0.869   2.325
 8174SOL    HW125421   6.100   0.898   2.394
 8174SOL    HW225422   6.082   0.850   2.239
 8175SOL     OW25423   0.715   2.536   5.978
 8175SOL    HW125424   0.617   2.550   5.971
 8175SOL    HW225425   0.737   2.500   6.069
 8176SOL     OW25426   2.642   5.576   2.749
 8176SOL    HW125427   2.644   5.657   2.807
 8176SOL    HW225428   2.558   5.575   2.696
 8177SOL     OW25429   0.179   6.438   5.364
 8177SOL    HW125430   0.183   6.366   5.434
 8177SOL    HW225431   0.272   6.467   5.341
 8178SOL     OW25432   2.566   6.450   6.513
 8178SOL    HW125433   2.557   6.382   6.440
 8178SOL    HW225434   2.520   6.534   6.486
 8179SOL     OW25435   3.323   2.046   0.625
 8179SOL    HW125436   3.301   1.990   0.545
 8179SOL    HW225437   3.412   2.090   0.612
 8180SOL     OW25438   6.297   5.924   4.944
 8180SOL    HW125439   6.220   5.957   4.888
 8180SOL    HW225440   6.277   5.941   5.040
 8181SOL     OW25441   2.780   2.344   3.055
 8181SOL    HW125442   2.837   2.358   3.136
 8181SOL    HW225443   2.837   2.342   2.973
 8182SOL     OW25444   3.824   2.309   5.321
 8182SOL    HW125445   3.838   2.392   5.375
 8182SOL    HW225446   3.905   2.291   5.265
 8183SOL     OW25447   1.170   3.744   4.538
 8183SOL    HW125448   1.264   3.779   4.549
 8183SOL    HW225449   1.172   3.661   4.483
 8184SOL     OW25450   6.419   5.791   5.463
 8184SOL    HW125451   6.373   5.745   5.539
 8184SOL    HW225452   6.396   5.888   5.464
 8185SOL     OW25453   2.607   1.345   2.635
 8185SOL    HW125454   2.596   1.420   2.569
 8185SOL    HW225455   2.526   1.341   2.694
 8186SOL     OW25456   3.449   5.161   5.755
 8186SOL    HW125457   3.493   5.104   5.825
 8186SOL    HW225458   3.373   5.110   5.714
 8187SOL     OW25459   1.372   1.935   4.921
 8187SOL    HW125460   1.382   1.836   4.932
 8187SOL    HW225461   1.446   1.969   4.864
 8188SOL     OW25462   5.399   3.008   3.223
 8188SOL    HW125463   5.322   3.034   3.281
 8188SOL    HW225464   5.430   2.916   3.249
 8189SOL     OW25465   6.159   4.146   2.694
 8189SOL    HW125466   6.216   4.065   2.703
 8189SOL    HW225467   6.184   4.213   2.764
 8190SOL     OW25468   4.970   3.563   3.216
 8190SOL    HW125469   5.013   3.570   3.306
 8190SOL    HW225470   4.950   3.655   3.181
 8191SOL     OW25471   1.119   4.892   3.672
 8191SOL    HW125472   1.066   4.948   3.608
 8191SOL    HW225473   1.069   4.885   3.759
 8192SOL     OW25474   1.662   4.716   1.539
 8192SOL    HW125475   1.714   4.638   1.573
 8192SOL    HW225476   1.573   4.684   1.504
 8193SOL     OW25477   3.959   0.155   5.755
 8193SOL    HW125478   3.936   0.244   5.715
 8193SOL    HW225479   3.916   0.146   5.845
 8194SOL     OW25480   0.845   0.561   0.416
 8194SOL    HW125481   0.895   0.642   0.385
 8194SOL    HW225482   0.908   0.496   0.457
 8195SOL     OW25483   6.873   6.284   0.427
 8195SOL    HW125484   6.939   6.228   0.475
 8195SOL    HW225485   6.880   6.267   0.328
 8196SOL     OW25486   2.758   0.202   6.344
 8196SOL    HW125487   2.687   0.155   6.291
 8196SOL    HW225488   2.734   0.298   6.355
 8197SOL     OW25489   0.482   6.926   6.562
 8197SOL    HW125490   0.529   6.999   6.514
 8197SOL    HW225491   0.412   6.886   6.501
 8198SOL     OW25492   3.279   6.123   3.222
 8198SOL    HW125493   3.181   6.104   3.225
 8198SOL    HW225494   3.310   6.122   3.127
 8199SOL     OW25495   6.585   3.977   0.530
 8199SOL    HW125496   6.499   3.958   0.578
 8199SOL    HW225497   6.577   4.064   0.481
 8200SOL     OW25498   4.864   4.243   0.918
 8200SOL    HW125499   4.816   4.170   0.965
 8200SOL    HW225500   4.944   4.271   0.971
 8201SOL     OW25501   5.976   0.755   4.088
 8201SOL    HW125502   5.903   0.732   4.152
 8201SOL    HW225503   6.058   0.702   4.109
 8202SOL     OW25504   1.580   4.158   3.443
 8202SOL    HW125505   1.543   4.250   3.450
 8202SOL    HW225506   1.525   4.105   3.378
 8203SOL     OW25507   5.809   3.181   1.075
 8203SOL    HW125508   5.756   3.260   1.105
 8203SOL    HW225509   5.844   3.197   0.983
 8204SOL     OW25510   2.958   6.726   1.819
 8204SOL    HW125511   2.966   6.774   1.731
 8204SOL    HW225512   2.882   6.662   1.815
 8205SOL     OW25513   5.955   5.064   2.873
 8205SOL    HW125514   5.865   5.027   2.897
 8205SOL    HW225515   5.965   5.067   2.774
 8206SOL     OW25516   4.600   2.317   3.999
 8206SOL    HW125517   4.638   2.229   3.973
 8206SOL    HW225518   4.653   2.356   4.074
 8207SOL     OW25519   2.579   6.202   0.227
 8207SOL    HW125520   2.604   6.278   0.167
 8207SOL    HW225521   2.492   6.163   0.198
 8208SOL     OW25522   1.604   4.488   6.801
 8208SOL    HW125523   1.700   4.504   6.777
 8208SOL    HW225524   1.568   4.414   6.744
 8209SOL     OW25525   0.134   0.189   5.544
 8209SOL    HW125526   0.060   0.153   5.600
 8209SOL    HW225527   0.097   0.230   5.461
 8210SOL     OW25528   2.921   2.052   6.795
 8210SOL    HW125529   2.900   1.971   6.740
 8210SOL    HW225530   2.853   2.061   6.868
 8211SOL     OW25531   3.052   3.206   4.532
 8211SOL    HW125532   3.079   3.128   4.475
 8211SOL    HW225533   3.125   3.226   4.597
 8212SOL     OW25534   3.361   0.072   0.817
 8212SOL    HW125535   3.301   0.110   0.747
 8212SOL    HW225536   3.388   0.145   0.881
 8213SOL     OW25537   4.456   4.224   1.596
 8213SOL    HW125538   4.361   4.216   1.566
 8213SOL    HW225539   4.460   4.224   1.696
 8214SOL     OW25540   4.559   5.649   4.467
 8214SOL    HW125541   4.537   5.740   4.433
 8214SOL    HW225542   4.653   5.648   4.502
 8215SOL     OW25543   3.844   6.603   0.242
 8215SOL    HW125544   3.863   6.688   0.290
 8215SOL    HW225545   3.780   6.548   0.295
 8216SOL     OW25546   5.633   4.772   1.512
 8216SOL    HW125547   5.663   4.824   1.432
 8216SOL    HW225548   5.665   4.678   1.504
 8217SOL     OW25549   2.950   6.427   4.117
 8217SOL    HW125550   2.889   6.393   4.045
 8217SOL    HW225551   2.992   6.512   4.087
 8218SOL     OW25552   2.834   0.152   4.713
 8218SOL    HW125553   2.930   0.179   4.717
 8218SOL    HW225554   2.800   0.136   4.806
 8219SOL     OW25555   3.930   3.172   1.119
 8219SOL    HW125556   3.962   3.115   1.195
 8219SOL    HW225557   3.868   3.242   1.155
 8220SOL     OW25558   4.044   3.690   4.116
 8220SOL    HW125559   4.069   3.758   4.048
 8220SOL    HW225560   3.944   3.687   4.125
 8221SOL     OW25561   5.301   3.959   3.353
 8221SOL    HW125562   5.267   3.865   3.354
 8221SOL    HW225563   5.303   3.992   3.258
 8222SOL     OW25564   6.908   3.358   0.204
 8222SOL    HW125565   6.866   3.442   0.239
 8222SOL    HW225566   6.971   3.321   0.273
 8223SOL     OW25567   1.356   6.045   5.513
 8223SOL    HW125568   1.443   6.079   5.548
 8223SOL    HW225569   1.339   5.954   5.549
 8224SOL     OW25570   5.450   1.831   0.359
 8224SOL    HW125571   5.355   1.840   0.330
 8224SOL    HW225572   5.510   1.863   0.285
 8225SOL     OW25573   5.318   1.742   0.071
 8225SOL    HW125574   5.276   1.660   0.111
 8225SOL    HW225575   5.311   1.817   0.136
 8226SOL     OW25576   3.992   0.125   0.339
 8226SOL    HW125577   3.898   0.091   0.344
 8226SOL    HW225578   4.033   0.095   0.252
 8227SOL     OW25579   4.793   2.488   2.783
 8227SOL    HW125580   4.823   2.452   2.872
 8227SOL    HW225581   4.813   2.420   2.712
 8228SOL     OW25582   2.001   0.042   4.550
 8228SOL    HW125583   1.969   0.132   4.580
 8228SOL    HW225584   1.922   7.005   4.532
 8229SOL     OW25585   4.498   4.242   0.732
 8229SOL    HW125586   4.490   4.261   0.830
 8229SOL    HW225587   4.431   4.171   0.707
 8230SOL     OW25588   5.754   0.560   6.382
 8230SOL    HW125589   5.822   0.621   6.341
 8230SOL    HW225590   5.670   0.611   6.401
 8231SOL     OW25591   2.422   1.933   2.980
 8231SOL    HW125592   2.350   1.900   3.042
 8231SOL    HW225593   2.467   2.013   3.021
 8232SOL     OW25594   3.655   5.575   3.338
 8232SOL    HW125595   3.652   5.671   3.314
 8232SOL    HW225596   3.564   5.544   3.366
 8233SOL     OW25597   0.202   1.204   6.284
 8233SOL    HW125598   0.260   1.281   6.258
 8233SOL    HW225599   0.110   1.217   6.248
 8234SOL     OW25600   1.023   2.135   0.702
 8234SOL    HW125601   0.959   2.155   0.627
 8234SOL    HW225602   1.113   2.113   0.665
 8235SOL     OW25603   1.122   6.487   1.052
 8235SOL    HW125604   1.158   6.548   0.982
 8235SOL    HW225605   1.179   6.494   1.135
 8236SOL     OW25606   0.862   6.316   1.261
 8236SOL    HW125607   0.874   6.342   1.165
 8236SOL    HW225608   0.768   6.336   1.289
 8237SOL     OW25609   4.391   5.193   6.769
 8237SOL    HW125610   4.377   5.095   6.784
 8237SOL    HW225611   4.311   5.231   6.723
 8238SOL     OW25612   0.688   4.866   0.052
 8238SOL    HW125613   0.606   4.923   0.050
 8238SOL    HW225614   0.761   4.915   0.101
 8239SOL     OW25615   1.522   1.844   5.186
 8239SOL    HW125616   1.567   1.847   5.097
 8239SOL    HW225617   1.580   1.794   5.251
 8240SOL     OW25618   3.311   3.326   4.962
 8240SOL    HW125619   3.224   3.277   4.959
 8240SOL    HW225620   3.385   3.261   4.981
 8241SOL     OW25621   1.993   4.092   5.533
 8241SOL    HW125622   2.064   4.149   5.573
 8241SOL    HW225623   1.961   4.133   5.448
 8242SOL     OW25624   0.765   2.766   2.863
 8242SOL    HW125625   0.743   2.845   2.920
 8242SOL    HW225626   0.756   2.682   2.917
 8243SOL     OW25627   1.437   6.050   4.160
 8243SOL    HW125628   1.530   6.054   4.197
 8243SOL    HW225629   1.441   6.034   4.061
 8244SOL     OW25630   0.392   1.465   4.484
 8244SOL    HW125631   0.409   1.493   4.578
 8244SOL    HW225632   0.402   1.543   4.423
 8245SOL     OW25633   5.435   1.716   2.992
 8245SOL    HW125634   5.534   1.734   2.992
 8245SOL    HW225635   5.419   1.618   2.985
 8246SOL     OW25636   1.852   4.892   6.352
 8246SOL    HW125637   1.754   4.910   6.354
 8246SOL    HW225638   1.882   4.857   6.441
 8247SOL     OW25639   2.872   5.514   3.075
 8247SOL    HW125640   2.773   5.510   3.072
 8247SOL    HW225641   2.902   5.609   3.065
 8248SOL     OW25642   6.697   5.382   3.088
 8248SOL    HW125643   6.794   5.377   3.068
 8248SOL    HW225644   6.654   5.294   3.067
 8249SOL     OW25645   3.209   1.529   6.692
 8249SOL    HW125646   3.203   1.608   6.753
 8249SOL    HW225647   3.173   1.554   6.602
 8250SOL     OW25648   1.282   1.706   6.976
 8250SOL    HW125649   1.370   1.746   6.950
 8250SOL    HW225650   1.232   1.769   0.013
 8251SOL     OW25651   1.016   2.585   4.990
 8251SOL    HW125652   0.955   2.509   5.011
 8251SOL    HW225653   0.975   2.642   4.918
 8252SOL     OW25654   0.925   2.072   6.302
 8252SOL    HW125655   0.832   2.080   6.265
 8252SOL    HW225656   0.930   1.991   6.361
 8253SOL     OW25657   4.520   5.953   0.248
 8253SOL    HW125658   4.429   5.933   0.283
 8253SOL    HW225659   4.522   5.940   0.149
 8254SOL     OW25660   5.607   4.839   6.600
 8254SOL    HW125661   5.703   4.865   6.615
 8254SOL    HW225662   5.548   4.916   6.624
 8255SOL     OW25663   1.739   0.354   6.245
 8255SOL    HW125664   1.722   0.339   6.148
 8255SOL    HW225665   1.810   0.291   6.277
 8256SOL     OW25666   1.480   5.347   5.158
 8256SOL    HW125667   1.445   5.264   5.201
 8256SOL    HW225668   1.471   5.424   5.222
 8257SOL     OW25669   5.334   3.836   2.997
 8257SOL    HW125670   5.433   3.843   2.997
 8257SOL    HW225671   5.306   3.744   3.024
 8258SOL     OW25672   6.692   3.332   1.824
 8258SOL    HW125673   6.707   3.410   1.763
 8258SOL    HW225674   6.655   3.255   1.772
 8259SOL     OW25675   5.390   1.731   4.268
 8259SOL    HW125676   5.322   1.657   4.264
 8259SOL    HW225677   5.437   1.728   4.356
 8260SOL     OW25678   3.885   1.942   1.046
 8260SOL    HW125679   3.850   1.857   1.007
 8260SOL    HW225680   3.895   1.932   1.145
 8261SOL     OW25681   5.614   1.041   2.659
 8261SOL    HW125682   5.578   1.121   2.708
 8261SOL    HW225683   5.614   1.061   2.561
 8262SOL     OW25684   5.746   3.960   1.936
 8262SOL    HW125685   5.695   3.931   1.855
 8262SOL    HW225686   5.685   4.010   1.997
 8263SOL     OW25687   6.749   2.125   5.882
 8263SOL    HW125688   6.791   2.131   5.792
 8263SOL    HW225689   6.797   2.185   5.946
 8264SOL     OW25690   2.906   0.123   2.714
 8264SOL    HW125691   2.843   0.076   2.776
 8264SOL    HW225692   2.984   0.062   2.694
 8265SOL     OW25693   5.017   6.687   0.167
 8265SOL    HW125694   4.948   6.754   0.140
 8265SOL    HW225695   4.972   6.612   0.217
 8266SOL     OW25696   3.099   0.574   3.684
 8266SOL    HW125697   3.023   0.518   3.652
 8266SOL    HW225698   3.078   0.671   3.669
 8267SOL     OW25699   1.922   3.368   2.543
 8267SOL    HW125700   1.850   3.300   2.530
 8267SOL    HW225701   1.970   3.384   2.457
 8268SOL     OW25702   3.301   4.921   6.174
 8268SOL    HW125703   3.274   4.825   6.163
 8268SOL    HW225704   3.245   4.977   6.114
 8269SOL     OW25705   6.590   3.251   4.258
 8269SOL    HW125706   6.552   3.185   4.322
 8269SOL    HW225707   6.576   3.219   4.164
 8270SOL     OW25708   3.787   6.983   6.800
 8270SOL    HW125709   3.749   0.015   6.724
 8270SOL    HW225710   3.867   0.008   6.836
 8271SOL     OW25711   3.766   6.049   6.368
 8271SOL    HW125712   3.746   6.143   6.339
 8271SOL    HW225713   3.726   6.033   6.458
 8272SOL     OW25714   0.607   0.349   2.374
 8272SOL    HW125715   0.568   0.437   2.349
 8272SOL    HW225716   0.696   0.337   2.329
 8273SOL     OW25717   4.096   0.636   6.755
 8273SOL    HW125718   4.101   0.662   6.851
 8273SOL    HW225719   4.181   0.592   6.728
 8274SOL     OW25720   5.423   6.236   5.560
 8274SOL    HW125721   5.435   6.148   5.515
 8274SOL    HW225722   5.403   6.306   5.492
 8275SOL     OW25723   5.399   0.489   3.535
 8275SOL    HW125724   5.461   0.457   3.606
 8275SOL    HW225725   5.335   0.557   3.573
 8276SOL     OW25726   6.509   1.970   6.903
 8276SOL    HW125727   6.546   2.062   6.886
 8276SOL    HW225728   6.580   1.902   6.883
 8277SOL     OW25729   1.345   7.010   6.997
 8277SOL    HW125730   1.384   0.019   6.910
 8277SOL    HW225731   1.341   0.065   0.039
 8278SOL     OW25732   2.957   1.424   0.515
 8278SOL    HW125733   3.043   1.409   0.467
 8278SOL    HW225734   2.921   1.336   0.546
 8279SOL     OW25735   3.795   5.816   4.762
 8279SOL    HW125736   3.713   5.771   4.726
 8279SOL    HW225737   3.858   5.747   4.798
 8280SOL     OW25738   5.428   3.895   0.529
 8280SOL    HW125739   5.433   3.906   0.430
 8280SOL    HW225740   5.474   3.971   0.574
 8281SOL     OW25741   2.767   5.448   0.567
 8281SOL    HW125742   2.761   5.395   0.482
 8281SOL    HW225743   2.676   5.484   0.590
 8282SOL     OW25744   2.988   3.082   1.452
 8282SOL    HW125745   2.998   2.998   1.398
 8282SOL    HW225746   2.927   3.065   1.529
 8283SOL     OW25747   0.569   5.959   3.698
 8283SOL    HW125748   0.654   5.933   3.743
 8283SOL    HW225749   0.589   5.999   3.609
 8284SOL     OW25750   3.406   1.548   2.044
 8284SOL    HW125751   3.390   1.546   2.142
 8284SOL    HW225752   3.503   1.537   2.025
 8285SOL     OW25753   2.938   4.739   6.974
 8285SOL    HW125754   2.902   4.685   6.899
 8285SOL    HW225755   3.021   4.787   6.945
 8286SOL     OW25756   5.367   2.263   5.150
 8286SOL    HW125757   5.311   2.241   5.069
 8286SOL    HW225758   5.456   2.220   5.141
 8287SOL     OW25759   1.904   6.992   3.739
 8287SOL    HW125760   1.832   6.938   3.783
 8287SOL    HW225761   1.984   6.934   3.724
 8288SOL     OW25762   2.112   6.811   3.072
 8288SOL    HW125763   2.054   6.836   2.995
 8288SOL    HW225764   2.207   6.804   3.042
 8289SOL     OW25765   6.548   0.986   6.301
 8289SOL    HW125766   6.479   0.997   6.372
 8289SOL    HW225767   6.625   0.932   6.336
 8290SOL     OW25768   4.631   2.738   1.745
 8290SOL    HW125769   4.552   2.678   1.736
 8290SOL    HW225770   4.601   2.834   1.737
 8291SOL     OW25771   4.095   5.736   6.580
 8291SOL    HW125772   4.022   5.732   6.511
 8291SOL    HW225773   4.164   5.802   6.551
 8292SOL     OW25774   0.641   3.389   4.395
 8292SOL    HW125775   0.654   3.463   4.461
 8292SOL    HW225776   0.657   3.424   4.302
 8293SOL     OW25777   3.056   5.081   3.509
 8293SOL    HW125778   3.060   5.140   3.590
 8293SOL    HW225779   3.108   4.998   3.526
 8294SOL     OW25780   4.496   3.549   6.136
 8294SOL    HW125781   4.479   3.626   6.197
 8294SOL    HW225782   4.565   3.488   6.177
 8295SOL     OW25783   5.077   4.605   2.307
 8295SOL    HW125784   5.173   4.605   2.335
 8295SOL    HW225785   5.071   4.607   2.208
 8296SOL     OW25786   4.234   6.606   1.746
 8296SOL    HW125787   4.265   6.628   1.653
 8296SOL    HW225788   4.279   6.524   1.778
 8297SOL     OW25789   5.633   4.583   3.571
 8297SOL    HW125790   5.554   4.568   3.512
 8297SOL    HW225791   5.715   4.592   3.514
 8298SOL     OW25792   6.880   6.564   6.806
 8298SOL    HW125793   6.835   6.613   6.881
 8298SOL    HW225794   6.970   6.533   6.836
 8299SOL     OW25795   0.569   3.514   1.023
 8299SOL    HW125796   0.573   3.427   0.973
 8299SOL    HW225797   0.630   3.580   0.979
 8300SOL     OW25798   5.865   5.161   3.145
 8300SOL    HW125799   5.962   5.157   3.169
 8300SOL    HW225800   5.820   5.076   3.173
 8301SOL     OW25801   5.091   6.900   6.954
 8301SOL    HW125802   5.026   6.855   7.016
 8301SOL    HW225803   5.153   6.958   7.008
 8302SOL     OW25804   3.457   6.797   5.618
 8302SOL    HW125805   3.463   6.895   5.636
 8302SOL    HW225806   3.362   6.768   5.623
 8303SOL     OW25807   0.489   5.229   2.945
 8303SOL    HW125808   0.536   5.284   3.014
 8303SOL    HW225809   0.543   5.148   2.924
 8304SOL     OW25810   5.984   4.587   3.098
 8304SOL    HW125811   5.950   4.642   3.175
 8304SOL    HW225812   6.023   4.501   3.133
 8305SOL     OW25813   5.213   6.608   4.668
 8305SOL    HW125814   5.218   6.631   4.765
 8305SOL    HW225815   5.286   6.543   4.645
 8306SOL     OW25816   6.351   1.696   2.533
 8306SOL    HW125817   6.421   1.664   2.469
 8306SOL    HW225818   6.345   1.796   2.529
 8307SOL     OW25819   1.465   3.292   2.610
 8307SOL    HW125820   1.512   3.344   2.539
 8307SOL    HW225821   1.367   3.287   2.588
 8308SOL     OW25822   1.400   4.984   0.669
 8308SOL    HW125823   1.346   5.059   0.707
 8308SOL    HW225824   1.408   4.910   0.737
 8309SOL     OW25825   6.753   4.839   4.631
 8309SOL    HW125826   6.739   4.869   4.725
 8309SOL    HW225827   6.826   4.894   4.589
 8310SOL     OW25828   1.883   0.425   0.507
 8310SOL    HW125829   1.846   0.489   0.440
 8310SOL    HW225830   1.965   0.381   0.469
 8311SOL     OW25831   5.520   6.047   3.262
 8311SOL    HW125832   5.610   6.047   3.218
 8311SOL    HW225833   5.513   6.125   3.324
 8312SOL     OW25834   5.681   1.501   0.316
 8312SOL    HW125835   5.692   1.587   0.266
 8312SOL    HW225836   5.731   1.429   0.269
 8313SOL     OW25837   5.587   2.633   5.477
 8313SOL    HW125838   5.610   2.727   5.454
 8313SOL    HW225839   5.594   2.620   5.575
 8314SOL     OW25840   4.853   6.240   3.913
 8314SOL    HW125841   4.938   6.213   3.960
 8314SOL    HW225842   4.779   6.179   3.940
 8315SOL     OW25843   3.276   3.780   4.567
 8315SOL    HW125844   3.201   3.716   4.587
 8315SOL    HW225845   3.299   3.774   4.470
 8316SOL     OW25846   2.144   1.968   5.630
 8316SOL    HW125847   2.146   1.947   5.728
 8316SOL    HW225848   2.213   2.037   5.610
 8317SOL     OW25849   1.178   1.879   3.919
 8317SOL    HW125850   1.125   1.956   3.955
 8317SOL    HW225851   1.240   1.911   3.848
 8318SOL     OW25852   4.441   6.888   6.701
 8318SOL    HW125853   4.347   6.884   6.666
 8318SOL    HW225854   4.463   6.983   6.726
 8319SOL     OW25855   1.816   5.886   6.388
 8319SOL    HW125856   1.905   5.930   6.402
 8319SOL    HW225857   1.743   5.946   6.420
 8320SOL     OW25858   3.198   3.344   5.256
 8320SOL    HW125859   3.116   3.287   5.244
 8320SOL    HW225860   3.180   3.435   5.218
 8321SOL     OW25861   0.271   6.485   1.264
 8321SOL    HW125862   0.181   6.454   1.297
 8321SOL    HW225863   0.310   6.550   1.328
 8322SOL     OW25864   0.483   6.509   6.915
 8322SOL    HW125865   0.439   6.437   6.969
 8322SOL    HW225866   0.471   6.489   6.817
 8323SOL     OW25867   5.470   4.500   0.911
 8323SOL    HW125868   5.517   4.580   0.874
 8323SOL    HW225869   5.373   4.520   0.923
 8324SOL     OW25870   4.722   5.654   6.187
 8324SOL    HW125871   4.678   5.632   6.100
 8324SOL    HW225872   4.652   5.671   6.257
 8325SOL     OW25873   1.439   5.514   6.165
 8325SOL    HW125874   1.367   5.553   6.222
 8325SOL    HW225875   1.518   5.490   6.222
 8326SOL     OW25876   1.344   3.119   6.971
 8326SOL    HW125877   1.289   3.065   6.908
 8326SOL    HW225878   1.295   3.129   0.036
 8327SOL     OW25879   1.017   6.284   5.105
 8327SOL    HW125880   1.021   6.349   5.181
 8327SOL    HW225881   1.023   6.334   5.019
 8328SOL     OW25882   0.779   6.464   0.218
 8328SOL    HW125883   0.876   6.486   0.223
 8328SOL    HW225884   0.730   6.539   0.174
 8329SOL     OW25885   1.716   2.671   5.013
 8329SOL    HW125886   1.682   2.709   4.927
 8329SOL    HW225887   1.804   2.625   4.996
 8330SOL     OW25888   3.200   1.336   0.399
 8330SOL    HW125889   3.258   1.382   0.467
 8330SOL    HW225890   3.255   1.315   0.318
 8331SOL     OW25891   2.029   2.641   5.778
 8331SOL    HW125892   2.029   2.740   5.789
 8331SOL    HW225893   1.937   2.609   5.758
 8332SOL     OW25894   5.799   5.169   1.538
 8332SOL    HW125895   5.887   5.195   1.578
 8332SOL    HW225896   5.811   5.147   1.442
 8333SOL     OW25897   2.101   4.383   0.552
 8333SOL    HW125898   2.022   4.429   0.513
 8333SOL    HW225899   2.143   4.324   0.483
 8334SOL     OW25900   3.374   2.221   6.740
 8334SOL    HW125901   3.345   2.239   6.646
 8334SOL    HW225902   3.394   2.308   6.786
 8335SOL     OW25903   5.431   4.775   6.398
 8335SOL    HW125904   5.453   4.681   6.372
 8335SOL    HW225905   5.501   4.810   6.460
 8336SOL     OW25906   0.996   3.797   3.590
 8336SOL    HW125907   1.001   3.870   3.658
 8336SOL    HW225908   1.087   3.779   3.554
 8337SOL     OW25909   0.236   1.401   4.739
 8337SOL    HW125910   0.203   1.427   4.649
 8337SOL    HW225911   0.233   1.480   4.801
 8338SOL     OW25912   3.600   5.500   1.166
 8338SOL    HW125913   3.528   5.567   1.148
 8338SOL    HW225914   3.670   5.507   1.095
 8339SOL     OW25915   5.600   0.443   1.260
 8339SOL    HW125916   5.635   0.350   1.268
 8339SOL    HW225917   5.502   0.440   1.243
 8340SOL     OW25918   5.676   2.150   6.783
 8340SOL    HW125919   5.689   2.221   6.714
 8340SOL    HW225920   5.722   2.066   6.754
 8341SOL     OW25921   3.696   0.789   1.130
 8341SOL    HW125922   3.782   0.828   1.164
 8341SOL    HW225923   3.666   0.716   1.191
 8342SOL     OW25924   4.435   0.540   0.163
 8342SOL    HW125925   4.531   0.565   0.176
 8342SOL    HW225926   4.425   0.490   0.077
 8343SOL     OW25927   5.703   4.169   4.147
 8343SOL    HW125928   5.686   4.125   4.235
 8343SOL    HW225929   5.792   4.141   4.112
 8344SOL     OW25930   0.771   5.520   5.269
 8344SOL    HW125931   0.803   5.564   5.185
 8344SOL    HW225932   0.843   5.522   5.337
 8345SOL     OW25933   4.959   0.687   3.509
 8345SOL    HW125934   4.940   0.601   3.556
 8345SOL    HW225935   4.887   0.753   3.531
 8346SOL     OW25936   5.763   3.923   4.810
 8346SOL    HW125937   5.795   4.017   4.795
 8346SOL    HW225938   5.668   3.915   4.779
 8347SOL     OW25939   2.275   1.210   6.915
 8347SOL    HW125940   2.230   1.125   6.888
 8347SOL    HW225941   2.253   1.281   6.849
 8348SOL     OW25942   3.558   6.073   1.890
 8348SOL    HW125943   3.514   6.011   1.954
 8348SOL    HW225944   3.573   6.027   1.802
 8349SOL     OW25945   6.848   6.154   2.255
 8349SOL    HW125946   6.936   6.201   2.250
 8349SOL    HW225947   6.774   6.220   2.241
 8350SOL     OW25948   1.946   1.021   0.305
 8350SOL    HW125949   1.868   0.959   0.314
 8350SOL    HW225950   1.993   1.005   0.218
 8351SOL     OW25951   6.890   3.588   3.125
 8351SOL    HW125952   6.806   3.636   3.098
 8351SOL    HW225953   6.962   3.605   3.058
 8352SOL     OW25954   2.812   6.054   1.037
 8352SOL    HW125955   2.873   6.044   1.115
 8352SOL    HW225956   2.762   5.968   1.022
 8353SOL     OW25957   1.238   4.981   1.893
 8353SOL    HW125958   1.278   5.073   1.888
 8353SOL    HW225959   1.247   4.936   1.805
 8354SOL     OW25960   3.558   0.520   3.397
 8354SOL    HW125961   3.603   0.508   3.308
 8354SOL    HW225962   3.509   0.607   3.399
 8355SOL     OW25963   2.948   6.466   6.560
 8355SOL    HW125964   2.916   6.423   6.645
 8355SOL    HW225965   3.003   6.546   6.582
 8356SOL     OW25966   1.806   5.216   0.856
 8356SOL    HW125967   1.763   5.234   0.944
 8356SOL    HW225968   1.757   5.265   0.784
 8357SOL     OW25969   4.359   6.449   5.442
 8357SOL    HW125970   4.387   6.384   5.371
 8357SOL    HW225971   4.265   6.477   5.426
 8358SOL     OW25972   0.706   1.149   5.037
 8358SOL    HW125973   0.759   1.233   5.044
 8358SOL    HW225974   0.763   1.072   5.066
 8359SOL     OW25975   3.949   2.126   5.614
 8359SOL    HW125976   3.858   2.117   5.573
 8359SOL    HW225977   3.956   2.067   5.694
 8360SOL     OW25978   4.557   0.636   1.060
 8360SOL    HW125979   4.651   0.665   1.047
 8360SOL    HW225980   4.504   0.657   0.978
 8361SOL     OW25981   4.004   0.997   6.841
 8361SOL    HW125982   4.075   0.947   6.790
 8361SOL    HW225983   4.046   1.075   6.888
 8362SOL     OW25984   6.467   4.297   1.500
 8362SOL    HW125985   6.558   4.330   1.526
 8362SOL    HW225986   6.440   4.224   1.563
 8363SOL     OW25987   2.024   3.119   0.377
 8363SOL    HW125988   2.080   3.100   0.297
 8363SOL    HW225989   1.948   3.055   0.382
 8364SOL     OW25990   0.283   3.434   4.431
 8364SOL    HW125991   0.320   3.489   4.356
 8364SOL    HW225992   0.325   3.462   4.517
 8365SOL     OW25993   1.077   2.133   1.782
 8365SOL    HW125994   1.136   2.112   1.704
 8365SOL    HW225995   1.134   2.163   1.859
 8366SOL     OW25996   5.334   5.002   2.261
 8366SOL    HW125997   5.392   5.076   2.226
 8366SOL    HW225998   5.250   4.997   2.206
 8367SOL     OW25999   2.833   5.475   4.017
 8367SOL    HW126000   2.767   5.421   3.965
 8367SOL    HW226001   2.785   5.550   4.064
 8368SOL     OW26002   5.965   6.339   6.075
 8368SOL    HW126003   6.045   6.279   6.080
 8368SOL    HW226004   5.939   6.353   5.980
 8369SOL     OW26005   2.666   6.509   1.246
 8369SOL    HW126006   2.591   6.562   1.206
 8369SOL    HW226007   2.639   6.413   1.252
 8370SOL     OW26008   2.770   3.804   6.440
 8370SOL    HW126009   2.840   3.736   6.418
 8370SOL    HW226010   2.781   3.834   6.534
 8371SOL     OW26011   2.035   4.500   5.257
 8371SOL    HW126012   1.990   4.472   5.342
 8371SOL    HW226013   2.130   4.524   5.276
 8372SOL     OW26014   2.143   6.293   2.098
 8372SOL    HW126015   2.176   6.387   2.109
 8372SOL    HW226016   2.219   6.233   2.073
 8373SOL     OW26017   6.722   1.708   4.141
 8373SOL    HW126018   6.818   1.726   4.160
 8373SOL    HW226019   6.714   1.665   4.051
 8374SOL     OW26020   0.683   1.317   4.422
 8374SOL    HW126021   0.735   1.401   4.436
 8374SOL    HW226022   0.729   1.259   4.355
 8375SOL     OW26023   3.203   0.877   4.690
 8375SOL    HW126024   3.172   0.853   4.782
 8375SOL    HW226025   3.139   0.841   4.623
 8376SOL     OW26026   2.330   0.635   3.261
 8376SOL    HW126027   2.409   0.630   3.199
 8376SOL    HW226028   2.259   0.691   3.220
 8377SOL     OW26029   4.843   5.441   0.497
 8377SOL    HW126030   4.786   5.383   0.439
 8377SOL    HW226031   4.907   5.492   0.441
 8378SOL     OW26032   5.363   5.905   3.891
 8378SOL    HW126033   5.269   5.938   3.897
 8378SOL    HW226034   5.374   5.824   3.949
 8379SOL     OW26035   5.770   1.590   1.159
 8379SOL    HW126036   5.711   1.510   1.169
 8379SOL    HW226037   5.861   1.570   1.194
 8380SOL     OW26038   0.004   5.753   0.522
 8380SOL    HW126039   7.010   5.656   0.501
 8380SOL    HW226040   0.094   5.780   0.486
 8381SOL     OW26041   0.103   1.488   2.341
 8381SOL    HW126042   0.175   1.440   2.292
 8381SOL    HW226043   0.016   1.440   2.328
 8382SOL     OW26044   2.277   0.786   0.940
 8382SOL    HW126045   2.299   0.884   0.948
 8382SOL    HW226046   2.198   0.766   0.998
 8383SOL     OW26047   2.825   6.971   6.475
 8383SOL    HW126048   2.827   0.033   6.529
 8383SOL    HW226049   2.894   6.976   6.403
 8384SOL     OW26050   0.696   2.969   3.044
 8384SOL    HW126051   0.755   3.042   3.009
 8384SOL    HW226052   0.600   2.997   3.036
 8385SOL     OW26053   4.291   3.511   1.276
 8385SOL    HW126054   4.296   3.468   1.366
 8385SOL    HW226055   4.356   3.586   1.271
 8386SOL     OW26056   2.440   6.220   1.916
 8386SOL    HW126057   2.403   6.158   1.985
 8386SOL    HW226058   2.475   6.167   1.839
 8387SOL     OW26059   1.680   1.016   2.730
 8387SOL    HW126060   1.710   0.960   2.807
 8387SOL    HW226061   1.607   0.968   2.680
 8388SOL     OW26062   4.261   6.258   1.512
 8388SOL    HW126063   4.328   6.219   1.575
 8388SOL    HW226064   4.219   6.184   1.458
 8389SOL     OW26065   0.239   2.461   3.610
 8389SOL    HW126066   0.202   2.550   3.585
 8389SOL    HW226067   0.183   2.421   3.683
 8390SOL     OW26068   2.884   0.129   5.709
 8390SOL    HW126069   2.803   0.078   5.683
 8390SOL    HW226070   2.865   0.184   5.791
 8391SOL     OW26071   5.186   5.588   1.076
 8391SOL    HW126072   5.199   5.683   1.105
 8391SOL    HW226073   5.101   5.581   1.023
 8392SOL     OW26074   5.968   6.700   5.710
 8392SOL    HW126075   5.916   6.738   5.786
 8392SOL    HW226076   5.912   6.633   5.661
 8393SOL     OW26077   6.870   6.037   3.230
 8393SOL    HW126078   6.956   6.067   3.272
 8393SOL    HW226079   6.811   5.996   3.301
 8394SOL     OW26080   0.891   1.798   2.531
 8394SOL    HW126081   0.982   1.816   2.567
 8394SOL    HW226082   0.860   1.708   2.562
 8395SOL     OW26083   0.500   5.962   5.873
 8395SOL    HW126084   0.588   5.937   5.913
 8395SOL    HW226085   0.492   6.061   5.868
 8396SOL     OW26086   4.898   3.290   1.099
 8396SOL    HW126087   4.982   3.280   1.151
 8396SOL    HW226088   4.891   3.216   1.032
 8397SOL     OW26089   2.095   5.423   3.291
 8397SOL    HW126090   2.072   5.349   3.353
 8397SOL    HW226091   2.115   5.386   3.200
 8398SOL     OW26092   4.876   2.115   0.794
 8398SOL    HW126093   4.957   2.089   0.741
 8398SOL    HW226094   4.795   2.110   0.736
 8399SOL     OW26095   5.451   5.938   0.535
 8399SOL    HW126096   5.388   5.864   0.512
 8399SOL    HW226097   5.525   5.903   0.592
 8400SOL     OW26098   6.113   0.497   4.093
 8400SOL    HW126099   6.119   0.455   4.183
 8400SOL    HW226100   6.196   0.478   4.041
 8401SOL     OW26101   3.357   4.435   6.706
 8401SOL    HW126102   3.398   4.344   6.693
 8401SOL    HW226103   3.399   4.499   6.642
 8402SOL     OW26104   4.056   1.787   0.385
 8402SOL    HW126105   4.107   1.788   0.299
 8402SOL    HW226106   3.973   1.732   0.374
 8403SOL     OW26107   1.684   1.525   4.150
 8403SOL    HW126108   1.770   1.520   4.099
 8403SOL    HW226109   1.609   1.543   4.086
 8404SOL     OW26110   4.604   4.764   5.843
 8404SOL    HW126111   4.664   4.835   5.881
 8404SOL    HW226112   4.555   4.801   5.764
 8405SOL     OW26113   0.249   2.946   4.977
 8405SOL    HW126114   0.186   2.870   4.992
 8405SOL    HW226115   0.337   2.911   4.944
 8406SOL     OW26116   5.330   3.301   2.000
 8406SOL    HW126117   5.410   3.255   1.962
 8406SOL    HW226118   5.247   3.269   1.954
 8407SOL     OW26119   5.268   3.942   2.489
 8407SOL    HW126120   5.345   3.994   2.450
 8407SOL    HW226121   5.182   3.986   2.463
 8408SOL     OW26122   4.383   2.320   4.282
 8408SOL    HW126123   4.357   2.369   4.366
 8408SOL    HW226124   4.339   2.363   4.204
 8409SOL     OW26125   0.503   2.739   3.925
 8409SOL    HW126126   0.515   2.745   4.024
 8409SOL    HW226127   0.505   2.642   3.898
 8410SOL     OW26128   3.938   6.629   1.875
 8410SOL    HW126129   3.961   6.608   1.970
 8410SOL    HW226130   4.007   6.588   1.814
 8411SOL     OW26131   2.023   3.050   3.760
 8411SOL    HW126132   2.092   3.065   3.830
 8411SOL    HW226133   1.962   3.129   3.756
 8412SOL     OW26134   6.280   2.466   3.433
 8412SOL    HW126135   6.186   2.435   3.448
 8412SOL    HW226136   6.287   2.507   3.342
 8413SOL     OW26137   3.133   4.485   0.576
 8413SOL    HW126138   3.104   4.430   0.498
 8413SOL    HW226139   3.189   4.430   0.637
 8414SOL     OW26140   3.975   6.209   2.623
 8414SOL    HW126141   4.060   6.167   2.593
 8414SOL    HW226142   3.946   6.278   2.557
 8415SOL     OW26143   6.394   3.667   2.283
 8415SOL    HW126144   6.404   3.764   2.302
 8415SOL    HW226145   6.482   3.621   2.295
 8416SOL     OW26146   5.151   3.867   2.796
 8416SOL    HW126147   5.185   3.837   2.707
 8416SOL    HW226148   5.225   3.862   2.863
 8417SOL     OW26149   2.718   5.970   5.877
 8417SOL    HW126150   2.641   5.914   5.906
 8417SOL    HW226151   2.759   5.931   5.794
 8418SOL     OW26152   5.880   5.577   2.532
 8418SOL    HW126153   5.909   5.555   2.625
 8418SOL    HW226154   5.780   5.578   2.528
 8419SOL     OW26155   4.446   0.471   4.340
 8419SOL    HW126156   4.531   0.473   4.289
 8419SOL    HW226157   4.466   0.466   4.438
 8420SOL     OW26158   3.733   1.638   6.444
 8420SOL    HW126159   3.639   1.614   6.469
 8420SOL    HW226160   3.767   1.573   6.376
 8421SOL     OW26161   2.307   6.459   1.826
 8421SOL    HW126162   2.364   6.530   1.784
 8421SOL    HW226163   2.361   6.375   1.834
 8422SOL     OW26164   3.501   6.882   1.172
 8422SOL    HW126165   3.591   6.839   1.164
 8422SOL    HW226166   3.443   6.828   1.232
 8423SOL     OW26167   3.218   4.442   1.477
 8423SOL    HW126168   3.205   4.345   1.498
 8423SOL    HW226169   3.287   4.451   1.405
 8424SOL     OW26170   3.396   1.775   2.661
 8424SOL    HW126171   3.347   1.703   2.611
 8424SOL    HW226172   3.481   1.738   2.698
 8425SOL     OW26173   5.270   5.155   6.990
 8425SOL    HW126174   5.236   5.117   0.055
 8425SOL    HW226175   5.365   5.125   6.977
 8426SOL     OW26176   4.101   3.331   3.106
 8426SOL    HW126177   4.093   3.430   3.120
 8426SOL    HW226178   4.012   3.295   3.078
 8427SOL     OW26179   2.533   3.771   6.303
 8427SOL    HW126180   2.533   3.844   6.235
 8427SOL    HW226181   2.626   3.755   6.334
 8428SOL     OW26182   5.867   4.378   2.154
 8428SOL    HW126183   5.918   4.463   2.169
 8428SOL    HW226184   5.820   4.352   2.239
 8429SOL     OW26185   1.976   6.526   2.591
 8429SOL    HW126186   2.063   6.560   2.627
 8429SOL    HW226187   1.920   6.603   2.561
 8430SOL     OW26188   4.651   4.809   3.286
 8430SOL    HW126189   4.645   4.907   3.266
 8430SOL    HW226190   4.740   4.774   3.257
 8431SOL     OW26191   3.821   4.176   0.907
 8431SOL    HW126192   3.856   4.120   0.832
 8431SOL    HW226193   3.847   4.135   0.994
 8432SOL     OW26194   3.902   6.305   6.925
 8432SOL    HW126195   3.993   6.338   6.901
 8432SOL    HW226196   3.835   6.378   6.908
 8433SOL     OW26197   0.826   1.658   5.503
 8433SOL    HW126198   0.831   1.734   5.568
 8433SOL    HW226199   0.908   1.659   5.444
 8434SOL     OW26200   5.275   6.433   5.114
 8434SOL    HW126201   5.374   6.427   5.116
 8434SOL    HW226202   5.235   6.342   5.122
 8435SOL     OW26203   4.442   2.001   1.374
 8435SOL    HW126204   4.524   1.974   1.323
 8435SOL    HW226205   4.451   2.097   1.402
 8436SOL     OW26206   3.709   4.600   1.438
 8436SOL    HW126207   3.721   4.507   1.474
 8436SOL    HW226208   3.615   4.630   1.455
 8437SOL     OW26209   0.305   0.999   1.283
 8437SOL    HW126210   0.244   0.941   1.339
 8437SOL    HW226211   0.400   0.985   1.312
 8438SOL     OW26212   1.749   6.940   1.501
 8438SOL    HW126213   1.806   6.863   1.529
 8438SOL    HW226214   1.712   6.923   1.409
 8439SOL     OW26215   0.395   5.971   2.200
 8439SOL    HW126216   0.325   6.005   2.138
 8439SOL    HW226217   0.431   6.047   2.255
 8440SOL     OW26218   0.758   1.465   3.486
 8440SOL    HW126219   0.685   1.473   3.417
 8440SOL    HW226220   0.845   1.494   3.445
 8441SOL     OW26221   4.696   5.789   6.864
 8441SOL    HW126222   4.615   5.838   6.894
 8441SOL    HW226223   4.694   5.778   6.765
 8442SOL     OW26224   2.110   4.478   6.817
 8442SOL    HW126225   2.136   4.460   6.912
 8442SOL    HW226226   2.189   4.461   6.758
 8443SOL     OW26227   1.788   0.888   2.934
 8443SOL    HW126228   1.725   0.833   2.989
 8443SOL    HW226229   1.881   0.854   2.946
 8444SOL     OW26230   3.875   6.613   2.907
 8444SOL    HW126231   3.833   6.652   2.825
 8444SOL    HW226232   3.907   6.687   2.966
 8445SOL     OW26233   3.986   4.862   2.182
 8445SOL    HW126234   3.964   4.887   2.276
 8445SOL    HW226235   3.908   4.814   2.141
 8446SOL     OW26236   6.375   4.831   3.273
 8446SOL    HW126237   6.316   4.833   3.192
 8446SOL    HW226238   6.324   4.793   3.350
 8447SOL     OW26239   4.829   2.459   1.691
 8447SOL    HW126240   4.835   2.371   1.644
 8447SOL    HW226241   4.846   2.533   1.625
 8448SOL     OW26242   1.129   3.028   6.718
 8448SOL    HW126243   1.109   3.121   6.747
 8448SOL    HW226244   1.047   2.987   6.678
 8449SOL     OW26245   1.974   2.528   4.507
 8449SOL    HW126246   2.045   2.475   4.460
 8449SOL    HW226247   2.017   2.592   4.570
 8450SOL     OW26248   1.918   4.929   2.288
 8450SOL    HW126249   1.976   4.988   2.232
 8450SOL    HW226250   1.940   4.833   2.269
 8451SOL     OW26251   3.555   2.713   0.784
 8451SOL    HW126252   3.469   2.746   0.745
 8451SOL    HW226253   3.536   2.655   0.863
 8452SOL     OW26254   6.828   5.822   1.245
 8452SOL    HW126255   6.764   5.884   1.290
 8452SOL    HW226256   6.836   5.738   1.298
 8453SOL     OW26257   0.016   4.260   6.252
 8453SOL    HW126258   6.949   4.269   6.298
 8453SOL    HW226259   0.071   4.191   6.298
 8454SOL     OW26260   1.520   0.349   4.561
 8454SOL    HW126261   1.584   0.423   4.544
 8454SOL    HW226262   1.434   0.367   4.512
 8455SOL     OW26263   5.317   1.785   1.555
 8455SOL    HW126264   5.364   1.869   1.582
 8455SOL    HW226265   5.287   1.736   1.636
 8456SOL     OW26266   5.260   5.532   2.700
 8456SOL    HW126267   5.344   5.500   2.744
 8456SOL    HW226268   5.264   5.631   2.688
 8457SOL     OW26269   0.619   6.175   6.592
 8457SOL    HW126270   0.580   6.108   6.529
 8457SOL    HW226271   0.719   6.176   6.582
 8458SOL     OW26272   1.157   1.167   1.197
 8458SOL    HW126273   1.117   1.235   1.259
 8458SOL    HW226274   1.104   1.083   1.202
 8459SOL     OW26275   2.578   5.160   2.097
 8459SOL    HW126276   2.506   5.127   2.158
 8459SOL    HW226277   2.663   5.111   2.117
 8460SOL     OW26278   4.461   1.044   0.432
 8460SOL    HW126279   4.439   1.089   0.346
 8460SOL    HW226280   4.383   0.989   0.462
 8461SOL     OW26281   5.660   4.394   1.952
 8461SOL    HW126282   5.702   4.339   2.025
 8461SOL    HW226283   5.729   4.457   1.915
 8462SOL     OW26284   2.446   4.648   0.008
 8462SOL    HW126285   2.396   4.666   0.093
 8462SOL    HW226286   2.541   4.626   0.030
 8463SOL     OW26287   6.251   1.133   0.334
 8463SOL    HW126288   6.304   1.146   0.250
 8463SOL    HW226289   6.232   1.035   0.346
 8464SOL     OW26290   0.628   3.347   6.773
 8464SOL    HW126291   0.717   3.387   6.750
 8464SOL    HW226292   0.642   3.262   6.824
 8465SOL     OW26293   4.542   3.007   0.866
 8465SOL    HW126294   4.492   3.073   0.811
 8465SOL    HW226295   4.523   3.023   0.963
 8466SOL     OW26296   5.980   1.069   5.384
 8466SOL    HW126297   5.970   1.025   5.295
 8466SOL    HW226298   6.067   1.118   5.387
 8467SOL     OW26299   3.162   1.381   1.365
 8467SOL    HW126300   3.082   1.325   1.389
 8467SOL    HW226301   3.189   1.435   1.444
 8468SOL     OW26302   6.297   3.120   0.481
 8468SOL    HW126303   6.302   3.023   0.457
 8468SOL    HW226304   6.388   3.161   0.475
 8469SOL     OW26305   4.562   3.280   5.975
 8469SOL    HW126306   4.466   3.268   6.001
 8469SOL    HW226307   4.577   3.241   5.884
 8470SOL     OW26308   1.646   5.089   1.740
 8470SOL    HW126309   1.740   5.060   1.760
 8470SOL    HW226310   1.584   5.012   1.755
 8471SOL     OW26311   3.355   2.146   4.595
 8471SOL    HW126312   3.386   2.232   4.635
 8471SOL    HW226313   3.396   2.069   4.644
 8472SOL     OW26314   5.754   1.172   5.839
 8472SOL    HW126315   5.812   1.190   5.918
 8472SOL    HW226316   5.701   1.089   5.855
 8473SOL     OW26317   4.487   4.649   6.756
 8473SOL    HW126318   4.557   4.651   6.828
 8473SOL    HW226319   4.527   4.615   6.671
 8474SOL     OW26320   3.761   3.743   2.772
 8474SOL    HW126321   3.731   3.715   2.863
 8474SOL    HW226322   3.690   3.799   2.729
 8475SOL     OW26323   6.966   2.548   1.897
 8475SOL    HW126324   6.927   2.538   1.805
 8475SOL    HW226325   7.013   2.636   1.903
 8476SOL     OW26326   6.387   0.213   2.087
 8476SOL    HW126327   6.426   0.295   2.045
 8476SOL    HW226328   6.414   0.132   2.036
 8477SOL     OW26329   5.428   6.604   1.817
 8477SOL    HW126330   5.361   6.560   1.877
 8477SOL    HW226331   5.438   6.700   1.843
 8478SOL     OW26332   6.410   0.441   6.420
 8478SOL    HW126333   6.389   0.376   6.348
 8478SOL    HW226334   6.461   0.518   6.382
 8479SOL     OW26335   1.236   2.597   1.211
 8479SOL    HW126336   1.152   2.616   1.260
 8479SOL    HW226337   1.229   2.508   1.166
 8480SOL     OW26338   4.381   3.847   0.366
 8480SOL    HW126339   4.453   3.866   0.434
 8480SOL    HW226340   4.355   3.932   0.321
 8481SOL     OW26341   4.471   1.939   3.031
 8481SOL    HW126342   4.562   1.897   3.026
 8481SOL    HW226343   4.463   1.990   3.116
 8482SOL     OW26344   4.366   1.316   0.713
 8482SOL    HW126345   4.301   1.255   0.668
 8482SOL    HW226346   4.456   1.272   0.718
 8483SOL     OW26347   3.068   5.557   3.481
 8483SOL    HW126348   3.076   5.514   3.390
 8483SOL    HW226349   2.989   5.617   3.482
 8484SOL     OW26350   5.514   6.139   3.878
 8484SOL    HW126351   5.573   6.136   3.798
 8484SOL    HW226352   5.462   6.055   3.885
 8485SOL     OW26353   3.090   2.994   0.340
 8485SOL    HW126354   3.050   3.057   0.273
 8485SOL    HW226355   3.031   2.990   0.421
 8486SOL     OW26356   0.752   1.179   2.773
 8486SOL    HW126357   0.674   1.183   2.711
 8486SOL    HW226358   0.834   1.210   2.726
 8487SOL     OW26359   6.180   1.423   5.613
 8487SOL    HW126360   6.127   1.388   5.691
 8487SOL    HW226361   6.118   1.467   5.548
 8488SOL     OW26362   4.429   4.765   1.587
 8488SOL    HW126363   4.522   4.768   1.622
 8488SOL    HW226364   4.401   4.858   1.559
 8489SOL     OW26365   5.355   1.452   1.943
 8489SOL    HW126366   5.297   1.371   1.945
 8489SOL    HW226367   5.451   1.425   1.951
 8490SOL     OW26368   2.790   0.282   6.912
 8490SOL    HW126369   2.834   0.197   6.882
 8490SOL    HW226370   2.748   0.327   6.833
 8491SOL     OW26371   3.053   5.294   2.111
 8491SOL    HW126372   2.988   5.329   2.043
 8491SOL    HW226373   3.033   5.335   2.200
 8492SOL     OW26374   0.002   6.137   4.171
 8492SOL    HW126375   6.962   6.094   4.105
 8492SOL    HW226376   6.971   6.200   4.229
 8493SOL     OW26377   3.917   0.679   6.551
 8493SOL    HW126378   3.985   0.677   6.624
 8493SOL    HW226379   3.880   0.587   6.537
 8494SOL     OW26380   6.798   5.223   2.387
 8494SOL    HW126381   6.714   5.168   2.392
 8494SOL    HW226382   6.857   5.201   2.465
 8495SOL     OW26383   6.945   5.511   0.467
 8495SOL    HW126384   6.861   5.488   0.518
 8495SOL    HW226385   6.936   5.479   0.373
 8496SOL     OW26386   5.178   2.513   2.248
 8496SOL    HW126387   5.193   2.563   2.162
 8496SOL    HW226388   5.140   2.575   2.316
 8497SOL     OW26389   6.626   0.764   4.176
 8497SOL    HW126390   6.642   0.784   4.079
 8497SOL    HW226391   6.623   0.665   4.189
 8498SOL     OW26392   4.665   0.470   4.182
 8498SOL    HW126393   4.727   0.402   4.220
 8498SOL    HW226394   4.717   0.545   4.143
 8499SOL     OW26395   6.442   6.751   6.178
 8499SOL    HW126396   6.349   6.748   6.214
 8499SOL    HW226397   6.478   6.658   6.173
 8500SOL     OW26398   1.274   0.544   4.733
 8500SOL    HW126399   1.268   0.503   4.642
 8500SOL    HW226400   1.350   0.501   4.783
 8501SOL     OW26401   0.665   2.192   6.153
 8501SOL    HW126402   0.699   2.209   6.060
 8501SOL    HW226403   0.624   2.101   6.157
 8502SOL     OW26404   0.723   2.868   6.823
 8502SOL    HW126405   0.752   2.897   6.732
 8502SOL    HW226406   0.780   2.792   6.854
 8503SOL     OW26407   5.717   0.891   4.574
 8503SOL    HW126408   5.787   0.824   4.547
 8503SOL    HW226409   5.747   0.983   4.548
 8504SOL     OW26410   1.275   6.364   2.089
 8504SOL    HW126411   1.243   6.270   2.096
 8504SOL    HW226412   1.356   6.368   2.031
 8505SOL     OW26413   5.246   2.936   2.935
 8505SOL    HW126414   5.290   2.994   3.004
 8505SOL    HW226415   5.233   2.988   2.851
 8506SOL     OW26416   2.221   0.190   6.759
 8506SOL    HW126417   2.257   0.106   6.800
 8506SOL    HW226418   2.291   0.260   6.759
 8507SOL     OW26419   4.204   5.791   5.125
 8507SOL    HW126420   4.274   5.852   5.163
 8507SOL    HW226421   4.246   5.727   5.062
 8508SOL     OW26422   3.586   1.368   6.986
 8508SOL    HW126423   3.655   1.319   0.018
 8508SOL    HW226424   3.512   1.397   0.024
 8509SOL     OW26425   6.326   1.355   3.348
 8509SOL    HW126426   6.417   1.315   3.353
 8509SOL    HW226427   6.268   1.299   3.290
 8510SOL     OW26428   6.671   1.874   4.350
 8510SOL    HW126429   6.695   1.804   4.282
 8510SOL    HW226430   6.735   1.950   4.343
 8511SOL     OW26431   5.501   2.639   1.820
 8511SOL    HW126432   5.489   2.633   1.919
 8511SOL    HW226433   5.476   2.552   1.778
 8512SOL     OW26434   1.550   0.145   5.021
 8512SOL    HW126435   1.504   0.110   5.102
 8512SOL    HW226436   1.617   0.078   4.990
 8513SOL     OW26437   5.167   6.213   6.056
 8513SOL    HW126438   5.133   6.209   6.150
 8513SOL    HW226439   5.209   6.302   6.039
 8514SOL     OW26440   2.423   6.275   3.841
 8514SOL    HW126441   2.476   6.279   3.926
 8514SOL    HW226442   2.361   6.353   3.837
 8515SOL     OW26443   5.389   2.097   0.852
 8515SOL    HW126444   5.430   2.186   0.834
 8515SOL    HW226445   5.454   2.025   0.828
 8516SOL     OW26446   6.833   2.102   2.349
 8516SOL    HW126447   6.840   2.100   2.249
 8516SOL    HW226448   6.800   2.191   2.378
 8517SOL     OW26449   1.829   3.664   6.685
 8517SOL    HW126450   1.845   3.741   6.623
 8517SOL    HW226451   1.757   3.687   6.749
 8518SOL     OW26452   3.245   5.414   0.734
 8518SOL    HW126453   3.292   5.358   0.802
 8518SOL    HW226454   3.257   5.372   0.644
 8519SOL     OW26455   1.079   4.922   2.598
 8519SOL    HW126456   1.117   4.969   2.678
 8519SOL    HW226457   1.150   4.914   2.527
 8520SOL     OW26458   3.429   0.541   0.183
 8520SOL    HW126459   3.353   0.604   0.170
 8520SOL    HW226460   3.461   0.547   0.278
 8521SOL     OW26461   1.105   6.807   6.386
 8521SOL    HW126462   1.193   6.800   6.434
 8521SOL    HW226463   1.070   6.715   6.368
 8522SOL     OW26464   1.978   5.582   4.856
 8522SOL    HW126465   1.966   5.672   4.816
 8522SOL    HW226466   1.962   5.587   4.955
 8523SOL     OW26467   1.514   0.406   6.882
 8523SOL    HW126468   1.478   0.434   6.971
 8523SOL    HW226469   1.452   0.340   6.840
 8524SOL     OW26470   1.221   2.396   6.432
 8524SOL    HW126471   1.315   2.369   6.449
 8524SOL    HW226472   1.159   2.329   6.471
 8525SOL     OW26473   5.416   2.720   2.985
 8525SOL    HW126474   5.379   2.811   2.967
 8525SOL    HW226475   5.424   2.706   3.084
 8526SOL     OW26476   1.968   2.790   2.102
 8526SOL    HW126477   2.009   2.879   2.121
 8526SOL    HW226478   1.990   2.762   2.008
 8527SOL     OW26479   4.369   0.186   4.203
 8527SOL    HW126480   4.273   0.206   4.182
 8527SOL    HW226481   4.395   0.236   4.286
 8528SOL     OW26482   5.084   2.641   6.657
 8528SOL    HW126483   5.116   2.552   6.623
 8528SOL    HW226484   5.022   2.626   6.734
 8529SOL     OW26485   0.441   4.394   0.216
 8529SOL    HW126486   0.520   4.340   0.247
 8529SOL    HW226487   0.359   4.337   0.217
 8530SOL     OW26488   1.388   3.342   5.141
 8530SOL    HW126489   1.356   3.410   5.207
 8530SOL    HW226490   1.362   3.370   5.048
 8531SOL     OW26491   4.581   4.931   2.940
 8531SOL    HW126492   4.672   4.952   2.903
 8531SOL    HW226493   4.529   4.877   2.873
 8532SOL     OW26494   1.594   4.006   6.003
 8532SOL    HW126495   1.511   3.975   6.049
 8532SOL    HW226496   1.576   4.017   5.906
 8533SOL     OW26497   3.702   0.230   5.477
 8533SOL    HW126498   3.670   0.247   5.384
 8533SOL    HW226499   3.801   0.218   5.477
 8534SOL     OW26500   1.997   2.761   3.198
 8534SOL    HW126501   1.950   2.835   3.151
 8534SOL    HW226502   2.048   2.706   3.132
 8535SOL     OW26503   0.080   2.509   4.235
 8535SOL    HW126504   0.142   2.548   4.304
 8535SOL    HW226505   0.076   2.571   4.156
 8536SOL     OW26506   0.212   1.443   5.571
 8536SOL    HW126507   0.169   1.489   5.493
 8536SOL    HW226508   0.177   1.350   5.577
 8537SOL     OW26509   5.603   0.704   1.641
 8537SOL    HW126510   5.647   0.720   1.730
 8537SOL    HW226511   5.656   0.636   1.590
 8538SOL     OW26512   5.774   1.187   4.771
 8538SOL    HW126513   5.796   1.186   4.674
 8538SOL    HW226514   5.679   1.215   4.783
 8539SOL     OW26515   6.640   2.900   2.266
 8539SOL    HW126516   6.728   2.911   2.221
 8539SOL    HW226517   6.573   2.963   2.226
 8540SOL     OW26518   4.630   0.280   0.230
 8540SOL    HW126519   4.586   0.267   0.319
 8540SOL    HW226520   4.584   0.355   0.182
 8541SOL     OW26521   3.511   6.798   5.317
 8541SOL    HW126522   3.539   6.724   5.379
 8541SOL    HW226523   3.423   6.834   5.346
 8542SOL     OW26524   1.216   4.755   6.398
 8542SOL    HW126525   1.235   4.660   6.422
 8542SOL    HW226526   1.285   4.787   6.333
 8543SOL     OW26527   2.635   2.115   5.926
 8543SOL    HW126528   2.645   2.023   5.888
 8543SOL    HW226529   2.712   2.135   5.986
 8544SOL     OW26530   5.618   4.438   5.610
 8544SOL    HW126531   5.706   4.467   5.649
 8544SOL    HW226532   5.582   4.510   5.551
 8545SOL     OW26533   3.037   0.710   6.204
 8545SOL    HW126534   2.980   0.716   6.285
 8545SOL    HW226535   3.103   0.785   6.204
 8546SOL     OW26536   5.025   0.673   1.950
 8546SOL    HW126537   5.007   0.692   2.046
 8546SOL    HW226538   5.119   0.641   1.939
 8547SOL     OW26539   6.129   5.987   5.451
 8547SOL    HW126540   6.136   6.030   5.541
 8547SOL    HW226541   6.089   5.895   5.461
 8548SOL     OW26542   0.832   3.049   5.551
 8548SOL    HW126543   0.763   3.042   5.479
 8548SOL    HW226544   0.796   3.010   5.636
 8549SOL     OW26545   2.231   0.061   3.677
 8549SOL    HW126546   2.173   7.002   3.687
 8549SOL    HW226547   2.240   0.084   3.580
 8550SOL     OW26548   6.565   4.243   6.215
 8550SOL    HW126549   6.510   4.321   6.182
 8550SOL    HW226550   6.566   4.172   6.145
 8551SOL     OW26551   1.669   0.974   6.340
 8551SOL    HW126552   1.672   1.070   6.311
 8551SOL    HW226553   1.576   0.949   6.365
 8552SOL     OW26554   3.534   1.569   3.405
 8552SOL    HW126555   3.445   1.553   3.447
 8552SOL    HW226556   3.597   1.606   3.474
 8553SOL     OW26557   5.057   4.279   0.221
 8553SOL    HW126558   4.991   4.232   0.163
 8553SOL    HW226559   5.133   4.312   0.164
 8554SOL     OW26560   2.470   1.543   0.941
 8554SOL    HW126561   2.422   1.473   0.888
 8554SOL    HW226562   2.529   1.596   0.881
 8555SOL     OW26563   3.806   1.131   3.754
 8555SOL    HW126564   3.902   1.156   3.742
 8555SOL    HW226565   3.800   1.043   3.801
 8556SOL     OW26566   1.626   6.212   0.591
 8556SOL    HW126567   1.693   6.255   0.531
 8556SOL    HW226568   1.569   6.149   0.539
 8557SOL     OW26569   6.947   0.718   6.876
 8557SOL    HW126570   6.928   0.622   6.854
 8557SOL    HW226571   0.022   0.729   6.897
 8558SOL     OW26572   3.041   5.952   4.396
 8558SOL    HW126573   3.045   6.039   4.347
 8558SOL    HW226574   3.018   5.878   4.332
 8559SOL     OW26575   1.164   4.961   2.869
 8559SOL    HW126576   1.238   5.006   2.919
 8559SOL    HW226577   1.190   4.866   2.850
 8560SOL     OW26578   2.955   4.527   0.978
 8560SOL    HW126579   3.007   4.446   1.006
 8560SOL    HW226580   2.970   4.600   1.044
 8561SOL     OW26581   4.919   1.073   2.396
 8561SOL    HW126582   4.893   1.169   2.403
 8561SOL    HW226583   4.933   1.049   2.300
 8562SOL     OW26584   5.280   1.515   6.648
 8562SOL    HW126585   5.265   1.595   6.707
 8562SOL    HW226586   5.234   1.530   6.560
 8563SOL     OW26587   2.225   5.093   2.190
 8563SOL    HW126588   2.220   5.162   2.117
 8563SOL    HW226589   2.268   5.134   2.270
 8564SOL     OW26590   4.388   6.996   0.033
 8564SOL    HW126591   4.412   6.907   7.016
 8564SOL    HW226592   4.392   0.043   6.983
 8565SOL     OW26593   1.750   4.889   0.812
 8565SOL    HW126594   1.676   4.952   0.835
 8565SOL    HW226595   1.838   4.933   0.832
 8566SOL     OW26596   3.319   1.264   2.599
 8566SOL    HW126597   3.355   1.306   2.515
 8566SOL    HW226598   3.318   1.165   2.589
 8567SOL     OW26599   1.990   3.144   2.123
 8567SOL    HW126600   1.895   3.141   2.152
 8567SOL    HW226601   2.008   3.229   2.075
 8568SOL     OW26602   6.033   0.309   6.752
 8568SOL    HW126603   5.984   0.381   6.801
 8568SOL    HW226604   6.079   0.349   6.673
 8569SOL     OW26605   4.186   2.286   6.422
 8569SOL    HW126606   4.177   2.380   6.455
 8569SOL    HW226607   4.253   2.237   6.479
 8570SOL     OW26608   1.782   2.403   2.440
 8570SOL    HW126609   1.708   2.337   2.446
 8570SOL    HW226610   1.869   2.355   2.432
 8571SOL     OW26611   1.687   0.900   3.331
 8571SOL    HW126612   1.607   0.952   3.361
 8571SOL    HW226613   1.768   0.933   3.379
 8572SOL     OW26614   2.834   4.488   5.838
 8572SOL    HW126615   2.841   4.498   5.937
 8572SOL    HW226616   2.829   4.579   5.795
 8573SOL     OW26617   3.900   6.237   0.206
 8573SOL    HW126618   3.938   6.266   0.294
 8573SOL    HW226619   3.881   6.317   0.149
 8574SOL     OW26620   5.598   0.852   4.828
 8574SOL    HW126621   5.647   0.904   4.898
 8574SOL    HW226622   5.645   0.860   4.740
 8575SOL     OW26623   3.258   5.614   3.670
 8575SOL    HW126624   3.265   5.713   3.685
 8575SOL    HW226625   3.190   5.596   3.600
 8576SOL     OW26626   1.418   4.638   3.257
 8576SOL    HW126627   1.330   4.680   3.232
 8576SOL    HW226628   1.470   4.618   3.175
 8577SOL     OW26629   1.670   1.950   0.566
 8577SOL    HW126630   1.715   1.909   0.487
 8577SOL    HW226631   1.620   2.032   0.537
 8578SOL     OW26632   6.997   6.518   6.478
 8578SOL    HW126633   6.946   6.556   6.400
 8578SOL    HW226634   6.958   6.552   6.563
 8579SOL     OW26635   3.006   6.182   2.480
 8579SOL    HW126636   3.092   6.138   2.505
 8579SOL    HW226637   2.930   6.133   2.523
 8580SOL     OW26638   1.969   0.322   0.924
 8580SOL    HW126639   1.992   0.291   1.017
 8580SOL    HW226640   1.871   0.342   0.919
 8581SOL     OW26641   3.264   4.796   1.221
 8581SOL    HW126642   3.307   4.877   1.262
 8581SOL    HW226643   3.299   4.784   1.128
 8582SOL     OW26644   3.771   4.562   6.083
 8582SOL    HW126645   3.693   4.505   6.107
 8582SOL    HW226646   3.774   4.574   5.984
 8583SOL     OW26647   4.287   0.583   2.614
 8583SOL    HW126648   4.295   0.484   2.598
 8583SOL    HW226649   4.263   0.629   2.529
 8584SOL     OW26650   6.777   1.730   4.836
 8584SOL    HW126651   6.710   1.691   4.899
 8584SOL    HW226652   6.751   1.706   4.742
 8585SOL     OW26653   5.289   2.664   2.626
 8585SOL    HW126654   5.266   2.589   2.689
 8585SOL    HW226655   5.314   2.745   2.679
 8586SOL     OW26656   6.555   5.908   0.408
 8586SOL    HW126657   6.513   5.961   0.334
 8586SOL    HW226658   6.599   5.969   0.473
 8587SOL     OW26659   0.798   1.655   0.040
 8587SOL    HW126660   0.857   1.708   7.001
 8587SOL    HW226661   0.702   1.676   0.021
 8588SOL     OW26662   2.451   1.724   6.459
 8588SOL    HW126663   2.448   1.726   6.359
 8588SOL    HW226664   2.420   1.812   6.495
 8589SOL     OW26665   6.668   2.499   6.813
 8589SOL    HW126666   6.655   2.579   6.871
 8589SOL    HW226667   6.609   2.425   6.845
 8590SOL     OW26668   1.148   0.736   4.879
 8590SOL    HW126669   1.170   0.680   4.799
 8590SOL    HW226670   1.172   0.831   4.861
 8591SOL     OW26671   6.479   4.024   6.415
 8591SOL    HW126672   6.551   3.964   6.378
 8591SOL    HW226673   6.522   4.101   6.463
 8592SOL     OW26674   0.469   1.511   5.637
 8592SOL    HW126675   0.373   1.484   5.626
 8592SOL    HW226676   0.528   1.431   5.625
 8593SOL     OW26677   4.020   1.327   6.753
 8593SOL    HW126678   3.922   1.308   6.756
 8593SOL    HW226679   4.043   1.373   6.667
 8594SOL     OW26680   6.244   3.043   5.915
 8594SOL    HW126681   6.219   3.110   5.845
 8594SOL    HW226682   6.311   2.979   5.878
 8595SOL     OW26683   5.983   6.794   2.986
 8595SOL    HW126684   5.919   6.717   2.982
 8595SOL    HW226685   6.067   6.770   2.939
 8596SOL     OW26686   1.333   1.297   4.075
 8596SOL    HW126687   1.262   1.267   4.011
 8596SOL    HW226688   1.402   1.225   4.083
 8597SOL     OW26689   5.356   3.662   0.103
 8597SOL    HW126690   5.290   3.713   0.158
 8597SOL    HW226691   5.439   3.717   0.091
 8598SOL     OW26692   5.921   6.504   4.591
 8598SOL    HW126693   5.969   6.574   4.539
 8598SOL    HW226694   5.871   6.444   4.529
 8599SOL     OW26695   0.198   3.677   3.677
 8599SOL    HW126696   0.252   3.592   3.683
 8599SOL    HW226697   0.116   3.668   3.734
 8600SOL     OW26698   4.705   1.849   0.757
 8600SOL    HW126699   4.698   1.846   0.857
 8600SOL    HW226700   4.689   1.942   0.725
 8601SOL     OW26701   0.956   6.576   3.297
 8601SOL    HW126702   0.902   6.572   3.213
 8601SOL    HW226703   1.006   6.662   3.301
 8602SOL     OW26704   2.809   6.219   5.091
 8602SOL    HW126705   2.736   6.180   5.035
 8602SOL    HW226706   2.891   6.233   5.035
 8603SOL     OW26707   0.165   7.012   6.764
 8603SOL    HW126708   0.170   6.915   6.786
 8603SOL    HW226709   0.255   0.032   6.775
 8604SOL     OW26710   0.162   4.669   6.117
 8604SOL    HW126711   0.105   4.587   6.107
 8604SOL    HW226712   0.108   4.749   6.092
 8605SOL     OW26713   6.409   4.634   4.286
 8605SOL    HW126714   6.489   4.693   4.298
 8605SOL    HW226715   6.435   4.539   4.303
 8606SOL     OW26716   1.525   2.576   0.491
 8606SOL    HW126717   1.494   2.654   0.437
 8606SOL    HW226718   1.453   2.550   0.555
 8607SOL     OW26719   2.874   4.104   1.330
 8607SOL    HW126720   2.853   4.013   1.295
 8607SOL    HW226721   2.816   4.124   1.408
 8608SOL     OW26722   1.739   5.348   2.656
 8608SOL    HW126723   1.707   5.356   2.750
 8608SOL    HW226724   1.801   5.424   2.635
 8609SOL     OW26725   4.329   1.685   4.302
 8609SOL    HW126726   4.389   1.746   4.251
 8609SOL    HW226727   4.315   1.600   4.251
 8610SOL     OW26728   0.089   6.117   3.334
 8610SOL    HW126729   0.104   6.045   3.402
 8610SOL    HW226730   0.175   6.138   3.288
 8611SOL     OW26731   3.609   1.531   4.856
 8611SOL    HW126732   3.663   1.608   4.822
 8611SOL    HW226733   3.581   1.473   4.780
 8612SOL     OW26734   3.652   4.120   4.068
 8612SOL    HW126735   3.724   4.055   4.045
 8612SOL    HW226736   3.683   4.179   4.143
 8613SOL     OW26737   3.952   3.039   1.772
 8613SOL    HW126738   3.879   3.068   1.710
 8613SOL    HW226739   3.928   3.066   1.866
 8614SOL     OW26740   1.668   1.711   2.804
 8614SOL    HW126741   1.629   1.620   2.817
 8614SOL    HW226742   1.633   1.750   2.719
 8615SOL     OW26743   3.988   1.585   3.987
 8615SOL    HW126744   3.988   1.515   3.916
 8615SOL    HW226745   3.962   1.673   3.947
 8616SOL     OW26746   5.035   4.250   2.729
 8616SOL    HW126747   5.023   4.222   2.633
 8616SOL    HW226748   5.126   4.290   2.739
 8617SOL     OW26749   3.351   0.420   3.670
 8617SOL    HW126750   3.332   0.368   3.586
 8617SOL    HW226751   3.275   0.483   3.688
 8618SOL     OW26752   5.394   4.913   0.851
 8618SOL    HW126753   5.325   4.973   0.890
 8618SOL    HW226754   5.477   4.965   0.831
 8619SOL     OW26755   4.837   5.450   0.766
 8619SOL    HW126756   4.741   5.478   0.774
 8619SOL    HW226757   4.862   5.447   0.669
 8620SOL     OW26758   2.314   0.391   4.787
 8620SOL    HW126759   2.408   0.421   4.775
 8620SOL    HW226760   2.300   0.362   4.882
 8621SOL     OW26761   5.717   3.029   1.294
 8621SOL    HW126762   5.760   3.069   1.213
 8621SOL    HW226763   5.786   3.015   1.366
 8622SOL     OW26764   6.577   5.138   3.081
 8622SOL    HW126765   6.619   5.112   3.168
 8622SOL    HW226766   6.605   5.073   3.011
 8623SOL     OW26767   0.954   3.352   3.867
 8623SOL    HW126768   1.010   3.273   3.892
 8623SOL    HW226769   1.007   3.411   3.806
 8624SOL     OW26770   3.109   3.759   4.895
 8624SOL    HW126771   3.064   3.846   4.877
 8624SOL    HW226772   3.059   3.685   4.850
 8625SOL     OW26773   3.896   2.629   5.717
 8625SOL    HW126774   3.825   2.568   5.752
 8625SOL    HW226775   3.961   2.649   5.790
 8626SOL     OW26776   3.892   3.969   0.728
 8626SOL    HW126777   3.804   3.926   0.749
 8626SOL    HW226778   3.964   3.900   0.730
 8627SOL     OW26779   2.044   0.453   1.824
 8627SOL    HW126780   2.091   0.504   1.896
 8627SOL    HW226781   1.968   0.508   1.788
 8628SOL     OW26782   0.717   6.540   0.836
 8628SOL    HW126783   0.793   6.596   0.802
 8628SOL    HW226784   0.718   6.539   0.936
 8629SOL     OW26785   0.395   6.513   5.865
 8629SOL    HW126786   0.300   6.540   5.879
 8629SOL    HW226787   0.450   6.541   5.944
 8630SOL     OW26788   5.452   3.036   2.479
 8630SOL    HW126789   5.431   3.095   2.402
 8630SOL    HW226790   5.428   2.941   2.456
 8631SOL     OW26791   2.603   7.022   6.999
 8631SOL    HW126792   2.543   7.003   6.921
 8631SOL    HW226793   2.696   0.016   6.966
 8632SOL     OW26794   5.449   5.196   5.803
 8632SOL    HW126795   5.428   5.112   5.854
 8632SOL    HW226796   5.382   5.209   5.730
 8633SOL     OW26797   5.560   4.272   5.954
 8633SOL    HW126798   5.494   4.323   6.010
 8633SOL    HW226799   5.516   4.242   5.870
 8634SOL     OW26800   4.111   3.297   0.283
 8634SOL    HW126801   4.151   3.333   0.368
 8634SOL    HW226802   4.059   3.370   0.239
 8635SOL     OW26803   5.561   2.212   6.009
 8635SOL    HW126804   5.477   2.256   5.976
 8635SOL    HW226805   5.549   2.183   6.104
 8636SOL     OW26806   4.857   0.477   1.848
 8636SOL    HW126807   4.823   0.409   1.913
 8636SOL    HW226808   4.883   0.560   1.896
 8637SOL     OW26809   1.505   2.199   0.571
 8637SOL    HW126810   1.480   2.224   0.477
 8637SOL    HW226811   1.604   2.201   0.580
 8638SOL     OW26812   4.928   2.355   4.021
 8638SOL    HW126813   4.862   2.377   3.949
 8638SOL    HW226814   4.881   2.353   4.109
 8639SOL     OW26815   3.591   3.873   0.204
 8639SOL    HW126816   3.651   3.948   0.180
 8639SOL    HW226817   3.628   3.787   0.167
 8640SOL     OW26818   2.903   3.509   1.136
 8640SOL    HW126819   2.945   3.426   1.100
 8640SOL    HW226820   2.844   3.486   1.213
 8641SOL     OW26821   4.324   6.144   2.364
 8641SOL    HW126822   4.378   6.212   2.314
 8641SOL    HW226823   4.284   6.080   2.299
 8642SOL     OW26824   1.037   6.216   3.617
 8642SOL    HW126825   0.960   6.233   3.554
 8642SOL    HW226826   1.123   6.239   3.572
 8643SOL     OW26827   3.948   6.147   0.888
 8643SOL    HW126828   3.898   6.179   0.968
 8643SOL    HW226829   4.000   6.223   0.849
 8644SOL     OW26830   6.416   1.850   6.452
 8644SOL    HW126831   6.469   1.801   6.521
 8644SOL    HW226832   6.468   1.853   6.366
 8645SOL     OW26833   5.828   4.276   3.030
 8645SOL    HW126834   5.890   4.332   2.975
 8645SOL    HW226835   5.764   4.335   3.079
 8646SOL     OW26836   0.156   2.444   5.617
 8646SOL    HW126837   0.173   2.348   5.596
 8646SOL    HW226838   0.083   2.450   5.685
 8647SOL     OW26839   2.132   5.731   1.986
 8647SOL    HW126840   2.044   5.684   1.974
 8647SOL    HW226841   2.122   5.827   1.958
 8648SOL     OW26842   5.066   5.154   0.429
 8648SOL    HW126843   5.101   5.215   0.501
 8648SOL    HW226844   5.040   5.067   0.469
 8649SOL     OW26845   5.145   0.095   0.993
 8649SOL    HW126846   5.088   0.167   0.955
 8649SOL    HW226847   5.223   0.077   0.933
 8650SOL     OW26848   2.389   6.536   4.801
 8650SOL    HW126849   2.319   6.578   4.858
 8650SOL    HW226850   2.346   6.493   4.722
 8651SOL     OW26851   3.499   1.756   1.110
 8651SOL    HW126852   3.449   1.719   1.188
 8651SOL    HW226853   3.449   1.834   1.072
 8652SOL     OW26854   1.014   2.758   3.682
 8652SOL    HW126855   1.090   2.793   3.627
 8652SOL    HW226856   0.941   2.727   3.621
 8653SOL     OW26857   6.643   1.693   6.574
 8653SOL    HW126858   6.660   1.623   6.643
 8653SOL    HW226859   6.714   1.764   6.581
 8654SOL     OW26860   0.521   4.787   1.957
 8654SOL    HW126861   0.424   4.766   1.967
 8654SOL    HW226862   0.570   4.759   2.040
 8655SOL     OW26863   0.314   0.168   4.807
 8655SOL    HW126864   0.314   0.073   4.773
 8655SOL    HW226865   0.222   0.207   4.796
 8656SOL     OW26866   5.327   0.050   1.192
 8656SOL    HW126867   5.389   7.005   1.151
 8656SOL    HW226868   5.256   0.074   1.126
 8657SOL     OW26869   4.224   1.265   3.006
 8657SOL    HW126870   4.125   1.252   3.000
 8657SOL    HW226871   4.270   1.193   2.954
 8658SOL     OW26872   6.405   4.340   0.675
 8658SOL    HW126873   6.313   4.360   0.640
 8658SOL    HW226874   6.398   4.317   0.772
 8659SOL     OW26875   4.061   1.109   2.637
 8659SOL    HW126876   3.979   1.093   2.693
 8659SOL    HW226877   4.109   1.190   2.669
 8660SOL     OW26878   6.505   3.692   1.648
 8660SOL    HW126879   6.498   3.782   1.691
 8660SOL    HW226880   6.465   3.623   1.708
 8661SOL     OW26881   6.474   4.080   2.888
 8661SOL    HW126882   6.475   4.157   2.952
 8661SOL    HW226883   6.393   4.024   2.904
 8662SOL     OW26884   2.359   4.341   3.234
 8662SOL    HW126885   2.349   4.243   3.249
 8662SOL    HW226886   2.285   4.389   3.281
 8663SOL     OW26887   4.060   5.451   2.458
 8663SOL    HW126888   4.132   5.401   2.409
 8663SOL    HW226889   3.970   5.420   2.425
 8664SOL     OW26890   3.346   5.853   4.016
 8664SOL    HW126891   3.399   5.895   3.943
 8664SOL    HW226892   3.403   5.787   4.065
 8665SOL     OW26893   5.562   3.257   7.007
 8665SOL    HW126894   5.502   3.298   6.938
 8665SOL    HW226895   5.524   3.274   0.076
 8666SOL     OW26896   4.567   6.886   2.245
 8666SOL    HW126897   4.617   6.877   2.331
 8666SOL    HW226898   4.593   6.811   2.184
 8667SOL     OW26899   5.639   1.885   3.350
 8667SOL    HW126900   5.616   1.855   3.442
 8667SOL    HW226901   5.679   1.976   3.354
 8668SOL     OW26902   5.300   2.637   4.594
 8668SOL    HW126903   5.209   2.652   4.633
 8668SOL    HW226904   5.353   2.722   4.597
 8669SOL     OW26905   6.327   6.033   5.874
 8669SOL    HW126906   6.342   6.130   5.857
 8669SOL    HW226907   6.400   5.997   5.933
 8670SOL     OW26908   6.280   4.210   6.087
 8670SOL    HW126909   6.313   4.303   6.102
 8670SOL    HW226910   6.358   4.151   6.065
 8671SOL     OW26911   0.314   2.401   2.794
 8671SOL    HW126912   0.249   2.403   2.718
 8671SOL    HW226913   0.341   2.495   2.817
 8672SOL     OW26914   0.620   0.869   3.144
 8672SOL    HW126915   0.555   0.943   3.126
 8672SOL    HW226916   0.693   0.902   3.203
 8673SOL     OW26917   0.634   1.648   1.503
 8673SOL    HW126918   0.606   1.651   1.407
 8673SOL    HW226919   0.553   1.633   1.561
 8674SOL     OW26920   6.943   4.077   3.688
 8674SOL    HW126921   6.871   4.020   3.726
 8674SOL    HW226922   6.940   4.072   3.588
 8675SOL     OW26923   3.393   2.314   5.395
 8675SOL    HW126924   3.418   2.219   5.372
 8675SOL    HW226925   3.320   2.344   5.335
 8676SOL     OW26926   5.465   1.264   0.601
 8676SOL    HW126927   5.384   1.272   0.660
 8676SOL    HW226928   5.546   1.292   0.652
 8677SOL     OW26929   2.515   6.706   6.097
 8677SOL    HW126930   2.531   6.765   6.018
 8677SOL    HW226931   2.587   6.637   6.103
 8678SOL     OW26932   1.802   2.350   0.695
 8678SOL    HW126933   1.855   2.361   0.780
 8678SOL    HW226934   1.849   2.285   0.635
 8679SOL     OW26935   1.310   1.895   5.374
 8679SOL    HW126936   1.366   1.892   5.291
 8679SOL    HW226937   1.367   1.876   5.453
 8680SOL     OW26938   6.701   1.099   0.176
 8680SOL    HW126939   6.734   1.008   0.202
 8680SOL    HW226940   6.776   1.152   0.136
 8681SOL     OW26941   5.383   6.255   1.616
 8681SOL    HW126942   5.313   6.327   1.609
 8681SOL    HW226943   5.380   6.215   1.707
 8682SOL     OW26944   1.791   0.514   0.768
 8682SOL    HW126945   1.826   0.600   0.806
 8682SOL    HW226946   1.839   0.493   0.683
 8683SOL     OW26947   1.846   4.478   4.583
 8683SOL    HW126948   1.832   4.495   4.680
 8683SOL    HW226949   1.782   4.407   4.552
 8684SOL     OW26950   1.154   3.819   3.877
 8684SOL    HW126951   1.060   3.787   3.885
 8684SOL    HW226952   1.203   3.762   3.811
 8685SOL     OW26953   5.167   2.388   4.832
 8685SOL    HW126954   5.165   2.367   4.734
 8685SOL    HW226955   5.171   2.303   4.884
 8686SOL     OW26956   0.928   5.682   2.921
 8686SOL    HW126957   0.970   5.667   3.011
 8686SOL    HW226958   0.829   5.675   2.930
 8687SOL     OW26959   4.953   4.280   6.069
 8687SOL    HW126960   4.982   4.371   6.100
 8687SOL    HW226961   4.944   4.279   5.970
 8688SOL     OW26962   0.596   3.973   5.802
 8688SOL    HW126963   0.554   3.920   5.728
 8688SOL    HW226964   0.677   4.020   5.767
 8689SOL     OW26965   3.820   3.397   0.075
 8689SOL    HW126966   3.784   3.324   0.133
 8689SOL    HW226967   3.772   3.482   0.096
 8690SOL     OW26968   1.616   2.482   2.919
 8690SOL    HW126969   1.568   2.422   2.856
 8690SOL    HW226970   1.673   2.428   2.980
 8691SOL     OW26971   3.354   2.668   5.353
 8691SOL    HW126972   3.322   2.590   5.300
 8691SOL    HW226973   3.350   2.647   5.450
 8692SOL     OW26974   4.692   2.006   5.121
 8692SOL    HW126975   4.666   1.928   5.178
 8692SOL    HW226976   4.622   2.021   5.051
 8693SOL     OW26977   6.607   6.718   6.440
 8693SOL    HW126978   6.542   6.774   6.389
 8693SOL    HW226979   6.563   6.634   6.471
 8694SOL     OW26980   6.179   3.437   4.773
 8694SOL    HW126981   6.272   3.471   4.788
 8694SOL    HW226982   6.117   3.479   4.840
 8695SOL     OW26983   4.017   4.179   6.092
 8695SOL    HW126984   3.993   4.129   6.175
 8695SOL    HW226985   4.051   4.114   6.024
 8696SOL     OW26986   2.685   5.022   5.946
 8696SOL    HW126987   2.745   4.955   5.904
 8696SOL    HW226988   2.645   5.081   5.875
 8697SOL     OW26989   1.420   3.532   5.486
 8697SOL    HW126990   1.515   3.523   5.517
 8697SOL    HW226991   1.395   3.629   5.483
 8698SOL     OW26992   5.459   5.748   4.942
 8698SOL    HW126993   5.378   5.699   4.911
 8698SOL    HW226994   5.433   5.824   5.002
 8699SOL     OW26995   1.280   2.847   6.552
 8699SOL    HW126996   1.219   2.777   6.515
 8699SOL    HW226997   1.227   2.909   6.611
 8700SOL     OW26998   1.182   0.150   4.738
 8700SOL    HW126999   1.202   0.086   4.812
 8700SOL    HW227000   1.267   0.188   4.702
 8701SOL     OW27001   0.414   2.354   0.357
 8701SOL    HW127002   0.389   2.418   0.430
 8701SOL    HW227003   0.479   2.398   0.296
 8702SOL     OW27004   5.096   4.995   1.990
 8702SOL    HW127005   5.109   4.929   1.917
 8702SOL    HW227006   5.110   5.088   1.955
 8703SOL     OW27007   2.315   5.160   1.300
 8703SOL    HW127008   2.409   5.193   1.290
 8703SOL    HW227009   2.267   5.214   1.370
 8704SOL     OW27010   1.268   0.627   5.112
 8704SOL    HW127011   1.223   0.665   5.032
 8704SOL    HW227012   1.204   0.627   5.189
 8705SOL     OW27013   4.369   2.291   6.734
 8705SOL    HW127014   4.449   2.244   6.697
 8705SOL    HW227015   4.398   2.374   6.781
 8706SOL     OW27016   4.671   3.054   6.458
 8706SOL    HW127017   4.616   3.116   6.514
 8706SOL    HW227018   4.668   3.084   6.363
 8707SOL     OW27019   1.536   2.182   5.288
 8707SOL    HW127020   1.564   2.102   5.342
 8707SOL    HW227021   1.501   2.253   5.348
 8708SOL     OW27022   5.848   2.390   0.860
 8708SOL    HW127023   5.911   2.401   0.783
 8708SOL    HW227024   5.839   2.477   0.909
 8709SOL     OW27025   6.315   0.129   6.027
 8709SOL    HW127026   6.222   0.157   6.049
 8709SOL    HW227027   6.354   0.192   5.960
 8710SOL     OW27028   2.625   1.131   3.276
 8710SOL    HW127029   2.567   1.156   3.198
 8710SOL    HW227030   2.586   1.169   3.360
 8711SOL     OW27031   1.559   0.954   1.490
 8711SOL    HW127032   1.499   0.928   1.566
 8711SOL    HW227033   1.631   1.015   1.524
 8712SOL     OW27034   1.770   3.793   5.811
 8712SOL    HW127035   1.754   3.862   5.740
 8712SOL    HW227036   1.691   3.788   5.871
 8713SOL     OW27037   0.097   4.782   1.681
 8713SOL    HW127038   0.096   4.860   1.744
 8713SOL    HW227039   0.047   4.806   1.598
 8714SOL     OW27040   0.441   5.430   6.461
 8714SOL    HW127041   0.461   5.427   6.363
 8714SOL    HW227042   0.410   5.340   6.491
 8715SOL     OW27043   2.223   3.281   1.454
 8715SOL    HW127044   2.222   3.285   1.354
 8715SOL    HW227045   2.245   3.188   1.483
 8716SOL     OW27046   6.495   6.794   1.685
 8716SOL    HW127047   6.568   6.855   1.653
 8716SOL    HW227048   6.459   6.741   1.608
 8717SOL     OW27049   2.966   4.007   0.579
 8717SOL    HW127050   3.007   4.080   0.634
 8717SOL    HW227051   2.868   4.003   0.595
 8718SOL     OW27052   2.171   4.767   6.138
 8718SOL    HW127053   2.268   4.748   6.123
 8718SOL    HW227054   2.149   4.858   6.104
 8719SOL     OW27055   3.651   0.559   5.402
 8719SOL    HW127056   3.734   0.520   5.363
 8719SOL    HW227057   3.661   0.566   5.502
 8720SOL     OW27058   6.834   5.224   5.109
 8720SOL    HW127059   6.773   5.288   5.157
 8720SOL    HW227060   6.781   5.145   5.078
 8721SOL     OW27061   0.589   0.264   6.620
 8721SOL    HW127062   0.661   0.328   6.646
 8721SOL    HW227063   0.625   0.201   6.550
 8722SOL     OW27064   3.411   1.303   1.484
 8722SOL    HW127065   3.324   1.295   1.436
 8722SOL    HW227066   3.396   1.333   1.577
 8723SOL     OW27067   4.028   0.510   2.448
 8723SOL    HW127068   4.091   0.586   2.433
 8723SOL    HW227069   4.015   0.460   2.362
 8724SOL     OW27070   3.989   1.367   4.418
 8724SOL    HW127071   3.913   1.308   4.391
 8724SOL    HW227072   4.047   1.386   4.339
 8725SOL     OW27073   6.981   6.545   3.680
 8725SOL    HW127074   0.018   6.467   3.658
 8725SOL    HW227075   6.900   6.542   3.622
 8726SOL     OW27076   0.243   0.524   1.028
 8726SOL    HW127077   0.242   0.447   1.091
 8726SOL    HW227078   0.309   0.592   1.059
 8727SOL     OW27079   4.512   6.052   6.183
 8727SOL    HW127080   4.605   6.031   6.214
 8727SOL    HW227081   4.492   5.999   6.100
 8728SOL     OW27082   6.665   0.074   3.708
 8728SOL    HW127083   6.579   0.075   3.657
 8728SOL    HW227084   6.707   0.165   3.704
 8729SOL     OW27085   4.145   6.239   6.335
 8729SOL    HW127086   4.159   6.209   6.430
 8729SOL    HW227087   4.108   6.164   6.281
 8730SOL     OW27088   4.760   5.335   1.375
 8730SOL    HW127089   4.680   5.396   1.365
 8730SOL    HW227090   4.728   5.243   1.396
 8731SOL     OW27091   0.312   1.548   3.525
 8731SOL    HW127092   0.237   1.605   3.558
 8731SOL    HW227093   0.286   1.504   3.439
 8732SOL     OW27094   5.548   0.027   0.571
 8732SOL    HW127095   5.588   0.032   0.480
 8732SOL    HW227096   5.612   7.003   0.633
 8733SOL     OW27097   6.217   5.295   1.785
 8733SOL    HW127098   6.307   5.281   1.745
 8733SOL    HW227099   6.221   5.368   1.852
 8734SOL     OW27100   6.792   3.646   2.454
 8734SOL    HW127101   6.737   3.563   2.464
 8734SOL    HW227102   6.867   3.644   2.520
 8735SOL     OW27103   0.582   3.680   5.309
 8735SOL    HW127104   0.497   3.635   5.338
 8735SOL    HW227105   0.621   3.632   5.231
 8736SOL     OW27106   1.402   6.027   3.886
 8736SOL    HW127107   1.343   6.022   3.805
 8736SOL    HW227108   1.493   5.993   3.863
 8737SOL     OW27109   1.989   6.630   0.046
 8737SOL    HW127110   2.028   6.688   0.117
 8737SOL    HW227111   2.037   6.542   0.044
 8738SOL     OW27112   1.213   2.879   3.534
 8738SOL    HW127113   1.279   2.831   3.477
 8738SOL    HW227114   1.261   2.929   3.606
 8739SOL     OW27115   4.958   4.077   5.824
 8739SOL    HW127116   5.046   4.035   5.844
 8739SOL    HW227117   4.890   4.045   5.891
 8740SOL     OW27118   2.846   0.483   5.337
 8740SOL    HW127119   2.775   0.521   5.278
 8740SOL    HW227120   2.870   0.391   5.305
 8741SOL     OW27121   0.967   0.599   2.422
 8741SOL    HW127122   0.942   0.502   2.417
 8741SOL    HW227123   0.918   0.643   2.497
 8742SOL     OW27124   2.625   1.356   2.248
 8742SOL    HW127125   2.593   1.426   2.312
 8742SOL    HW227126   2.716   1.381   2.215
 8743SOL     OW27127   0.338   2.023   1.667
 8743SOL    HW127128   0.437   2.027   1.658
 8743SOL    HW227129   0.312   2.042   1.762
 8744SOL     OW27130   3.210   4.294   5.976
 8744SOL    HW127131   3.197   4.267   5.880
 8744SOL    HW227132   3.301   4.333   5.988
 8745SOL     OW27133   5.567   1.015   6.064
 8745SOL    HW127134   5.662   1.016   6.095
 8745SOL    HW227135   5.510   0.970   6.133
 8746SOL     OW27136   4.531   5.327   4.777
 8746SOL    HW127137   4.488   5.237   4.785
 8746SOL    HW227138   4.509   5.367   4.688
 8747SOL     OW27139   6.974   0.490   1.818
 8747SOL    HW127140   0.022   0.557   1.844
 8747SOL    HW227141   7.018   0.415   1.768
 8748SOL     OW27142   6.905   1.873   3.907
 8748SOL    HW127143   6.971   1.801   3.930
 8748SOL    HW227144   6.827   1.868   3.968
 8749SOL     OW27145   2.552   1.236   3.795
 8749SOL    HW127146   2.565   1.232   3.894
 8749SOL    HW227147   2.525   1.329   3.768
 8750SOL     OW27148   4.312   3.488   6.946
 8750SOL    HW127149   4.361   3.575   6.938
 8750SOL    HW227150   4.216   3.506   6.964
 8751SOL     OW27151   1.359   6.375   0.937
 8751SOL    HW127152   1.399   6.338   1.021
 8751SOL    HW227153   1.260   6.379   0.947
 8752SOL     OW27154   5.726   3.502   6.458
 8752SOL    HW127155   5.679   3.548   6.383
 8752SOL    HW227156   5.764   3.571   6.520
 8753SOL     OW27157   2.564   2.751   1.010
 8753SOL    HW127158   2.635   2.747   0.940
 8753SOL    HW227159   2.475   2.763   0.966
 8754SOL     OW27160   2.087   5.024   6.782
 8754SOL    HW127161   2.141   4.951   6.739
 8754SOL    HW227162   2.111   5.031   6.879
 8755SOL     OW27163   0.091   2.553   1.559
 8755SOL    HW127164   0.155   2.618   1.601
 8755SOL    HW227165   0.141   2.472   1.530
 8756SOL     OW27166   1.967   1.713   1.732
 8756SOL    HW127167   2.059   1.698   1.769
 8756SOL    HW227168   1.911   1.632   1.750
 8757SOL     OW27169   5.755   5.832   5.301
 8757SOL    HW127170   5.694   5.789   5.368
 8757SOL    HW227171   5.850   5.815   5.326
 8758SOL     OW27172   3.147   5.224   4.938
 8758SOL    HW127173   3.114   5.201   4.846
 8758SOL    HW227174   3.213   5.299   4.931
 8759SOL     OW27175   5.951   0.533   0.328
 8759SOL    HW127176   5.887   0.457   0.338
 8759SOL    HW227177   5.901   0.618   0.317
 8760SOL     OW27178   2.652   2.363   3.982
 8760SOL    HW127179   2.607   2.429   3.922
 8760SOL    HW227180   2.740   2.399   4.012
 8761SOL     OW27181   5.898   1.587   2.690
 8761SOL    HW127182   5.842   1.570   2.609
 8761SOL    HW227183   5.888   1.512   2.755
 8762SOL     OW27184   2.011   5.041   3.073
 8762SOL    HW127185   1.976   4.948   3.059
 8762SOL    HW227186   2.099   5.051   3.028
 8763SOL     OW27187   0.997   1.038   6.905
 8763SOL    HW127188   1.059   1.019   6.829
 8763SOL    HW227189   1.029   0.991   6.987
 8764SOL     OW27190   2.797   5.008   5.247
 8764SOL    HW127191   2.870   5.050   5.193
 8764SOL    HW227192   2.712   5.059   5.231
 8765SOL     OW27193   5.232   0.449   4.492
 8765SOL    HW127194   5.303   0.504   4.536
 8765SOL    HW227195   5.210   0.487   4.403
 8766SOL     OW27196   4.829   5.869   5.568
 8766SOL    HW127197   4.815   5.966   5.550
 8766SOL    HW227198   4.777   5.842   5.649
 8767SOL     OW27199   2.313   1.438   4.306
 8767SOL    HW127200   2.293   1.460   4.210
 8767SOL    HW227201   2.320   1.523   4.358
 8768SOL     OW27202   6.043   1.677   6.662
 8768SOL    HW127203   6.021   1.723   6.748
 8768SOL    HW227204   6.131   1.629   6.671
 8769SOL     OW27205   6.592   0.185   0.423
 8769SOL    HW127206   6.538   0.102   0.433
 8769SOL    HW227207   6.654   0.176   0.346
 8770SOL     OW27208   5.051   3.642   0.231
 8770SOL    HW127209   4.982   3.639   0.304
 8770SOL    HW227210   5.037   3.564   0.170
 8771SOL     OW27211   0.497   3.196   0.163
 8771SOL    HW127212   0.439   3.163   0.088
 8771SOL    HW227213   0.570   3.130   0.181
 8772SOL     OW27214   6.557   0.043   4.417
 8772SOL    HW127215   6.564   7.011   4.332
 8772SOL    HW227216   6.619   0.121   4.412
 8773SOL     OW27217   0.028   1.047   4.028
 8773SOL    HW127218   0.069   1.136   4.049
 8773SOL    HW227219   6.978   1.026   4.094
 8774SOL     OW27220   1.906   1.813   0.654
 8774SOL    HW127221   1.830   1.843   0.597
 8774SOL    HW227222   1.969   1.890   0.668
 8775SOL     OW27223   5.800   2.238   3.972
 8775SOL    HW127224   5.723   2.297   3.998
 8775SOL    HW227225   5.766   2.164   3.913
 8776SOL     OW27226   4.147   3.027   0.233
 8776SOL    HW127227   4.133   3.125   0.244
 8776SOL    HW227228   4.185   2.990   0.318
 8777SOL     OW27229   0.102   1.745   3.529
 8777SOL    HW127230   0.117   1.680   3.454
 8777SOL    HW227231   0.041   1.818   3.499
 8778SOL     OW27232   2.852   5.018   0.032
 8778SOL    HW127233   2.911   4.950   7.008
 8778SOL    HW227234   2.770   4.973   0.067
 8779SOL     OW27235   4.361   4.695   3.764
 8779SOL    HW127236   4.427   4.769   3.774
 8779SOL    HW227237   4.268   4.732   3.772
 8780SOL     OW27238   6.237   5.006   3.864
 8780SOL    HW127239   6.268   5.090   3.819
 8780SOL    HW227240   6.305   4.976   3.930
 8781SOL     OW27241   2.971   0.169   1.711
 8781SOL    HW127242   2.912   0.244   1.680
 8781SOL    HW227243   3.039   0.149   1.641
 8782SOL     OW27244   5.127   2.150   1.118
 8782SOL    HW127245   5.179   2.125   1.200
 8782SOL    HW227246   5.172   2.226   1.072
 8783SOL     OW27247   5.228   3.599   4.801
 8783SOL    HW127248   5.157   3.612   4.872
 8783SOL    HW227249   5.205   3.655   4.722
 8784SOL     OW27250   5.379   0.781   1.323
 8784SOL    HW127251   5.455   0.838   1.355
 8784SOL    HW227252   5.352   0.718   1.395
 8785SOL     OW27253   0.522   5.260   5.573
 8785SOL    HW127254   0.470   5.345   5.562
 8785SOL    HW227255   0.521   5.232   5.669
 8786SOL     OW27256   4.596   1.894   2.689
 8786SOL    HW127257   4.662   1.969   2.687
 8786SOL    HW227258   4.506   1.930   2.714
 8787SOL     OW27259   3.689   6.272   0.772
 8787SOL    HW127260   3.614   6.237   0.828
 8787SOL    HW227261   3.763   6.304   0.831
 8788SOL     OW27262   0.801   6.956   4.214
 8788SOL    HW127263   0.751   6.949   4.127
 8788SOL    HW227264   0.814   6.865   4.252
 8789SOL     OW27265   7.005   2.642   6.070
 8789SOL    HW127266   6.905   2.641   6.064
 8789SOL    HW227267   0.015   2.555   6.107
 8790SOL     OW27268   4.848   3.391   5.633
 8790SOL    HW127269   4.787   3.427   5.703
 8790SOL    HW227270   4.881   3.301   5.661
 8791SOL     OW27271   3.935   5.594   4.823
 8791SOL    HW127272   3.880   5.571   4.903
 8791SOL    HW227273   3.951   5.511   4.769
 8792SOL     OW27274   4.760   4.617   1.447
 8792SOL    HW127275   4.723   4.641   1.536
 8792SOL    HW227276   4.782   4.700   1.396
 8793SOL     OW27277   6.965   5.334   4.493
 8793SOL    HW127278   6.972   5.379   4.582
 8793SOL    HW227279   0.029   5.345   4.443
 8794SOL     OW27280   0.311   0.762   2.312
 8794SOL    HW127281   0.296   0.673   2.270
 8794SOL    HW227282   0.314   0.832   2.241
 8795SOL     OW27283   1.191   6.120   6.237
 8795SOL    HW127284   1.196   6.150   6.142
 8795SOL    HW227285   1.230   6.028   6.245
 8796SOL     OW27286   6.547   3.601   3.305
 8796SOL    HW127287   6.502   3.683   3.270
 8796SOL    HW227288   6.528   3.523   3.246
 8797SOL     OW27289   4.979   0.128   4.134
 8797SOL    HW127290   4.965   0.221   4.103
 8797SOL    HW227291   4.924   0.112   4.217
 8798SOL     OW27292   3.200   6.693   5.670
 8798SOL    HW127293   3.178   6.651   5.582
 8798SOL    HW227294   3.141   6.773   5.685
 8799SOL     OW27295   0.776   4.908   2.296
 8799SOL    HW127296   0.843   4.945   2.231
 8799SOL    HW227297   0.824   4.854   2.365
 8800SOL     OW27298   0.218   5.597   5.448
 8800SOL    HW127299   0.313   5.625   5.454
 8800SOL    HW227300   0.208   5.505   5.485
 8801SOL     OW27301   5.662   3.083   5.622
 8801SOL    HW127302   5.608   3.024   5.563
 8801SOL    HW227303   5.747   3.109   5.575
 8802SOL     OW27304   1.463   6.843   6.315
 8802SOL    HW127305   1.465   6.943   6.318
 8802SOL    HW227306   1.547   6.810   6.273
 8803SOL     OW27307   6.325   6.585   6.866
 8803SOL    HW127308   6.236   6.549   6.840
 8803SOL    HW227309   6.331   6.682   6.842
 8804SOL     OW27310   1.435   6.865   2.771
 8804SOL    HW127311   1.404   6.960   2.774
 8804SOL    HW227312   1.356   6.804   2.766
 8805SOL     OW27313   5.811   4.867   3.701
 8805SOL    HW127314   5.715   4.854   3.677
 8805SOL    HW227315   5.817   4.907   3.793
 8806SOL     OW27316   2.209   0.417   0.788
 8806SOL    HW127317   2.236   0.494   0.846
 8806SOL    HW227318   2.116   0.388   0.812
 8807SOL     OW27319   4.820   2.685   1.527
 8807SOL    HW127320   4.831   2.735   1.441
 8807SOL    HW227321   4.728   2.699   1.563
 8808SOL     OW27322   2.132   2.941   0.129
 8808SOL    HW127323   2.055   2.886   0.097
 8808SOL    HW227324   2.201   2.882   0.172
 8809SOL     OW27325   0.117   4.009   2.528
 8809SOL    HW127326   0.146   3.993   2.622
 8809SOL    HW227327   0.049   4.082   2.526
 8810SOL     OW27328   1.056   1.379   5.819
 8810SOL    HW127329   0.965   1.357   5.782
 8810SOL    HW227330   1.060   1.477   5.840
 8811SOL     OW27331   3.840   5.356   2.378
 8811SOL    HW127332   3.843   5.315   2.287
 8811SOL    HW227333   3.749   5.342   2.418
 8812SOL     OW27334   4.393   1.409   6.016
 8812SOL    HW127335   4.468   1.402   5.951
 8812SOL    HW227336   4.375   1.319   6.056
 8813SOL     OW27337   1.879   4.046   3.070
 8813SOL    HW127338   1.891   3.990   3.152
 8813SOL    HW227339   1.963   4.096   3.052
 8814SOL     OW27340   5.235   0.582   5.800
 8814SOL    HW127341   5.310   0.532   5.757
 8814SOL    HW227342   5.204   0.534   5.881
 8815SOL     OW27343   5.739   1.706   0.149
 8815SOL    HW127344   5.827   1.753   0.153
 8815SOL    HW227345   5.718   1.683   0.054
 8816SOL     OW27346   1.240   6.289   4.729
 8816SOL    HW127347   1.248   6.305   4.828
 8816SOL    HW227348   1.308   6.221   4.702
 8817SOL     OW27349   1.625   2.963   3.402
 8817SOL    HW127350   1.688   3.041   3.406
 8817SOL    HW227351   1.531   2.996   3.405
 8818SOL     OW27352   1.091   0.622   5.460
 8818SOL    HW127353   1.095   0.700   5.398
 8818SOL    HW227354   1.008   0.570   5.443
 8819SOL     OW27355   5.279   4.333   6.194
 8819SOL    HW127356   5.246   4.240   6.183
 8819SOL    HW227357   5.218   4.396   6.146
 8820SOL     OW27358   3.230   0.395   4.908
 8820SOL    HW127359   3.263   0.480   4.869
 8820SOL    HW227360   3.301   0.355   4.966
 8821SOL     OW27361   6.794   4.318   6.345
 8821SOL    HW127362   6.716   4.337   6.286
 8821SOL    HW227363   6.761   4.272   6.428
 8822SOL     OW27364   6.997   6.889   4.111
 8822SOL    HW127365   6.904   6.870   4.080
 8822SOL    HW227366   0.037   6.887   4.033
 8823SOL     OW27367   4.369   1.257   2.630
 8823SOL    HW127368   4.316   1.283   2.550
 8823SOL    HW227369   4.378   1.335   2.692
 8824SOL     OW27370   1.844   0.646   1.783
 8824SOL    HW127371   1.911   0.717   1.764
 8824SOL    HW227372   1.787   0.630   1.702
 8825SOL     OW27373   6.883   6.206   0.175
 8825SOL    HW127374   6.954   6.136   0.178
 8825SOL    HW227375   6.801   6.168   0.131
 8826SOL     OW27376   1.466   3.842   0.891
 8826SOL    HW127377   1.385   3.891   0.858
 8826SOL    HW227378   1.447   3.801   0.980
 8827SOL     OW27379   4.285   0.202   2.347
 8827SOL    HW127380   4.228   0.199   2.264
 8827SOL    HW227381   4.370   0.251   2.327
 8828SOL     OW27382   3.401   2.869   6.119
 8828SOL    HW127383   3.343   2.946   6.144
 8828SOL    HW227384   3.453   2.838   6.198
 8829SOL     OW27385   6.267   1.198   1.761
 8829SOL    HW127386   6.253   1.290   1.797
 8829SOL    HW227387   6.256   1.132   1.835
 8830SOL     OW27388   2.920   0.790   3.129
 8830SOL    HW127389   2.931   0.693   3.150
 8830SOL    HW227390   2.932   0.805   3.031
 8831SOL     OW27391   0.070   2.797   1.866
 8831SOL    HW127392   0.002   2.867   1.843
 8831SOL    HW227393   0.126   2.828   1.942
 8832SOL     OW27394   5.873   1.111   4.506
 8832SOL    HW127395   5.968   1.082   4.512
 8832SOL    HW227396   5.849   1.127   4.410
 8833SOL     OW27397   4.515   2.563   1.362
 8833SOL    HW127398   4.474   2.520   1.281
 8833SOL    HW227399   4.570   2.496   1.411
 8834SOL     OW27400   5.653   4.018   5.462
 8834SOL    HW127401   5.623   4.086   5.529
 8834SOL    HW227402   5.712   4.062   5.394
 8835SOL     OW27403   0.437   0.514   6.175
 8835SOL    HW127404   0.383   0.529   6.092
 8835SOL    HW227405   0.376   0.488   6.249
 8836SOL     OW27406   4.778   1.944   1.306
 8836SOL    HW127407   4.796   1.986   1.217
 8836SOL    HW227408   4.780   2.014   1.377
 8837SOL     OW27409   4.522   6.890   0.486
 8837SOL    HW127410   4.502   6.915   0.392
 8837SOL    HW227411   4.459   6.937   0.548
 8838SOL     OW27412   1.300   3.808   3.022
 8838SOL    HW127413   1.371   3.856   2.972
 8838SOL    HW227414   1.339   3.728   3.067
 8839SOL     OW27415   4.931   5.265   3.276
 8839SOL    HW127416   4.993   5.232   3.205
 8839SOL    HW227417   4.921   5.364   3.269
 8840SOL     OW27418   0.100   0.777   1.306
 8840SOL    HW127419   0.123   0.728   1.221
 8840SOL    HW227420   0.001   0.773   1.321
 8841SOL     OW27421   3.604   0.583   1.296
 8841SOL    HW127422   3.523   0.634   1.324
 8841SOL    HW227423   3.579   0.518   1.224
 8842SOL     OW27424   3.446   3.545   4.571
 8842SOL    HW127425   3.517   3.538   4.501
 8842SOL    HW227426   3.394   3.629   4.557
 8843SOL     OW27427   2.572   5.879   6.847
 8843SOL    HW127428   2.669   5.865   6.830
 8843SOL    HW227429   2.552   5.860   6.944
 8844SOL     OW27430   4.069   2.245   6.157
 8844SOL    HW127431   4.000   2.175   6.173
 8844SOL    HW227432   4.133   2.247   6.234
 8845SOL     OW27433   6.714   4.744   1.711
 8845SOL    HW127434   6.642   4.711   1.650
 8845SOL    HW227435   6.789   4.678   1.713
 8846SOL     OW27436   5.980   4.108   5.084
 8846SOL    HW127437   5.989   4.109   4.985
 8846SOL    HW227438   6.017   4.193   5.122
 8847SOL     OW27439   2.536   1.516   3.745
 8847SOL    HW127440   2.479   1.598   3.745
 8847SOL    HW227441   2.599   1.519   3.667
 8848SOL     OW27442   4.198   1.320   0.942
 8848SOL    HW127443   4.279   1.323   0.884
 8848SOL    HW227444   4.182   1.411   0.982
 8849SOL     OW27445   2.762   4.800   4.464
 8849SOL    HW127446   2.854   4.814   4.427
 8849SOL    HW227447   2.755   4.845   4.553
 8850SOL     OW27448   3.007   1.022   1.608
 8850SOL    HW127449   2.918   0.984   1.582
 8850SOL    HW227450   3.056   1.051   1.526
 8851SOL     OW27451   0.144   4.971   2.329
 8851SOL    HW127452   0.115   4.875   2.322
 8851SOL    HW227453   0.197   4.984   2.412
 8852SOL     OW27454   4.368   2.440   4.801
 8852SOL    HW127455   4.438   2.511   4.806
 8852SOL    HW227456   4.321   2.433   4.889
 8853SOL     OW27457   4.010   1.718   5.647
 8853SOL    HW127458   4.022   1.756   5.556
 8853SOL    HW227459   4.084   1.750   5.706
 8854SOL     OW27460   0.842   2.081   6.860
 8854SOL    HW127461   0.833   1.981   6.856
 8854SOL    HW227462   0.925   2.105   6.910
 8855SOL     OW27463   6.246   5.493   6.995
 8855SOL    HW127464   6.331   5.500   0.025
 8855SOL    HW227465   6.177   5.553   0.014
 8856SOL     OW27466   5.804   1.112   4.232
 8856SOL    HW127467   5.844   1.078   4.147
 8856SOL    HW227468   5.752   1.195   4.214
 8857SOL     OW27469   0.181   2.879   4.230
 8857SOL    HW127470   0.219   2.894   4.321
 8857SOL    HW227471   0.182   2.965   4.179
 8858SOL     OW27472   0.388   3.915   6.479
 8858SOL    HW127473   0.320   3.954   6.418
 8858SOL    HW227474   0.402   3.977   6.557
 8859SOL     OW27475   2.774   5.399   5.438
 8859SOL    HW127476   2.827   5.409   5.353
 8859SOL    HW227477   2.682   5.433   5.423
 8860SOL     OW27478   1.216   2.115   1.545
 8860SOL    HW127479   1.233   2.209   1.518
 8860SOL    HW227480   1.226   2.054   1.466
 8861SOL     OW27481   2.991   3.688   0.309
 8861SOL    HW127482   3.061   3.735   0.256
 8861SOL    HW227483   2.917   3.659   0.249
 8862SOL     OW27484   6.613   2.664   4.427
 8862SOL    HW127485   6.588   2.699   4.518
 8862SOL    HW227486   6.708   2.633   4.429
 8863SOL     OW27487   2.259   5.367   5.414
 8863SOL    HW127488   2.292   5.287   5.463
 8863SOL    HW227489   2.189   5.339   5.348
 8864SOL     OW27490   0.687   2.445   6.238
 8864SOL    HW127491   0.711   2.351   6.214
 8864SOL    HW227492   0.647   2.447   6.330
 8865SOL     OW27493   3.429   2.309   6.038
 8865SOL    HW127494   3.410   2.407   6.046
 8865SOL    HW227495   3.376   2.272   5.962
 8866SOL     OW27496   3.831   6.796   4.483
 8866SOL    HW127497   3.803   6.889   4.457
 8866SOL    HW227498   3.801   6.731   4.414
 8867SOL     OW27499   0.677   2.942   3.527
 8867SOL    HW127500   0.648   3.037   3.519
 8867SOL    HW227501   0.606   2.889   3.574
 8868SOL     OW27502   3.624   3.513   0.423
 8868SOL    HW127503   3.645   3.417   0.406
 8868SOL    HW227504   3.660   3.541   0.512
 8869SOL     OW27505   5.737   3.176   4.260
 8869SOL    HW127506   5.689   3.091   4.239
 8869SOL    HW227507   5.684   3.253   4.223
 8870SOL     OW27508   4.662   1.443   0.752
 8870SOL    HW127509   4.633   1.355   0.714
 8870SOL    HW227510   4.737   1.480   0.697
 8871SOL     OW27511   1.843   2.107   4.667
 8871SOL    HW127512   1.853   2.151   4.577
 8871SOL    HW227513   1.893   2.161   4.735
 8872SOL     OW27514   1.951   3.001   4.181
 8872SOL    HW127515   1.904   2.991   4.269
 8872SOL    HW227516   1.887   3.038   4.113
 8873SOL     OW27517   7.004   5.936   4.797
 8873SOL    HW127518   6.914   5.958   4.835
 8873SOL    HW227519   0.004   6.001   4.724
 8874SOL     OW27520   2.866   1.147   0.526
 8874SOL    HW127521   2.922   1.097   0.460
 8874SOL    HW227522   2.876   1.106   0.616
 8875SOL     OW27523   1.835   2.307   4.489
 8875SOL    HW127524   1.873   2.392   4.525
 8875SOL    HW227525   1.880   2.285   4.403
 8876SOL     OW27526   1.415   0.079   4.525
 8876SOL    HW127527   1.427   0.108   4.430
 8876SOL    HW227528   1.468   0.139   4.585
 8877SOL     OW27529   2.787   6.775   5.230
 8877SOL    HW127530   2.762   6.750   5.137
 8877SOL    HW227531   2.718   6.837   5.267
 8878SOL     OW27532   6.194   4.807   6.918
 8878SOL    HW127533   6.189   4.718   6.872
 8878SOL    HW227534   6.281   4.814   6.966
 8879SOL     OW27535   4.915   6.185   4.529
 8879SOL    HW127536   4.852   6.260   4.509
 8879SOL    HW227537   5.009   6.218   4.522
 8880SOL     OW27538   0.653   5.039   5.470
 8880SOL    HW127539   0.594   5.108   5.510
 8880SOL    HW227540   0.699   5.075   5.389
 8881SOL     OW27541   6.521   0.317   1.372
 8881SOL    HW127542   6.493   0.226   1.341
 8881SOL    HW227543   6.441   0.377   1.375
 8882SOL     OW27544   5.459   1.835   6.589
 8882SOL    HW127545   5.491   1.744   6.562
 8882SOL    HW227546   5.523   1.904   6.555
 8883SOL     OW27547   6.636   1.099   5.866
 8883SOL    HW127548   6.659   1.013   5.912
 8883SOL    HW227549   6.692   1.109   5.784
 8884SOL     OW27550   6.743   6.991   6.365
 8884SOL    HW127551   6.756   0.032   6.442
 8884SOL    HW227552   6.654   6.947   6.372
 8885SOL     OW27553   5.216   3.965   1.663
 8885SOL    HW127554   5.297   3.910   1.684
 8885SOL    HW227555   5.134   3.914   1.687
 8886SOL     OW27556   3.369   0.010   0.081
 8886SOL    HW127557   3.365   6.974   0.163
 8886SOL    HW227558   3.335   6.981   0.002
 8887SOL     OW27559   2.847   1.189   1.072
 8887SOL    HW127560   2.788   1.240   1.009
 8887SOL    HW227561   2.840   1.228   1.163
 8888SOL     OW27562   2.979   1.575   2.383
 8888SOL    HW127563   2.984   1.558   2.285
 8888SOL    HW227564   2.915   1.650   2.401
 8889SOL     OW27565   3.644   0.199   5.207
 8889SOL    HW127566   3.633   0.102   5.186
 8889SOL    HW227567   3.694   0.244   5.132
 8890SOL     OW27568   0.783   5.232   4.499
 8890SOL    HW127569   0.743   5.148   4.533
 8890SOL    HW227570   0.843   5.212   4.421
 8891SOL     OW27571   3.913   2.337   6.771
 8891SOL    HW127572   3.878   2.263   6.828
 8891SOL    HW227573   3.920   2.306   6.677
 8892SOL     OW27574   1.169   6.020   2.482
 8892SOL    HW127575   1.091   5.966   2.452
 8892SOL    HW227576   1.232   6.033   2.405
 8893SOL     OW27577   0.714   1.325   1.054
 8893SOL    HW127578   0.641   1.271   1.011
 8893SOL    HW227579   0.802   1.298   1.016
 8894SOL     OW27580   4.089   2.527   6.514
 8894SOL    HW127581   3.990   2.542   6.505
 8894SOL    HW227582   4.136   2.570   6.437
 8895SOL     OW27583   0.744   6.427   2.827
 8895SOL    HW127584   0.653   6.430   2.787
 8895SOL    HW227585   0.786   6.338   2.809
 8896SOL     OW27586   1.382   3.324   4.819
 8896SOL    HW127587   1.426   3.398   4.769
 8896SOL    HW227588   1.405   3.236   4.776
 8897SOL     OW27589   1.747   2.353   1.173
 8897SOL    HW127590   1.763   2.393   1.083
 8897SOL    HW227591   1.826   2.298   1.201
 8898SOL     OW27592   5.251   4.488   4.400
 8898SOL    HW127593   5.162   4.454   4.430
 8898SOL    HW227594   5.296   4.418   4.345
 8899SOL     OW27595   1.981   4.214   6.835
 8899SOL    HW127596   2.017   4.307   6.840
 8899SOL    HW227597   1.999   4.167   6.922
 8900SOL     OW27598   5.885   1.977   3.779
 8900SOL    HW127599   5.896   1.987   3.878
 8900SOL    HW227600   5.965   2.016   3.732
 8901SOL     OW27601   1.654   6.917   3.127
 8901SOL    HW127602   1.635   6.898   3.031
 8901SOL    HW227603   1.600   6.995   3.157
 8902SOL     OW27604   1.690   5.426   6.271
 8902SOL    HW127605   1.740   5.510   6.291
 8902SOL    HW227606   1.729   5.383   6.190
 8903SOL     OW27607   1.852   1.434   3.057
 8903SOL    HW127608   1.823   1.353   3.107
 8903SOL    HW227609   1.840   1.419   2.959
 8904SOL     OW27610   1.439   6.299   3.286
 8904SOL    HW127611   1.360   6.348   3.322
 8904SOL    HW227612   1.408   6.221   3.232
 8905SOL     OW27613   2.693   3.862   5.416
 8905SOL    HW127614   2.677   3.951   5.372
 8905SOL    HW227615   2.610   3.807   5.409
 8906SOL     OW27616   0.265   5.804   5.892
 8906SOL    HW127617   0.268   5.767   5.985
 8906SOL    HW227618   0.345   5.862   5.877
 8907SOL     OW27619   3.400   2.639   5.631
 8907SOL    HW127620   3.462   2.562   5.613
 8907SOL    HW227621   3.449   2.711   5.678
 8908SOL     OW27622   0.488   2.833   0.946
 8908SOL    HW127623   0.496   2.888   1.030
 8908SOL    HW227624   0.469   2.738   0.970
 8909SOL     OW27625   2.461   0.640   6.288
 8909SOL    HW127626   2.405   0.632   6.205
 8909SOL    HW227627   2.411   0.690   6.358
 8910SOL     OW27628   3.270   3.886   6.944
 8910SOL    HW127629   3.222   3.800   6.962
 8910SOL    HW227630   3.353   3.868   6.893
 8911SOL     OW27631   3.822   2.162   3.625
 8911SOL    HW127632   3.753   2.174   3.696
 8911SOL    HW227633   3.823   2.067   3.595
 8912SOL     OW27634   5.128   2.922   5.907
 8912SOL    HW127635   5.165   3.013   5.892
 8912SOL    HW227636   5.195   2.867   5.958
 8913SOL     OW27637   5.314   3.762   1.209
 8913SOL    HW127638   5.325   3.859   1.232
 8913SOL    HW227639   5.403   3.718   1.208
 8914SOL     OW27640   4.263   2.121   4.792
 8914SOL    HW127641   4.192   2.188   4.769
 8914SOL    HW227642   4.220   2.042   4.836
 8915SOL     OW27643   1.393   5.008   2.181
 8915SOL    HW127644   1.348   5.028   2.093
 8915SOL    HW227645   1.425   5.093   2.222
 8916SOL     OW27646   6.394   3.360   2.333
 8916SOL    HW127647   6.377   3.269   2.370
 8916SOL    HW227648   6.319   3.421   2.358
 8917SOL     OW27649   6.377   5.372   6.739
 8917SOL    HW127650   6.295   5.348   6.790
 8917SOL    HW227651   6.454   5.384   6.802
 8918SOL     OW27652   4.548   5.162   6.112
 8918SOL    HW127653   4.502   5.105   6.180
 8918SOL    HW227654   4.647   5.162   6.130
 8919SOL     OW27655   2.184   4.725   0.798
 8919SOL    HW127656   2.275   4.707   0.833
 8919SOL    HW227657   2.127   4.643   0.810
 8920SOL     OW27658   6.321   5.791   5.728
 8920SOL    HW127659   6.312   5.886   5.757
 8920SOL    HW227660   6.235   5.744   5.744
 8921SOL     OW27661   1.782   0.200   3.844
 8921SOL    HW127662   1.733   0.231   3.762
 8921SOL    HW227663   1.825   0.112   3.826
 8922SOL     OW27664   0.248   4.212   6.554
 8922SOL    HW127665   0.309   4.180   6.627
 8922SOL    HW227666   0.161   4.240   6.595
 8923SOL     OW27667   2.390   4.133   5.767
 8923SOL    HW127668   2.477   4.182   5.775
 8923SOL    HW227669   2.406   4.041   5.733
 8924SOL     OW27670   2.675   5.175   5.563
 8924SOL    HW127671   2.649   5.224   5.647
 8924SOL    HW227672   2.704   5.241   5.494
 8925SOL     OW27673   6.902   6.513   2.209
 8925SOL    HW127674   6.948   6.435   2.251
 8925SOL    HW227675   6.953   6.543   2.128
 8926SOL     OW27676   5.566   1.877   0.731
 8926SOL    HW127677   5.625   1.857   0.810
 8926SOL    HW227678   5.549   1.792   0.681
 8927SOL     OW27679   2.045   1.875   4.992
 8927SOL    HW127680   2.111   1.914   4.928
 8927SOL    HW227681   2.093   1.827   5.065
 8928SOL     OW27682   0.185   6.864   5.680
 8928SOL    HW127683   0.121   6.931   5.717
 8928SOL    HW227684   0.145   6.773   5.685
 8929SOL     OW27685   5.623   3.752   3.625
 8929SOL    HW127686   5.641   3.814   3.700
 8929SOL    HW227687   5.561   3.795   3.559
 8930SOL     OW27688   0.739   4.809   4.844
 8930SOL    HW127689   0.745   4.719   4.888
 8930SOL    HW227690   0.687   4.871   4.902
 8931SOL     OW27691   4.836   1.031   0.707
 8931SOL    HW127692   4.893   1.090   0.764
 8931SOL    HW227693   4.876   1.026   0.615
 8932SOL     OW27694   6.893   0.488   0.061
 8932SOL    HW127695   6.846   0.433   7.014
 8932SOL    HW227696   6.992   0.481   0.048
 8933SOL     OW27697   1.224   0.003   5.601
 8933SOL    HW127698   1.283   0.039   5.674
 8933SOL    HW227699   1.233   6.925   5.597
 8934SOL     OW27700   3.616   5.891   2.842
 8934SOL    HW127701   3.555   5.864   2.767
 8934SOL    HW227702   3.708   5.904   2.807
 8935SOL     OW27703   5.402   2.137   3.390
 8935SOL    HW127704   5.304   2.142   3.370
 8935SOL    HW227705   5.419   2.070   3.461
 8936SOL     OW27706   1.176   4.620   2.561
 8936SOL    HW127707   1.169   4.647   2.466
 8936SOL    HW227708   1.087   4.629   2.606
 8937SOL     OW27709   5.088   6.948   4.714
 8937SOL    HW127710   5.169   7.000   4.686
 8937SOL    HW227711   5.036   6.921   4.633
 8938SOL     OW27712   6.100   0.286   1.329
 8938SOL    HW127713   6.159   0.211   1.303
 8938SOL    HW227714   6.040   0.311   1.253
 8939SOL     OW27715   6.943   3.176   3.334
 8939SOL    HW127716   6.861   3.156   3.386
 8939SOL    HW227717   7.009   3.102   3.344
 8940SOL     OW27718   6.364   2.401   0.364
 8940SOL    HW127719   6.430   2.326   0.369
 8940SOL    HW227720   6.390   2.473   0.428
 8941SOL     OW27721   4.098   2.927   1.551
 8941SOL    HW127722   4.094   2.827   1.559
 8941SOL    HW227723   4.047   2.969   1.626
 8942SOL     OW27724   5.625   4.654   4.637
 8942SOL    HW127725   5.719   4.620   4.638
 8942SOL    HW227726   5.573   4.608   4.565
 8943SOL     OW27727   4.733   4.265   0.065
 8943SOL    HW127728   4.659   4.202   0.041
 8943SOL    HW227729   4.790   4.281   7.007
 8944SOL     OW27730   5.869   5.868   4.758
 8944SOL    HW127731   5.878   5.957   4.804
 8944SOL    HW227732   5.777   5.859   4.721
 8945SOL     OW27733   5.529   4.511   4.447
 8945SOL    HW127734   5.436   4.491   4.416
 8945SOL    HW227735   5.595   4.470   4.384
 8946SOL     OW27736   4.828   1.273   5.247
 8946SOL    HW127737   4.850   1.212   5.171
 8946SOL    HW227738   4.904   1.335   5.263
 8947SOL     OW27739   1.912   5.522   6.655
 8947SOL    HW127740   1.840   5.590   6.663
 8947SOL    HW227741   1.959   5.532   6.567
 8948SOL     OW27742   6.027   0.927   2.949
 8948SOL    HW127743   6.060   0.864   3.020
 8948SOL    HW227744   6.097   0.937   2.878
 8949SOL     OW27745   3.692   6.417   0.376
 8949SOL    HW127746   3.609   6.465   0.403
 8949SOL    HW227747   3.701   6.333   0.430
 8950SOL     OW27748   3.633   3.298   0.649
 8950SOL    HW127749   3.604   3.202   0.650
 8950SOL    HW227750   3.647   3.330   0.743
 8951SOL     OW27751   1.705   1.509   4.580
 8951SOL    HW127752   1.735   1.440   4.646
 8951SOL    HW227753   1.733   1.600   4.613
 8952SOL     OW27754   1.654   3.874   4.466
 8952SOL    HW127755   1.724   3.867   4.537
 8952SOL    HW227756   1.677   3.949   4.404
 8953SOL     OW27757   0.994   4.462   1.141
 8953SOL    HW127758   0.951   4.372   1.143
 8953SOL    HW227759   0.926   4.532   1.162
 8954SOL     OW27760   1.947   4.827   5.288
 8954SOL    HW127761   1.885   4.897   5.252
 8954SOL    HW227762   2.038   4.840   5.250
 8955SOL     OW27763   5.676   2.440   4.538
 8955SOL    HW127764   5.576   2.432   4.539
 8955SOL    HW227765   5.714   2.373   4.474
 8956SOL     OW27766   0.927   5.814   6.874
 8956SOL    HW127767   0.875   5.752   6.815
 8956SOL    HW227768   0.864   5.869   6.929
 8957SOL     OW27769   0.321   6.146   3.186
 8957SOL    HW127770   0.318   6.225   3.125
 8957SOL    HW227771   0.415   6.113   3.193
 8958SOL     OW27772   1.674   3.004   5.013
 8958SOL    HW127773   1.666   2.906   5.028
 8958SOL    HW227774   1.640   3.053   5.094
 8959SOL     OW27775   6.670   2.414   2.904
 8959SOL    HW127776   6.576   2.422   2.938
 8959SOL    HW227777   6.670   2.359   2.821
 8960SOL     OW27778   5.316   4.683   3.103
 8960SOL    HW127779   5.331   4.632   3.018
 8960SOL    HW227780   5.244   4.637   3.156
 8961SOL     OW27781   1.918   1.074   5.534
 8961SOL    HW127782   1.866   1.047   5.452
 8961SOL    HW227783   1.935   0.993   5.590
 8962SOL     OW27784   6.823   5.772   2.423
 8962SOL    HW127785   6.753   5.841   2.442
 8962SOL    HW227786   6.876   5.754   2.506
 8963SOL     OW27787   4.980   6.917   4.954
 8963SOL    HW127788   4.927   6.832   4.941
 8963SOL    HW227789   5.019   6.945   4.867
 8964SOL     OW27790   1.359   3.207   4.248
 8964SOL    HW127791   1.387   3.242   4.158
 8964SOL    HW227792   1.378   3.276   4.318
 8965SOL     OW27793   3.922   5.776   6.376
 8965SOL    HW127794   3.895   5.872   6.387
 8965SOL    HW227795   3.953   5.760   6.282
 8966SOL     OW27796   4.288   5.434   5.275
 8966SOL    HW127797   4.244   5.517   5.310
 8966SOL    HW227798   4.388   5.444   5.283
 8967SOL     OW27799   3.219   6.977   3.967
 8967SOL    HW127800   3.288   0.019   3.933
 8967SOL    HW227801   3.263   6.893   3.999
 8968SOL     OW27802   3.481   5.387   2.407
 8968SOL    HW127803   3.506   5.333   2.327
 8968SOL    HW227804   3.390   5.427   2.394
 8969SOL     OW27805   1.239   0.933   2.473
 8969SOL    HW127806   1.143   0.944   2.497
 8969SOL    HW227807   1.270   0.842   2.498
 8970SOL     OW27808   2.139   0.551   4.110
 8970SOL    HW127809   2.124   0.531   4.013
 8970SOL    HW227810   2.106   0.643   4.130
 8971SOL     OW27811   3.547   4.805   0.363
 8971SOL    HW127812   3.542   4.711   0.395
 8971SOL    HW227813   3.463   4.853   0.387
 8972SOL     OW27814   5.904   3.726   0.791
 8972SOL    HW127815   5.845   3.777   0.854
 8972SOL    HW227816   5.880   3.749   0.697
 8973SOL     OW27817   1.429   2.746   3.413
 8973SOL    HW127818   1.439   2.766   3.315
 8973SOL    HW227819   1.518   2.728   3.453
 8974SOL     OW27820   2.312   4.271   4.635
 8974SOL    HW127821   2.279   4.229   4.719
 8974SOL    HW227822   2.377   4.344   4.656
 8975SOL     OW27823   6.842   5.201   5.796
 8975SOL    HW127824   6.767   5.252   5.754
 8975SOL    HW227825   6.830   5.200   5.895
 8976SOL     OW27826   6.182   6.250   2.141
 8976SOL    HW127827   6.212   6.304   2.220
 8976SOL    HW227828   6.169   6.310   2.062
 8977SOL     OW27829   6.839   4.707   6.209
 8977SOL    HW127830   6.896   4.636   6.165
 8977SOL    HW227831   6.870   4.797   6.178
 8978SOL     OW27832   5.745   6.230   6.590
 8978SOL    HW127833   5.705   6.316   6.558
 8978SOL    HW227834   5.766   6.237   6.687
 8979SOL     OW27835   1.355   4.897   5.393
 8979SOL    HW127836   1.427   4.836   5.424
 8979SOL    HW227837   1.286   4.907   5.465
 8980SOL     OW27838   3.648   0.102   6.613
 8980SOL    HW127839   3.650   0.178   6.547
 8980SOL    HW227840   3.561   0.105   6.663
 8981SOL     OW27841   4.427   3.292   6.801
 8981SOL    HW127842   4.476   3.223   6.855
 8981SOL    HW227843   4.386   3.359   6.863
 8982SOL     OW27844   0.358   1.676   1.585
 8982SOL    HW127845   0.341   1.694   1.488
 8982SOL    HW227846   0.289   1.723   1.640
 8983SOL     OW27847   1.111   6.745   2.064
 8983SOL    HW127848   1.068   6.834   2.073
 8983SOL    HW227849   1.146   6.715   2.153
 8984SOL     OW27850   6.848   0.378   4.027
 8984SOL    HW127851   6.807   0.288   4.013
 8984SOL    HW227852   6.804   0.423   4.105
 8985SOL     OW27853   5.185   1.923   0.867
 8985SOL    HW127854   5.261   1.986   0.847
 8985SOL    HW227855   5.142   1.949   0.953
 8986SOL     OW27856   6.975   4.854   0.438
 8986SOL    HW127857   7.010   4.789   0.370
 8986SOL    HW227858   0.002   4.841   0.524
 8987SOL     OW27859   2.047   0.183   1.854
 8987SOL    HW127860   2.058   0.282   1.841
 8987SOL    HW227861   2.122   0.148   1.910
 8988SOL     OW27862   1.732   6.125   2.085
 8988SOL    HW127863   1.683   6.068   2.018
 8988SOL    HW227864   1.781   6.197   2.038
 8989SOL     OW27865   5.628   1.772   2.666
 8989SOL    HW127866   5.588   1.687   2.634
 8989SOL    HW227867   5.557   1.829   2.708
 8990SOL     OW27868   3.627   0.697   1.760
 8990SOL    HW127869   3.694   0.760   1.798
 8990SOL    HW227870   3.594   0.733   1.672
 8991SOL     OW27871   1.746   1.635   1.108
 8991SOL    HW127872   1.797   1.673   1.030
 8991SOL    HW227873   1.648   1.633   1.086
 8992SOL     OW27874   1.296   4.045   6.634
 8992SOL    HW127875   1.284   4.142   6.655
 8992SOL    HW227876   1.383   4.013   6.671
 8993SOL     OW27877   6.226   3.793   4.111
 8993SOL    HW127878   6.165   3.803   4.190
 8993SOL    HW227879   6.291   3.869   4.110
 8994SOL     OW27880   0.962   4.994   3.052
 8994SOL    HW127881   1.012   5.045   3.122
 8994SOL    HW227882   1.019   4.986   2.970
 8995SOL     OW27883   2.155   3.930   4.800
 8995SOL    HW127884   2.217   3.947   4.876
 8995SOL    HW227885   2.069   3.979   4.815
 8996SOL     OW27886   0.894   3.809   2.055
 8996SOL    HW127887   0.834   3.833   1.980
 8996SOL    HW227888   0.953   3.733   2.028
 8997SOL     OW27889   4.107   2.043   5.411
 8997SOL    HW127890   4.077   2.102   5.486
 8997SOL    HW227891   4.042   1.967   5.402
 8998SOL     OW27892   0.632   1.894   6.139
 8998SOL    HW127893   0.677   1.827   6.198
 8998SOL    HW227894   0.605   1.851   6.053
 8999SOL     OW27895   5.910   0.801   4.831
 8999SOL    HW127896   5.833   0.853   4.866
 8999SOL    HW227897   5.982   0.863   4.802
 9000SOL     OW27898   2.992   4.336   0.358
 9000SOL    HW127899   2.974   4.240   0.381
 9000SOL    HW227900   3.005   4.345   0.260
 9001SOL     OW27901   1.421   4.422   3.416
 9001SOL    HW127902   1.330   4.392   3.388
 9001SOL    HW227903   1.454   4.495   3.356
 9002SOL     OW27904   5.106   4.832   5.824
 9002SOL    HW127905   5.076   4.872   5.910
 9002SOL    HW227906   5.069   4.885   5.748
 9003SOL     OW27907   5.578   2.574   5.747
 9003SOL    HW127908   5.545   2.482   5.727
 9003SOL    HW227909   5.505   2.626   5.793
 9004SOL     OW27910   4.236   5.888   0.963
 9004SOL    HW127911   4.229   5.967   0.902
 9004SOL    HW227912   4.151   5.878   1.015
 9005SOL     OW27913   4.794   2.107   3.175
 9005SOL    HW127914   4.853   2.064   3.106
 9005SOL    HW227915   4.737   2.036   3.217
 9006SOL     OW27916   1.574   6.397   0.766
 9006SOL    HW127917   1.581   6.327   0.695
 9006SOL    HW227918   1.487   6.387   0.814
 9007SOL     OW27919   2.928   6.608   4.620
 9007SOL    HW127920   2.942   6.545   4.544
 9007SOL    HW227921   2.853   6.670   4.599
 9008SOL     OW27922   6.681   4.955   2.477
 9008SOL    HW127923   6.689   4.908   2.389
 9008SOL    HW227924   6.641   4.893   2.545
 9009SOL     OW27925   3.816   6.445   1.223
 9009SOL    HW127926   3.855   6.516   1.282
 9009SOL    HW227927   3.718   6.463   1.210
 9010SOL     OW27928   1.270   5.948   5.058
 9010SOL    HW127929   1.318   6.021   5.106
 9010SOL    HW227930   1.172   5.967   5.059
 9011SOL     OW27931   4.235   1.834   1.233
 9011SOL    HW127932   4.145   1.869   1.260
 9011SOL    HW227933   4.306   1.893   1.270
 9012SOL     OW27934   6.814   5.577   1.358
 9012SOL    HW127935   6.875   5.498   1.361
 9012SOL    HW227936   6.762   5.582   1.443
 9013SOL     OW27937   4.771   6.486   3.967
 9013SOL    HW127938   4.854   6.542   3.976
 9013SOL    HW227939   4.796   6.395   3.936
 9014SOL     OW27940   3.010   1.381   0.853
 9014SOL    HW127941   2.939   1.312   0.843
 9014SOL    HW227942   2.969   1.472   0.854
 9015SOL     OW27943   6.837   1.085   5.640
 9015SOL    HW127944   6.905   1.079   5.713
 9015SOL    HW227945   6.873   1.140   5.564
 9016SOL     OW27946   6.836   6.229   6.189
 9016SOL    HW127947   6.891   6.149   6.165
 9016SOL    HW227948   6.881   6.312   6.154
 9017SOL     OW27949   0.085   3.394   3.316
 9017SOL    HW127950   0.032   3.309   3.327
 9017SOL    HW227951   0.030   3.462   3.268
 9018SOL     OW27952   3.583   2.454   5.513
 9018SOL    HW127953   3.637   2.518   5.458
 9018SOL    HW227954   3.540   2.386   5.453
 9019SOL     OW27955   1.996   0.088   0.748
 9019SOL    HW127956   2.010   0.157   0.820
 9019SOL    HW227957   1.923   0.026   0.775
 9020SOL     OW27958   0.488   4.920   3.584
 9020SOL    HW127959   0.571   4.915   3.640
 9020SOL    HW227960   0.512   4.936   3.489
 9021SOL     OW27961   6.918   5.786   5.101
 9021SOL    HW127962   6.933   5.865   5.161
 9021SOL    HW227963   6.827   5.793   5.059
 9022SOL     OW27964   3.076   0.874   6.525
 9022SOL    HW127965   3.165   0.839   6.497
 9022SOL    HW227966   3.078   0.974   6.528
 9023SOL     OW27967   3.244   3.206   3.221
 9023SOL    HW127968   3.263   3.112   3.249
 9023SOL    HW227969   3.146   3.217   3.206
 9024SOL     OW27970   1.675   6.650   7.000
 9024SOL    HW127971   1.655   6.608   0.067
 9024SOL    HW227972   1.769   6.686   7.001
 9025SOL     OW27973   6.245   4.114   1.164
 9025SOL    HW127974   6.158   4.075   1.135
 9025SOL    HW227975   6.305   4.042   1.198
 9026SOL     OW27976   3.376   2.957   5.526
 9026SOL    HW127977   3.467   2.983   5.557
 9026SOL    HW227978   3.349   3.016   5.450
 9027SOL     OW27979   2.229   2.716   3.057
 9027SOL    HW127980   2.283   2.776   3.116
 9027SOL    HW227981   2.242   2.742   2.962
 9028SOL     OW27982   2.620   4.692   4.788
 9028SOL    HW127983   2.659   4.766   4.732
 9028SOL    HW227984   2.680   4.675   4.866
 9029SOL     OW27985   5.342   5.583   3.139
 9029SOL    HW127986   5.339   5.674   3.180
 9029SOL    HW227987   5.270   5.574   3.070
 9030SOL     OW27988   3.001   1.705   1.895
 9030SOL    HW127989   3.046   1.616   1.896
 9030SOL    HW227990   3.054   1.769   1.839
 9031SOL     OW27991   2.328   0.079   6.503
 9031SOL    HW127992   2.412   0.028   6.488
 9031SOL    HW227993   2.316   0.096   6.601
 9032SOL     OW27994   1.675   1.202   1.892
 9032SOL    HW127995   1.712   1.123   1.941
 9032SOL    HW227996   1.712   1.286   1.932
 9033SOL     OW27997   0.489   3.016   2.291
 9033SOL    HW127998   0.494   3.012   2.191
 9033SOL    HW227999   0.407   2.967   2.322
 9034SOL     OW28000   2.850   6.764   5.806
 9034SOL    HW128001   2.852   6.664   5.803
 9034SOL    HW228002   2.838   6.794   5.901
 9035SOL     OW28003   6.900   1.438   4.605
 9035SOL    HW128004   6.882   1.536   4.604
 9035SOL    HW228005   6.955   1.413   4.525
 9036SOL     OW28006   1.358   2.156   5.078
 9036SOL    HW128007   1.427   2.170   5.148
 9036SOL    HW228008   1.377   2.071   5.028
 9037SOL     OW28009   2.038   3.701   5.805
 9037SOL    HW128010   2.064   3.642   5.881
 9037SOL    HW228011   1.947   3.740   5.823
 9038SOL     OW28012   5.766   6.486   5.360
 9038SOL    HW128013   5.766   6.482   5.260
 9038SOL    HW228014   5.756   6.393   5.397
 9039SOL     OW28015   2.288   5.531   5.765
 9039SOL    HW128016   2.317   5.591   5.691
 9039SOL    HW228017   2.197   5.558   5.796
 9040SOL     OW28018   1.892   0.831   2.329
 9040SOL    HW128019   1.935   0.784   2.252
 9040SOL    HW228020   1.961   0.881   2.380
 9041SOL     OW28021   1.712   3.108   0.059
 9041SOL    HW128022   1.661   3.168   7.019
 9041SOL    HW228023   1.809   3.109   0.034
 9042SOL     OW28024   2.837   5.285   3.703
 9042SOL    HW128025   2.767   5.287   3.774
 9042SOL    HW228026   2.795   5.308   3.615
 9043SOL     OW28027   6.538   2.244   6.480
 9043SOL    HW128028   6.632   2.218   6.458
 9043SOL    HW228029   6.507   2.191   6.559
 9044SOL     OW28030   6.388   5.491   0.522
 9044SOL    HW128031   6.458   5.539   0.470
 9044SOL    HW228032   6.394   5.517   0.618
 9045SOL     OW28033   3.549   6.451   4.138
 9045SOL    HW128034   3.520   6.355   4.143
 9045SOL    HW228035   3.484   6.503   4.082
 9046SOL     OW28036   3.186   3.904   5.359
 9046SOL    HW128037   3.210   3.917   5.263
 9046SOL    HW228038   3.097   3.859   5.365
 9047SOL     OW28039   0.955   4.479   4.575
 9047SOL    HW128040   0.868   4.517   4.605
 9047SOL    HW228041   0.946   4.380   4.562
 9048SOL     OW28042   1.161   3.509   4.366
 9048SOL    HW128043   1.121   3.418   4.373
 9048SOL    HW228044   1.261   3.502   4.372
 9049SOL     OW28045   5.043   5.936   5.886
 9049SOL    HW128046   5.115   5.970   5.946
 9049SOL    HW228047   4.954   5.968   5.919
 9050SOL     OW28048   0.422   5.366   5.960
 9050SOL    HW128049   0.460   5.382   6.051
 9050SOL    HW228050   0.458   5.280   5.923
 9051SOL     OW28051   5.277   6.430   5.936
 9051SOL    HW128052   5.266   6.456   5.841
 9051SOL    HW228053   5.258   6.508   5.995
 9052SOL     OW28054   2.274   5.340   4.936
 9052SOL    HW128055   2.245   5.252   4.972
 9052SOL    HW228056   2.365   5.362   4.970
 9053SOL     OW28057   2.718   1.532   3.505
 9053SOL    HW128058   2.746   1.516   3.411
 9053SOL    HW228059   2.721   1.630   3.524
 9054SOL     OW28060   3.212   0.272   1.291
 9054SOL    HW128061   3.164   0.346   1.245
 9054SOL    HW228062   3.283   0.236   1.230
 9055SOL     OW28063   1.441   1.579   4.042
 9055SOL    HW128064   1.462   1.556   3.947
 9055SOL    HW228065   1.387   1.506   4.083
 9056SOL     OW28066   5.471   1.418   3.052
 9056SOL    HW128067   5.381   1.403   3.092
 9056SOL    HW228068   5.541   1.382   3.114
 9057SOL     OW28069   4.782   6.051   6.238
 9057SOL    HW128070   4.862   6.077   6.292
 9057SOL    HW228071   4.810   6.027   6.145
 9058SOL     OW28072   1.290   3.018   5.023
 9058SOL    HW128073   1.309   2.931   4.977
 9058SOL    HW228074   1.372   3.075   5.022
 9059SOL     OW28075   0.342   1.311   2.988
 9059SOL    HW128076   0.438   1.298   2.963
 9059SOL    HW228077   0.288   1.324   2.905
 9060SOL     OW28078   0.553   5.091   1.220
 9060SOL    HW128079   0.496   5.172   1.207
 9060SOL    HW228080   0.593   5.093   1.312
 9061SOL     OW28081   5.707   4.363   2.369
 9061SOL    HW128082   5.666   4.273   2.385
 9061SOL    HW228083   5.747   4.397   2.454
 9062SOL     OW28084   0.589   5.299   3.470
 9062SOL    HW128085   0.689   5.299   3.465
 9062SOL    HW228086   0.561   5.302   3.566
 9063SOL     OW28087   4.190   1.471   1.627
 9063SOL    HW128088   4.274   1.457   1.680
 9063SOL    HW228089   4.123   1.520   1.682
 9064SOL     OW28090   1.177   5.246   3.433
 9064SOL    HW128091   1.150   5.194   3.514
 9064SOL    HW228092   1.263   5.294   3.451
 9065SOL     OW28093   2.550   4.354   5.358
 9065SOL    HW128094   2.579   4.385   5.267
 9065SOL    HW228095   2.501   4.429   5.403
 9066SOL     OW28096   4.793   4.888   5.311
 9066SOL    HW128097   4.880   4.864   5.266
 9066SOL    HW228098   4.731   4.928   5.243
 9067SOL     OW28099   0.978   6.515   4.313
 9067SOL    HW128100   1.026   6.429   4.294
 9067SOL    HW228101   0.992   6.578   4.236
 9068SOL     OW28102   4.979   6.589   5.259
 9068SOL    HW128103   4.914   6.573   5.185
 9068SOL    HW228104   5.022   6.503   5.285
 9069SOL     OW28105   5.183   1.673   1.348
 9069SOL    HW128106   5.092   1.712   1.338
 9069SOL    HW228107   5.228   1.712   1.428
 9070SOL     OW28108   1.193   2.331   6.006
 9070SOL    HW128109   1.241   2.297   5.926
 9070SOL    HW228110   1.176   2.255   6.069
 9071SOL     OW28111   4.887   1.716   5.360
 9071SOL    HW128112   4.884   1.777   5.281
 9071SOL    HW228113   4.980   1.678   5.370
 9072SOL     OW28114   5.001   1.012   2.119
 9072SOL    HW128115   5.057   0.929   2.125
 9072SOL    HW228116   5.007   1.048   2.026
 9073SOL     OW28117   4.610   1.301   5.863
 9073SOL    HW128118   4.592   1.341   5.773
 9073SOL    HW228119   4.709   1.289   5.875
 9074SOL     OW28120   1.649   6.985   1.844
 9074SOL    HW128121   1.612   6.993   1.751
 9074SOL    HW228122   1.656   6.888   1.868
 9075SOL     OW28123   6.296   6.216   1.011
 9075SOL    HW128124   6.270   6.241   1.104
 9075SOL    HW228125   6.258   6.282   0.946
 9076SOL     OW28126   6.442   0.721   2.163
 9076SOL    HW128127   6.491   0.634   2.173
 9076SOL    HW228128   6.484   0.789   2.223
 9077SOL     OW28129   6.253   1.630   6.113
 9077SOL    HW128130   6.238   1.722   6.076
 9077SOL    HW228131   6.301   1.575   6.046
 9078SOL     OW28132   4.936   5.960   6.789
 9078SOL    HW128133   4.919   6.034   6.725
 9078SOL    HW228134   4.850   5.913   6.810
 9079SOL     OW28135   1.503   0.822   6.704
 9079SOL    HW128136   1.492   0.865   6.615
 9079SOL    HW228137   1.467   0.882   6.775
 9080SOL     OW28138   5.761   3.547   1.769
 9080SOL    HW128139   5.737   3.485   1.694
 9080SOL    HW228140   5.678   3.576   1.817
 9081SOL     OW28141   4.540   1.886   6.828
 9081SOL    HW128142   4.460   1.853   6.778
 9081SOL    HW228143   4.606   1.924   6.763
 9082SOL     OW28144   3.299   5.823   5.726
 9082SOL    HW128145   3.228   5.754   5.715
 9082SOL    HW228146   3.355   5.802   5.807
 9083SOL     OW28147   3.828   5.434   6.312
 9083SOL    HW128148   3.928   5.434   6.310
 9083SOL    HW228149   3.796   5.495   6.384
 9084SOL     OW28150   0.098   2.238   5.839
 9084SOL    HW128151   0.008   2.279   5.850
 9084SOL    HW228152   0.090   2.142   5.814
 9085SOL     OW28153   2.259   4.990   7.002
 9085SOL    HW128154   2.194   4.919   0.005
 9085SOL    HW228155   2.321   4.955   6.931
 9086SOL     OW28156   6.708   4.474   0.897
 9086SOL    HW128157   6.650   4.458   0.818
 9086SOL    HW228158   6.659   4.449   0.980
 9087SOL     OW28159   5.932   0.885   1.728
 9087SOL    HW128160   5.848   0.858   1.775
 9087SOL    HW228161   6.011   0.847   1.776
 9088SOL     OW28162   6.580   6.345   0.505
 9088SOL    HW128163   6.556   6.251   0.529
 9088SOL    HW228164   6.680   6.354   0.499
 9089SOL     OW28165   5.319   5.545   3.664
 9089SOL    HW128166   5.296   5.507   3.575
 9089SOL    HW228167   5.373   5.628   3.652
 9090SOL     OW28168   5.855   6.104   4.937
 9090SOL    HW128169   5.784   6.035   4.945
 9090SOL    HW228170   5.879   6.137   5.029
 9091SOL     OW28171   2.041   2.049   1.356
 9091SOL    HW128172   2.055   2.087   1.447
 9091SOL    HW228173   2.007   1.956   1.364
 9092SOL     OW28174   1.778   6.822   5.520
 9092SOL    HW128175   1.737   6.731   5.523
 9092SOL    HW228176   1.716   6.885   5.472
 9093SOL     OW28177   2.464   5.014   0.984
 9093SOL    HW128178   2.506   5.099   1.016
 9093SOL    HW228179   2.370   5.009   1.017
 9094SOL     OW28180   0.131   4.996   1.848
 9094SOL    HW128181   0.138   5.077   1.790
 9094SOL    HW228182   0.084   5.020   1.933
 9095SOL     OW28183   3.452   3.530   6.854
 9095SOL    HW128184   3.436   3.433   6.870
 9095SOL    HW228185   3.384   3.565   6.790
 9096SOL     OW28186   5.624   2.414   3.099
 9096SOL    HW128187   5.577   2.326   3.105
 9096SOL    HW228188   5.567   2.479   3.048
 9097SOL     OW28189   1.052   4.439   6.585
 9097SOL    HW128190   0.959   4.441   6.621
 9097SOL    HW228191   1.095   4.529   6.596
 9098SOL     OW28192   3.842   3.847   2.351
 9098SOL    HW128193   3.939   3.826   2.361
 9098SOL    HW228194   3.794   3.768   2.312
 9099SOL     OW28195   2.488   3.830   0.998
 9099SOL    HW128196   2.416   3.899   0.991
 9099SOL    HW228197   2.495   3.780   0.911
 9100SOL     OW28198   0.748   3.136   0.904
 9100SOL    HW128199   0.813   3.211   0.902
 9100SOL    HW228200   0.729   3.110   0.998
 9101SOL     OW28201   1.749   2.434   1.582
 9101SOL    HW128202   1.690   2.486   1.520
 9101SOL    HW228203   1.756   2.340   1.550
 9102SOL     OW28204   3.193   5.445   2.481
 9102SOL    HW128205   3.220   5.516   2.416
 9102SOL    HW228206   3.203   5.480   2.574
 9103SOL     OW28207   0.345   4.142   0.431
 9103SOL    HW128208   0.439   4.174   0.444
 9103SOL    HW228209   0.283   4.197   0.487
 9104SOL     OW28210   4.512   6.887   1.226
 9104SOL    HW128211   4.539   6.800   1.184
 9104SOL    HW228212   4.486   6.952   1.155
 9105SOL     OW28213   1.338   2.008   6.627
 9105SOL    HW128214   1.283   2.075   6.677
 9105SOL    HW228215   1.432   2.042   6.620
 9106SOL     OW28216   5.646   5.276   0.550
 9106SOL    HW128217   5.740   5.311   0.551
 9106SOL    HW228218   5.626   5.236   0.461
 9107SOL     OW28219   4.149   0.012   0.991
 9107SOL    HW128220   4.175   0.098   0.948
 9107SOL    HW228221   4.202   7.021   1.075
 9108SOL     OW28222   4.185   5.176   5.276
 9108SOL    HW128223   4.120   5.200   5.204
 9108SOL    HW228224   4.239   5.257   5.300
 9109SOL     OW28225   3.475   1.861   3.766
 9109SOL    HW128226   3.426   1.812   3.695
 9109SOL    HW228227   3.426   1.945   3.789
 9110SOL     OW28228   2.104   4.178   3.461
 9110SOL    HW128229   2.065   4.137   3.544
 9110SOL    HW228230   2.074   4.273   3.453
 9111SOL     OW28231   3.602   4.441   1.674
 9111SOL    HW128232   3.651   4.513   1.723
 9111SOL    HW228233   3.516   4.479   1.638
 9112SOL     OW28234   0.033   4.492   2.054
 9112SOL    HW128235   6.978   4.432   2.034
 9112SOL    HW228236   0.117   4.439   2.057
 9113SOL     OW28237   4.864   6.911   0.111
 9113SOL    HW128238   4.803   6.978   0.068
 9113SOL    HW228239   4.896   6.947   0.199
 9114SOL     OW28240   2.405   4.888   2.183
 9114SOL    HW128241   2.405   4.844   2.273
 9114SOL    HW228242   2.342   4.966   2.183
 9115SOL     OW28243   1.276   4.821   4.713
 9115SOL    HW128244   1.284   4.827   4.812
 9115SOL    HW228245   1.343   4.881   4.670
 9116SOL     OW28246   6.834   1.209   6.510
 9116SOL    HW128247   6.859   1.283   6.574
 9116SOL    HW228248   6.901   1.135   6.517
 9117SOL     OW28249   6.637   2.880   6.653
 9117SOL    HW128250   6.569   2.946   6.621
 9117SOL    HW228251   6.625   2.793   6.606
 9118SOL     OW28252   6.803   6.684   1.530
 9118SOL    HW128253   6.746   6.756   1.491
 9118SOL    HW228254   6.889   6.678   1.479
 9119SOL     OW28255   6.444   0.213   1.747
 9119SOL    HW128256   6.441   0.283   1.818
 9119SOL    HW228257   6.363   0.221   1.688
 9120SOL     OW28258   5.743   1.005   6.408
 9120SOL    HW128259   5.786   1.011   6.498
 9120SOL    HW228260   5.703   1.093   6.384
 9121SOL     OW28261   0.447   1.772   5.944
 9121SOL    HW128262   0.487   1.683   5.965
 9121SOL    HW228263   0.479   1.801   5.853
 9122SOL     OW28264   1.951   2.576   2.918
 9122SOL    HW128265   1.889   2.645   2.879
 9122SOL    HW228266   2.040   2.583   2.872
 9123SOL     OW28267   2.413   6.076   6.410
 9123SOL    HW128268   2.384   6.088   6.505
 9123SOL    HW228269   2.483   6.006   6.405
 9124SOL     OW28270   6.654   5.617   5.475
 9124SOL    HW128271   6.575   5.668   5.441
 9124SOL    HW228272   6.737   5.671   5.463
 9125SOL     OW28273   4.970   3.906   4.070
 9125SOL    HW128274   4.963   3.975   3.998
 9125SOL    HW228275   4.906   3.832   4.052
 9126SOL     OW28276   5.955   0.593   2.039
 9126SOL    HW128277   6.019   0.518   2.058
 9126SOL    HW228278   5.879   0.589   2.105
 9127SOL     OW28279   5.250   0.154   6.266
 9127SOL    HW128280   5.250   0.239   6.319
 9127SOL    HW228281   5.192   0.087   6.313
 9128SOL     OW28282   3.427   2.059   5.394
 9128SOL    HW128283   3.334   2.071   5.361
 9128SOL    HW228284   3.434   1.972   5.444
 9129SOL     OW28285   2.034   2.377   6.419
 9129SOL    HW128286   2.045   2.301   6.484
 9129SOL    HW228287   1.960   2.356   6.355
 9130SOL     OW28288   6.050   5.039   0.589
 9130SOL    HW128289   6.129   4.979   0.608
 9130SOL    HW228290   6.071   5.097   0.511
 9131SOL     OW28291   0.354   4.056   4.335
 9131SOL    HW128292   0.312   4.128   4.390
 9131SOL    HW228293   0.320   3.967   4.364
 9132SOL     OW28294   0.105   3.399   3.838
 9132SOL    HW128295   0.056   3.485   3.845
 9132SOL    HW228296   0.085   3.342   3.918
 9133SOL     OW28297   1.865   4.270   1.406
 9133SOL    HW128298   1.923   4.331   1.353
 9133SOL    HW228299   1.922   4.209   1.461
 9134SOL     OW28300   3.598   6.771   0.362
 9134SOL    HW128301   3.602   6.740   0.457
 9134SOL    HW228302   3.690   6.771   0.323
 9135SOL     OW28303   6.635   6.435   2.933
 9135SOL    HW128304   6.667   6.352   2.887
 9135SOL    HW228305   6.707   6.504   2.929
 9136SOL     OW28306   4.830   5.471   5.731
 9136SOL    HW128307   4.774   5.501   5.654
 9136SOL    HW228308   4.773   5.426   5.799
 9137SOL     OW28309   4.913   1.263   1.389
 9137SOL    HW128310   4.838   1.198   1.401
 9137SOL    HW228311   4.884   1.353   1.420
 9138SOL     OW28312   5.900   4.680   6.320
 9138SOL    HW128313   5.971   4.674   6.391
 9138SOL    HW228314   5.825   4.738   6.352
 9139SOL     OW28315   3.264   0.520   6.027
 9139SOL    HW128316   3.339   0.466   5.990
 9139SOL    HW228317   3.225   0.474   6.107
 9140SOL     OW28318   6.400   2.439   2.992
 9140SOL    HW128319   6.374   2.364   3.053
 9140SOL    HW228320   6.395   2.526   3.042
 9141SOL     OW28321   5.251   0.142   5.975
 9141SOL    HW128322   5.327   0.080   5.957
 9141SOL    HW228323   5.229   0.141   6.073
 9142SOL     OW28324   0.485   2.964   5.576
 9142SOL    HW128325   0.420   2.913   5.633
 9142SOL    HW228326   0.518   2.905   5.503
 9143SOL     OW28327   4.545   3.482   0.395
 9143SOL    HW128328   4.462   3.521   0.357
 9143SOL    HW228329   4.533   3.383   0.407
 9144SOL     OW28330   2.060   5.281   5.706
 9144SOL    HW128331   2.006   5.359   5.736
 9144SOL    HW228332   2.095   5.232   5.786
 9145SOL     OW28333   0.711   4.255   0.226
 9145SOL    HW128334   0.695   4.156   0.236
 9145SOL    HW228335   0.781   4.283   0.292
 9146SOL     OW28336   5.523   2.606   1.364
 9146SOL    HW128337   5.543   2.513   1.335
 9146SOL    HW228338   5.486   2.604   1.458
 9147SOL     OW28339   4.612   5.825   3.889
 9147SOL    HW128340   4.677   5.758   3.852
 9147SOL    HW228341   4.545   5.849   3.818
 9148SOL     OW28342   5.097   5.955   3.073
 9148SOL    HW128343   5.018   5.961   3.133
 9148SOL    HW228344   5.075   5.896   2.995
 9149SOL     OW28345   4.860   3.128   4.306
 9149SOL    HW128346   4.955   3.158   4.301
 9149SOL    HW228347   4.835   3.111   4.401
 9150SOL     OW28348   4.795   6.741   3.283
 9150SOL    HW128349   4.863   6.791   3.229
 9150SOL    HW228350   4.826   6.734   3.378
 9151SOL     OW28351   1.158   4.099   1.925
 9151SOL    HW128352   1.083   4.100   1.990
 9151SOL    HW228353   1.243   4.124   1.972
 9152SOL     OW28354   2.696   6.109   3.704
 9152SOL    HW128355   2.627   6.160   3.755
 9152SOL    HW228356   2.722   6.161   3.623
 9153SOL     OW28357   1.163   2.548   6.885
 9153SOL    HW128358   1.137   2.621   6.822
 9153SOL    HW228359   1.259   2.556   6.908
 9154SOL     OW28360   2.853   5.754   0.097
 9154SOL    HW128361   2.931   5.779   0.154
 9154SOL    HW228362   2.882   5.749   0.001
 9155SOL     OW28363   2.353   3.718   6.498
 9155SOL    HW128364   2.434   3.745   6.445
 9155SOL    HW228365   2.271   3.728   6.442
 9156SOL     OW28366   3.397   2.364   1.377
 9156SOL    HW128367   3.479   2.314   1.350
 9156SOL    HW228368   3.415   2.416   1.460
 9157SOL     OW28369   5.732   4.289   5.381
 9157SOL    HW128370   5.822   4.270   5.419
 9157SOL    HW228371   5.681   4.347   5.444
 9158SOL     OW28372   0.044   3.981   4.542
 9158SOL    HW128373   0.121   3.923   4.514
 9158SOL    HW228374   0.075   4.046   4.611
 9159SOL     OW28375   0.461   5.512   3.333
 9159SOL    HW128376   0.462   5.447   3.409
 9159SOL    HW228377   0.550   5.511   3.287
 9160SOL     OW28378   0.730   6.819   6.071
 9160SOL    HW128379   0.720   6.840   5.974
 9160SOL    HW228380   0.694   6.728   6.090
 9161SOL     OW28381   4.953   4.097   4.848
 9161SOL    HW128382   4.892   4.060   4.918
 9161SOL    HW228383   5.047   4.069   4.867
 9162SOL     OW28384   5.475   2.761   3.325
 9162SOL    HW128385   5.419   2.680   3.307
 9162SOL    HW228386   5.565   2.733   3.358
 9163SOL     OW28387   2.534   2.543   3.816
 9163SOL    HW128388   2.488   2.527   3.728
 9163SOL    HW228389   2.494   2.623   3.860
 9164SOL     OW28390   2.632   0.681   6.728
 9164SOL    HW128391   2.533   0.693   6.733
 9164SOL    HW228392   2.671   0.752   6.669
 9165SOL     OW28393   6.119   0.426   6.507
 9165SOL    HW128394   6.219   0.434   6.502
 9165SOL    HW228395   6.078   0.474   6.429
 9166SOL     OW28396   4.509   5.843   1.126
 9166SOL    HW128397   4.409   5.837   1.121
 9166SOL    HW228398   4.546   5.864   1.035
 9167SOL     OW28399   1.597   3.543   6.098
 9167SOL    HW128400   1.601   3.450   6.060
 9167SOL    HW228401   1.561   3.605   6.029
 9168SOL     OW28402   2.406   0.163   5.828
 9168SOL    HW128403   2.480   0.223   5.858
 9168SOL    HW228404   2.345   0.143   5.905
 9169SOL     OW28405   0.203   0.749   4.989
 9169SOL    HW128406   0.253   0.753   5.076
 9169SOL    HW228407   0.258   0.792   4.917
 9170SOL     OW28408   6.987   4.965   6.980
 9170SOL    HW128409   6.946   4.927   6.898
 9170SOL    HW228410   0.065   4.958   6.975
 9171SOL     OW28411   2.966   5.463   6.926
 9171SOL    HW128412   3.019   5.540   6.962
 9171SOL    HW228413   2.937   5.483   6.832
 9172SOL     OW28414   3.526   1.422   4.633
 9172SOL    HW128415   3.460   1.489   4.598
 9172SOL    HW228416   3.531   1.345   4.570
 9173SOL     OW28417   5.900   4.595   4.732
 9173SOL    HW128418   5.882   4.660   4.806
 9173SOL    HW228419   5.940   4.511   4.769
 9174SOL     OW28420   6.351   4.189   0.294
 9174SOL    HW128421   6.292   4.133   0.352
 9174SOL    HW228422   6.326   4.285   0.304
 9175SOL     OW28423   2.296   6.000   5.634
 9175SOL    HW128424   2.389   6.036   5.642
 9175SOL    HW228425   2.254   6.037   5.550
 9176SOL     OW28426   1.525   1.187   5.588
 9176SOL    HW128427   1.562   1.272   5.552
 9176SOL    HW228428   1.454   1.153   5.526
 9177SOL     OW28429   1.174   4.079   4.258
 9177SOL    HW128430   1.213   4.033   4.338
 9177SOL    HW228431   1.235   4.152   4.228
 9178SOL     OW28432   2.025   5.236   0.996
 9178SOL    HW128433   1.944   5.200   0.950
 9178SOL    HW228434   2.074   5.160   1.039
 9179SOL     OW28435   2.321   5.302   4.189
 9179SOL    HW128436   2.400   5.241   4.193
 9179SOL    HW228437   2.281   5.299   4.098
 9180SOL     OW28438   6.289   2.564   3.776
 9180SOL    HW128439   6.347   2.582   3.697
 9180SOL    HW228440   6.202   2.611   3.765
 9181SOL     OW28441   4.486   2.385   2.792
 9181SOL    HW128442   4.439   2.335   2.719
 9181SOL    HW228443   4.435   2.376   2.877
 9182SOL     OW28444   2.333   6.773   2.228
 9182SOL    HW128445   2.278   6.727   2.159
 9182SOL    HW228446   2.414   6.814   2.185
 9183SOL     OW28447   5.221   6.375   0.578
 9183SOL    HW128448   5.205   6.471   0.600
 9183SOL    HW228449   5.319   6.360   0.562
 9184SOL     OW28450   5.166   0.494   0.642
 9184SOL    HW128451   5.114   0.563   0.591
 9184SOL    HW228452   5.151   0.404   0.601
 9185SOL     OW28453   4.048   0.385   5.550
 9185SOL    HW128454   4.143   0.383   5.579
 9185SOL    HW228455   4.032   0.316   5.480
 9186SOL     OW28456   6.397   0.571   4.403
 9186SOL    HW128457   6.360   0.532   4.487
 9186SOL    HW228458   6.458   0.647   4.426
 9187SOL     OW28459   2.106   6.841   1.605
 9187SOL    HW128460   2.181   6.820   1.668
 9187SOL    HW228461   2.096   6.940   1.597
 9188SOL     OW28462   2.339   6.420   1.018
 9188SOL    HW128463   2.424   6.368   1.027
 9188SOL    HW228464   2.345   6.503   1.074
 9189SOL     OW28465   5.339   5.803   2.765
 9189SOL    HW128466   5.438   5.807   2.781
 9189SOL    HW228467   5.291   5.823   2.850
 9190SOL     OW28468   1.924   5.771   0.180
 9190SOL    HW128469   1.862   5.769   0.102
 9190SOL    HW228470   2.013   5.733   0.154
 9191SOL     OW28471   6.462   0.575   4.976
 9191SOL    HW128472   6.382   0.534   5.021
 9191SOL    HW228473   6.464   0.673   4.996
 9192SOL     OW28474   0.230   4.265   4.502
 9192SOL    HW128475   0.169   4.294   4.428
 9192SOL    HW228476   0.228   4.333   4.575
 9193SOL     OW28477   4.047   3.836   0.056
 9193SOL    HW128478   4.120   3.780   0.093
 9193SOL    HW228479   4.026   3.807   6.984
 9194SOL     OW28480   3.600   0.765   4.014
 9194SOL    HW128481   3.543   0.697   3.969
 9194SOL    HW228482   3.555   0.796   4.098
 9195SOL     OW28483   1.971   2.173   4.303
 9195SOL    HW128484   1.960   2.152   4.206
 9195SOL    HW228485   2.020   2.098   4.348
 9196SOL     OW28486   4.126   1.544   4.897
 9196SOL    HW128487   4.110   1.446   4.901
 9196SOL    HW228488   4.081   1.583   4.817
 9197SOL     OW28489   2.064   4.144   1.599
 9197SOL    HW128490   2.027   4.065   1.649
 9197SOL    HW228491   2.125   4.111   1.527
 9198SOL     OW28492   6.624   5.149   5.326
 9198SOL    HW128493   6.574   5.091   5.390
 9198SOL    HW228494   6.614   5.113   5.233
 9199SOL     OW28495   0.612   3.410   6.158
 9199SOL    HW128496   0.711   3.419   6.168
 9199SOL    HW228497   0.585   3.440   6.067
 9200SOL     OW28498   2.216   0.096   1.052
 9200SOL    HW128499   2.226   0.018   0.990
 9200SOL    HW228500   2.305   0.141   1.063
 9201SOL     OW28501   1.050   3.064   0.070
 9201SOL    HW128502   0.972   3.070   0.008
 9201SOL    HW228503   1.058   3.149   0.122
 9202SOL     OW28504   2.411   6.508   3.073
 9202SOL    HW128505   2.441   6.603   3.087
 9202SOL    HW228506   2.404   6.489   2.976
 9203SOL     OW28507   6.927   5.197   0.096
 9203SOL    HW128508   6.951   5.162   0.186
 9203SOL    HW228509   6.951   5.129   0.026
 9204SOL     OW28510   4.946   1.810   6.748
 9204SOL    HW128511   5.035   1.829   6.707
 9204SOL    HW228512   4.943   1.849   6.840
 9205SOL     OW28513   0.027   4.293   2.637
 9205SOL    HW128514   0.038   4.392   2.623
 9205SOL    HW228515   6.969   4.262   2.586
 9206SOL     OW28516   3.313   5.836   1.015
 9206SOL    HW128517   3.225   5.805   1.050
 9206SOL    HW228518   3.331   5.791   0.927
 9207SOL     OW28519   4.477   5.140   0.118
 9207SOL    HW128520   4.552   5.203   0.097
 9207SOL    HW228521   4.396   5.193   0.143
 9208SOL     OW28522   6.066   3.890   4.357
 9208SOL    HW128523   5.991   3.939   4.400
 9208SOL    HW228524   6.140   3.954   4.336
 9209SOL     OW28525   2.789   1.452   0.124
 9209SOL    HW128526   2.866   1.468   0.185
 9209SOL    HW228527   2.808   1.374   0.065
 9210SOL     OW28528   6.266   1.472   2.751
 9210SOL    HW128529   6.224   1.555   2.789
 9210SOL    HW228530   6.237   1.459   2.657
 9211SOL     OW28531   0.282   3.099   4.081
 9211SOL    HW128532   0.315   3.066   3.992
 9211SOL    HW228533   0.356   3.148   4.127
 9212SOL     OW28534   3.871   5.104   4.385
 9212SOL    HW128535   3.902   5.010   4.403
 9212SOL    HW228536   3.950   5.162   4.365
 9213SOL     OW28537   5.908   3.159   5.491
 9213SOL    HW128538   5.932   3.256   5.500
 9213SOL    HW228539   5.985   3.103   5.523
 9214SOL     OW28540   6.741   5.248   6.061
 9214SOL    HW128541   6.695   5.336   6.074
 9214SOL    HW228542   6.776   5.215   6.149
 9215SOL     OW28543   0.978   1.638   0.561
 9215SOL    HW128544   0.985   1.541   0.581
 9215SOL    HW228545   1.055   1.686   0.604
 9216SOL     OW28546   2.738   6.844   3.454
 9216SOL    HW128547   2.676   6.889   3.390
 9216SOL    HW228548   2.772   6.910   3.521
 9217SOL     OW28549   0.484   0.909   6.488
 9217SOL    HW128550   0.503   0.823   6.535
 9217SOL    HW228551   0.521   0.985   6.542
 9218SOL     OW28552   3.452   6.414   0.506
 9218SOL    HW128553   3.435   6.434   0.603
 9218SOL    HW228554   3.369   6.378   0.464
 9219SOL     OW28555   0.968   2.862   0.334
 9219SOL    HW128556   1.022   2.896   0.411
 9219SOL    HW228557   0.923   2.777   0.360
 9220SOL     OW28558   3.114   6.492   1.452
 9220SOL    HW128559   3.016   6.485   1.469
 9220SOL    HW228560   3.130   6.504   1.353
 9221SOL     OW28561   3.231   0.373   4.131
 9221SOL    HW128562   3.212   0.288   4.179
 9221SOL    HW228563   3.325   0.371   4.096
 9222SOL     OW28564   2.505   0.982   6.706
 9222SOL    HW128565   2.531   1.071   6.745
 9222SOL    HW228566   2.573   0.953   6.639
 9223SOL     OW28567   1.516   2.448   4.939
 9223SOL    HW128568   1.597   2.489   4.981
 9223SOL    HW228569   1.434   2.491   4.976
 9224SOL     OW28570   2.637   5.290   3.921
 9224SOL    HW128571   2.557   5.327   3.874
 9224SOL    HW228572   2.615   5.275   4.017
 9225SOL     OW28573   3.196   6.682   6.464
 9225SOL    HW128574   3.269   6.617   6.480
 9225SOL    HW228575   3.196   6.709   6.367
 9226SOL     OW28576   4.826   6.259   1.567
 9226SOL    HW128577   4.731   6.242   1.541
 9226SOL    HW228578   4.880   6.176   1.552
 9227SOL     OW28579   0.836   5.261   3.384
 9227SOL    HW128580   0.781   5.247   3.301
 9227SOL    HW228581   0.909   5.326   3.364
 9228SOL     OW28582   1.400   0.957   5.960
 9228SOL    HW128583   1.360   1.049   5.963
 9228SOL    HW228584   1.399   0.924   5.865
 9229SOL     OW28585   1.862   5.423   4.304
 9229SOL    HW128586   1.782   5.366   4.322
 9229SOL    HW228587   1.942   5.365   4.287
 9230SOL     OW28588   5.669   0.304   2.834
 9230SOL    HW128589   5.671   0.218   2.783
 9230SOL    HW228590   5.711   0.290   2.924
 9231SOL     OW28591   1.524   3.000   4.415
 9231SOL    HW128592   1.457   3.059   4.370
 9231SOL    HW228593   1.595   3.056   4.458
 9232SOL     OW28594   3.598   5.038   0.602
 9232SOL    HW128595   3.524   4.972   0.611
 9232SOL    HW228596   3.615   5.055   0.505
 9233SOL     OW28597   5.906   5.444   1.291
 9233SOL    HW128598   6.001   5.471   1.280
 9233SOL    HW228599   5.869   5.483   1.375
 9234SOL     OW28600   2.819   5.650   3.484
 9234SOL    HW128601   2.790   5.556   3.465
 9234SOL    HW228602   2.787   5.677   3.575
 9235SOL     OW28603   1.898   1.846   3.056
 9235SOL    HW128604   1.839   1.801   2.988
 9235SOL    HW228605   1.927   1.934   3.020
 9236SOL     OW28606   3.594   4.105   5.530
 9236SOL    HW128607   3.641   4.017   5.526
 9236SOL    HW228608   3.575   4.137   5.437
 9237SOL     OW28609   1.659   4.297   4.527
 9237SOL    HW128610   1.616   4.366   4.470
 9237SOL    HW228611   1.613   4.209   4.515
 9238SOL     OW28612   4.585   2.529   6.502
 9238SOL    HW128613   4.571   2.493   6.409
 9238SOL    HW228614   4.646   2.608   6.498
 9239SOL     OW28615   0.054   3.916   1.110
 9239SOL    HW128616   0.135   3.947   1.160
 9239SOL    HW228617   0.063   3.819   1.089
 9240SOL     OW28618   5.534   1.673   0.578
 9240SOL    HW128619   5.498   1.715   0.494
 9240SOL    HW228620   5.614   1.617   0.555
 9241SOL     OW28621   6.934   5.197   6.691
 9241SOL    HW128622   0.007   5.206   6.723
 9241SOL    HW228623   6.895   5.288   6.677
 9242SOL     OW28624   0.073   5.855   1.139
 9242SOL    HW128625   0.115   5.783   1.195
 9242SOL    HW228626   6.999   5.867   1.167
 9243SOL     OW28627   0.248   5.433   3.659
 9243SOL    HW128628   0.227   5.414   3.563
 9243SOL    HW228629   0.175   5.488   3.699
 9244SOL     OW28630   4.334   5.846   6.617
 9244SOL    HW128631   4.434   5.852   6.618
 9244SOL    HW228632   4.298   5.883   6.702
 9245SOL     OW28633   1.361   5.512   2.415
 9245SOL    HW128634   1.454   5.475   2.416
 9245SOL    HW228635   1.295   5.438   2.410
 9246SOL     OW28636   6.721   4.938   4.043
 9246SOL    HW128637   6.702   5.010   3.976
 9246SOL    HW228638   6.813   4.951   4.080
 9247SOL     OW28639   1.120   0.787   3.048
 9247SOL    HW128640   1.150   0.878   3.077
 9247SOL    HW228641   1.137   0.777   2.950
 9248SOL     OW28642   3.009   2.554   5.811
 9248SOL    HW128643   2.968   2.634   5.765
 9248SOL    HW228644   3.100   2.578   5.844
 9249SOL     OW28645   5.608   2.122   5.146
 9249SOL    HW128646   5.643   2.114   5.052
 9249SOL    HW228647   5.678   2.092   5.210
 9250SOL     OW28648   4.901   3.943   4.349
 9250SOL    HW128649   4.880   3.849   4.375
 9250SOL    HW228650   4.939   3.945   4.256
 9251SOL     OW28651   3.942   1.252   3.090
 9251SOL    HW128652   3.932   1.351   3.084
 9251SOL    HW228653   3.856   1.208   3.063
 9252SOL     OW28654   6.793   0.145   4.807
 9252SOL    HW128655   6.715   0.099   4.765
 9252SOL    HW228656   6.872   0.140   4.746
 9253SOL     OW28657   2.854   6.194   6.289
 9253SOL    HW128658   2.905   6.276   6.262
 9253SOL    HW228659   2.884   6.163   6.378
 9254SOL     OW28660   5.927   3.874   1.279
 9254SOL    HW128661   6.026   3.877   1.273
 9254SOL    HW228662   5.896   3.938   1.349
 9255SOL     OW28663   5.133   2.995   0.121
 9255SOL    HW128664   5.208   2.988   0.187
 9255SOL    HW228665   5.143   2.922   0.053
 9256SOL     OW28666   4.032   4.753   2.613
 9256SOL    HW128667   3.975   4.671   2.619
 9256SOL    HW228668   3.978   4.833   2.637
 9257SOL     OW28669   1.037   3.521   2.430
 9257SOL    HW128670   1.075   3.558   2.346
 9257SOL    HW228671   1.094   3.444   2.461
 9258SOL     OW28672   3.546   3.561   4.096
 9258SOL    HW128673   3.606   3.498   4.146
 9258SOL    HW228674   3.452   3.527   4.101
 9259SOL     OW28675   0.947   2.382   1.033
 9259SOL    HW128676   0.921   2.303   0.978
 9259SOL    HW228677   0.881   2.394   1.108
 9260SOL     OW28678   4.807   2.735   5.310
 9260SOL    HW128679   4.895   2.702   5.276
 9260SOL    HW228680   4.820   2.826   5.350
 9261SOL     OW28681   4.227   0.231   6.669
 9261SOL    HW128682   4.154   0.289   6.706
 9261SOL    HW228683   4.294   0.288   6.621
 9262SOL     OW28684   5.789   1.867   6.022
 9262SOL    HW128685   5.735   1.938   6.067
 9262SOL    HW228686   5.870   1.909   5.979
 9263SOL     OW28687   5.458   4.285   1.277
 9263SOL    HW128688   5.465   4.383   1.300
 9263SOL    HW228689   5.456   4.275   1.178
 9264SOL     OW28690   6.737   3.608   0.310
 9264SOL    HW128691   6.671   3.626   0.237
 9264SOL    HW228692   6.757   3.693   0.359
 9265SOL     OW28693   2.671   1.717   0.846
 9265SOL    HW128694   2.707   1.714   0.939
 9265SOL    HW228695   2.728   1.661   0.787
 9266SOL     OW28696   2.649   6.337   2.920
 9266SOL    HW128697   2.725   6.320   2.858
 9266SOL    HW228698   2.594   6.414   2.886
 9267SOL     OW28699   0.152   4.034   4.142
 9267SOL    HW128700   0.100   4.088   4.075
 9267SOL    HW228701   0.250   4.051   4.131
 9268SOL     OW28702   0.636   6.716   3.024
 9268SOL    HW128703   0.683   6.739   3.109
 9268SOL    HW228704   0.563   6.651   3.043
 9269SOL     OW28705   2.990   2.398   0.225
 9269SOL    HW128706   3.010   2.387   0.128
 9269SOL    HW228707   3.046   2.333   0.278
 9270SOL     OW28708   6.536   6.707   5.192
 9270SOL    HW128709   6.575   6.797   5.175
 9270SOL    HW228710   6.611   6.640   5.199
 9271SOL     OW28711   1.878   6.183   1.331
 9271SOL    HW128712   1.881   6.107   1.267
 9271SOL    HW228713   1.884   6.270   1.281
 9272SOL     OW28714   2.826   4.064   5.916
 9272SOL    HW128715   2.763   4.140   5.904
 9272SOL    HW228716   2.817   4.000   5.840
 9273SOL     OW28717   4.630   5.421   3.407
 9273SOL    HW128718   4.652   5.372   3.322
 9273SOL    HW228719   4.714   5.457   3.448
 9274SOL     OW28720   5.368   2.517   6.960
 9274SOL    HW128721   5.442   2.481   7.017
 9274SOL    HW228722   5.383   2.614   6.943
 9275SOL     OW28723   1.230   1.317   6.887
 9275SOL    HW128724   1.216   1.350   6.980
 9275SOL    HW228725   1.311   1.257   6.884
 9276SOL     OW28726   3.029   5.006   4.663
 9276SOL    HW128727   3.095   4.953   4.609
 9276SOL    HW228728   3.039   5.103   4.642
 9277SOL     OW28729   3.376   3.268   0.228
 9277SOL    HW128730   3.434   3.303   0.155
 9277SOL    HW228731   3.370   3.336   0.301
 9278SOL     OW28732   1.153   1.741   4.139
 9278SOL    HW128733   1.194   1.788   4.061
 9278SOL    HW228734   1.224   1.696   4.192
 9279SOL     OW28735   3.979   0.325   2.215
 9279SOL    HW128736   3.972   0.235   2.172
 9279SOL    HW228737   4.013   0.391   2.147
 9280SOL     OW28738   1.146   6.954   3.731
 9280SOL    HW128739   1.181   6.867   3.765
 9280SOL    HW228740   1.213   6.995   3.668
 9281SOL     OW28741   2.394   3.076   0.959
 9281SOL    HW128742   2.330   3.040   0.891
 9281SOL    HW228743   2.351   3.076   1.049
 9282SOL     OW28744   4.908   1.959   4.441
 9282SOL    HW128745   4.939   2.050   4.412
 9282SOL    HW228746   4.986   1.896   4.440
 9283SOL     OW28747   6.314   1.967   3.076
 9283SOL    HW128748   6.304   1.878   3.119
 9283SOL    HW228749   6.312   1.956   2.976
 9284SOL     OW28750   3.871   4.722   0.536
 9284SOL    HW128751   3.870   4.623   0.522
 9284SOL    HW228752   3.788   4.749   0.586
 9285SOL     OW28753   6.488   3.222   6.895
 9285SOL    HW128754   6.503   3.206   6.797
 9285SOL    HW228755   6.492   3.135   6.944
 9286SOL     OW28756   5.727   6.612   5.598
 9286SOL    HW128757   5.677   6.698   5.590
 9286SOL    HW228758   5.742   6.574   5.506
 9287SOL     OW28759   3.051   5.520   1.264
 9287SOL    HW128760   3.039   5.434   1.214
 9287SOL    HW228761   3.149   5.543   1.268
 9288SOL     OW28762   4.020   1.369   5.630
 9288SOL    HW128763   3.978   1.425   5.701
 9288SOL    HW228764   4.107   1.410   5.602
 9289SOL     OW28765   5.110   2.490   2.748
 9289SOL    HW128766   5.149   2.399   2.739
 9289SOL    HW228767   5.014   2.489   2.720
 9290SOL     OW28768   4.133   1.912   4.966
 9290SOL    HW128769   4.214   1.856   4.986
 9290SOL    HW228770   4.051   1.864   4.998
 9291SOL     OW28771   1.578   0.430   5.038
 9291SOL    HW128772   1.604   0.486   5.116
 9291SOL    HW228773   1.541   0.342   5.069
 9292SOL     OW28774   0.029   3.160   6.318
 9292SOL    HW128775   6.955   3.188   6.323
 9292SOL    HW228776   0.080   3.227   6.264
 9293SOL     OW28777   5.000   4.384   1.135
 9293SOL    HW128778   5.056   4.435   1.070
 9293SOL    HW228779   5.021   4.414   1.228
 9294SOL     OW28780   3.866   5.939   0.209
 9294SOL    HW128781   3.883   5.915   0.113
 9294SOL    HW228782   3.871   6.038   0.220
 9295SOL     OW28783   5.082   1.985   2.947
 9295SOL    HW128784   4.987   1.956   2.959
 9295SOL    HW228785   5.118   1.946   2.862
 9296SOL     OW28786   6.071   6.592   6.059
 9296SOL    HW128787   6.052   6.494   6.052
 9296SOL    HW228788   5.990   6.644   6.030
 9297SOL     OW28789   0.301   0.665   1.458
 9297SOL    HW128790   0.339   0.573   1.442
 9297SOL    HW228791   0.231   0.684   1.389
 9298SOL     OW28792   2.266   6.088   5.386
 9298SOL    HW128793   2.350   6.093   5.332
 9298SOL    HW228794   2.192   6.132   5.335
 9299SOL     OW28795   1.520   2.762   3.982
 9299SOL    HW128796   1.559   2.674   3.957
 9299SOL    HW228797   1.573   2.803   4.056
 9300SOL     OW28798   6.633   5.010   5.062
 9300SOL    HW128799   6.607   4.923   5.019
 9300SOL    HW228800   6.565   5.080   5.041
 9301SOL     OW28801   4.915   4.370   2.971
 9301SOL    HW128802   4.822   4.347   3.001
 9301SOL    HW228803   4.929   4.335   2.878
 9302SOL     OW28804   2.463   2.668   3.304
 9302SOL    HW128805   2.368   2.697   3.319
 9302SOL    HW228806   2.523   2.748   3.310
 9303SOL     OW28807   4.121   6.613   0.516
 9303SOL    HW128808   4.129   6.683   0.445
 9303SOL    HW228809   4.210   6.597   0.558
 9304SOL     OW28810   3.770   4.281   0.631
 9304SOL    HW128811   3.673   4.263   0.620
 9304SOL    HW228812   3.792   4.293   0.728
 9305SOL     OW28813   5.738   2.044   1.477
 9305SOL    HW128814   5.801   2.121   1.462
 9305SOL    HW228815   5.728   1.993   1.392
 9306SOL     OW28816   0.333   4.776   4.145
 9306SOL    HW128817   0.280   4.812   4.068
 9306SOL    HW228818   0.411   4.723   4.110
 9307SOL     OW28819   1.486   2.517   1.070
 9307SOL    HW128820   1.388   2.534   1.082
 9307SOL    HW228821   1.500   2.464   0.986
 9308SOL     OW28822   0.390   3.714   0.858
 9308SOL    HW128823   0.488   3.710   0.836
 9308SOL    HW228824   0.377   3.699   0.956
 9309SOL     OW28825   4.038   4.790   5.471
 9309SOL    HW128826   4.089   4.866   5.512
 9309SOL    HW228827   3.959   4.769   5.528
 9310SOL     OW28828   4.351   6.754   5.939
 9310SOL    HW128829   4.359   6.655   5.929
 9310SOL    HW228830   4.268   6.776   5.989
 9311SOL     OW28831   5.727   4.172   0.847
 9311SOL    HW128832   5.770   4.101   0.903
 9311SOL    HW228833   5.643   4.202   0.891
 9312SOL     OW28834   1.837   4.549   6.724
 9312SOL    HW128835   1.846   4.641   6.686
 9312SOL    HW228836   1.925   4.520   6.761
 9313SOL     OW28837   6.851   0.703   2.323
 9313SOL    HW128838   6.754   0.720   2.306
 9313SOL    HW228839   6.867   0.698   2.422
 9314SOL     OW28840   3.877   5.553   6.797
 9314SOL    HW128841   3.975   5.553   6.777
 9314SOL    HW228842   3.825   5.548   6.712
 9315SOL     OW28843   6.798   0.656   5.760
 9315SOL    HW128844   6.812   0.573   5.706
 9315SOL    HW228845   6.792   0.735   5.699
 9316SOL     OW28846   4.064   5.824   4.424
 9316SOL    HW128847   4.031   5.730   4.415
 9316SOL    HW228848   4.071   5.848   4.521
 9317SOL     OW28849   5.927   5.339   2.927
 9317SOL    HW128850   5.930   5.241   2.909
 9317SOL    HW228851   5.864   5.357   3.003
 9318SOL     OW28852   0.163   0.577   6.329
 9318SOL    HW128853   0.213   0.544   6.409
 9318SOL    HW228854   0.171   0.677   6.323
 9319SOL     OW28855   0.906   2.955   6.266
 9319SOL    HW128856   1.006   2.962   6.261
 9319SOL    HW228857   0.872   3.011   6.341
 9320SOL     OW28858   3.660   2.110   5.773
 9320SOL    HW128859   3.569   2.071   5.787
 9320SOL    HW228860   3.662   2.159   5.686
 9321SOL     OW28861   5.967   0.011   2.798
 9321SOL    HW128862   6.037   0.081   2.801
 9321SOL    HW228863   5.977   6.972   2.877
 9322SOL     OW28864   0.140   6.193   5.883
 9322SOL    HW128865   0.237   6.191   5.859
 9322SOL    HW228866   0.097   6.275   5.847
 9323SOL     OW28867   1.671   0.295   5.992
 9323SOL    HW128868   1.700   0.273   5.899
 9323SOL    HW228869   1.640   0.212   6.038
 9324SOL     OW28870   1.369   4.711   0.341
 9324SOL    HW128871   1.419   4.705   0.428
 9324SOL    HW228872   1.347   4.806   0.321
 9325SOL     OW28873   5.117   1.679   1.014
 9325SOL    HW128874   5.170   1.742   0.957
 9325SOL    HW228875   5.177   1.629   1.075
 9326SOL     OW28876   2.924   0.282   0.569
 9326SOL    HW128877   2.897   0.256   0.476
 9326SOL    HW228878   2.880   0.369   0.594
 9327SOL     OW28879   4.885   6.694   3.559
 9327SOL    HW128880   4.817   6.653   3.620
 9327SOL    HW228881   4.888   6.793   3.573
 9328SOL     OW28882   3.979   1.576   6.848
 9328SOL    HW128883   4.068   1.619   6.834
 9328SOL    HW228884   3.984   1.479   6.825
 9329SOL     OW28885   6.636   3.049   3.024
 9329SOL    HW128886   6.618   3.082   3.116
 9329SOL    HW228887   6.712   2.985   3.025
 9330SOL     OW28888   7.008   6.467   0.748
 9330SOL    HW128889   0.040   6.389   0.781
 9330SOL    HW228890   0.043   6.526   0.692
 9331SOL     OW28891   0.381   1.062   0.117
 9331SOL    HW128892   0.478   1.064   0.092
 9331SOL    HW228893   0.326   1.046   0.035
 9332SOL     OW28894   3.330   4.131   3.476
 9332SOL    HW128895   3.333   4.231   3.471
 9332SOL    HW228896   3.322   4.094   3.383
 9333SOL     OW28897   5.753   3.876   1.011
 9333SOL    HW128898   5.780   3.864   1.107
 9333SOL    HW228899   5.665   3.830   0.996
 9334SOL     OW28900   3.274   0.224   3.519
 9334SOL    HW128901   3.268   0.210   3.420
 9334SOL    HW228902   3.346   0.165   3.556
 9335SOL     OW28903   1.172   1.799   6.651
 9335SOL    HW128904   1.189   1.717   6.706
 9335SOL    HW228905   1.252   1.858   6.652
 9336SOL     OW28906   2.926   6.522   6.289
 9336SOL    HW128907   2.917   6.503   6.387
 9336SOL    HW228908   2.989   6.599   6.277
 9337SOL     OW28909   5.183   0.691   2.703
 9337SOL    HW128910   5.101   0.639   2.679
 9337SOL    HW228911   5.172   0.732   2.793
 9338SOL     OW28912   3.951   0.199   1.946
 9338SOL    HW128913   4.047   0.188   1.917
 9338SOL    HW228914   3.927   0.125   2.009
 9339SOL     OW28915   5.677   6.939   0.858
 9339SOL    HW128916   5.767   6.907   0.828
 9339SOL    HW228917   5.686   6.991   0.943
 9340SOL     OW28918   5.252   3.513   5.703
 9340SOL    HW128919   5.315   3.554   5.636
 9340SOL    HW228920   5.159   3.545   5.686
 9341SOL     OW28921   1.355   5.854   6.702
 9341SOL    HW128922   1.266   5.813   6.682
 9341SOL    HW228923   1.366   5.862   6.801
 9342SOL     OW28924   1.862   0.346   4.918
 9342SOL    HW128925   1.763   0.362   4.921
 9342SOL    HW228926   1.888   0.315   4.826
 9343SOL     OW28927   6.228   5.227   4.946
 9343SOL    HW128928   6.169   5.215   4.866
 9343SOL    HW228929   6.189   5.298   5.005
 9344SOL     OW28930   4.903   6.495   0.576
 9344SOL    HW128931   4.911   6.395   0.565
 9344SOL    HW228932   4.861   6.515   0.665
 9345SOL     OW28933   6.400   2.756   2.373
 9345SOL    HW128934   6.482   2.804   2.341
 9345SOL    HW228935   6.348   2.816   2.434
 9346SOL     OW28936   5.753   0.543   1.471
 9346SOL    HW128937   5.694   0.503   1.401
 9346SOL    HW228938   5.826   0.595   1.427
 9347SOL     OW28939   1.544   5.845   1.276
 9347SOL    HW128940   1.544   5.749   1.248
 9347SOL    HW228941   1.493   5.854   1.362
 9348SOL     OW28942   3.939   6.049   0.492
 9348SOL    HW128943   3.854   6.099   0.511
 9348SOL    HW228944   3.926   5.992   0.411
 9349SOL     OW28945   0.825   6.792   2.262
 9349SOL    HW128946   0.896   6.818   2.328
 9349SOL    HW228947   0.778   6.874   2.229
 9350SOL     OW28948   0.293   2.583   6.422
 9350SOL    HW128949   0.216   2.564   6.483
 9350SOL    HW228950   0.263   2.642   6.347
 9351SOL     OW28951   3.172   2.138   6.910
 9351SOL    HW128952   3.242   2.154   6.840
 9351SOL    HW228953   3.095   2.089   6.869
 9352SOL     OW28954   2.810   4.051   6.898
 9352SOL    HW128955   2.863   4.126   6.859
 9352SOL    HW228956   2.854   4.018   6.981
 9353SOL     OW28957   1.089   5.859   1.844
 9353SOL    HW128958   1.092   5.957   1.822
 9353SOL    HW228959   1.182   5.823   1.848
 9354SOL     OW28960   5.911   2.822   6.651
 9354SOL    HW128961   6.010   2.839   6.650
 9354SOL    HW228962   5.867   2.878   6.581
 9355SOL     OW28963   0.479   1.699   4.990
 9355SOL    HW128964   0.415   1.643   4.939
 9355SOL    HW228965   0.477   1.672   5.087
 9356SOL     OW28966   4.520   6.947   1.790
 9356SOL    HW128967   4.473   6.884   1.851
 9356SOL    HW228968   4.593   6.994   1.840
 9357SOL     OW28969   0.679   2.167   0.040
 9357SOL    HW128970   0.584   2.191   0.022
 9357SOL    HW228971   0.726   2.150   6.975
 9358SOL     OW28972   0.763   3.038   2.297
 9358SOL    HW128973   0.786   3.052   2.201
 9358SOL    HW228974   0.663   3.037   2.308
 9359SOL     OW28975   2.252   6.549   6.012
 9359SOL    HW128976   2.337   6.583   6.051
 9359SOL    HW228977   2.264   6.453   5.985
 9360SOL     OW28978   1.380   0.227   6.525
 9360SOL    HW128979   1.377   0.321   6.491
 9360SOL    HW228980   1.307   0.174   6.482
 9361SOL     OW28981   2.285   6.208   4.145
 9361SOL    HW128982   2.299   6.270   4.068
 9361SOL    HW228983   2.286   6.113   4.112
 9362SOL     OW28984   1.934   0.498   2.581
 9362SOL    HW128985   1.912   0.596   2.580
 9362SOL    HW228986   1.872   0.450   2.643
 9363SOL     OW28987   2.707   5.318   2.508
 9363SOL    HW128988   2.734   5.222   2.503
 9363SOL    HW228989   2.649   5.333   2.588
 9364SOL     OW28990   1.769   1.927   1.720
 9364SOL    HW128991   1.850   1.869   1.726
 9364SOL    HW228992   1.702   1.885   1.659
 9365SOL     OW28993   3.164   1.758   4.266
 9365SOL    HW128994   3.123   1.831   4.321
 9365SOL    HW228995   3.229   1.798   4.201
 9366SOL     OW28996   3.381   5.800   0.562
 9366SOL    HW128997   3.414   5.721   0.510
 9366SOL    HW228998   3.327   5.768   0.640
 9367SOL     OW28999   5.454   0.683   1.071
 9367SOL    HW129000   5.440   0.724   1.162
 9367SOL    HW229001   5.433   0.586   1.074
 9368SOL     OW29002   3.570   0.772   2.952
 9368SOL    HW129003   3.498   0.834   2.983
 9368SOL    HW229004   3.643   0.825   2.908
 9369SOL     OW29005   1.777   5.200   6.366
 9369SOL    HW129006   1.852   5.197   6.299
 9369SOL    HW229007   1.735   5.290   6.364
 9370SOL     OW29008   5.002   2.204   4.340
 9370SOL    HW129009   4.911   2.225   4.305
 9370SOL    HW229010   5.060   2.172   4.264
 9371SOL     OW29011   3.558   6.152   1.402
 9371SOL    HW129012   3.543   6.232   1.343
 9371SOL    HW229013   3.469   6.118   1.434
 9372SOL     OW29014   5.117   7.012   1.464
 9372SOL    HW129015   5.036   0.048   1.473
 9372SOL    HW229016   5.193   0.044   1.427
 9373SOL     OW29017   6.612   1.327   0.756
 9373SOL    HW129018   6.519   1.292   0.749
 9373SOL    HW229019   6.677   1.251   0.761
 9374SOL     OW29020   1.011   4.755   5.303
 9374SOL    HW129021   0.977   4.830   5.246
 9374SOL    HW229022   1.097   4.721   5.265
 9375SOL     OW29023   0.513   1.992   6.822
 9375SOL    HW129024   0.437   1.951   6.771
 9375SOL    HW229025   0.586   2.017   6.759
 9376SOL     OW29026   2.145   3.788   2.169
 9376SOL    HW129027   2.176   3.793   2.264
 9376SOL    HW229028   2.171   3.700   2.130
 9377SOL     OW29029   2.511   6.525   2.799
 9377SOL    HW129030   2.585   6.592   2.789
 9377SOL    HW229031   2.425   6.565   2.765
 9378SOL     OW29032   3.591   0.295   3.533
 9378SOL    HW129033   3.584   0.375   3.473
 9378SOL    HW229034   3.524   0.303   3.607
 9379SOL     OW29035   4.434   6.925   4.521
 9379SOL    HW129036   4.432   6.947   4.619
 9379SOL    HW229037   4.434   6.826   4.510
 9380SOL     OW29038   4.914   5.821   0.028
 9380SOL    HW129039   4.822   5.802   7.015
 9380SOL    HW229040   4.982   5.788   6.984
 9381SOL     OW29041   5.726   2.158   4.910
 9381SOL    HW129042   5.821   2.186   4.902
 9381SOL    HW229043   5.667   2.231   4.875
 9382SOL     OW29044   3.195   0.144   4.494
 9382SOL    HW129045   3.161   0.126   4.402
 9382SOL    HW229046   3.290   0.177   4.489
 9383SOL     OW29047   4.708   4.290   3.590
 9383SOL    HW129048   4.757   4.211   3.627
 9383SOL    HW229049   4.728   4.299   3.492
 9384SOL     OW29050   1.604   0.587   2.303
 9384SOL    HW129051   1.633   0.589   2.207
 9384SOL    HW229052   1.644   0.508   2.348
 9385SOL     OW29053   4.251   1.500   3.133
 9385SOL    HW129054   4.157   1.522   3.108
 9385SOL    HW229055   4.274   1.408   3.102
 9386SOL     OW29056   4.050   6.345   5.774
 9386SOL    HW129057   4.013   6.396   5.696
 9386SOL    HW229058   4.032   6.395   5.859
 9387SOL     OW29059   3.007   2.354   6.948
 9387SOL    HW129060   3.060   2.432   6.980
 9387SOL    HW229061   3.068   2.277   6.929
 9388SOL     OW29062   1.986   6.384   4.532
 9388SOL    HW129063   1.899   6.415   4.493
 9388SOL    HW229064   2.057   6.451   4.510
 9389SOL     OW29065   2.904   4.963   1.560
 9389SOL    HW129066   2.807   4.967   1.581
 9389SOL    HW229067   2.940   4.873   1.585
 9390SOL     OW29068   4.840   5.318   5.333
 9390SOL    HW129069   4.921   5.370   5.307
 9390SOL    HW229070   4.836   5.233   5.281
 9391SOL     OW29071   1.732   6.041   5.006
 9391SOL    HW129072   1.645   6.067   4.963
 9391SOL    HW229073   1.805   6.044   4.938
 9392SOL     OW29074   5.964   4.410   2.838
 9392SOL    HW129075   6.062   4.408   2.858
 9392SOL    HW229076   5.924   4.494   2.875
 9393SOL     OW29077   2.634   6.394   5.627
 9393SOL    HW129078   2.636   6.444   5.713
 9393SOL    HW229079   2.709   6.426   5.568
 9394SOL     OW29080   4.627   6.692   1.078
 9394SOL    HW129081   4.707   6.633   1.089
 9394SOL    HW229082   4.545   6.636   1.066
 9395SOL     OW29083   2.428   2.162   0.653
 9395SOL    HW129084   2.525   2.183   0.640
 9395SOL    HW229085   2.401   2.188   0.746
 9396SOL     OW29086   0.978   6.570   6.362
 9396SOL    HW129087   0.945   6.559   6.455
 9396SOL    HW229088   0.914   6.526   6.298
 9397SOL     OW29089   3.923   0.982   6.336
 9397SOL    HW129090   3.937   0.895   6.384
 9397SOL    HW229091   3.964   1.056   6.389
 9398SOL     OW29092   0.403   1.260   6.796
 9398SOL    HW129093   0.348   1.343   6.792
 9398SOL    HW229094   0.440   1.249   6.889
 9399SOL     OW29095   1.927   2.585   3.809
 9399SOL    HW129096   1.941   2.587   3.710
 9399SOL    HW229097   1.983   2.657   3.852
 9400SOL     OW29098   5.729   1.301   0.696
 9400SOL    HW129099   5.809   1.243   0.681
 9400SOL    HW229100   5.737   1.383   0.640
 9401SOL     OW29101   0.348   1.673   3.123
 9401SOL    HW129102   0.250   1.685   3.111
 9401SOL    HW229103   0.376   1.710   3.212
 9402SOL     OW29104   1.360   5.781   3.433
 9402SOL    HW129105   1.413   5.719   3.491
 9402SOL    HW229106   1.419   5.821   3.363
 9403SOL     OW29107   6.270   2.747   1.945
 9403SOL    HW129108   6.286   2.649   1.960
 9403SOL    HW229109   6.353   2.788   1.907
 9404SOL     OW29110   2.042   3.456   0.901
 9404SOL    HW129111   1.982   3.378   0.883
 9404SOL    HW229112   2.002   3.539   0.863
 9405SOL     OW29113   0.740   5.219   5.262
 9405SOL    HW129114   0.702   5.306   5.291
 9405SOL    HW229115   0.840   5.222   5.267
 9406SOL     OW29116   6.945   3.024   7.003
 9406SOL    HW129117   6.923   3.122   6.998
 9406SOL    HW229118   6.896   2.976   6.930
 9407SOL     OW29119   1.576   4.747   5.450
 9407SOL    HW129120   1.632   4.786   5.523
 9407SOL    HW229121   1.607   4.654   5.431
 9408SOL     OW29122   6.839   4.605   4.811
 9408SOL    HW129123   6.907   4.587   4.740
 9408SOL    HW229124   6.749   4.613   4.769
 9409SOL     OW29125   0.064   5.339   2.213
 9409SOL    HW129126   0.137   5.272   2.193
 9409SOL    HW229127   0.075   5.418   2.153
 9410SOL     OW29128   4.244   1.144   1.291
 9410SOL    HW129129   4.196   1.181   1.370
 9410SOL    HW229130   4.329   1.195   1.277
 9411SOL     OW29131   3.125   3.317   3.479
 9411SOL    HW129132   3.044   3.376   3.476
 9411SOL    HW229133   3.179   3.330   3.395
 9412SOL     OW29134   6.139   6.432   1.597
 9412SOL    HW129135   6.157   6.341   1.561
 9412SOL    HW229136   6.084   6.484   1.531
 9413SOL     OW29137   4.239   4.744   3.021
 9413SOL    HW129138   4.269   4.676   2.953
 9413SOL    HW229139   4.301   4.743   3.099
 9414SOL     OW29140   1.604   2.169   4.488
 9414SOL    HW129141   1.630   2.078   4.456
 9414SOL    HW229142   1.686   2.222   4.510
 9415SOL     OW29143   3.949   1.382   2.359
 9415SOL    HW129144   3.880   1.355   2.292
 9415SOL    HW229145   3.905   1.422   2.439
 9416SOL     OW29146   6.255   5.097   6.381
 9416SOL    HW129147   6.289   5.054   6.464
 9416SOL    HW229148   6.155   5.094   6.380
 9417SOL     OW29149   3.763   6.156   1.607
 9417SOL    HW129150   3.789   6.060   1.599
 9417SOL    HW229151   3.740   6.192   1.517
 9418SOL     OW29152   2.977   2.217   4.604
 9418SOL    HW129153   3.062   2.267   4.588
 9418SOL    HW229154   2.998   2.126   4.641
 9419SOL     OW29155   2.224   3.094   6.372
 9419SOL    HW129156   2.150   3.143   6.326
 9419SOL    HW229157   2.228   3.000   6.338
 9420SOL     OW29158   6.481   3.985   6.982
 9420SOL    HW129159   6.398   4.037   6.960
 9420SOL    HW229160   6.502   3.996   0.057
 9421SOL     OW29161   3.581   6.251   5.411
 9421SOL    HW129162   3.596   6.198   5.327
 9421SOL    HW229163   3.484   6.252   5.433
 9422SOL     OW29164   2.443   5.853   4.470
 9422SOL    HW129165   2.383   5.774   4.478
 9422SOL    HW229166   2.401   5.932   4.515
 9423SOL     OW29167   5.048   4.794   3.763
 9423SOL    HW129168   5.063   4.855   3.686
 9423SOL    HW229169   4.974   4.829   3.820
 9424SOL     OW29170   5.945   0.387   4.754
 9424SOL    HW129171   5.864   0.416   4.703
 9424SOL    HW229172   6.020   0.452   4.736
 9425SOL     OW29173   0.068   5.141   0.696
 9425SOL    HW129174   6.999   5.117   0.731
 9425SOL    HW229175   0.130   5.064   0.708
 9426SOL     OW29176   6.770   2.164   6.818
 9426SOL    HW129177   6.838   2.237   6.813
 9426SOL    HW229178   6.682   2.202   6.846
 9427SOL     OW29179   4.490   5.159   3.088
 9427SOL    HW129180   4.464   5.091   3.019
 9427SOL    HW229181   4.408   5.187   3.139
 9428SOL     OW29182   6.921   6.729   5.564
 9428SOL    HW129183   6.989   6.657   5.558
 9428SOL    HW229184   6.963   6.817   5.542
 9429SOL     OW29185   2.302   2.312   3.770
 9429SOL    HW129186   2.269   2.333   3.862
 9429SOL    HW229187   2.311   2.397   3.717
 9430SOL     OW29188   0.506   2.334   4.440
 9430SOL    HW129189   0.598   2.312   4.473
 9430SOL    HW229190   0.467   2.406   4.496
 9431SOL     OW29191   0.632   5.038   5.045
 9431SOL    HW129192   0.545   5.029   5.092
 9431SOL    HW229193   0.677   5.123   5.073
 9432SOL     OW29194   6.659   1.096   3.988
 9432SOL    HW129195   6.651   1.039   3.907
 9432SOL    HW229196   6.573   1.094   4.039
 9433SOL     OW29197   4.650   5.747   2.539
 9433SOL    HW129198   4.638   5.787   2.630
 9433SOL    HW229199   4.561   5.743   2.493
 9434SOL     OW29200   5.242   4.861   4.455
 9434SOL    HW129201   5.238   4.961   4.453
 9434SOL    HW229202   5.226   4.825   4.363
 9435SOL     OW29203   0.274   2.693   1.702
 9435SOL    HW129204   0.353   2.754   1.706
 9435SOL    HW229205   0.193   2.740   1.738
 9436SOL     OW29206   1.790   0.495   3.182
 9436SOL    HW129207   1.799   0.535   3.274
 9436SOL    HW229208   1.868   0.435   3.164
 9437SOL     OW29209   6.176   6.073   4.576
 9437SOL    HW129210   6.186   5.976   4.554
 9437SOL    HW229211   6.103   6.112   4.521
 9438SOL     OW29212   4.141   6.023   2.487
 9438SOL    HW129213   4.215   6.075   2.443
 9438SOL    HW229214   4.141   5.929   2.451
 9439SOL     OW29215   1.211   3.321   1.019
 9439SOL    HW129216   1.273   3.246   0.995
 9439SOL    HW229217   1.214   3.337   1.118
 9440SOL     OW29218   2.100   5.095   3.332
 9440SOL    HW129219   2.084   5.050   3.244
 9440SOL    HW229220   2.083   5.031   3.406
 9441SOL     OW29221   0.535   6.172   4.753
 9441SOL    HW129222   0.474   6.100   4.786
 9441SOL    HW229223   0.487   6.229   4.686
 9442SOL     OW29224   4.372   3.273   0.772
 9442SOL    HW129225   4.446   3.331   0.737
 9442SOL    HW229226   4.314   3.325   0.833
 9443SOL     OW29227   1.747   4.476   3.208
 9443SOL    HW129228   1.781   4.382   3.211
 9443SOL    HW229229   1.711   4.495   3.116
 9444SOL     OW29230   0.866   4.767   6.411
 9444SOL    HW129231   0.915   4.731   6.491
 9444SOL    HW229232   0.838   4.692   6.352
 9445SOL     OW29233   0.152   1.308   4.122
 9445SOL    HW129234   0.082   1.363   4.167
 9445SOL    HW229235   0.237   1.313   4.174
 9446SOL     OW29236   6.333   5.288   3.091
 9446SOL    HW129237   6.338   5.322   3.184
 9446SOL    HW229238   6.410   5.227   3.073
 9447SOL     OW29239   5.011   4.180   1.913
 9447SOL    HW129240   4.925   4.148   1.875
 9447SOL    HW229241   5.085   4.165   1.847
 9448SOL     OW29242   6.158   0.569   5.529
 9448SOL    HW129243   6.110   0.497   5.479
 9448SOL    HW229244   6.095   0.643   5.551
 9449SOL     OW29245   5.924   6.866   1.254
 9449SOL    HW129246   5.968   6.836   1.338
 9449SOL    HW229247   5.831   6.897   1.274
 9450SOL     OW29248   1.526   5.133   3.498
 9450SOL    HW129249   1.455   5.063   3.508
 9450SOL    HW229250   1.530   5.188   3.581
 9451SOL     OW29251   3.381   5.926   6.480
 9451SOL    HW129252   3.363   5.867   6.559
 9451SOL    HW229253   3.295   5.948   6.434
 9452SOL     OW29254   6.897   4.231   0.303
 9452SOL    HW129255   6.811   4.191   0.335
 9452SOL    HW229256   6.928   4.300   0.368
 9453SOL     OW29257   5.165   5.655   2.350
 9453SOL    HW129258   5.193   5.569   2.308
 9453SOL    HW229259   5.191   5.731   2.290
 9454SOL     OW29260   5.241   4.247   0.481
 9454SOL    HW129261   5.320   4.267   0.422
 9454SOL    HW229262   5.273   4.223   0.572
 9455SOL     OW29263   3.331   2.051   1.837
 9455SOL    HW129264   3.355   1.957   1.861
 9455SOL    HW229265   3.356   2.112   1.912
 9456SOL     OW29266   6.651   3.226   1.075
 9456SOL    HW129267   6.582   3.172   1.123
 9456SOL    HW229268   6.655   3.198   0.979
 9457SOL     OW29269   0.187   6.014   3.999
 9457SOL    HW129270   0.281   5.981   4.007
 9457SOL    HW229271   0.153   6.041   4.089
 9458SOL     OW29272   6.507   3.707   0.210
 9458SOL    HW129273   6.475   3.670   0.123
 9458SOL    HW229274   6.444   3.682   0.283
 9459SOL     OW29275   4.561   4.747   5.222
 9459SOL    HW129276   4.602   4.779   5.307
 9459SOL    HW229277   4.624   4.683   5.177
 9460SOL     OW29278   1.660   1.997   3.141
 9460SOL    HW129279   1.625   1.934   3.073
 9460SOL    HW229280   1.645   2.091   3.111
 9461SOL     OW29281   1.573   2.230   2.418
 9461SOL    HW129282   1.563   2.153   2.355
 9461SOL    HW229283   1.508   2.302   2.393
 9462SOL     OW29284   1.260   1.471   4.262
 9462SOL    HW129285   1.348   1.503   4.297
 9462SOL    HW229286   1.275   1.402   4.192
 9463SOL     OW29287   5.554   5.354   1.280
 9463SOL    HW129288   5.467   5.390   1.247
 9463SOL    HW229289   5.621   5.357   1.206
 9464SOL     OW29290   1.166   0.859   1.565
 9464SOL    HW129291   1.245   0.860   1.628
 9464SOL    HW229292   1.158   0.948   1.520
 9465SOL     OW29293   6.325   4.414   1.315
 9465SOL    HW129294   6.346   4.366   1.400
 9465SOL    HW229295   6.227   4.407   1.297
 9466SOL     OW29296   3.808   4.658   5.574
 9466SOL    HW129297   3.754   4.584   5.533
 9466SOL    HW229298   3.821   4.640   5.671
 9467SOL     OW29299   2.199   4.154   0.721
 9467SOL    HW129300   2.149   4.111   0.646
 9467SOL    HW229301   2.260   4.224   0.685
 9468SOL     OW29302   6.438   1.574   0.127
 9468SOL    HW129303   6.496   1.610   0.200
 9468SOL    HW229304   6.424   1.644   0.057
 9469SOL     OW29305   1.100   6.523   1.513
 9469SOL    HW129306   1.078   6.569   1.426
 9469SOL    HW229307   1.052   6.569   1.588
 9470SOL     OW29308   3.733   4.477   0.442
 9470SOL    HW129309   3.644   4.514   0.468
 9470SOL    HW229310   3.760   4.407   0.508
 9471SOL     OW29311   6.099   3.741   5.084
 9471SOL    HW129312   6.159   3.663   5.068
 9471SOL    HW229313   6.036   3.752   5.007
 9472SOL     OW29314   1.652   2.767   6.102
 9472SOL    HW129315   1.670   2.847   6.161
 9472SOL    HW229316   1.711   2.692   6.129
 9473SOL     OW29317   3.263   4.650   0.318
 9473SOL    HW129318   3.163   4.648   0.309
 9473SOL    HW229319   3.305   4.640   0.228
 9474SOL     OW29320   5.919   2.732   0.870
 9474SOL    HW129321   6.012   2.696   0.878
 9474SOL    HW229322   5.911   2.788   0.787
 9475SOL     OW29323   4.839   3.741   6.266
 9475SOL    HW129324   4.835   3.643   6.251
 9475SOL    HW229325   4.867   3.787   6.182
 9476SOL     OW29326   4.142   4.117   6.447
 9476SOL    HW129327   4.226   4.136   6.499
 9476SOL    HW229328   4.070   4.181   6.475
 9477SOL     OW29329   2.040   4.467   0.845
 9477SOL    HW129330   2.061   4.423   0.757
 9477SOL    HW229331   2.110   4.441   0.912
 9478SOL     OW29332   5.657   3.306   0.586
 9478SOL    HW129333   5.682   3.365   0.663
 9478SOL    HW229334   5.726   3.234   0.576
 9479SOL     OW29335   3.942   0.454   1.807
 9479SOL    HW129336   3.880   0.464   1.729
 9479SOL    HW229337   3.938   0.361   1.842
 9480SOL     OW29338   6.712   0.180   0.181
 9480SOL    HW129339   6.758   0.257   0.138
 9480SOL    HW229340   6.632   0.154   0.128
 9481SOL     OW29341   4.202   0.495   3.745
 9481SOL    HW129342   4.174   0.535   3.658
 9481SOL    HW229343   4.160   0.405   3.756
 9482SOL     OW29344   6.531   6.580   0.267
 9482SOL    HW129345   6.449   6.638   0.276
 9482SOL    HW229346   6.593   6.599   0.343
 9483SOL     OW29347   6.817   0.137   0.614
 9483SOL    HW129348   6.764   0.106   0.693
 9483SOL    HW229349   6.755   0.170   0.543
 9484SOL     OW29350   4.185   6.084   5.027
 9484SOL    HW129351   4.101   6.137   5.015
 9484SOL    HW229352   4.163   5.986   5.023
 9485SOL     OW29353   6.716   1.182   0.461
 9485SOL    HW129354   6.672   1.259   0.508
 9485SOL    HW229355   6.672   1.168   0.372
 9486SOL     OW29356   5.268   5.695   0.569
 9486SOL    HW129357   5.252   5.755   0.647
 9486SOL    HW229358   5.180   5.665   0.532
 9487SOL     OW29359   2.982   3.228   3.155
 9487SOL    HW129360   2.924   3.252   3.077
 9487SOL    HW229361   2.944   3.270   3.238
 9488SOL     OW29362   1.819   1.353   0.932
 9488SOL    HW129363   1.759   1.274   0.945
 9488SOL    HW229364   1.765   1.436   0.932
 9489SOL     OW29365   5.044   4.079   0.421
 9489SOL    HW129366   5.102   4.160   0.430
 9489SOL    HW229367   5.083   4.018   0.352
 9490SOL     OW29368   5.336   4.210   4.327
 9490SOL    HW129369   5.262   4.146   4.346
 9490SOL    HW229370   5.398   4.214   4.406
 9491SOL     OW29371   4.693   6.013   2.816
 9491SOL    HW129372   4.785   6.038   2.785
 9491SOL    HW229373   4.699   5.969   2.906
 9492SOL     OW29374   4.820   2.971   4.037
 9492SOL    HW129375   4.793   3.015   4.123
 9492SOL    HW229376   4.892   3.025   3.993
 9493SOL     OW29377   4.153   6.860   2.141
 9493SOL    HW129378   4.216   6.932   2.171
 9493SOL    HW229379   4.184   6.772   2.177
 9494SOL     OW29380   5.368   2.195   2.147
 9494SOL    HW129381   5.434   2.166   2.216
 9494SOL    HW229382   5.364   2.295   2.145
 9495SOL     OW29383   0.864   1.612   2.230
 9495SOL    HW129384   0.783   1.669   2.216
 9495SOL    HW229385   0.944   1.671   2.242
 9496SOL     OW29386   5.135   2.084   2.270
 9496SOL    HW129387   5.222   2.119   2.236
 9496SOL    HW229388   5.065   2.155   2.259
 9497SOL     OW29389   4.882   4.916   4.948
 9497SOL    HW129390   4.866   4.989   4.882
 9497SOL    HW229391   4.964   4.937   5.002
 9498SOL     OW29392   0.410   5.682   3.663
 9498SOL    HW129393   0.358   5.636   3.735
 9498SOL    HW229394   0.453   5.764   3.700
 9499SOL     OW29395   6.521   5.606   5.753
 9499SOL    HW129396   6.574   5.644   5.677
 9499SOL    HW229397   6.436   5.658   5.762
 9500SOL     OW29398   4.104   1.481   0.608
 9500SOL    HW129399   4.169   1.488   0.684
 9500SOL    HW229400   4.033   1.551   0.619
 9501SOL     OW29401   1.611   3.188   5.212
 9501SOL    HW129402   1.636   3.164   5.306
 9501SOL    HW229403   1.558   3.272   5.212
 9502SOL     OW29404   5.680   4.632   5.407
 9502SOL    HW129405   5.694   4.648   5.310
 9502SOL    HW229406   5.679   4.720   5.455
 9503SOL     OW29407   0.515   2.897   0.188
 9503SOL    HW129408   0.596   2.947   0.218
 9503SOL    HW229409   0.542   2.816   0.137
 9504SOL     OW29410   6.038   5.126   2.316
 9504SOL    HW129411   6.122   5.077   2.339
 9504SOL    HW229412   6.015   5.190   2.388
 9505SOL     OW29413   4.003   5.127   5.517
 9505SOL    HW129414   3.955   5.106   5.432
 9505SOL    HW229415   4.078   5.191   5.498
 9506SOL     OW29416   3.373   1.653   1.320
 9506SOL    HW129417   3.278   1.652   1.288
 9506SOL    HW229418   3.391   1.570   1.373
 9507SOL     OW29419   5.121   0.774   2.204
 9507SOL    HW129420   5.220   0.756   2.199
 9507SOL    HW229421   5.078   0.706   2.262
 9508SOL     OW29422   5.393   1.875   2.773
 9508SOL    HW129423   5.318   1.858   2.708
 9508SOL    HW229424   5.383   1.815   2.852
 9509SOL     OW29425   6.291   7.003   3.304
 9509SOL    HW129426   6.211   6.971   3.253
 9509SOL    HW229427   6.322   0.068   3.266
 9510SOL     OW29428   1.555   2.289   3.596
 9510SOL    HW129429   1.571   2.372   3.542
 9510SOL    HW229430   1.498   2.311   3.675
 9511SOL     OW29431   2.015   1.606   0.815
 9511SOL    HW129432   1.957   1.664   0.758
 9511SOL    HW229433   2.013   1.639   0.909
 9512SOL     OW29434   6.400   2.024   1.013
 9512SOL    HW129435   6.480   1.976   1.048
 9512SOL    HW229436   6.380   1.994   0.920
 9513SOL     OW29437   4.137   5.126   6.354
 9513SOL    HW129438   4.133   5.226   6.349
 9513SOL    HW229439   4.226   5.098   6.388
 9514SOL     OW29440   3.647   2.913   0.293
 9514SOL    HW129441   3.563   2.927   0.240
 9514SOL    HW229442   3.726   2.918   0.231
 9515SOL     OW29443   1.368   4.862   4.149
 9515SOL    HW129444   1.437   4.897   4.213
 9515SOL    HW229445   1.401   4.872   4.056
 9516SOL     OW29446   6.560   4.343   1.149
 9516SOL    HW129447   6.484   4.381   1.203
 9516SOL    HW229448   6.586   4.254   1.186
 9517SOL     OW29449   0.881   4.959   0.216
 9517SOL    HW129450   0.796   4.928   0.259
 9517SOL    HW229451   0.928   5.022   0.278
 9518SOL     OW29452   1.193   1.484   0.101
 9518SOL    HW129453   1.247   1.561   0.070
 9518SOL    HW229454   1.118   1.516   0.160
 9519SOL     OW29455   1.045   3.043   5.142
 9519SOL    HW129456   1.136   3.032   5.103
 9519SOL    HW229457   0.987   3.094   5.079
 9520SOL     OW29458   3.171   6.574   1.917
 9520SOL    HW129459   3.253   6.629   1.927
 9520SOL    HW229460   3.095   6.632   1.888
 9521SOL     OW29461   5.488   5.253   4.083
 9521SOL    HW129462   5.580   5.288   4.065
 9521SOL    HW229463   5.493   5.156   4.104
 9522SOL     OW29464   3.739   5.900   0.944
 9522SOL    HW129465   3.718   5.803   0.938
 9522SOL    HW229466   3.788   5.929   0.862
 9523SOL     OW29467   3.673   5.560   4.492
 9523SOL    HW129468   3.642   5.559   4.587
 9523SOL    HW229469   3.627   5.635   4.443
 9524SOL     OW29470   4.474   3.037   1.176
 9524SOL    HW129471   4.401   3.033   1.243
 9524SOL    HW229472   4.531   2.955   1.182
 9525SOL     OW29473   3.624   0.670   6.070
 9525SOL    HW129474   3.548   0.732   6.088
 9525SOL    HW229475   3.698   0.719   6.026
 9526SOL     OW29476   5.716   5.444   2.109
 9526SOL    HW129477   5.738   5.347   2.119
 9526SOL    HW229478   5.678   5.460   2.018
 9527SOL     OW29479   6.835   1.906   1.537
 9527SOL    HW129480   6.796   1.833   1.593
 9527SOL    HW229481   6.813   1.994   1.578
 9528SOL     OW29482   6.635   0.902   2.298
 9528SOL    HW129483   6.672   0.957   2.373
 9528SOL    HW229484   6.629   0.957   2.215
 9529SOL     OW29485   0.775   3.766   5.482
 9529SOL    HW129486   0.790   3.677   5.524
 9529SOL    HW229487   0.702   3.758   5.414
 9530SOL     OW29488   1.261   2.119   3.748
 9530SOL    HW129489   1.319   2.144   3.826
 9530SOL    HW229490   1.174   2.167   3.756
 9531SOL     OW29491   3.362   6.117   2.291
 9531SOL    HW129492   3.273   6.152   2.261
 9531SOL    HW229493   3.430   6.190   2.285
 9532SOL     OW29494   1.665   0.571   2.049
 9532SOL    HW129495   1.685   0.652   1.994
 9532SOL    HW229496   1.614   0.505   1.995
 9533SOL     OW29497   2.249   0.881   4.907
 9533SOL    HW129498   2.163   0.921   4.935
 9533SOL    HW229499   2.235   0.825   4.825
 9534SOL     OW29500   4.627   2.637   4.881
 9534SOL    HW129501   4.692   2.713   4.890
 9534SOL    HW229502   4.641   2.591   4.794
 9535SOL     OW29503   2.024   1.487   5.662
 9535SOL    HW129504   2.090   1.475   5.589
 9535SOL    HW229505   1.938   1.442   5.638
 9536SOL     OW29506   2.223   6.503   5.645
 9536SOL    HW129507   2.139   6.519   5.697
 9536SOL    HW229508   2.202   6.508   5.547
 9537SOL     OW29509   2.757   6.929   0.823
 9537SOL    HW129510   2.831   6.886   0.875
 9537SOL    HW229511   2.670   6.915   0.870
 9538SOL     OW29512   6.636   3.116   4.002
 9538SOL    HW129513   6.677   3.027   4.019
 9538SOL    HW229514   6.682   3.159   3.924
 9539SOL     OW29515   0.379   5.538   1.027
 9539SOL    HW129516   0.303   5.507   0.970
 9539SOL    HW229517   0.405   5.631   1.000
 9540SOL     OW29518   4.908   4.496   4.753
 9540SOL    HW129519   4.949   4.506   4.844
 9540SOL    HW229520   4.838   4.425   4.755
 9541SOL     OW29521   2.112   2.165   3.582
 9541SOL    HW129522   2.162   2.239   3.626
 9541SOL    HW229523   2.021   2.197   3.557
 9542SOL     OW29524   4.945   3.666   4.454
 9542SOL    HW129525   4.956   3.591   4.389
 9542SOL    HW229526   4.932   3.630   4.546
 9543SOL     OW29527   5.445   2.301   2.541
 9543SOL    HW129528   5.492   2.228   2.493
 9543SOL    HW229529   5.424   2.375   2.477
 9544SOL     OW29530   3.673   1.534   2.004
 9544SOL    HW129531   3.732   1.613   1.989
 9544SOL    HW229532   3.722   1.465   2.057
 9545SOL     OW29533   0.061   6.957   4.365
 9545SOL    HW129534   0.030   6.936   4.272
 9545SOL    HW229535   0.034   6.883   4.427
 9546SOL     OW29536   3.167   4.759   0.610
 9546SOL    HW129537   3.081   4.782   0.656
 9546SOL    HW229538   3.160   4.669   0.568
 9547SOL     OW29539   0.040   6.292   3.131
 9547SOL    HW129540   0.078   6.379   3.163
 9547SOL    HW229541   0.008   6.239   3.209
 9548SOL     OW29542   4.683   6.307   2.739
 9548SOL    HW129543   4.654   6.213   2.755
 9548SOL    HW229544   4.773   6.308   2.695
 9549SOL     OW29545   2.559   6.044   0.815
 9549SOL    HW129546   2.499   5.987   0.759
 9549SOL    HW229547   2.604   5.987   0.884
 9550SOL     OW29548   1.201   1.723   0.733
 9550SOL    HW129549   1.298   1.705   0.719
 9550SOL    HW229550   1.189   1.788   0.808
 9551SOL     OW29551   2.317   6.182   4.919
 9551SOL    HW129552   2.269   6.244   4.856
 9551SOL    HW229553   2.272   6.184   5.008
 9552SOL     OW29554   1.046   5.476   3.366
 9552SOL    HW129555   1.054   5.549   3.434
 9552SOL    HW229556   1.115   5.405   3.384
 9553SOL     OW29557   5.729   4.656   5.148
 9553SOL    HW129558   5.673   4.581   5.113
 9553SOL    HW229559   5.789   4.690   5.075
 9554SOL     OW29560   2.186   1.722   2.068
 9554SOL    HW129561   2.216   1.734   1.973
 9554SOL    HW229562   2.197   1.626   2.094
 9555SOL     OW29563   6.695   2.433   0.096
 9555SOL    HW129564   6.622   2.367   0.117
 9555SOL    HW229565   6.783   2.394   0.121
 9556SOL     OW29566   1.368   1.816   1.359
 9556SOL    HW129567   1.297   1.793   1.426
 9556SOL    HW229568   1.334   1.887   1.298
 9557SOL     OW29569   5.396   2.396   1.719
 9557SOL    HW129570   5.353   2.447   1.644
 9557SOL    HW229571   5.328   2.338   1.763
 9558SOL     OW29572   6.379   5.142   2.356
 9558SOL    HW129573   6.392   5.220   2.418
 9558SOL    HW229574   6.328   5.172   2.276
 9559SOL     OW29575   6.701   2.773   2.500
 9559SOL    HW129576   6.615   2.744   2.541
 9559SOL    HW229577   6.683   2.820   2.414
 9560SOL     OW29578   2.826   1.489   3.943
 9560SOL    HW129579   2.776   1.420   3.995
 9560SOL    HW229580   2.888   1.538   4.004
 9561SOL     OW29581   3.705   0.102   1.117
 9561SOL    HW129582   3.788   0.087   1.171
 9561SOL    HW229583   3.661   0.014   1.100
 9562SOL     OW29584   6.335   5.468   2.877
 9562SOL    HW129585   6.333   5.401   2.951
 9562SOL    HW229586   6.275   5.545   2.899
 9563SOL     OW29587   0.171   5.602   6.398
 9563SOL    HW129588   0.266   5.570   6.406
 9563SOL    HW229589   0.117   5.533   6.350
 9564SOL     OW29590   2.842   6.976   6.837
 9564SOL    HW129591   2.905   7.008   6.766
 9564SOL    HW229592   2.895   6.949   6.918
 9565SOL     OW29593   3.997   6.120   4.404
 9565SOL    HW129594   4.046   6.207   4.413
 9565SOL    HW229595   4.052   6.056   4.350
 9566SOL     OW29596   3.119   4.757   5.214
 9566SOL    HW129597   3.066   4.676   5.190
 9566SOL    HW229598   3.125   4.765   5.314
 9567SOL     OW29599   6.236   5.260   5.887
 9567SOL    HW129600   6.205   5.348   5.922
 9567SOL    HW229601   6.239   5.194   5.961
 9568SOL     OW29602   5.030   4.046   6.767
 9568SOL    HW129603   5.040   3.948   6.785
 9568SOL    HW229604   5.027   4.061   6.668
 9569SOL     OW29605   6.298   0.190   0.806
 9569SOL    HW129606   6.202   0.216   0.794
 9569SOL    HW229607   6.349   0.267   0.844
 9570SOL     OW29608   0.729   0.433   6.781
 9570SOL    HW129609   0.768   0.520   6.809
 9570SOL    HW229610   0.750   0.363   6.850
 9571SOL     OW29611   2.564   4.150   0.540
 9571SOL    HW129612   2.547   4.243   0.574
 9571SOL    HW229613   2.485   4.118   0.488
 9572SOL     OW29614   1.408   4.440   0.832
 9572SOL    HW129615   1.329   4.481   0.878
 9572SOL    HW229616   1.432   4.354   0.876
 9573SOL     OW29617   0.094   1.956   1.185
 9573SOL    HW129618   0.061   1.884   1.245
 9573SOL    HW229619   0.018   2.017   1.161
 9574SOL     OW29620   2.136   1.665   5.312
 9574SOL    HW129621   2.056   1.609   5.334
 9574SOL    HW229622   2.120   1.759   5.341
 9575SOL     OW29623   5.313   1.163   1.515
 9575SOL    HW129624   5.336   1.148   1.419
 9575SOL    HW229625   5.271   1.254   1.525
 9576SOL     OW29626   3.353   2.056   5.825
 9576SOL    HW129627   3.286   2.063   5.751
 9576SOL    HW229628   3.346   1.967   5.868
 9577SOL     OW29629   0.586   6.058   3.219
 9577SOL    HW129630   0.670   6.008   3.199
 9577SOL    HW229631   0.580   6.077   3.317
 9578SOL     OW29632   5.635   3.505   2.242
 9578SOL    HW129633   5.616   3.603   2.243
 9578SOL    HW229634   5.550   3.455   2.229
 9579SOL     OW29635   0.851   6.511   3.070
 9579SOL    HW129636   0.823   6.500   2.974
 9579SOL    HW229637   0.846   6.422   3.116
 9580SOL     OW29638   4.276   3.945   6.252
 9580SOL    HW129639   4.329   4.004   6.190
 9580SOL    HW229640   4.229   4.001   6.319
 9581SOL     OW29641   1.400   4.951   6.506
 9581SOL    HW129642   1.469   4.989   6.445
 9581SOL    HW229643   1.314   4.936   6.456
 9582SOL     OW29644   4.267   5.330   4.585
 9582SOL    HW129645   4.265   5.275   4.668
 9582SOL    HW229646   4.210   5.287   4.515
 9583SOL     OW29647   2.391   4.472   2.139
 9583SOL    HW129648   2.328   4.549   2.144
 9583SOL    HW229649   2.466   4.495   2.077
 9584SOL     OW29650   6.342   5.736   6.324
 9584SOL    HW129651   6.340   5.662   6.391
 9584SOL    HW229652   6.276   5.717   6.252
 9585SOL     OW29653   6.799   0.071   4.265
 9585SOL    HW129654   6.796   0.161   4.307
 9585SOL    HW229655   6.876   0.019   4.302
 9586SOL     OW29656   5.349   3.544   3.086
 9586SOL    HW129657   5.407   3.504   3.015
 9586SOL    HW229658   5.379   3.510   3.176
 9587SOL     OW29659   4.984   6.570   2.604
 9587SOL    HW129660   5.012   6.666   2.609
 9587SOL    HW229661   4.969   6.545   2.508
 9588SOL     OW29662   0.225   0.488   2.996
 9588SOL    HW129663   0.265   0.399   2.977
 9588SOL    HW229664   0.290   0.543   3.049
 9589SOL     OW29665   2.367   1.187   6.028
 9589SOL    HW129666   2.369   1.174   5.929
 9589SOL    HW229667   2.390   1.101   6.074
 9590SOL     OW29668   6.463   4.605   5.021
 9590SOL    HW129669   6.543   4.638   5.072
 9590SOL    HW229670   6.463   4.505   5.020
 9591SOL     OW29671   1.445   4.524   2.191
 9591SOL    HW129672   1.367   4.479   2.146
 9591SOL    HW229673   1.521   4.459   2.198
 9592SOL     OW29674   4.802   5.345   2.171
 9592SOL    HW129675   4.898   5.339   2.199
 9592SOL    HW229676   4.775   5.441   2.167
 9593SOL     OW29677   1.477   2.718   4.404
 9593SOL    HW129678   1.506   2.808   4.436
 9593SOL    HW229679   1.435   2.669   4.480
 9594SOL     OW29680   5.815   6.583   2.315
 9594SOL    HW129681   5.727   6.535   2.312
 9594SOL    HW229682   5.806   6.665   2.370
 9595SOL     OW29683   0.480   3.873   4.610
 9595SOL    HW129684   0.540   3.917   4.544
 9595SOL    HW229685   0.456   3.938   4.682
 9596SOL     OW29686   4.620   5.765   3.336
 9596SOL    HW129687   4.586   5.680   3.296
 9596SOL    HW229688   4.644   5.750   3.432
 9597SOL     OW29689   1.935   4.113   0.890
 9597SOL    HW129690   1.992   4.104   0.971
 9597SOL    HW229691   1.988   4.092   0.808
 9598SOL     OW29692   0.719   5.640   5.617
 9598SOL    HW129693   0.628   5.641   5.660
 9598SOL    HW229694   0.726   5.716   5.553
 9599SOL     OW29695   5.155   1.847   4.696
 9599SOL    HW129696   5.191   1.933   4.662
 9599SOL    HW229697   5.128   1.788   4.620
 9600SOL     OW29698   1.873   6.341   0.181
 9600SOL    HW129699   1.832   6.432   0.191
 9600SOL    HW229700   1.888   6.322   0.084
 9601SOL     OW29701   0.877   5.753   6.108
 9601SOL    HW129702   0.891   5.801   6.021
 9601SOL    HW229703   0.890   5.655   6.094
 9602SOL     OW29704   1.312   5.630   0.641
 9602SOL    HW129705   1.411   5.637   0.638
 9602SOL    HW229706   1.271   5.719   0.620
 9603SOL     OW29707   1.274   4.705   4.346
 9603SOL    HW129708   1.246   4.754   4.428
 9603SOL    HW229709   1.260   4.763   4.265
 9604SOL     OW29710   0.196   6.956   0.433
 9604SOL    HW129711   0.257   0.009   0.406
 9604SOL    HW229712   0.168   6.906   0.351
 9605SOL     OW29713   2.098   5.577   6.412
 9605SOL    HW129714   2.118   5.672   6.388
 9605SOL    HW229715   2.183   5.528   6.429
 9606SOL     OW29716   6.777   6.476   4.422
 9606SOL    HW129717   6.762   6.574   4.439
 9606SOL    HW229718   6.787   6.461   4.323
 9607SOL     OW29719   0.097   3.085   1.509
 9607SOL    HW129720   0.028   3.013   1.515
 9607SOL    HW229721   0.136   3.087   1.417
 9608SOL     OW29722   6.986   6.265   2.856
 9608SOL    HW129723   6.891   6.268   2.826
 9608SOL    HW229724   6.989   6.256   2.956
 9609SOL     OW29725   1.898   2.549   3.511
 9609SOL    HW129726   1.869   2.599   3.430
 9609SOL    HW229727   1.878   2.452   3.500
 9610SOL     OW29728   2.869   2.169   6.049
 9610SOL    HW129729   2.959   2.169   6.093
 9610SOL    HW229730   2.843   2.264   6.028
 9611SOL     OW29731   6.133   5.950   0.890
 9611SOL    HW129732   6.178   6.006   0.960
 9611SOL    HW229733   6.049   5.911   0.928
 9612SOL     OW29734   5.783   3.347   2.748
 9612SOL    HW129735   5.821   3.279   2.810
 9612SOL    HW229736   5.710   3.306   2.694
 9613SOL     OW29737   5.364   6.538   5.631
 9613SOL    HW129738   5.448   6.499   5.669
 9613SOL    HW229739   5.347   6.498   5.541
 9614SOL     OW29740   2.889   3.278   2.251
 9614SOL    HW129741   2.934   3.357   2.291
 9614SOL    HW229742   2.858   3.299   2.159
 9615SOL     OW29743   0.654   6.351   4.091
 9615SOL    HW129744   0.560   6.383   4.083
 9615SOL    HW229745   0.656   6.265   4.142
 9616SOL     OW29746   2.421   3.485   1.469
 9616SOL    HW129747   2.440   3.518   1.376
 9616SOL    HW229748   2.346   3.419   1.465
 9617SOL     OW29749   0.940   3.406   2.706
 9617SOL    HW129750   0.918   3.323   2.655
 9617SOL    HW229751   0.885   3.482   2.672
 9618SOL     OW29752   4.061   4.938   0.543
 9618SOL    HW129753   4.083   4.989   0.626
 9618SOL    HW229754   4.019   4.850   0.568
 9619SOL     OW29755   1.495   6.887   1.323
 9619SOL    HW129756   1.456   6.932   1.243
 9619SOL    HW229757   1.565   6.822   1.293
 9620SOL     OW29758   3.824   1.717   0.126
 9620SOL    HW129759   3.760   1.678   0.060
 9620SOL    HW229760   3.852   1.647   0.191
 9621SOL     OW29761   0.973   2.033   2.147
 9621SOL    HW129762   0.914   1.984   2.083
 9621SOL    HW229763   1.031   2.097   2.096
 9622SOL     OW29764   6.841   6.700   5.839
 9622SOL    HW129765   6.882   6.692   5.748
 9622SOL    HW229766   6.742   6.709   5.831
 9623SOL     OW29767   4.377   6.462   5.942
 9623SOL    HW129768   4.319   6.423   6.013
 9623SOL    HW229769   4.431   6.389   5.899
 9624SOL     OW29770   4.802   5.218   5.018
 9624SOL    HW129771   4.735   5.144   5.020
 9624SOL    HW229772   4.783   5.279   4.942
 9625SOL     OW29773   4.623   3.654   5.725
 9625SOL    HW129774   4.542   3.601   5.700
 9625SOL    HW229775   4.673   3.606   5.797
 9626SOL     OW29776   2.442   2.212   6.114
 9626SOL    HW129777   2.355   2.248   6.081
 9626SOL    HW229778   2.501   2.191   6.037
 9627SOL     OW29779   0.558   5.462   6.745
 9627SOL    HW129780   0.495   5.435   6.671
 9627SOL    HW229781   0.594   5.381   6.790
 9628SOL     OW29782   6.113   1.216   6.522
 9628SOL    HW129783   6.136   1.289   6.458
 9628SOL    HW229784   6.018   1.189   6.510
 9629SOL     OW29785   0.286   5.859   4.801
 9629SOL    HW129786   0.287   5.838   4.899
 9629SOL    HW229787   0.224   5.796   4.754
 9630SOL     OW29788   5.830   7.011   6.169
 9630SOL    HW129789   5.750   6.951   6.172
 9630SOL    HW229790   5.804   0.077   6.128
 9631SOL     OW29791   3.358   0.284   1.010
 9631SOL    HW129792   3.340   0.353   0.940
 9631SOL    HW229793   3.432   0.315   1.069
 9632SOL     OW29794   2.944   5.372   2.345
 9632SOL    HW129795   2.859   5.358   2.396
 9632SOL    HW229796   3.015   5.404   2.408
 9633SOL     OW29797   3.394   2.936   3.244
 9633SOL    HW129798   3.344   2.906   3.162
 9633SOL    HW229799   3.488   2.957   3.220
 9634SOL     OW29800   6.019   4.839   3.267
 9634SOL    HW129801   6.068   4.923   3.246
 9634SOL    HW229802   6.060   4.795   3.347
 9635SOL     OW29803   0.950   5.171   4.285
 9635SOL    HW129804   1.006   5.089   4.297
 9635SOL    HW229805   1.005   5.242   4.242
 9636SOL     OW29806   4.856   3.643   4.024
 9636SOL    HW129807   4.847   3.558   4.077
 9636SOL    HW229808   4.864   3.621   3.927
 9637SOL     OW29809   2.284   3.052   6.935
 9637SOL    HW129810   2.261   3.029   6.840
 9637SOL    HW229811   2.240   2.986   6.996
 9638SOL     OW29812   6.171   5.460   5.079
 9638SOL    HW129813   6.219   5.500   5.157
 9638SOL    HW229814   6.105   5.526   5.043
 9639SOL     OW29815   4.322   1.628   2.276
 9639SOL    HW129816   4.311   1.724   2.249
 9639SOL    HW229817   4.266   1.571   2.216
 9640SOL     OW29818   4.626   0.540   3.026
 9640SOL    HW129819   4.542   0.586   3.057
 9640SOL    HW229820   4.606   0.443   3.011
 9641SOL     OW29821   6.645   3.720   3.045
 9641SOL    HW129822   6.597   3.638   3.016
 9641SOL    HW229823   6.665   3.777   2.966
 9642SOL     OW29824   0.955   0.590   4.358
 9642SOL    HW129825   0.913   0.654   4.294
 9642SOL    HW229826   0.921   0.608   4.451
 9643SOL     OW29827   4.640   5.076   4.541
 9643SOL    HW129828   4.723   5.039   4.500
 9643SOL    HW229829   4.599   5.143   4.480
 9644SOL     OW29830   1.619   5.292   4.321
 9644SOL    HW129831   1.669   5.228   4.379
 9644SOL    HW229832   1.582   5.244   4.241
 9645SOL     OW29833   0.676   4.918   6.000
 9645SOL    HW129834   0.746   4.846   6.004
 9645SOL    HW229835   0.628   4.923   6.087
 9646SOL     OW29836   3.489   5.521   6.016
 9646SOL    HW129837   3.545   5.441   6.037
 9646SOL    HW229838   3.536   5.577   5.946
 9647SOL     OW29839   6.753   0.220   3.472
 9647SOL    HW129840   6.741   0.143   3.409
 9647SOL    HW229841   6.676   0.283   3.462
 9648SOL     OW29842   4.023   2.406   1.026
 9648SOL    HW129843   4.069   2.483   1.069
 9648SOL    HW229844   3.954   2.439   0.962
 9649SOL     OW29845   1.068   6.082   6.818
 9649SOL    HW129846   1.136   6.009   6.818
 9649SOL    HW229847   0.976   6.043   6.823
 9650SOL     OW29848   6.766   4.552   4.361
 9650SOL    HW129849   6.802   4.493   4.289
 9650SOL    HW229850   6.724   4.633   4.320
 9651SOL     OW29851   4.513   1.624   0.289
 9651SOL    HW129852   4.500   1.708   0.341
 9651SOL    HW229853   4.518   1.546   0.351
 9652SOL     OW29854   0.079   3.931   0.106
 9652SOL    HW129855   0.090   3.873   0.186
 9652SOL    HW229856   7.010   3.972   0.105
 9653SOL     OW29857   4.218   4.583   6.211
 9653SOL    HW129858   4.209   4.634   6.297
 9653SOL    HW229859   4.279   4.632   6.149
 9654SOL     OW29860   3.458   3.333   2.958
 9654SOL    HW129861   3.479   3.258   2.896
 9654SOL    HW229862   3.364   3.363   2.944
 9655SOL     OW29863   4.107   1.259   1.490
 9655SOL    HW129864   4.055   1.299   1.414
 9655SOL    HW229865   4.115   1.327   1.564
 9656SOL     OW29866   5.817   3.730   0.513
 9656SOL    HW129867   5.837   3.654   0.451
 9656SOL    HW229868   5.881   3.805   0.495
 9657SOL     OW29869   6.140   4.259   3.555
 9657SOL    HW129870   6.059   4.300   3.597
 9657SOL    HW229871   6.206   4.236   3.627
 9658SOL     OW29872   4.897   2.407   3.036
 9658SOL    HW129873   4.885   2.477   3.107
 9658SOL    HW229874   4.967   2.342   3.064
 9659SOL     OW29875   2.811   3.323   0.376
 9659SOL    HW129876   2.764   3.408   0.399
 9659SOL    HW229877   2.753   3.245   0.399
 9660SOL     OW29878   1.428   6.096   1.751
 9660SOL    HW129879   1.328   6.106   1.756
 9660SOL    HW229880   1.469   6.184   1.729
 9661SOL     OW29881   4.676   4.468   0.873
 9661SOL    HW129882   4.631   4.441   0.789
 9661SOL    HW229883   4.711   4.387   0.920
 9662SOL     OW29884   5.516   5.456   6.224
 9662SOL    HW129885   5.532   5.383   6.289
 9662SOL    HW229886   5.597   5.469   6.167
 9663SOL     OW29887   0.672   5.443   3.094
 9663SOL    HW129888   0.725   5.490   3.164
 9663SOL    HW229889   0.730   5.379   3.045
 9664SOL     OW29890   5.014   4.166   2.473
 9664SOL    HW129891   5.017   4.080   2.421
 9664SOL    HW229892   4.972   4.237   2.416
 9665SOL     OW29893   6.228   6.018   6.331
 9665SOL    HW129894   6.276   5.930   6.330
 9665SOL    HW229895   6.290   6.089   6.364
 9666SOL     OW29896   6.010   3.905   0.374
 9666SOL    HW129897   5.956   3.953   0.305
 9666SOL    HW229898   6.096   3.955   0.391
 9667SOL     OW29899   6.042   6.273   6.564
 9667SOL    HW129900   6.102   6.209   6.517
 9667SOL    HW229901   5.948   6.238   6.562
 9668SOL     OW29902   0.734   0.450   6.181
 9668SOL    HW129903   0.785   0.502   6.112
 9668SOL    HW229904   0.638   0.476   6.177
 9669SOL     OW29905   3.976   0.477   0.139
 9669SOL    HW129906   3.894   0.491   0.083
 9669SOL    HW229907   3.956   0.408   0.209
 9670SOL     OW29908   6.788   0.073   6.866
 9670SOL    HW129909   6.782   7.002   6.830
 9670SOL    HW229910   6.882   0.092   6.893
 9671SOL     OW29911   0.779   5.621   6.719
 9671SOL    HW129912   0.689   5.582   6.739
 9671SOL    HW229913   0.834   5.554   6.671
 9672SOL     OW29914   1.261   3.584   3.778
 9672SOL    HW129915   1.224   3.576   3.870
 9672SOL    HW229916   1.358   3.559   3.779
 9673SOL     OW29917   2.072   4.074   0.486
 9673SOL    HW129918   2.013   4.013   0.435
 9673SOL    HW229919   2.141   4.113   0.425
 9674SOL     OW29920   2.645   5.969   4.290
 9674SOL    HW129921   2.665   6.066   4.280
 9674SOL    HW229922   2.585   5.955   4.369
 9675SOL     OW29923   5.219   3.143   0.515
 9675SOL    HW129924   5.211   3.242   0.525
 9675SOL    HW229925   5.269   3.105   0.593
 9676SOL     OW29926   0.330   3.033   7.015
 9676SOL    HW129927   0.319   2.963   6.943
 9676SOL    HW229928   0.358   2.989   0.078
 9677SOL     OW29929   0.292   4.768   0.853
 9677SOL    HW129930   0.320   4.757   0.949
 9677SOL    HW229931   0.245   4.856   0.843
 9678SOL     OW29932   3.528   3.703   5.173
 9678SOL    HW129933   3.455   3.735   5.113
 9678SOL    HW229934   3.491   3.686   5.265
 9679SOL     OW29935   1.374   1.909   4.529
 9679SOL    HW129936   1.343   1.825   4.572
 9679SOL    HW229937   1.447   1.950   4.584
 9680SOL     OW29938   4.740   6.198   1.889
 9680SOL    HW129939   4.730   6.241   1.979
 9680SOL    HW229940   4.701   6.258   1.819
 9681SOL     OW29941   1.776   1.503   1.732
 9681SOL    HW129942   1.765   1.482   1.635
 9681SOL    HW229943   1.697   1.556   1.763
 9682SOL     OW29944   4.506   5.624   5.539
 9682SOL    HW129945   4.451   5.586   5.614
 9682SOL    HW229946   4.488   5.573   5.455
 9683SOL     OW29947   3.317   6.605   2.215
 9683SOL    HW129948   3.294   6.514   2.180
 9683SOL    HW229949   3.239   6.641   2.266
 9684SOL     OW29950   0.181   3.591   5.882
 9684SOL    HW129951   0.246   3.590   5.958
 9684SOL    HW229952   0.209   3.660   5.815
 9685SOL     OW29953   3.909   4.165   1.612
 9685SOL    HW129954   3.907   4.263   1.590
 9685SOL    HW229955   3.826   4.141   1.662
 9686SOL     OW29956   6.621   1.862   5.663
 9686SOL    HW129957   6.585   1.824   5.748
 9686SOL    HW229958   6.595   1.958   5.656
 9687SOL     OW29959   5.972   1.237   2.591
 9687SOL    HW129960   5.949   1.252   2.687
 9687SOL    HW229961   5.928   1.153   2.559
 9688SOL     OW29962   0.199   4.938   1.237
 9688SOL    HW129963   0.293   4.908   1.222
 9688SOL    HW229964   0.137   4.876   1.189
 9689SOL     OW29965   1.893   6.095   1.043
 9689SOL    HW129966   1.859   6.166   0.981
 9689SOL    HW229967   1.993   6.102   1.048
 9690SOL     OW29968   6.372   5.634   4.637
 9690SOL    HW129969   6.423   5.612   4.553
 9690SOL    HW229970   6.322   5.553   4.667
 9691SOL     OW29971   3.202   3.825   1.851
 9691SOL    HW129972   3.205   3.907   1.794
 9691SOL    HW229973   3.170   3.748   1.797
 9692SOL     OW29974   5.374   4.560   1.310
 9692SOL    HW129975   5.382   4.633   1.378
 9692SOL    HW229976   5.350   4.599   1.221
 9693SOL     OW29977   5.427   3.419   4.776
 9693SOL    HW129978   5.346   3.476   4.788
 9693SOL    HW229979   5.496   3.471   4.724
 9694SOL     OW29980   3.008   6.531   2.329
 9694SOL    HW129981   2.960   6.471   2.393
 9694SOL    HW229982   2.972   6.517   2.237
 9695SOL     OW29983   1.168   2.194   3.430
 9695SOL    HW129984   1.110   2.134   3.485
 9695SOL    HW229985   1.258   2.203   3.473
 9696SOL     OW29986   5.560   2.156   3.155
 9696SOL    HW129987   5.507   2.118   3.231
 9696SOL    HW229988   5.541   2.104   3.072
 9697SOL     OW29989   1.152   6.893   0.758
 9697SOL    HW129990   1.146   6.813   0.819
 9697SOL    HW229991   1.227   6.951   0.788
 9698SOL     OW29992   5.880   3.249   1.580
 9698SOL    HW129993   5.978   3.248   1.563
 9698SOL    HW229994   5.837   3.320   1.525
 9699SOL     OW29995   1.208   5.407   0.546
 9699SOL    HW129996   1.256   5.484   0.590
 9699SOL    HW229997   1.114   5.403   0.580
 9700SOL     OW29998   5.454   0.278   5.154
 9700SOL    HW129999   5.522   0.224   5.203
 9700SOL    HW230000   5.493   0.310   5.068
 9701SOL     OW30001   4.583   3.559   6.492
 9701SOL    HW130002   4.663   3.618   6.505
 9701SOL    HW230003   4.514   3.607   6.438
 9702SOL     OW30004   3.746   3.563   1.781
 9702SOL    HW130005   3.689   3.559   1.699
 9702SOL    HW230006   3.787   3.654   1.788
 9703SOL     OW30007   6.541   4.201   4.514
 9703SOL    HW130008   6.505   4.128   4.572
 9703SOL    HW230009   6.641   4.199   4.515
 9704SOL     OW30010   1.833   3.987   2.647
 9704SOL    HW130011   1.842   3.896   2.606
 9704SOL    HW230012   1.811   3.978   2.744
 9705SOL     OW30013   6.185   3.276   5.787
 9705SOL    HW130014   6.248   3.353   5.791
 9705SOL    HW230015   6.094   3.306   5.818
 9706SOL     OW30016   0.527   1.243   2.079
 9706SOL    HW130017   0.603   1.307   2.075
 9706SOL    HW230018   0.549   1.162   2.024
 9707SOL     OW30019   1.101   4.568   2.248
 9707SOL    HW130020   1.072   4.506   2.176
 9707SOL    HW230021   1.132   4.654   2.208
 9708SOL     OW30022   2.274   0.543   1.999
 9708SOL    HW130023   2.238   0.482   2.069
 9708SOL    HW230024   2.374   0.531   1.993
 9709SOL     OW30025   5.088   2.065   1.583
 9709SOL    HW130026   5.108   2.022   1.671
 9709SOL    HW230027   4.995   2.040   1.554
 9710SOL     OW30028   6.905   5.327   3.918
 9710SOL    HW130029   6.955   5.324   3.832
 9710SOL    HW230030   6.826   5.265   3.913
 9711SOL     OW30031   3.988   0.612   0.528
 9711SOL    HW130032   3.937   0.633   0.612
 9711SOL    HW230033   3.938   0.544   0.474
 9712SOL     OW30034   5.750   1.827   6.515
 9712SOL    HW130035   5.778   1.845   6.609
 9712SOL    HW230036   5.707   1.736   6.511
 9713SOL     OW30037   0.808   6.979   3.358
 9713SOL    HW130038   0.796   0.008   3.273
 9713SOL    HW230039   0.722   6.937   3.385
 9714SOL     OW30040   2.447   4.502   4.219
 9714SOL    HW130041   2.525   4.545   4.174
 9714SOL    HW230042   2.462   4.403   4.224
 9715SOL     OW30043   6.207   3.455   6.651
 9715SOL    HW130044   6.296   3.448   6.605
 9715SOL    HW230045   6.145   3.386   6.613
 9716SOL     OW30046   2.326   5.324   6.908
 9716SOL    HW130047   2.254   5.270   6.951
 9716SOL    HW230048   2.288   5.411   6.877
 9717SOL     OW30049   3.906   1.475   5.262
 9717SOL    HW130050   3.877   1.475   5.166
 9717SOL    HW230051   3.825   1.486   5.320
 9718SOL     OW30052   3.964   2.861   6.796
 9718SOL    HW130053   3.888   2.825   6.850
 9718SOL    HW230054   4.039   2.794   6.796
 9719SOL     OW30055   4.770   6.787   5.405
 9719SOL    HW130056   4.720   6.733   5.337
 9719SOL    HW230057   4.763   6.884   5.382
 9720SOL     OW30058   2.106   3.566   3.256
 9720SOL    HW130059   2.133   3.634   3.189
 9720SOL    HW230060   2.018   3.526   3.229
 9721SOL     OW30061   1.002   1.603   0.247
 9721SOL    HW130062   0.922   1.651   0.212
 9721SOL    HW230063   1.012   1.623   0.345
 9722SOL     OW30064   4.014   2.935   5.459
 9722SOL    HW130065   4.034   2.901   5.552
 9722SOL    HW230066   3.971   2.862   5.406
 9723SOL     OW30067   6.817   6.452   4.882
 9723SOL    HW130068   6.720   6.430   4.886
 9723SOL    HW230069   6.829   6.549   4.862
 9724SOL     OW30070   1.554   5.303   0.022
 9724SOL    HW130071   1.498   5.346   6.973
 9724SOL    HW230072   1.521   5.210   0.038
 9725SOL     OW30073   3.953   5.280   5.759
 9725SOL    HW130074   3.908   5.240   5.839
 9725SOL    HW230075   3.965   5.210   5.689
 9726SOL     OW30076   6.376   1.447   4.196
 9726SOL    HW130077   6.374   1.547   4.200
 9726SOL    HW230078   6.389   1.418   4.102
 9727SOL     OW30079   0.049   1.352   0.415
 9727SOL    HW130080   0.037   1.442   0.373
 9727SOL    HW230081   7.016   1.284   0.365
 9728SOL     OW30082   4.597   1.813   5.294
 9728SOL    HW130083   4.637   1.852   5.377
 9728SOL    HW230084   4.506   1.778   5.314
 9729SOL     OW30085   0.485   4.863   3.101
 9729SOL    HW130086   0.456   4.862   3.006
 9729SOL    HW230087   0.405   4.867   3.161
 9730SOL     OW30088   0.251   4.024   2.780
 9730SOL    HW130089   0.285   3.940   2.822
 9730SOL    HW230090   0.165   4.051   2.825
 9731SOL     OW30091   5.357   3.486   2.202
 9731SOL    HW130092   5.330   3.443   2.116
 9731SOL    HW230093   5.280   3.483   2.267
 9732SOL     OW30094   1.665   2.945   2.929
 9732SOL    HW130095   1.705   2.960   3.020
 9732SOL    HW230096   1.726   2.981   2.859
 9733SOL     OW30097   6.689   4.832   1.976
 9733SOL    HW130098   6.690   4.928   1.950
 9733SOL    HW230099   6.664   4.776   1.897
 9734SOL     OW30100   6.177   6.189   6.109
 9734SOL    HW130101   6.168   6.112   6.173
 9734SOL    HW230102   6.229   6.159   6.029
 9735SOL     OW30103   0.750   3.017   1.228
 9735SOL    HW130104   0.840   3.053   1.202
 9735SOL    HW230105   0.757   2.971   1.316
 9736SOL     OW30106   5.522   1.690   4.720
 9736SOL    HW130107   5.594   1.623   4.701
 9736SOL    HW230108   5.563   1.778   4.742
 9737SOL     OW30109   5.749   2.819   3.063
 9737SOL    HW130110   5.724   2.837   2.968
 9737SOL    HW230111   5.755   2.906   3.113
 9738SOL     OW30112   2.206   6.057   1.703
 9738SOL    HW130113   2.141   5.985   1.728
 9738SOL    HW230114   2.299   6.027   1.722
 9739SOL     OW30115   5.747   6.975   6.974
 9739SOL    HW130116   5.846   6.978   6.962
 9739SOL    HW230117   5.703   7.008   6.890
 9740SOL     OW30118   6.130   0.660   2.648
 9740SOL    HW130119   6.171   0.671   2.557
 9740SOL    HW230120   6.197   0.618   2.709
 9741SOL     OW30121   2.754   1.718   4.306
 9741SOL    HW130122   2.654   1.720   4.315
 9741SOL    HW230123   2.795   1.705   4.397
 9742SOL     OW30124   3.909   1.990   5.846
 9742SOL    HW130125   3.922   1.915   5.911
 9742SOL    HW230126   3.811   2.011   5.838
 9743SOL     OW30127   5.136   3.635   4.139
 9743SOL    HW130128   5.044   3.646   4.100
 9743SOL    HW230129   5.184   3.723   4.136
 9744SOL     OW30130   1.702   0.502   4.171
 9744SOL    HW130131   1.737   0.570   4.235
 9744SOL    HW230132   1.769   0.428   4.160
 9745SOL     OW30133   0.205   0.371   5.940
 9745SOL    HW130134   0.256   0.286   5.926
 9745SOL    HW230135   0.113   0.350   5.973
 9746SOL     OW30136   4.105   5.425   6.343
 9746SOL    HW130137   4.165   5.463   6.274
 9746SOL    HW230138   4.113   5.478   6.428
 9747SOL     OW30139   2.710   2.007   2.796
 9747SOL    HW130140   2.661   1.923   2.772
 9747SOL    HW230141   2.699   2.026   2.894
 9748SOL     OW30142   1.904   1.161   3.825
 9748SOL    HW130143   1.957   1.157   3.910
 9748SOL    HW230144   1.965   1.175   3.748
 9749SOL     OW30145   6.851   1.380   2.250
 9749SOL    HW130146   6.766   1.407   2.294
 9749SOL    HW230147   6.859   1.425   2.161
 9750SOL     OW30148   7.007   3.663   3.872
 9750SOL    HW130149   6.911   3.635   3.877
 9750SOL    HW230150   0.013   3.702   3.960
 9751SOL     OW30151   3.019   0.489   1.324
 9751SOL    HW130152   2.951   0.416   1.315
 9751SOL    HW230153   3.057   0.489   1.416
 9752SOL     OW30154   3.390   3.074   6.752
 9752SOL    HW130155   3.342   2.987   6.736
 9752SOL    HW230156   3.322   3.147   6.763
 9753SOL     OW30157   0.041   6.314   4.939
 9753SOL    HW130158   6.988   6.377   4.919
 9753SOL    HW230159   0.104   6.356   5.004
 9754SOL     OW30160   3.244   0.959   1.727
 9754SOL    HW130161   3.165   0.962   1.666
 9754SOL    HW230162   3.314   0.900   1.687
 9755SOL     OW30163   3.186   4.322   6.888
 9755SOL    HW130164   3.233   4.390   6.832
 9755SOL    HW230165   3.252   4.256   6.923
 9756SOL     OW30166   6.006   0.390   6.049
 9756SOL    HW130167   5.978   0.451   6.123
 9756SOL    HW230168   6.025   0.443   5.967
 9757SOL     OW30169   5.412   4.357   3.771
 9757SOL    HW130170   5.345   4.400   3.709
 9757SOL    HW230171   5.448   4.426   3.834
 9758SOL     OW30172   1.773   0.210   1.815
 9758SOL    HW130173   1.741   0.126   1.858
 9758SOL    HW230174   1.871   0.221   1.832
 9759SOL     OW30175   0.029   1.147   1.141
 9759SOL    HW130176   6.997   1.066   1.119
 9759SOL    HW230177   0.066   1.138   1.234
 9760SOL     OW30178   4.299   0.906   6.775
 9760SOL    HW130179   4.260   0.910   6.867
 9760SOL    HW230180   4.321   0.999   6.745
 9761SOL     OW30181   1.307   2.140   0.984
 9761SOL    HW130182   1.335   2.077   0.911
 9761SOL    HW230183   1.383   2.153   1.048
 9762SOL     OW30184   2.414   1.509   5.937
 9762SOL    HW130185   2.379   1.454   5.861
 9762SOL    HW230186   2.513   1.517   5.930
 9763SOL     OW30187   6.082   0.800   0.762
 9763SOL    HW130188   6.002   0.742   0.780
 9763SOL    HW230189   6.053   0.884   0.717
 9764SOL     OW30190   6.493   2.405   2.146
 9764SOL    HW130191   6.460   2.395   2.240
 9764SOL    HW230192   6.571   2.467   2.145
 9765SOL     OW30193   6.400   0.688   1.899
 9765SOL    HW130194   6.468   0.737   1.845
 9765SOL    HW230195   6.408   0.714   1.995
 9766SOL     OW30196   2.231   1.987   4.837
 9766SOL    HW130197   2.282   2.028   4.913
 9766SOL    HW230198   2.199   2.060   4.777
 9767SOL     OW30199   2.235   3.160   5.936
 9767SOL    HW130200   2.324   3.171   5.892
 9767SOL    HW230201   2.177   3.239   5.915
 9768SOL     OW30202   5.970   2.873   1.346
 9768SOL    HW130203   6.036   2.809   1.307
 9768SOL    HW230204   5.882   2.827   1.356
 9769SOL     OW30205   3.151   1.835   5.291
 9769SOL    HW130206   3.235   1.806   5.246
 9769SOL    HW230207   3.149   1.935   5.298
 9770SOL     OW30208   3.174   2.494   6.128
 9770SOL    HW130209   3.183   2.395   6.138
 9770SOL    HW230210   3.160   2.517   6.032
 9771SOL     OW30211   3.209   6.135   2.837
 9771SOL    HW130212   3.149   6.215   2.832
 9771SOL    HW230213   3.248   6.117   2.746
 9772SOL     OW30214   1.127   0.319   1.191
 9772SOL    HW130215   1.171   0.284   1.108
 9772SOL    HW230216   1.135   0.418   1.193
 9773SOL     OW30217   5.080   4.597   2.031
 9773SOL    HW130218   5.029   4.559   1.955
 9773SOL    HW230219   5.159   4.648   1.996
 9774SOL     OW30220   1.036   5.471   4.940
 9774SOL    HW130221   1.037   5.550   4.879
 9774SOL    HW230222   1.120   5.470   4.994
 9775SOL     OW30223   2.114   1.428   3.295
 9775SOL    HW130224   2.207   1.463   3.285
 9775SOL    HW230225   2.049   1.502   3.279
 9776SOL     OW30226   1.754   5.821   6.979
 9776SOL    HW130227   1.725   5.732   7.014
 9776SOL    HW230228   1.743   5.822   6.880
 9777SOL     OW30229   4.377   0.754   5.028
 9777SOL    HW130230   4.432   0.687   5.078
 9777SOL    HW230231   4.374   0.840   5.079
 9778SOL     OW30232   0.312   3.445   4.076
 9778SOL    HW130233   0.220   3.436   4.114
 9778SOL    HW230234   0.333   3.541   4.060
 9779SOL     OW30235   2.128   0.947   3.846
 9779SOL    HW130236   2.044   0.917   3.801
 9779SOL    HW230237   2.106   0.990   3.934
 9780SOL     OW30238   1.271   2.823   1.497
 9780SOL    HW130239   1.252   2.756   1.568
 9780SOL    HW230240   1.332   2.782   1.428
 9781SOL     OW30241   2.219   2.747   3.365
 9781SOL    HW130242   2.138   2.723   3.310
 9781SOL    HW230243   2.193   2.812   3.436
 9782SOL     OW30244   6.992   2.471   1.263
 9782SOL    HW130245   6.968   2.389   1.314
 9782SOL    HW230246   0.064   2.498   1.285
 9783SOL     OW30247   3.563   1.236   3.329
 9783SOL    HW130248   3.578   1.253   3.426
 9783SOL    HW230249   3.466   1.244   3.308
 9784SOL     OW30250   1.624   1.249   6.286
 9784SOL    HW130251   1.620   1.328   6.347
 9784SOL    HW230252   1.538   1.241   6.235
 9785SOL     OW30253   0.614   3.220   4.607
 9785SOL    HW130254   0.622   3.265   4.518
 9785SOL    HW230255   0.676   3.141   4.610
 9786SOL     OW30256   2.237   4.353   0.999
 9786SOL    HW130257   2.255   4.293   1.077
 9786SOL    HW230258   2.315   4.351   0.936
 9787SOL     OW30259   3.307   3.698   3.188
 9787SOL    HW130260   3.322   3.600   3.198
 9787SOL    HW230261   3.368   3.748   3.250
 9788SOL     OW30262   5.351   6.704   1.557
 9788SOL    HW130263   5.364   6.669   1.649
 9788SOL    HW230264   5.297   6.638   1.503
 9789SOL     OW30265   3.646   0.728   6.525
 9789SOL    HW130266   3.627   0.791   6.450
 9789SOL    HW230267   3.745   0.715   6.533
 9790SOL     OW30268   0.344   4.475   4.205
 9790SOL    HW130269   0.322   4.529   4.124
 9790SOL    HW230270   0.436   4.435   4.195
 9791SOL     OW30271   1.539   6.573   1.101
 9791SOL    HW130272   1.586   6.512   1.037
 9791SOL    HW230273   1.607   6.628   1.150
 9792SOL     OW30274   4.169   6.239   0.335
 9792SOL    HW130275   4.195   6.252   0.430
 9792SOL    HW230276   4.110   6.314   0.306
 9793SOL     OW30277   5.346   1.118   3.419
 9793SOL    HW130278   5.410   1.041   3.412
 9793SOL    HW230279   5.275   1.109   3.349
 9794SOL     OW30280   4.565   4.984   4.804
 9794SOL    HW130281   4.578   5.007   4.708
 9794SOL    HW230282   4.571   4.885   4.816
 9795SOL     OW30283   1.547   3.707   3.179
 9795SOL    HW130284   1.524   3.616   3.146
 9795SOL    HW230285   1.621   3.745   3.123
 9796SOL     OW30286   3.452   3.902   3.754
 9796SOL    HW130287   3.494   3.993   3.753
 9796SOL    HW230288   3.463   3.862   3.845
 9797SOL     OW30289   3.163   6.087   6.850
 9797SOL    HW130290   3.255   6.093   6.811
 9797SOL    HW230291   3.170   6.069   6.948
 9798SOL     OW30292   1.369   3.717   0.031
 9798SOL    HW130293   1.273   3.710   0.058
 9798SOL    HW230294   1.410   3.626   0.033
 9799SOL     OW30295   2.974   0.116   6.649
 9799SOL    HW130296   3.043   0.105   6.721
 9799SOL    HW230297   3.019   0.137   6.562
 9800SOL     OW30298   6.409   3.581   4.898
 9800SOL    HW130299   6.462   3.641   4.959
 9800SOL    HW230300   6.420   3.486   4.926
 9801SOL     OW30301   6.343   6.159   6.751
 9801SOL    HW130302   6.417   6.194   6.809
 9801SOL    HW230303   6.337   6.215   6.668
 9802SOL     OW30304   3.972   4.678   0.214
 9802SOL    HW130305   3.992   4.603   0.151
 9802SOL    HW230306   4.055   4.703   0.264
 9803SOL     OW30307   0.857   3.489   6.723
 9803SOL    HW130308   0.810   3.566   6.766
 9803SOL    HW230309   0.840   3.491   6.624
 9804SOL     OW30310   0.207   5.677   2.663
 9804SOL    HW130311   0.286   5.616   2.664
 9804SOL    HW230312   0.202   5.725   2.576
 9805SOL     OW30313   0.939   6.300   3.986
 9805SOL    HW130314   0.844   6.326   4.004
 9805SOL    HW230315   0.969   6.234   4.055
 9806SOL     OW30316   3.365   1.874   6.507
 9806SOL    HW130317   3.436   1.809   6.533
 9806SOL    HW230318   3.407   1.962   6.483
 9807SOL     OW30319   3.237   3.849   2.154
 9807SOL    HW130320   3.212   3.831   2.059
 9807SOL    HW230321   3.262   3.946   2.165
 9808SOL     OW30322   4.106   6.224   2.966
 9808SOL    HW130323   4.182   6.277   3.003
 9808SOL    HW230324   4.020   6.261   2.998
 9809SOL     OW30325   7.001   3.192   0.682
 9809SOL    HW130326   7.001   3.149   0.772
 9809SOL    HW230327   6.990   3.291   0.691
 9810SOL     OW30328   2.332   1.289   6.382
 9810SOL    HW130329   2.366   1.335   6.464
 9810SOL    HW230330   2.309   1.358   6.313
 9811SOL     OW30331   6.352   3.875   3.617
 9811SOL    HW130332   6.317   3.792   3.661
 9811SOL    HW230333   6.278   3.918   3.565
 9812SOL     OW30334   3.273   6.172   5.195
 9812SOL    HW130335   3.245   6.241   5.127
 9812SOL    HW230336   3.303   6.089   5.147
 9813SOL     OW30337   4.857   2.408   1.267
 9813SOL    HW130338   4.913   2.405   1.184
 9813SOL    HW230339   4.909   2.371   1.344
 9814SOL     OW30340   5.861   1.059   0.275
 9814SOL    HW130341   5.772   1.090   0.309
 9814SOL    HW230342   5.905   1.133   0.223
 9815SOL     OW30343   4.340   2.223   5.039
 9815SOL    HW130344   4.266   2.290   5.038
 9815SOL    HW230345   4.353   2.186   4.947
 9816SOL     OW30346   1.801   0.088   0.390
 9816SOL    HW130347   1.871   0.017   0.377
 9816SOL    HW230348   1.756   0.107   0.303
 9817SOL     OW30349   6.989   6.616   3.335
 9817SOL    HW130350   6.912   6.560   3.365
 9817SOL    HW230351   6.983   6.706   3.377
 9818SOL     OW30352   6.772   2.595   4.809
 9818SOL    HW130353   6.844   2.545   4.856
 9818SOL    HW230354   6.689   2.541   4.807
 9819SOL     OW30355   3.798   1.411   3.457
 9819SOL    HW130356   3.700   1.428   3.458
 9819SOL    HW230357   3.816   1.320   3.420
 9820SOL     OW30358   4.651   3.914   5.844
 9820SOL    HW130359   4.631   3.984   5.776
 9820SOL    HW230360   4.633   3.824   5.806
 9821SOL     OW30361   5.966   5.846   6.979
 9821SOL    HW130362   5.956   5.770   6.913
 9821SOL    HW230363   5.931   5.817   0.046
 9822SOL     OW30364   0.422   6.978   3.161
 9822SOL    HW130365   0.463   0.044   3.137
 9822SOL    HW230366   0.401   6.927   3.077
 9823SOL     OW30367   3.425   1.026   1.938
 9823SOL    HW130368   3.363   1.008   1.861
 9823SOL    HW230369   3.498   1.087   1.908
 9824SOL     OW30370   1.531   4.676   4.738
 9824SOL    HW130371   1.517   4.662   4.640
 9824SOL    HW230372   1.467   4.619   4.790
 9825SOL     OW30373   4.017   4.516   5.414
 9825SOL    HW130374   4.018   4.616   5.413
 9825SOL    HW230375   3.953   4.484   5.484
 9826SOL     OW30376   3.923   6.930   5.666
 9826SOL    HW130377   3.936   7.017   5.713
 9826SOL    HW230378   4.010   6.881   5.661
 9827SOL     OW30379   0.887   3.645   4.445
 9827SOL    HW130380   0.965   3.583   4.430
 9827SOL    HW230381   0.835   3.614   4.524
 9828SOL     OW30382   4.097   2.098   0.116
 9828SOL    HW130383   4.126   2.146   0.033
 9828SOL    HW230384   4.174   2.046   0.153
 9829SOL     OW30385   2.038   5.956   0.349
 9829SOL    HW130386   1.980   5.889   0.302
 9829SOL    HW230387   2.103   5.995   0.283
 9830SOL     OW30388   5.838   1.409   1.823
 9830SOL    HW130389   5.846   1.377   1.729
 9830SOL    HW230390   5.912   1.369   1.878
 9831SOL     OW30391   0.370   6.609   1.798
 9831SOL    HW130392   0.444   6.595   1.864
 9831SOL    HW230393   0.402   6.584   1.706
 9832SOL     OW30394   4.655   5.377   1.721
 9832SOL    HW130395   4.749   5.406   1.700
 9832SOL    HW230396   4.646   5.362   1.819
 9833SOL     OW30397   3.720   3.916   5.162
 9833SOL    HW130398   3.681   3.824   5.153
 9833SOL    HW230399   3.791   3.915   5.233
 9834SOL     OW30400   0.991   3.640   5.310
 9834SOL    HW130401   1.004   3.541   5.302
 9834SOL    HW230402   0.946   3.661   5.397
 9835SOL     OW30403   5.208   1.527   4.273
 9835SOL    HW130404   5.270   1.451   4.293
 9835SOL    HW230405   5.145   1.539   4.350
 9836SOL     OW30406   5.386   4.522   3.353
 9836SOL    HW130407   5.415   4.437   3.309
 9836SOL    HW230408   5.358   4.588   3.284
 9837SOL     OW30409   2.287   6.826   4.262
 9837SOL    HW130410   2.275   6.845   4.165
 9837SOL    HW230411   2.251   6.903   4.316
 9838SOL     OW30412   0.900   6.478   5.904
 9838SOL    HW130413   0.864   6.563   5.866
 9838SOL    HW230414   0.981   6.450   5.852
 9839SOL     OW30415   6.777   1.328   1.273
 9839SOL    HW130416   6.693   1.323   1.327
 9839SOL    HW230417   6.797   1.238   1.233
 9840SOL     OW30418   0.410   0.347   0.821
 9840SOL    HW130419   0.508   0.332   0.834
 9840SOL    HW230420   0.379   0.420   0.881
 9841SOL     OW30421   1.712   4.132   4.776
 9841SOL    HW130422   1.631   4.179   4.742
 9841SOL    HW230423   1.774   4.112   4.700
 9842SOL     OW30424   3.102   3.035   2.684
 9842SOL    HW130425   3.200   3.048   2.668
 9842SOL    HW230426   3.084   3.034   2.782
 9843SOL     OW30427   6.950   1.540   1.238
 9843SOL    HW130428   6.880   1.476   1.271
 9843SOL    HW230429   6.913   1.593   1.162
 9844SOL     OW30430   5.218   0.294   2.564
 9844SOL    HW130431   5.262   0.378   2.532
 9844SOL    HW230432   5.135   0.277   2.510
 9845SOL     OW30433   2.248   2.059   3.838
 9845SOL    HW130434   2.285   2.145   3.802
 9845SOL    HW230435   2.195   2.013   3.766
 9846SOL     OW30436   3.271   4.085   3.214
 9846SOL    HW130437   3.232   4.153   3.152
 9846SOL    HW230438   3.232   3.995   3.193
 9847SOL     OW30439   1.900   3.389   6.671
 9847SOL    HW130440   1.992   3.395   6.634
 9847SOL    HW230441   1.863   3.481   6.685
 9848SOL     OW30442   4.346   2.911   6.753
 9848SOL    HW130443   4.300   2.922   6.841
 9848SOL    HW230444   4.445   2.914   6.767
 9849SOL     OW30445   6.450   6.966   6.389
 9849SOL    HW130446   6.433   0.032   6.434
 9849SOL    HW230447   6.363   6.927   6.357
 9850SOL     OW30448   4.008   6.975   2.422
 9850SOL    HW130449   3.997   6.974   2.522
 9850SOL    HW230450   4.104   6.961   2.399
 9851SOL     OW30451   4.951   1.918   5.173
 9851SOL    HW130452   4.859   1.957   5.167
 9851SOL    HW230453   4.976   1.878   5.085
 9852SOL     OW30454   4.684   2.047   3.946
 9852SOL    HW130455   4.707   1.954   3.977
 9852SOL    HW230456   4.598   2.075   3.988
 9853SOL     OW30457   5.867   4.091   2.680
 9853SOL    HW130458   5.925   4.128   2.752
 9853SOL    HW230459   5.881   4.143   2.596
 9854SOL     OW30460   5.485   5.461   4.348
 9854SOL    HW130461   5.558   5.405   4.309
 9854SOL    HW230462   5.397   5.417   4.332
 9855SOL     OW30463   0.573   4.434   1.151
 9855SOL    HW130464   0.634   4.445   1.073
 9855SOL    HW230465   0.624   4.448   1.236
 9856SOL     OW30466   3.789   3.579   0.664
 9856SOL    HW130467   3.836   3.491   0.673
 9856SOL    HW230468   3.775   3.618   0.755
 9857SOL     OW30469   5.342   2.555   3.228
 9857SOL    HW130470   5.257   2.536   3.277
 9857SOL    HW230471   5.338   2.512   3.137
 9858SOL     OW30472   5.197   1.255   2.068
 9858SOL    HW130473   5.211   1.298   2.156
 9858SOL    HW230474   5.123   1.188   2.074
 9859SOL     OW30475   5.986   0.644   1.321
 9859SOL    HW130476   5.957   0.737   1.346
 9859SOL    HW230477   6.040   0.605   1.395
 9860SOL     OW30478   0.094   0.563   2.239
 9860SOL    HW130479   0.001   0.593   2.262
 9860SOL    HW230480   0.118   0.483   2.294
 9861SOL     OW30481   4.203   6.323   4.458
 9861SOL    HW130482   4.188   6.405   4.404
 9861SOL    HW230483   4.197   6.346   4.555
 9862SOL     OW30484   1.945   3.377   0.225
 9862SOL    HW130485   1.857   3.344   0.257
 9862SOL    HW230486   2.012   3.303   0.228
 9863SOL     OW30487   3.354   0.276   3.033
 9863SOL    HW130488   3.343   0.324   2.945
 9863SOL    HW230489   3.450   0.276   3.059
 9864SOL     OW30490   4.375   5.197   3.928
 9864SOL    HW130491   4.295   5.150   3.892
 9864SOL    HW230492   4.449   5.193   3.861
 9865SOL     OW30493   0.483   0.110   3.623
 9865SOL    HW130494   0.522   0.084   3.535
 9865SOL    HW230495   0.472   0.028   3.680
 9866SOL     OW30496   5.000   3.949   4.634
 9866SOL    HW130497   4.967   4.023   4.692
 9866SOL    HW230498   4.927   3.922   4.571
 9867SOL     OW30499   4.418   1.491   0.518
 9867SOL    HW130500   4.374   1.579   0.533
 9867SOL    HW230501   4.389   1.426   0.589
 9868SOL     OW30502   0.059   4.301   0.076
 9868SOL    HW130503   0.148   4.266   0.104
 9868SOL    HW230504   7.012   4.277   0.144
 9869SOL     OW30505   2.149   4.137   3.038
 9869SOL    HW130506   2.160   4.229   3.000
 9869SOL    HW230507   2.192   4.133   3.128
 9870SOL     OW30508   4.872   5.097   2.457
 9870SOL    HW130509   4.864   5.115   2.555
 9870SOL    HW230510   4.868   4.998   2.441
 9871SOL     OW30511   2.191   0.650   5.849
 9871SOL    HW130512   2.192   0.592   5.768
 9871SOL    HW230513   2.129   0.611   5.918
 9872SOL     OW30514   2.911   4.915   3.133
 9872SOL    HW130515   2.940   4.896   3.039
 9872SOL    HW230516   2.985   4.963   3.181
 9873SOL     OW30517   2.242   3.223   0.138
 9873SOL    HW130518   2.262   3.139   0.088
 9873SOL    HW230519   2.194   3.287   0.079
 9874SOL     OW30520   0.744   2.016   3.139
 9874SOL    HW130521   0.776   1.922   3.147
 9874SOL    HW230522   0.821   2.076   3.121
 9875SOL     OW30523   0.188   0.362   2.392
 9875SOL    HW130524   0.122   0.331   2.460
 9875SOL    HW230525   0.278   0.326   2.413
 9876SOL     OW30526   6.135   0.305   2.471
 9876SOL    HW130527   6.054   0.303   2.530
 9876SOL    HW230528   6.128   0.233   2.402
 9877SOL     OW30529   3.172   6.941   2.348
 9877SOL    HW130530   3.270   6.957   2.352
 9877SOL    HW230531   3.144   6.922   2.254
 9878SOL     OW30532   1.431   5.242   6.091
 9878SOL    HW130533   1.427   5.341   6.106
 9878SOL    HW230534   1.520   5.207   6.118
 9879SOL     OW30535   5.225   5.395   4.361
 9879SOL    HW130536   5.130   5.407   4.334
 9879SOL    HW230537   5.245   5.453   4.439
 9880SOL     OW30538   1.250   2.209   5.540
 9880SOL    HW130539   1.179   2.277   5.519
 9880SOL    HW230540   1.251   2.139   5.468
 9881SOL     OW30541   0.703   2.421   4.835
 9881SOL    HW130542   0.676   2.411   4.931
 9881SOL    HW230543   0.735   2.333   4.800
 9882SOL     OW30544   0.791   2.598   4.291
 9882SOL    HW130545   0.790   2.541   4.373
 9882SOL    HW230546   0.833   2.548   4.216
 9883SOL     OW30547   1.754   0.604   1.470
 9883SOL    HW130548   1.774   0.512   1.436
 9883SOL    HW230549   1.669   0.637   1.429
 9884SOL     OW30550   4.126   0.945   3.885
 9884SOL    HW130551   4.101   0.871   3.822
 9884SOL    HW230552   4.214   0.925   3.927
 9885SOL     OW30553   6.472   4.347   5.052
 9885SOL    HW130554   6.509   4.279   5.116
 9885SOL    HW230555   6.440   4.300   4.969
 9886SOL     OW30556   0.887   4.763   2.502
 9886SOL    HW130557   0.885   4.676   2.552
 9886SOL    HW230558   0.951   4.826   2.547
 9887SOL     OW30559   3.772   0.879   6.916
 9887SOL    HW130560   3.859   0.908   6.875
 9887SOL    HW230561   3.698   0.899   6.852
 9888SOL     OW30562   0.116   3.792   0.362
 9888SOL    HW130563   0.071   3.822   0.446
 9888SOL    HW230564   0.124   3.693   0.362
 9889SOL     OW30565   6.696   4.961   1.019
 9889SOL    HW130566   6.650   4.872   1.018
 9889SOL    HW230567   6.633   5.031   1.052
 9890SOL     OW30568   1.916   2.413   0.932
 9890SOL    HW130569   1.924   2.506   0.895
 9890SOL    HW230570   1.984   2.399   1.004
 9891SOL     OW30571   5.740   2.614   0.557
 9891SOL    HW130572   5.755   2.575   0.466
 9891SOL    HW230573   5.807   2.575   0.621
 9892SOL     OW30574   6.981   5.117   0.387
 9892SOL    HW130575   0.019   5.149   0.460
 9892SOL    HW230576   6.970   5.018   0.394
 9893SOL     OW30577   2.359   0.650   0.692
 9893SOL    HW130578   2.456   0.628   0.693
 9893SOL    HW230579   2.329   0.675   0.784
 9894SOL     OW30580   1.567   1.499   0.896
 9894SOL    HW130581   1.536   1.592   0.909
 9894SOL    HW230582   1.537   1.442   0.972
 9895SOL     OW30583   5.416   3.692   4.966
 9895SOL    HW130584   5.431   3.790   4.961
 9895SOL    HW230585   5.387   3.658   4.877
 9896SOL     OW30586   6.773   6.820   6.658
 9896SOL    HW130587   6.859   6.772   6.646
 9896SOL    HW230588   6.714   6.802   6.580
 9897SOL     OW30589   5.625   5.634   3.178
 9897SOL    HW130590   5.530   5.621   3.148
 9897SOL    HW230591   5.669   5.545   3.189
 9898SOL     OW30592   2.689   6.500   6.139
 9898SOL    HW130593   2.623   6.441   6.185
 9898SOL    HW230594   2.777   6.496   6.186
 9899SOL     OW30595   0.498   6.035   0.610
 9899SOL    HW130596   0.497   5.944   0.568
 9899SOL    HW230597   0.444   6.098   0.553
 9900SOL     OW30598   1.444   3.940   3.287
 9900SOL    HW130599   1.498   3.871   3.239
 9900SOL    HW230600   1.363   3.963   3.234
 9901SOL     OW30601   2.777   2.027   5.571
 9901SOL    HW130602   2.698   1.971   5.544
 9901SOL    HW230603   2.792   2.017   5.669
 9902SOL     OW30604   2.378   4.910   6.513
 9902SOL    HW130605   2.286   4.936   6.485
 9902SOL    HW230606   2.443   4.933   6.440
 9903SOL     OW30607   5.029   1.277   3.444
 9903SOL    HW130608   4.936   1.260   3.474
 9903SOL    HW230609   5.035   1.268   3.344
 9904SOL     OW30610   0.874   2.955   6.602
 9904SOL    HW130611   0.860   3.034   6.542
 9904SOL    HW230612   0.836   2.873   6.559
 9905SOL     OW30613   3.504   1.228   1.020
 9905SOL    HW130614   3.603   1.233   1.032
 9905SOL    HW230615   3.483   1.212   0.924
 9906SOL     OW30616   3.674   2.933   2.466
 9906SOL    HW130617   3.675   3.032   2.452
 9906SOL    HW230618   3.615   2.890   2.398
 9907SOL     OW30619   6.325   0.671   1.371
 9907SOL    HW130620   6.335   0.614   1.289
 9907SOL    HW230621   6.365   0.761   1.355
 9908SOL     OW30622   5.454   2.406   3.463
 9908SOL    HW130623   5.437   2.315   3.423
 9908SOL    HW230624   5.499   2.464   3.395
 9909SOL     OW30625   3.663   6.685   3.957
 9909SOL    HW130626   3.593   6.666   3.889
 9909SOL    HW230627   3.748   6.639   3.931
 9910SOL     OW30628   1.339   3.799   2.489
 9910SOL    HW130629   1.269   3.840   2.431
 9910SOL    HW230630   1.428   3.839   2.466
 9911SOL     OW30631   3.925   0.018   2.152
 9911SOL    HW130632   3.925   0.011   2.252
 9911SOL    HW230633   3.990   6.974   2.114
 9912SOL     OW30634   4.389   1.836   1.008
 9912SOL    HW130635   4.337   1.800   1.085
 9912SOL    HW230636   4.440   1.917   1.037
 9913SOL     OW30637   6.226   4.129   6.998
 9913SOL    HW130638   6.150   4.163   6.944
 9913SOL    HW230639   6.208   4.145   0.073
 9914SOL     OW30640   0.067   3.620   5.043
 9914SOL    HW130641   0.110   3.548   4.988
 9914SOL    HW230642   0.057   3.588   5.137
 9915SOL     OW30643   4.507   0.844   2.970
 9915SOL    HW130644   4.414   0.814   2.994
 9915SOL    HW230645   4.530   0.812   2.878
 9916SOL     OW30646   2.242   2.444   3.086
 9916SOL    HW130647   2.336   2.418   3.065
 9916SOL    HW230648   2.226   2.538   3.054
 9917SOL     OW30649   6.202   3.654   0.080
 9917SOL    HW130650   6.221   3.674   0.176
 9917SOL    HW230651   6.136   3.578   0.074
 9918SOL     OW30652   4.286   1.585   2.538
 9918SOL    HW130653   4.238   1.669   2.564
 9918SOL    HW230654   4.302   1.585   2.439
 9919SOL     OW30655   6.290   6.176   1.505
 9919SOL    HW130656   6.362   6.141   1.565
 9919SOL    HW230657   6.210   6.116   1.511
 9920SOL     OW30658   4.968   1.123   1.875
 9920SOL    HW130659   4.888   1.177   1.849
 9920SOL    HW230660   4.971   1.038   1.822
 9921SOL     OW30661   4.064   5.729   5.650
 9921SOL    HW130662   4.084   5.809   5.705
 9921SOL    HW230663   3.980   5.685   5.683
 9922SOL     OW30664   0.971   5.432   0.160
 9922SOL    HW130665   0.914   5.479   0.228
 9922SOL    HW230666   1.057   5.482   0.148
 9923SOL     OW30667   4.650   4.967   6.748
 9923SOL    HW130668   4.681   5.061   6.763
 9923SOL    HW230669   4.550   4.963   6.750
 9924SOL     OW30670   0.185   2.543   4.645
 9924SOL    HW130671   0.270   2.579   4.605
 9924SOL    HW230672   0.110   2.605   4.625
 9925SOL     OW30673   6.755   3.900   3.780
 9925SOL    HW130674   6.673   3.917   3.835
 9925SOL    HW230675   6.767   3.802   3.766
 9926SOL     OW30676   2.444   3.943   0.219
 9926SOL    HW130677   2.374   3.872   0.212
 9926SOL    HW230678   2.405   4.031   0.191
 9927SOL     OW30679   5.823   0.370   2.405
 9927SOL    HW130680   5.800   0.276   2.377
 9927SOL    HW230681   5.796   0.433   2.332
 9928SOL     OW30682   4.845   4.842   1.321
 9928SOL    HW130683   4.937   4.849   1.282
 9928SOL    HW230684   4.823   4.926   1.370
 9929SOL     OW30685   2.029   5.535   5.125
 9929SOL    HW130686   2.077   5.447   5.129
 9929SOL    HW230687   2.004   5.563   5.218
 9930SOL     OW30688   6.581   0.259   5.001
 9930SOL    HW130689   6.666   0.312   5.005
 9930SOL    HW230690   6.526   0.279   5.082
 9931SOL     OW30691   0.992   4.733   4.952
 9931SOL    HW130692   0.940   4.758   4.870
 9931SOL    HW230693   0.998   4.633   4.957
 9932SOL     OW30694   1.648   6.510   6.560
 9932SOL    HW130695   1.562   6.473   6.525
 9932SOL    HW230696   1.630   6.600   6.602
 9933SOL     OW30697   1.759   4.746   2.513
 9933SOL    HW130698   1.791   4.816   2.448
 9933SOL    HW230699   1.674   4.705   2.478
 9934SOL     OW30700   6.028   2.071   6.040
 9934SOL    HW130701   6.027   2.059   6.139
 9934SOL    HW230702   6.046   1.983   5.996
 9935SOL     OW30703   2.819   0.537   0.519
 9935SOL    HW130704   2.891   0.585   0.469
 9935SOL    HW230705   2.750   0.503   0.455
 9936SOL     OW30706   0.043   5.363   4.998
 9936SOL    HW130707   6.974   5.322   5.006
 9936SOL    HW230708   0.089   5.358   5.087
 9937SOL     OW30709   6.283   2.423   5.533
 9937SOL    HW130710   6.347   2.500   5.533
 9937SOL    HW230711   6.310   2.358   5.462
 9938SOL     OW30712   6.682   6.137   3.069
 9938SOL    HW130713   6.756   6.109   3.130
 9938SOL    HW230714   6.636   6.218   3.108
 9939SOL     OW30715   3.115   2.991   0.769
 9939SOL    HW130716   3.154   3.077   0.802
 9939SOL    HW230717   3.027   3.008   0.725
 9940SOL     OW30718   0.421   0.710   1.129
 9940SOL    HW130719   0.481   0.650   1.181
 9940SOL    HW230720   0.443   0.805   1.148
 9941SOL     OW30721   3.325   4.117   5.068
 9941SOL    HW130722   3.250   4.154   5.125
 9941SOL    HW230723   3.318   4.017   5.065
 9942SOL     OW30724   2.145   6.170   3.005
 9942SOL    HW130725   2.108   6.105   3.072
 9942SOL    HW230726   2.098   6.258   3.015
 9943SOL     OW30727   0.537   5.705   6.096
 9943SOL    HW130728   0.449   5.709   6.144
 9943SOL    HW230729   0.593   5.783   6.123
 9944SOL     OW30730   2.048   4.357   6.061
 9944SOL    HW130731   2.009   4.440   6.021
 9944SOL    HW230732   2.018   4.350   6.156
 9945SOL     OW30733   6.679   5.202   0.175
 9945SOL    HW130734   6.774   5.200   0.145
 9945SOL    HW230735   6.674   5.170   0.270
 9946SOL     OW30736   5.686   1.425   5.146
 9946SOL    HW130737   5.618   1.463   5.084
 9946SOL    HW230738   5.775   1.423   5.101
 9947SOL     OW30739   6.861   3.982   6.036
 9947SOL    HW130740   6.953   3.958   6.067
 9947SOL    HW230741   6.798   3.908   6.061
 9948SOL     OW30742   4.762   4.681   5.049
 9948SOL    HW130743   4.744   4.639   4.960
 9948SOL    HW230744   4.836   4.747   5.041
 9949SOL     OW30745   5.340   5.148   3.421
 9949SOL    HW130746   5.371   5.054   3.409
 9949SOL    HW230747   5.342   5.172   3.518
 9950SOL     OW30748   5.685   6.150   5.314
 9950SOL    HW130749   5.782   6.166   5.295
 9950SOL    HW230750   5.661   6.057   5.287
 9951SOL     OW30751   6.537   2.358   3.955
 9951SOL    HW130752   6.614   2.341   4.015
 9951SOL    HW230753   6.491   2.442   3.983
 9952SOL     OW30754   6.542   3.928   1.112
 9952SOL    HW130755   6.559   3.830   1.122
 9952SOL    HW230756   6.589   3.977   1.187
 9953SOL     OW30757   6.369   2.410   4.437
 9953SOL    HW130758   6.457   2.442   4.403
 9953SOL    HW230759   6.297   2.437   4.374
 9954SOL     OW30760   5.596   6.423   5.757
 9954SOL    HW130761   5.606   6.348   5.692
 9954SOL    HW230762   5.639   6.506   5.721
 9955SOL     OW30763   6.533   4.834   4.848
 9955SOL    HW130764   6.510   4.802   4.756
 9955SOL    HW230765   6.507   4.764   4.915
 9956SOL     OW30766   1.822   0.197   1.550
 9956SOL    HW130767   1.804   0.103   1.522
 9956SOL    HW230768   1.805   0.207   1.648
 9957SOL     OW30769   6.375   5.728   3.200
 9957SOL    HW130770   6.391   5.789   3.123
 9957SOL    HW230771   6.462   5.694   3.235
 9958SOL     OW30772   3.746   5.060   0.128
 9958SOL    HW130773   3.750   5.031   0.033
 9958SOL    HW230774   3.813   5.008   0.181
 9959SOL     OW30775   4.078   3.611   5.654
 9959SOL    HW130776   4.130   3.604   5.569
 9959SOL    HW230777   4.130   3.663   5.722
 9960SOL     OW30778   7.005   0.395   2.609
 9960SOL    HW130779   7.007   0.341   2.694
 9960SOL    HW230780   0.034   0.481   2.623
 9961SOL     OW30781   1.668   5.663   4.422
 9961SOL    HW130782   1.715   5.743   4.458
 9961SOL    HW230783   1.735   5.591   4.404
 9962SOL     OW30784   5.694   6.625   4.318
 9962SOL    HW130785   5.745   6.545   4.351
 9962SOL    HW230786   5.669   6.683   4.396
 9963SOL     OW30787   3.307   2.391   0.916
 9963SOL    HW130788   3.231   2.334   0.949
 9963SOL    HW230789   3.383   2.332   0.890
 9964SOL     OW30790   5.132   5.726   4.166
 9964SOL    HW130791   5.063   5.671   4.119
 9964SOL    HW230792   5.138   5.698   4.262
 9965SOL     OW30793   3.986   6.721   7.010
 9965SOL    HW130794   4.077   6.710   0.030
 9965SOL    HW230795   3.925   6.650   0.024
 9966SOL     OW30796   1.330   5.240   1.874
 9966SOL    HW130797   1.428   5.257   1.877
 9966SOL    HW230798   1.293   5.272   1.787
 9967SOL     OW30799   0.923   5.441   1.604
 9967SOL    HW130800   0.909   5.486   1.516
 9967SOL    HW230801   0.929   5.510   1.677
 9968SOL     OW30802   3.539   4.178   1.987
 9968SOL    HW130803   3.518   4.090   2.030
 9968SOL    HW230804   3.550   4.248   2.058
 9969SOL     OW30805   1.504   3.837   2.813
 9969SOL    HW130806   1.500   3.773   2.736
 9969SOL    HW230807   1.597   3.871   2.823
 9970SOL     OW30808   5.207   4.335   1.801
 9970SOL    HW130809   5.250   4.346   1.891
 9970SOL    HW230810   5.123   4.390   1.798
 9971SOL     OW30811   1.211   4.568   1.000
 9971SOL    HW130812   1.138   4.528   1.055
 9971SOL    HW230813   1.174   4.599   0.912
 9972SOL     OW30814   6.012   4.794   2.447
 9972SOL    HW130815   5.962   4.879   2.432
 9972SOL    HW230816   6.039   4.787   2.543
 9973SOL     OW30817   5.737   1.204   3.775
 9973SOL    HW130818   5.739   1.139   3.850
 9973SOL    HW230819   5.790   1.285   3.799
 9974SOL     OW30820   1.535   0.914   3.773
 9974SOL    HW130821   1.557   0.826   3.731
 9974SOL    HW230822   1.550   0.909   3.871
 9975SOL     OW30823   0.108   2.796   0.277
 9975SOL    HW130824   0.100   2.728   0.204
 9975SOL    HW230825   0.033   2.861   0.270
 9976SOL     OW30826   0.745   0.262   5.310
 9976SOL    HW130827   0.840   0.242   5.286
 9976SOL    HW230828   0.684   0.207   5.253
 9977SOL     OW30829   6.004   5.122   5.276
 9977SOL    HW130830   6.029   5.036   5.321
 9977SOL    HW230831   5.909   5.145   5.297
 9978SOL     OW30832   0.575   2.764   4.636
 9978SOL    HW130833   0.603   2.853   4.600
 9978SOL    HW230834   0.649   2.698   4.624
 9979SOL     OW30835   6.122   4.039   4.835
 9979SOL    HW130836   6.205   4.036   4.891
 9979SOL    HW230837   6.088   3.946   4.822
 9980SOL     OW30838   3.710   0.380   6.765
 9980SOL    HW130839   3.691   0.465   6.813
 9980SOL    HW230840   3.635   0.316   6.779
 9981SOL     OW30841   3.208   1.527   3.782
 9981SOL    HW130842   3.150   1.571   3.713
 9981SOL    HW230843   3.161   1.447   3.820
 9982SOL     OW30844   6.875   5.870   3.912
 9982SOL    HW130845   6.798   5.821   3.871
 9982SOL    HW230846   6.960   5.820   3.893
 9983SOL     OW30847   6.885   0.775   2.613
 9983SOL    HW130848   6.875   0.867   2.574
 9983SOL    HW230849   6.905   0.783   2.711
 9984SOL     OW30850   2.708   1.741   6.492
 9984SOL    HW130851   2.611   1.719   6.501
 9984SOL    HW230852   2.745   1.697   6.410
 9985SOL     OW30853   2.208   1.064   1.459
 9985SOL    HW130854   2.114   1.043   1.485
 9985SOL    HW230855   2.216   1.062   1.359
 9986SOL     OW30856   5.814   4.258   4.848
 9986SOL    HW130857   5.864   4.237   4.764
 9986SOL    HW230858   5.723   4.294   4.825
 9987SOL     OW30859   5.614   3.675   6.283
 9987SOL    HW130860   5.619   3.757   6.227
 9987SOL    HW230861   5.520   3.658   6.310
 9988SOL     OW30862   6.250   6.411   5.137
 9988SOL    HW130863   6.346   6.402   5.162
 9988SOL    HW230864   6.230   6.505   5.112
 9989SOL     OW30865   6.794   3.572   4.789
 9989SOL    HW130866   6.866   3.641   4.792
 9989SOL    HW230867   6.714   3.610   4.742
 9990SOL     OW30868   0.736   5.063   3.192
 9990SOL    HW130869   0.822   5.045   3.145
 9990SOL    HW230870   0.661   5.016   3.144
 9991SOL     OW30871   3.297   2.133   4.067
 9991SOL    HW130872   3.269   2.128   4.163
 9991SOL    HW230873   3.387   2.177   4.062
 9992SOL     OW30874   5.918   5.680   6.305
 9992SOL    HW130875   5.947   5.754   6.365
 9992SOL    HW230876   5.950   5.593   6.343
 9993SOL     OW30877   1.786   1.712   1.356
 9993SOL    HW130878   1.778   1.673   1.265
 9993SOL    HW230879   1.712   1.777   1.372
 9994SOL     OW30880   6.295   4.452   3.411
 9994SOL    HW130881   6.246   4.391   3.474
 9994SOL    HW230882   6.249   4.541   3.409
 9995SOL     OW30883   5.183   1.397   4.042
 9995SOL    HW130884   5.184   1.443   4.131
 9995SOL    HW230885   5.277   1.385   4.010
 9996SOL     OW30886   3.715   4.698   0.167
 9996SOL    HW130887   3.662   4.769   0.214
 9996SOL    HW230888   3.807   4.695   0.205
 9997SOL     OW30889   3.122   0.851   5.700
 9997SOL    HW130890   3.036   0.900   5.714
 9997SOL    HW230891   3.116   0.799   5.614
 9998SOL     OW30892   5.820   5.413   5.154
 9998SOL    HW130893   5.756   5.482   5.121
 9998SOL    HW230894   5.866   5.371   5.076
 9999SOL     OW30895   6.005   2.557   5.563
 9999SOL    HW130896   6.039   2.650   5.568
 9999SOL    HW230897   5.998   2.529   5.467
10000SOL     OW30898   0.049   2.229   0.063
10000SOL    HW130899   0.136   2.240   0.111
10000SOL    HW230900   7.014   2.310   0.080
10001SOL     OW30901   4.728   1.039   2.103
10001SOL    HW130902   4.827   1.028   2.103
10001SOL    HW230903   4.687   0.967   2.046
10002SOL     OW30904   1.162   0.105   1.690
10002SOL    HW130905   1.128   0.134   1.779
10002SOL    HW230906   1.258   0.131   1.681
10003SOL     OW30907   3.807   2.139   3.201
10003SOL    HW130908   3.861   2.098   3.127
10003SOL    HW230909   3.869   2.182   3.267
10004SOL     OW30910   7.016   2.219   3.153
10004SOL    HW130911   0.036   2.148   3.095
10004SOL    HW230912   0.066   2.272   3.197
10005SOL     OW30913   5.019   0.395   3.216
10005SOL    HW130914   4.926   0.389   3.252
10005SOL    HW230915   5.037   0.489   3.186
10006SOL     OW30916   3.790   0.041   4.416
10006SOL    HW130917   3.858   0.044   4.343
10006SOL    HW230918   3.750   0.132   4.429
10007SOL     OW30919   0.368   3.134   4.478
10007SOL    HW130920   0.451   3.136   4.533
10007SOL    HW230921   0.341   3.228   4.456
10008SOL     OW30922   3.286   0.507   4.518
10008SOL    HW130923   3.254   0.547   4.432
10008SOL    HW230924   3.326   0.578   4.575
10009SOL     OW30925   2.252   4.249   2.219
10009SOL    HW130926   2.306   4.330   2.197
10009SOL    HW230927   2.270   4.178   2.151
10010SOL     OW30928   1.642   1.951   6.824
10010SOL    HW130929   1.703   1.872   6.815
10010SOL    HW230930   1.689   2.023   6.874
10011SOL     OW30931   6.533   6.782   5.473
10011SOL    HW130932   6.531   6.805   5.376
10011SOL    HW230933   6.470   6.707   5.491
10012SOL     OW30934   5.976   1.582   4.161
10012SOL    HW130935   6.064   1.608   4.122
10012SOL    HW230936   5.954   1.644   4.237
10013SOL     OW30937   0.628   0.456   2.969
10013SOL    HW130938   0.709   0.511   2.985
10013SOL    HW230939   0.655   0.367   2.932
10014SOL     OW30940   0.350   4.617   6.331
10014SOL    HW130941   0.385   4.525   6.348
10014SOL    HW230942   0.287   4.614   6.253
10015SOL     OW30943   2.175   4.778   6.689
10015SOL    HW130944   2.269   4.753   6.667
10015SOL    HW230945   2.156   4.758   6.785
10016SOL     OW30946   2.444   0.965   6.217
10016SOL    HW130947   2.527   0.951   6.270
10016SOL    HW230948   2.371   0.998   6.278
10017SOL     OW30949   2.079   2.238   4.814
10017SOL    HW130950   2.112   2.331   4.831
10017SOL    HW230951   2.048   2.198   4.900
10018SOL     OW30952   4.882   0.922   5.270
10018SOL    HW130953   4.950   0.974   5.321
10018SOL    HW230954   4.869   0.963   5.180
10019SOL     OW30955   1.409   0.698   3.635
10019SOL    HW130956   1.429   0.685   3.538
10019SOL    HW230957   1.399   0.795   3.655
10020SOL     OW30958   0.942   3.261   1.300
10020SOL    HW130959   0.842   3.257   1.302
10020SOL    HW230960   0.972   3.339   1.246
10021SOL     OW30961   0.484   3.797   1.307
10021SOL    HW130962   0.453   3.706   1.332
10021SOL    HW230963   0.555   3.828   1.370
10022SOL     OW30964   1.199   2.095   6.204
10022SOL    HW130965   1.244   2.020   6.252
10022SOL    HW230966   1.113   2.118   6.250
10023SOL     OW30967   6.810   3.034   0.537
10023SOL    HW130968   6.898   3.063   0.576
10023SOL    HW230969   6.827   2.991   0.448
10024SOL     OW30970   1.434   4.592   4.037
10024SOL    HW130971   1.369   4.615   4.109
10024SOL    HW230972   1.385   4.554   3.958
10025SOL     OW30973   1.789   1.300   1.262
10025SOL    HW130974   1.869   1.329   1.209
10025SOL    HW230975   1.809   1.214   1.309
10026SOL     OW30976   6.374   0.628   3.301
10026SOL    HW130977   6.339   0.608   3.393
10026SOL    HW230978   6.379   0.727   3.289
10027SOL     OW30979   4.989   3.602   4.942
10027SOL    HW130980   4.916   3.644   4.995
10027SOL    HW230981   5.025   3.523   4.991
10028SOL     OW30982   2.298   1.310   0.452
10028SOL    HW130983   2.330   1.233   0.398
10028SOL    HW230984   2.206   1.335   0.422
10029SOL     OW30985   5.619   1.566   3.569
10029SOL    HW130986   5.602   1.468   3.566
10029SOL    HW230987   5.645   1.598   3.478
10030SOL     OW30988   1.434   0.609   4.118
10030SOL    HW130989   1.512   0.555   4.150
10030SOL    HW230990   1.405   0.576   4.029
10031SOL     OW30991   6.453   4.529   3.846
10031SOL    HW130992   6.492   4.557   3.759
10031SOL    HW230993   6.387   4.598   3.877
10032SOL     OW30994   2.990   1.328   4.840
10032SOL    HW130995   3.055   1.403   4.852
10032SOL    HW230996   3.005   1.259   4.911
10033SOL     OW30997   5.827   3.498   4.850
10033SOL    HW130998   5.805   3.421   4.790
10033SOL    HW230999   5.774   3.490   4.934
10034SOL     OW31000   5.380   0.533   5.250
10034SOL    HW131001   5.443   0.478   5.195
10034SOL    HW231002   5.291   0.536   5.205
10035SOL     OW31003   0.506   5.529   1.270
10035SOL    HW131004   0.595   5.485   1.267
10035SOL    HW231005   0.464   5.527   1.179
10036SOL     OW31006   6.704   1.352   0.015
10036SOL    HW131007   6.646   1.303   0.081
10036SOL    HW231008   6.747   1.430   0.061
10037SOL     OW31009   0.704   0.647   0.089
10037SOL    HW131010   0.637   0.696   0.034
10037SOL    HW231011   0.658   0.602   0.166
10038SOL     OW31012   6.244   6.802   1.295
10038SOL    HW131013   6.337   6.823   1.264
10038SOL    HW231014   6.226   6.851   1.381
10039SOL     OW31015   3.728   0.492   3.903
10039SOL    HW131016   3.634   0.523   3.910
10039SOL    HW231017   3.769   0.527   3.819
10040SOL     OW31018   6.834   3.239   1.461
10040SOL    HW131019   6.781   3.295   1.524
10040SOL    HW231020   6.810   3.142   1.473
10041SOL     OW31021   2.160   6.713   0.302
10041SOL    HW131022   2.197   6.658   0.376
10041SOL    HW231023   2.223   6.789   0.283
10042SOL     OW31024   6.339   2.346   2.736
10042SOL    HW131025   6.437   2.346   2.714
10042SOL    HW231026   6.327   2.356   2.835
10043SOL     OW31027   6.950   1.793   5.990
10043SOL    HW131028   0.025   1.812   5.978
10043SOL    HW231029   6.923   1.809   6.085
10044SOL     OW31030   3.322   2.345   5.660
10044SOL    HW131031   3.326   2.357   5.560
10044SOL    HW231032   3.386   2.273   5.687
10045SOL     OW31033   3.562   0.872   0.685
10045SOL    HW131034   3.598   0.963   0.708
10045SOL    HW231035   3.472   0.882   0.643
10046SOL     OW31036   1.965   5.156   1.618
10046SOL    HW131037   1.927   5.075   1.575
10046SOL    HW231038   1.992   5.135   1.712
10047SOL     OW31039   0.814   3.637   0.397
10047SOL    HW131040   0.836   3.722   0.445
10047SOL    HW231041   0.733   3.651   0.340
10048SOL     OW31042   5.587   5.756   2.917
10048SOL    HW131043   5.599   5.741   3.015
10048SOL    HW231044   5.649   5.829   2.886
10049SOL     OW31045   0.257   0.907   5.636
10049SOL    HW131046   0.323   0.946   5.700
10049SOL    HW231047   0.175   0.880   5.686
10050SOL     OW31048   6.393   3.203   6.390
10050SOL    HW131049   6.392   3.291   6.343
10050SOL    HW231050   6.353   3.133   6.330
10051SOL     OW31051   2.120   3.291   4.019
10051SOL    HW131052   2.039   3.233   4.027
10051SOL    HW231053   2.131   3.320   3.924
10052SOL     OW31054   1.155   0.003   3.148
10052SOL    HW131055   1.081   0.035   3.088
10052SOL    HW231056   1.195   0.081   3.196
10053SOL     OW31057   5.650   5.555   5.001
10053SOL    HW131058   5.672   5.531   4.907
10053SOL    HW231059   5.562   5.604   5.004
10054SOL     OW31060   6.233   3.979   5.114
10054SOL    HW131061   6.157   4.036   5.145
10054SOL    HW231062   6.202   3.885   5.104
10055SOL     OW31063   0.687   1.944   6.578
10055SOL    HW131064   0.707   1.851   6.608
10055SOL    HW231065   0.622   1.941   6.502
10056SOL     OW31066   6.653   2.584   4.157
10056SOL    HW131067   6.650   2.577   4.257
10056SOL    HW231068   6.576   2.640   4.126
10057SOL     OW31069   6.179   4.780   5.777
10057SOL    HW131070   6.277   4.764   5.790
10057SOL    HW231071   6.160   4.793   5.680
10058SOL     OW31072   6.893   4.037   5.260
10058SOL    HW131073   6.979   4.062   5.304
10058SOL    HW231074   6.865   3.946   5.291
10059SOL     OW31075   6.682   0.842   0.270
10059SOL    HW131076   6.592   0.855   0.312
10059SOL    HW231077   6.686   0.751   0.228
10060SOL     OW31078   2.557   2.133   2.144
10060SOL    HW131079   2.606   2.057   2.188
10060SOL    HW231080   2.597   2.219   2.174
10061SOL     OW31081   3.600   0.192   3.097
10061SOL    HW131082   3.658   0.214   3.175
10061SOL    HW231083   3.599   0.093   3.082
10062SOL     OW31084   6.269   0.441   4.611
10062SOL    HW131085   6.214   0.503   4.668
10062SOL    HW231086   6.349   0.410   4.663
10063SOL     OW31087   1.739   3.147   5.472
10063SOL    HW131088   1.713   3.054   5.445
10063SOL    HW231089   1.744   3.153   5.572
10064SOL     OW31090   3.144   0.119   0.610
10064SOL    HW131091   3.065   0.180   0.611
10064SOL    HW231092   3.112   0.024   0.612
10065SOL     OW31093   1.215   1.656   1.890
10065SOL    HW131094   1.149   1.581   1.892
10065SOL    HW231095   1.308   1.619   1.892
10066SOL     OW31096   6.661   3.384   3.574
10066SOL    HW131097   6.700   3.471   3.544
10066SOL    HW231098   6.688   3.312   3.510
10067SOL     OW31099   6.681   2.676   5.478
10067SOL    HW131100   6.733   2.756   5.507
10067SOL    HW231101   6.687   2.667   5.378
10068SOL     OW31102   1.846   3.100   2.804
10068SOL    HW131103   1.804   3.136   2.721
10068SOL    HW231104   1.945   3.106   2.797
10069SOL     OW31105   2.800   5.061   0.701
10069SOL    HW131106   2.714   5.011   0.692
10069SOL    HW231107   2.794   5.124   0.779
10070SOL     OW31108   3.775   6.643   6.119
10070SOL    HW131109   3.707   6.694   6.172
10070SOL    HW231110   3.820   6.576   6.178
10071SOL     OW31111   6.090   6.854   3.702
10071SOL    HW131112   6.172   6.861   3.759
10071SOL    HW231113   6.009   6.873   3.757
10072SOL     OW31114   6.323   3.062   1.696
10072SOL    HW131115   6.256   3.001   1.653
10072SOL    HW231116   6.287   3.095   1.783
10073SOL     OW31117   6.948   4.439   4.168
10073SOL    HW131118   7.015   4.399   4.231
10073SOL    HW231119   6.995   4.476   4.088
10074SOL     OW31120   1.176   4.901   0.104
10074SOL    HW131121   1.077   4.901   0.090
10074SOL    HW231122   1.210   4.807   0.102
10075SOL     OW31123   1.464   3.541   1.903
10075SOL    HW131124   1.444   3.607   1.831
10075SOL    HW231125   1.503   3.589   1.982
10076SOL     OW31126   5.015   5.509   4.039
10076SOL    HW131127   5.100   5.462   4.061
10076SOL    HW231128   4.938   5.450   4.062
10077SOL     OW31129   4.804   3.676   6.863
10077SOL    HW131130   4.759   3.593   6.828
10077SOL    HW231131   4.877   3.650   6.927
10078SOL     OW31132   6.539   6.059   5.050
10078SOL    HW131133   6.560   5.994   5.124
10078SOL    HW231134   6.463   6.024   4.995
10079SOL     OW31135   4.691   2.883   3.779
10079SOL    HW131136   4.708   2.908   3.875
10079SOL    HW231137   4.654   2.790   3.775
10080SOL     OW31138   4.721   1.377   5.587
10080SOL    HW131139   4.683   1.332   5.506
10080SOL    HW231140   4.790   1.318   5.629
10081SOL     OW31141   1.490   4.110   0.603
10081SOL    HW131142   1.586   4.089   0.585
10081SOL    HW231143   1.440   4.117   0.517
10082SOL     OW31144   1.214   4.963   0.434
10082SOL    HW131145   1.152   4.885   0.440
10082SOL    HW231146   1.259   4.976   0.523
10083SOL     OW31147   3.743   4.973   3.193
10083SOL    HW131148   3.781   5.041   3.130
10083SOL    HW231149   3.792   4.887   3.182
10084SOL     OW31150   1.044   1.491   5.465
10084SOL    HW131151   1.086   1.460   5.380
10084SOL    HW231152   1.115   1.516   5.531
10085SOL     OW31153   5.121   7.007   0.656
10085SOL    HW131154   5.202   6.981   0.709
10085SOL    HW231155   5.042   6.954   0.688
10086SOL     OW31156   6.326   6.292   3.344
10086SOL    HW131157   6.414   6.306   3.298
10086SOL    HW231158   6.334   6.216   3.408
10087SOL     OW31159   1.360   6.725   5.627
10087SOL    HW131160   1.411   6.798   5.673
10087SOL    HW231161   1.350   6.647   5.689
10088SOL     OW31162   0.382   2.518   0.585
10088SOL    HW131163   0.380   2.609   0.545
10088SOL    HW231164   0.293   2.498   0.628
10089SOL     OW31165   3.596   1.245   1.866
10089SOL    HW131166   3.631   1.309   1.934
10089SOL    HW231167   3.672   1.192   1.827
10090SOL     OW31168   2.741   6.148   3.164
10090SOL    HW131169   2.744   6.172   3.067
10090SOL    HW231170   2.690   6.063   3.176
10091SOL     OW31171   6.554   4.430   5.415
10091SOL    HW131172   6.631   4.368   5.412
10091SOL    HW231173   6.586   4.522   5.439
10092SOL     OW31174   0.943   2.065   3.526
10092SOL    HW131175   0.869   2.085   3.462
10092SOL    HW231176   0.927   2.113   3.612
10093SOL     OW31177   5.022   4.485   6.377
10093SOL    HW131178   4.976   4.486   6.289
10093SOL    HW231179   5.086   4.562   6.383
10094SOL     OW31180   3.100   1.726   1.248
10094SOL    HW131181   3.050   1.750   1.331
10094SOL    HW231182   3.089   1.799   1.180
10095SOL     OW31183   4.465   2.796   5.656
10095SOL    HW131184   4.470   2.710   5.604
10095SOL    HW231185   4.491   2.872   5.596
10096SOL     OW31186   5.984   2.761   2.460
10096SOL    HW131187   5.907   2.817   2.430
10096SOL    HW231188   6.001   2.689   2.392
10097SOL     OW31189   0.640   1.078   0.005
10097SOL    HW131190   0.699   1.015   0.056
10097SOL    HW231191   0.674   1.171   0.014
10098SOL     OW31192   2.721   5.386   3.469
10098SOL    HW131193   2.758   5.346   3.386
10098SOL    HW231194   2.626   5.413   3.454
10099SOL     OW31195   0.677   5.325   2.004
10099SOL    HW131196   0.670   5.380   1.921
10099SOL    HW231197   0.744   5.252   1.991
10100SOL     OW31198   4.985   5.097   4.362
10100SOL    HW131199   5.082   5.071   4.360
10100SOL    HW231200   4.976   5.194   4.384
10101SOL     OW31201   6.956   2.873   1.410
10101SOL    HW131202   6.954   2.951   1.348
10101SOL    HW231203   0.007   2.810   1.381
10102SOL     OW31204   6.950   5.398   2.971
10102SOL    HW131205   6.987   5.487   2.944
10102SOL    HW231206   6.924   5.346   2.890
10103SOL     OW31207   6.856   5.916   6.003
10103SOL    HW131208   6.818   5.970   5.927
10103SOL    HW231209   6.868   5.821   5.974
10104SOL     OW31210   2.142   0.721   4.411
10104SOL    HW131211   2.058   0.754   4.367
10104SOL    HW231212   2.212   0.792   4.406
10105SOL     OW31213   3.289   1.091   5.498
10105SOL    HW131214   3.198   1.085   5.455
10105SOL    HW231215   3.329   1.180   5.478
10106SOL     OW31216   5.348   4.768   1.481
10106SOL    HW131217   5.440   4.758   1.519
10106SOL    HW231218   5.330   4.865   1.464
10107SOL     OW31219   5.474   4.979   0.004
10107SOL    HW131220   5.548   5.044   7.010
10107SOL    HW231221   5.489   4.896   6.973
10108SOL     OW31222   1.867   2.595   0.226
10108SOL    HW131223   1.800   2.538   0.178
10108SOL    HW231224   1.843   2.601   0.323
10109SOL     OW31225   0.816   2.448   1.276
10109SOL    HW131226   0.801   2.389   1.356
10109SOL    HW231227   0.756   2.528   1.282
10110SOL     OW31228   5.940   5.852   2.562
10110SOL    HW131229   6.008   5.891   2.500
10110SOL    HW231230   5.932   5.754   2.547
10111SOL     OW31231   0.954   2.678   1.283
10111SOL    HW131232   0.891   2.737   1.334
10111SOL    HW231233   0.908   2.593   1.259
10112SOL     OW31234   0.298   2.211   2.369
10112SOL    HW131235   0.375   2.170   2.419
10112SOL    HW231236   0.226   2.235   2.434
10113SOL     OW31237   6.977   0.789   6.163
10113SOL    HW131238   0.037   0.811   6.215
10113SOL    HW231239   6.982   0.695   6.130
10114SOL     OW31240   5.617   2.000   1.733
10114SOL    HW131241   5.582   1.916   1.774
10114SOL    HW231242   5.643   1.982   1.638
10115SOL     OW31243   3.777   2.710   6.128
10115SOL    HW131244   3.753   2.620   6.165
10115SOL    HW231245   3.746   2.781   6.192
10116SOL     OW31246   6.764   0.692   5.220
10116SOL    HW131247   6.850   0.737   5.196
10116SOL    HW231248   6.779   0.627   5.295
10117SOL     OW31249   6.154   5.092   3.261
10117SOL    HW131250   6.207   5.123   3.183
10117SOL    HW231251   6.175   5.149   3.341
10118SOL     OW31252   4.194   5.072   3.751
10118SOL    HW131253   4.248   5.006   3.699
10118SOL    HW231254   4.208   5.164   3.714
10119SOL     OW31255   6.892   6.330   5.402
10119SOL    HW131256   6.868   6.257   5.466
10119SOL    HW231257   6.990   6.325   5.380
10120SOL     OW31258   1.819   3.147   3.394
10120SOL    HW131259   1.760   3.227   3.403
10120SOL    HW231260   1.914   3.175   3.404
10121SOL     OW31261   6.203   5.166   0.936
10121SOL    HW131262   6.272   5.153   0.865
10121SOL    HW231263   6.116   5.192   0.893
10122SOL     OW31264   1.647   0.320   3.559
10122SOL    HW131265   1.569   0.363   3.514
10122SOL    HW231266   1.728   0.378   3.547
10123SOL     OW31267   6.565   5.312   6.955
10123SOL    HW131268   6.632   5.274   6.890
10123SOL    HW231269   6.575   5.267   0.022
10124SOL     OW31270   1.991   5.150   2.720
10124SOL    HW131271   1.985   5.051   2.735
10124SOL    HW231272   2.012   5.196   2.806
10125SOL     OW31273   1.806   0.808   4.609
10125SOL    HW131274   1.793   0.768   4.700
10125SOL    HW231275   1.719   0.846   4.577
10126SOL     OW31276   6.310   6.416   6.140
10126SOL    HW131277   6.259   6.331   6.136
10126SOL    HW231278   6.265   6.479   6.203
10127SOL     OW31279   2.649   7.016   5.657
10127SOL    HW131280   2.582   0.062   5.625
10127SOL    HW231281   2.621   6.925   5.627
10128SOL     OW31282   3.026   2.743   0.070
10128SOL    HW131283   2.976   2.715   0.152
10128SOL    HW231284   3.019   2.842   0.060
10129SOL     OW31285   6.406   1.639   4.505
10129SOL    HW131286   6.360   1.559   4.465
10129SOL    HW231287   6.436   1.700   4.432
10130SOL     OW31288   1.061   1.203   4.186
10130SOL    HW131289   1.018   1.219   4.097
10130SOL    HW231290   1.041   1.280   4.247
10131SOL     OW31291   2.215   6.467   3.971
10131SOL    HW131292   2.190   6.486   4.065
10131SOL    HW231293   2.176   6.537   3.911
10132SOL     OW31294   6.195   0.018   1.480
10132SOL    HW131295   6.115   0.067   1.515
10132SOL    HW231296   6.230   6.978   1.549
10133SOL     OW31297   5.385   6.401   0.052
10133SOL    HW131298   5.405   6.470   0.122
10133SOL    HW231299   5.305   6.429   7.021
10134SOL     OW31300   6.895   6.814   2.288
10134SOL    HW131301   6.967   6.874   2.321
10134SOL    HW231302   6.878   6.742   2.355
10135SOL     OW31303   6.195   0.172   2.861
10135SOL    HW131304   6.284   0.132   2.838
10135SOL    HW231305   6.202   0.272   2.859
10136SOL     OW31306   4.747   2.335   3.361
10136SOL    HW131307   4.773   2.254   3.308
10136SOL    HW231308   4.768   2.417   3.308
10137SOL     OW31309   6.452   5.005   5.475
10137SOL    HW131310   6.381   5.039   5.413
10137SOL    HW231311   6.454   4.905   5.473
10138SOL     OW31312   0.136   2.777   1.268
10138SOL    HW131313   0.185   2.690   1.273
10138SOL    HW231314   0.139   2.812   1.174
10139SOL     OW31315   2.632   3.136   6.565
10139SOL    HW131316   2.572   3.187   6.627
10139SOL    HW231317   2.582   3.058   6.528
10140SOL     OW31318   1.059   6.672   5.685
10140SOL    HW131319   1.027   6.766   5.692
10140SOL    HW231320   1.148   6.670   5.640
10141SOL     OW31321   2.241   2.442   4.152
10141SOL    HW131322   2.340   2.435   4.162
10141SOL    HW231323   2.196   2.409   4.236
10142SOL     OW31324   4.114   6.593   3.216
10142SOL    HW131325   4.036   6.654   3.201
10142SOL    HW231326   4.088   6.520   3.279
10143SOL     OW31327   5.282   2.897   6.318
10143SOL    HW131328   5.362   2.839   6.335
10143SOL    HW231329   5.307   2.992   6.335
10144SOL     OW31330   3.334   6.522   0.791
10144SOL    HW131331   3.362   6.617   0.807
10144SOL    HW231332   3.238   6.511   0.817
10145SOL     OW31333   5.594   6.907   6.111
10145SOL    HW131334   5.539   6.835   6.151
10145SOL    HW231335   5.580   6.992   6.162
10146SOL     OW31336   0.077   2.959   4.743
10146SOL    HW131337   0.126   2.950   4.830
10146SOL    HW231338   7.005   2.927   4.754
10147SOL     OW31339   3.989   5.466   5.541
10147SOL    HW131340   3.971   5.445   5.637
10147SOL    HW231341   4.060   5.537   5.535
10148SOL     OW31342   0.832   3.895   0.441
10148SOL    HW131343   0.801   3.933   0.528
10148SOL    HW231344   0.786   3.943   0.366
10149SOL     OW31345   4.089   3.564   0.939
10149SOL    HW131346   4.071   3.580   1.036
10149SOL    HW231347   4.084   3.466   0.920
10150SOL     OW31348   4.171   4.486   0.847
10150SOL    HW131349   4.204   4.540   0.769
10150SOL    HW231350   4.111   4.542   0.904
10151SOL     OW31351   6.069   0.155   6.157
10151SOL    HW131352   6.019   0.232   6.116
10151SOL    HW231353   6.009   0.076   6.164
10152SOL     OW31354   4.322   6.946   2.359
10152SOL    HW131355   4.304   0.022   2.361
10152SOL    HW231356   4.413   6.929   2.321
10153SOL     OW31357   4.913   4.378   2.296
10153SOL    HW131358   4.952   4.470   2.299
10153SOL    HW231359   4.870   4.363   2.207
10154SOL     OW31360   4.588   5.542   5.974
10154SOL    HW131361   4.574   5.478   5.898
10154SOL    HW231362   4.551   5.503   6.058
10155SOL     OW31363   4.564   1.557   4.417
10155SOL    HW131364   4.614   1.567   4.504
10155SOL    HW231365   4.497   1.631   4.409
10156SOL     OW31366   4.215   1.733   0.136
10156SOL    HW131367   4.309   1.739   0.172
10156SOL    HW231368   4.207   1.791   0.055
10157SOL     OW31369   0.196   4.127   1.600
10157SOL    HW131370   0.234   4.208   1.556
10157SOL    HW231371   0.179   4.056   1.532
10158SOL     OW31372   5.881   5.383   0.422
10158SOL    HW131373   5.877   5.330   0.338
10158SOL    HW231374   5.921   5.473   0.404
10159SOL     OW31375   3.288   2.807   2.041
10159SOL    HW131376   3.285   2.896   2.086
10159SOL    HW231377   3.236   2.741   2.096
10160SOL     OW31378   0.510   4.745   2.523
10160SOL    HW131379   0.518   4.650   2.552
10160SOL    HW231380   0.586   4.798   2.561
10161SOL     OW31381   5.711   3.310   4.657
10161SOL    HW131382   5.737   3.226   4.610
10161SOL    HW231383   5.683   3.379   4.590
10162SOL     OW31384   1.542   2.300   1.715
10162SOL    HW131385   1.539   2.353   1.799
10162SOL    HW231386   1.615   2.335   1.656
10163SOL     OW31387   2.668   5.732   5.037
10163SOL    HW131388   2.715   5.645   5.027
10163SOL    HW231389   2.578   5.717   5.078
10164SOL     OW31390   1.106   1.422   3.672
10164SOL    HW131391   1.098   1.516   3.705
10164SOL    HW231392   1.203   1.399   3.662
10165SOL     OW31393   0.718   3.495   3.894
10165SOL    HW131394   0.810   3.459   3.878
10165SOL    HW231395   0.692   3.557   3.820
10166SOL     OW31396   2.346   6.894   1.771
10166SOL    HW131397   2.378   6.973   1.718
10166SOL    HW231398   2.418   6.824   1.773
10167SOL     OW31399   2.404   1.484   6.566
10167SOL    HW131400   2.429   1.576   6.535
10167SOL    HW231401   2.475   1.450   6.628
10168SOL     OW31402   6.691   0.360   6.415
10168SOL    HW131403   6.723   0.282   6.469
10168SOL    HW231404   6.591   0.362   6.414
10169SOL     OW31405   4.821   4.251   4.081
10169SOL    HW131406   4.889   4.258   4.008
10169SOL    HW231407   4.731   4.276   4.045
10170SOL     OW31408   5.091   5.266   6.841
10170SOL    HW131409   5.157   5.216   6.897
10170SOL    HW231410   5.046   5.336   6.897
10171SOL     OW31411   1.982   4.789   4.934
10171SOL    HW131412   1.998   4.860   4.867
10171SOL    HW231413   2.069   4.757   4.972
10172SOL     OW31414   6.319   0.520   3.069
10172SOL    HW131415   6.356   0.428   3.058
10172SOL    HW231416   6.327   0.548   3.165
10173SOL     OW31417   3.490   3.869   4.775
10173SOL    HW131418   3.408   3.851   4.720
10173SOL    HW231419   3.526   3.959   4.750
10174SOL     OW31420   4.771   5.072   1.475
10174SOL    HW131421   4.725   5.067   1.564
10174SOL    HW231422   4.868   5.093   1.488
10175SOL     OW31423   7.003   0.505   4.272
10175SOL    HW131424   6.972   0.409   4.270
10175SOL    HW231425   6.944   0.557   4.335
10176SOL     OW31426   6.614   1.622   5.040
10176SOL    HW131427   6.619   1.549   5.108
10176SOL    HW231428   6.520   1.630   5.006
10177SOL     OW31429   2.577   1.268   3.522
10177SOL    HW131430   2.586   1.256   3.621
10177SOL    HW231431   2.606   1.360   3.496
10178SOL     OW31432   0.579   1.854   1.021
10178SOL    HW131433   0.616   1.836   0.930
10178SOL    HW231434   0.523   1.937   1.018
10179SOL     OW31435   1.173   4.135   0.434
10179SOL    HW131436   1.141   4.205   0.371
10179SOL    HW231437   1.263   4.102   0.404
10180SOL     OW31438   4.081   6.636   5.877
10180SOL    HW131439   3.984   6.659   5.870
10180SOL    HW231440   4.103   6.614   5.971
10181SOL     OW31441   5.955   2.913   2.807
10181SOL    HW131442   6.028   2.846   2.824
10181SOL    HW231443   5.866   2.867   2.807
10182SOL     OW31444   4.704   1.114   1.392
10182SOL    HW131445   4.708   1.047   1.467
10182SOL    HW231446   4.628   1.090   1.331
10183SOL     OW31447   6.226   0.985   6.025
10183SOL    HW131448   6.179   0.959   5.941
10183SOL    HW231449   6.269   0.904   6.065
10184SOL     OW31450   5.455   1.771   5.941
10184SOL    HW131451   5.484   1.844   5.878
10184SOL    HW231452   5.396   1.707   5.892
10185SOL     OW31453   3.654   5.450   1.684
10185SOL    HW131454   3.685   5.527   1.628
10185SOL    HW231455   3.733   5.398   1.716
10186SOL     OW31456   3.587   3.525   6.496
10186SOL    HW131457   3.668   3.534   6.554
10186SOL    HW231458   3.577   3.607   6.440
10187SOL     OW31459   2.248   4.489   5.771
10187SOL    HW131460   2.278   4.531   5.686
10187SOL    HW231461   2.324   4.438   5.812
10188SOL     OW31462   3.001   0.129   6.223
10188SOL    HW131463   3.064   0.121   6.300
10188SOL    HW231464   2.908   0.139   6.258
10189SOL     OW31465   1.449   1.884   5.608
10189SOL    HW131466   1.537   1.836   5.610
10189SOL    HW231467   1.383   1.836   5.666
10190SOL     OW31468   4.179   4.851   1.317
10190SOL    HW131469   4.242   4.870   1.392
10190SOL    HW231470   4.091   4.822   1.353
10191SOL     OW31471   4.893   6.790   6.722
10191SOL    HW131472   4.838   6.866   6.759
10191SOL    HW231473   4.989   6.806   6.742
10192SOL     OW31474   1.898   1.464   3.927
10192SOL    HW131475   1.863   1.425   3.841
10192SOL    HW231476   1.903   1.563   3.919
10193SOL     OW31477   3.700   3.485   3.890
10193SOL    HW131478   3.785   3.453   3.933
10193SOL    HW231479   3.640   3.524   3.959
10194SOL     OW31480   3.020   0.382   2.792
10194SOL    HW131481   3.007   0.290   2.753
10194SOL    HW231482   3.088   0.431   2.737
10195SOL     OW31483   4.839   6.714   2.843
10195SOL    HW131484   4.921   6.675   2.801
10195SOL    HW231485   4.785   6.641   2.885
10196SOL     OW31486   6.015   2.933   4.532
10196SOL    HW131487   6.083   2.866   4.504
10196SOL    HW231488   6.058   3.022   4.545
10197SOL     OW31489   5.320   0.974   2.337
10197SOL    HW131490   5.270   0.988   2.423
10197SOL    HW231491   5.348   1.062   2.300
10198SOL     OW31492   2.453   0.253   1.037
10198SOL    HW131493   2.518   0.262   0.961
10198SOL    HW231494   2.447   0.339   1.087
10199SOL     OW31495   1.474   1.617   0.639
10199SOL    HW131496   1.530   1.637   0.720
10199SOL    HW231497   1.459   1.518   0.633
10200SOL     OW31498   5.747   3.806   5.637
10200SOL    HW131499   5.703   3.818   5.725
10200SOL    HW231500   5.731   3.886   5.579
10201SOL     OW31501   1.543   4.987   2.655
10201SOL    HW131502   1.626   4.998   2.599
10201SOL    HW231503   1.473   5.050   2.623
10202SOL     OW31504   0.630   2.664   2.435
10202SOL    HW131505   0.543   2.690   2.394
10202SOL    HW231506   0.700   2.653   2.364
10203SOL     OW31507   0.819   3.078   2.029
10203SOL    HW131508   0.838   3.171   2.060
10203SOL    HW231509   0.897   3.043   1.978
10204SOL     OW31510   3.420   5.240   4.439
10204SOL    HW131511   3.519   5.256   4.433
10204SOL    HW231512   3.389   5.190   4.359
10205SOL     OW31513   4.511   0.856   2.695
10205SOL    HW131514   4.602   0.866   2.655
10205SOL    HW231515   4.442   0.869   2.624
10206SOL     OW31516   4.645   6.853   6.159
10206SOL    HW131517   4.672   6.775   6.103
10206SOL    HW231518   4.655   6.937   6.106
10207SOL     OW31519   4.252   0.650   2.876
10207SOL    HW131520   4.257   0.564   2.926
10207SOL    HW231521   4.268   0.633   2.779
10208SOL     OW31522   6.160   3.949   5.511
10208SOL    HW131523   6.099   3.953   5.589
10208SOL    HW231524   6.139   3.868   5.456
10209SOL     OW31525   5.139   6.973   6.690
10209SOL    HW131526   5.127   6.930   6.779
10209SOL    HW231527   5.237   6.983   6.672
10210SOL     OW31528   5.115   5.588   1.938
10210SOL    HW131529   5.145   5.677   1.971
10210SOL    HW231530   5.122   5.521   2.011
10211SOL     OW31531   3.604   5.868   5.044
10211SOL    HW131532   3.650   5.881   4.956
10211SOL    HW231533   3.507   5.892   5.035
10212SOL     OW31534   6.101   6.205   5.058
10212SOL    HW131535   6.057   6.233   4.972
10212SOL    HW231536   6.162   6.277   5.090
10213SOL     OW31537   5.907   0.685   3.579
10213SOL    HW131538   5.824   0.730   3.612
10213SOL    HW231539   5.968   0.666   3.656
10214SOL     OW31540   6.951   0.213   1.991
10214SOL    HW131541   6.910   0.155   1.921
10214SOL    HW231542   6.904   0.301   1.994
10215SOL     OW31543   3.765   2.751   6.985
10215SOL    HW131544   3.666   2.751   6.973
10215SOL    HW231545   3.793   2.671   0.016
10216SOL     OW31546   4.985   0.143   1.720
10216SOL    HW131547   4.962   0.152   1.623
10216SOL    HW231548   4.917   0.086   1.765
10217SOL     OW31549   3.246   1.298   5.147
10217SOL    HW131550   3.211   1.348   5.067
10217SOL    HW231551   3.283   1.210   5.118
10218SOL     OW31552   1.870   2.727   1.291
10218SOL    HW131553   1.937   2.654   1.304
10218SOL    HW231554   1.799   2.697   1.227
10219SOL     OW31555   0.905   3.625   0.024
10219SOL    HW131556   0.972   3.669   6.986
10219SOL    HW231557   0.818   3.615   6.997
10220SOL     OW31558   4.110   1.802   0.885
10220SOL    HW131559   4.149   1.890   0.857
10220SOL    HW231560   4.113   1.795   0.985
10221SOL     OW31561   3.401   0.627   4.877
10221SOL    HW131562   3.442   0.628   4.969
10221SOL    HW231563   3.414   0.716   4.834
10222SOL     OW31564   1.671   5.468   5.612
10222SOL    HW131565   1.748   5.443   5.671
10222SOL    HW231566   1.606   5.392   5.608
10223SOL     OW31567   6.603   4.555   0.364
10223SOL    HW131568   6.637   4.649   0.361
10223SOL    HW231569   6.639   4.509   0.445
10224SOL     OW31570   1.736   6.841   4.198
10224SOL    HW131571   1.684   6.756   4.208
10224SOL    HW231572   1.673   6.916   4.177
10225SOL     OW31573   5.977   6.092   4.400
10225SOL    HW131574   6.007   6.132   4.313
10225SOL    HW231575   5.908   6.022   4.383
10226SOL     OW31576   0.466   2.227   1.044
10226SOL    HW131577   0.496   2.221   0.949
10226SOL    HW231578   0.466   2.323   1.073
10227SOL     OW31579   5.356   5.659   6.378
10227SOL    HW131580   5.383   5.754   6.361
10227SOL    HW231581   5.413   5.599   6.322
10228SOL     OW31582   0.436   4.218   2.911
10228SOL    HW131583   0.368   4.178   2.849
10228SOL    HW231584   0.527   4.182   2.888
10229SOL     OW31585   1.642   0.846   2.400
10229SOL    HW131586   1.599   0.759   2.378
10229SOL    HW231587   1.740   0.841   2.378
10230SOL     OW31588   6.688   6.746   4.024
10230SOL    HW131589   6.614   6.809   4.002
10230SOL    HW231590   6.754   6.744   3.948
10231SOL     OW31591   5.219   6.825   3.924
10231SOL    HW131592   5.172   6.867   3.846
10231SOL    HW231593   5.187   6.868   4.008
10232SOL     OW31594   3.955   2.207   4.761
10232SOL    HW131595   3.927   2.300   4.740
10232SOL    HW231596   3.952   2.193   4.860
10233SOL     OW31597   4.891   1.138   5.604
10233SOL    HW131598   4.980   1.123   5.562
10233SOL    HW231599   4.901   1.197   5.684
10234SOL     OW31600   5.666   6.583   1.350
10234SOL    HW131601   5.695   6.592   1.445
10234SOL    HW231602   5.569   6.557   1.346
10235SOL     OW31603   5.226   1.314   6.333
10235SOL    HW131604   5.252   1.340   6.240
10235SOL    HW231605   5.196   1.218   6.332
10236SOL     OW31606   2.282   5.979   2.611
10236SOL    HW131607   2.350   5.983   2.538
10236SOL    HW231608   2.314   5.916   2.682
10237SOL     OW31609   6.870   2.612   2.894
10237SOL    HW131610   6.888   2.589   2.798
10237SOL    HW231611   6.818   2.538   2.937
10238SOL     OW31612   4.827   4.901   4.266
10238SOL    HW131613   4.872   4.813   4.280
10238SOL    HW231614   4.886   4.975   4.298
10239SOL     OW31615   0.184   4.025   3.472
10239SOL    HW131616   0.186   4.055   3.377
10239SOL    HW231617   0.269   3.977   3.494
10240SOL     OW31618   6.992   3.770   3.400
10240SOL    HW131619   6.967   3.866   3.414
10240SOL    HW231620   7.001   3.724   3.488
10241SOL     OW31621   2.182   1.204   3.022
10241SOL    HW131622   2.100   1.147   3.030
10241SOL    HW231623   2.155   1.299   3.009
10242SOL     OW31624   0.252   6.292   6.180
10242SOL    HW131625   0.278   6.223   6.113
10242SOL    HW231626   0.334   6.342   6.209
10243SOL     OW31627   1.237   5.855   2.694
10243SOL    HW131628   1.176   5.915   2.642
10243SOL    HW231629   1.256   5.897   2.783
10244SOL     OW31630   2.290   6.567   6.707
10244SOL    HW131631   2.288   6.467   6.719
10244SOL    HW231632   2.373   6.593   6.658
10245SOL     OW31633   2.275   2.619   6.906
10245SOL    HW131634   2.208   2.693   6.892
10245SOL    HW231635   2.243   2.560   6.980
10246SOL     OW31636   4.126   3.441   4.716
10246SOL    HW131637   4.222   3.443   4.742
10246SOL    HW231638   4.114   3.378   4.639
10247SOL     OW31639   1.271   5.522   5.636
10247SOL    HW131640   1.202   5.455   5.607
10247SOL    HW231641   1.328   5.482   5.707
10248SOL     OW31642   4.709   0.114   1.817
10248SOL    HW131643   4.664   0.156   1.896
10248SOL    HW231644   4.662   0.142   1.734
10249SOL     OW31645   4.093   1.208   7.006
10249SOL    HW131646   4.102   1.288   0.044
10249SOL    HW231647   4.072   1.238   6.913
10250SOL     OW31648   6.656   0.458   0.423
10250SOL    HW131649   6.629   0.364   0.406
10250SOL    HW231650   6.655   0.476   0.522
10251SOL     OW31651   3.592   4.624   6.690
10251SOL    HW131652   3.658   4.687   6.731
10251SOL    HW231653   3.608   4.532   6.724
10252SOL     OW31654   6.898   5.238   1.896
10252SOL    HW131655   6.881   5.316   1.836
10252SOL    HW231656   6.838   5.163   1.871
10253SOL     OW31657   3.298   5.077   6.416
10253SOL    HW131658   3.375   5.056   6.476
10253SOL    HW231659   3.294   5.010   6.341
10254SOL     OW31660   2.372   2.150   5.021
10254SOL    HW131661   2.403   2.156   5.116
10254SOL    HW231662   2.393   2.235   4.973
10255SOL     OW31663   2.771   5.336   2.890
10255SOL    HW131664   2.732   5.409   2.833
10255SOL    HW231665   2.765   5.363   2.986
10256SOL     OW31666   5.752   6.053   6.981
10256SOL    HW131667   5.826   6.110   6.945
10256SOL    HW231668   5.789   5.965   7.009
10257SOL     OW31669   1.579   6.212   6.461
10257SOL    HW131670   1.532   6.149   6.524
10257SOL    HW231671   1.517   6.285   6.434
10258SOL     OW31672   4.203   0.779   3.271
10258SOL    HW131673   4.212   0.819   3.180
10258SOL    HW231674   4.251   0.836   3.337
10259SOL     OW31675   0.797   3.846   2.809
10259SOL    HW131676   0.762   3.760   2.844
10259SOL    HW231677   0.897   3.846   2.816
10260SOL     OW31678   0.350   6.701   1.405
10260SOL    HW131679   0.331   6.783   1.459
10260SOL    HW231680   0.449   6.691   1.394
10261SOL     OW31681   1.855   6.674   1.603
10261SOL    HW131682   1.945   6.676   1.559
10261SOL    HW231683   1.800   6.602   1.561
10262SOL     OW31684   1.756   5.348   5.046
10262SOL    HW131685   1.807   5.429   5.073
10262SOL    HW231686   1.667   5.347   5.092
10263SOL     OW31687   6.060   2.074   6.351
10263SOL    HW131688   6.090   1.995   6.404
10263SOL    HW231689   5.961   2.088   6.364
10264SOL     OW31690   0.446   0.042   6.802
10264SOL    HW131691   0.462   6.979   6.752
10264SOL    HW231692   0.528   0.099   6.798
10265SOL     OW31693   4.569   1.538   2.256
10265SOL    HW131694   4.479   1.577   2.235
10265SOL    HW231695   4.601   1.573   2.344
10266SOL     OW31696   3.672   3.907   6.390
10266SOL    HW131697   3.737   3.978   6.367
10266SOL    HW231698   3.718   3.833   6.439
10267SOL     OW31699   6.151   1.859   6.485
10267SOL    HW131700   6.113   1.802   6.558
10267SOL    HW231701   6.251   1.860   6.492
10268SOL     OW31702   6.786   5.008   1.771
10268SOL    HW131703   6.817   5.052   1.687
10268SOL    HW231704   6.761   4.914   1.751
10269SOL     OW31705   2.891   2.789   5.764
10269SOL    HW131706   2.911   2.822   5.672
10269SOL    HW231707   2.941   2.843   5.831
10270SOL     OW31708   2.144   6.241   1.059
10270SOL    HW131709   2.075   6.313   1.054
10270SOL    HW231710   2.235   6.280   1.048
10271SOL     OW31711   3.889   4.906   1.115
10271SOL    HW131712   3.938   4.854   1.184
10271SOL    HW231713   3.897   4.860   1.027
10272SOL     OW31714   0.727   1.145   6.400
10272SOL    HW131715   0.677   1.226   6.431
10272SOL    HW231716   0.723   1.140   6.300
10273SOL     OW31717   4.555   6.100   4.428
10273SOL    HW131718   4.585   6.193   4.451
10273SOL    HW231719   4.461   6.086   4.461
10274SOL     OW31720   1.824   6.129   5.798
10274SOL    HW131721   1.909   6.115   5.848
10274SOL    HW231722   1.764   6.050   5.811
10275SOL     OW31723   0.880   6.361   1.903
10275SOL    HW131724   0.946   6.433   1.924
10275SOL    HW231725   0.813   6.355   1.977
10276SOL     OW31726   6.556   6.054   6.286
10276SOL    HW131727   6.613   6.136   6.286
10276SOL    HW231728   6.611   5.975   6.314
10277SOL     OW31729   1.807   5.530   3.864
10277SOL    HW131730   1.721   5.563   3.903
10277SOL    HW231731   1.831   5.442   3.905
10278SOL     OW31732   5.778   0.203   6.003
10278SOL    HW131733   5.848   0.269   5.978
10278SOL    HW231734   5.704   0.250   6.051
10279SOL     OW31735   3.605   6.628   3.263
10279SOL    HW131736   3.626   6.555   3.328
10279SOL    HW231737   3.546   6.593   3.191
10280SOL     OW31738   2.895   3.584   6.642
10280SOL    HW131739   2.931   3.575   6.549
10280SOL    HW231740   2.922   3.672   6.681
10281SOL     OW31741   3.885   6.769   3.519
10281SOL    HW131742   3.817   6.787   3.591
10281SOL    HW231743   3.975   6.761   3.561
10282SOL     OW31744   0.992   2.450   4.449
10282SOL    HW131745   1.060   2.394   4.497
10282SOL    HW231746   0.927   2.389   4.402
10283SOL     OW31747   0.829   3.508   6.459
10283SOL    HW131748   0.740   3.551   6.472
10283SOL    HW231749   0.850   3.504   6.361
10284SOL     OW31750   5.267   3.319   5.931
10284SOL    HW131751   5.216   3.367   5.860
10284SOL    HW231752   5.336   3.261   5.889
10285SOL     OW31753   6.141   6.879   0.851
10285SOL    HW131754   6.050   6.848   0.824
10285SOL    HW231755   6.136   6.975   0.879
10286SOL     OW31756   4.382   0.817   3.924
10286SOL    HW131757   4.452   0.853   3.862
10286SOL    HW231758   4.424   0.791   4.011
10287SOL     OW31759   2.621   5.539   1.723
10287SOL    HW131760   2.533   5.500   1.695
10287SOL    HW231761   2.676   5.559   1.642
10288SOL     OW31762   5.454   6.464   4.207
10288SOL    HW131763   5.467   6.395   4.137
10288SOL    HW231764   5.543   6.490   4.246
10289SOL     OW31765   2.949   1.047   1.871
10289SOL    HW131766   2.992   1.067   1.783
10289SOL    HW231767   2.928   0.950   1.877
10290SOL     OW31768   3.171   3.552   2.127
10290SOL    HW131769   3.182   3.584   2.221
10290SOL    HW231770   3.084   3.585   2.091
10291SOL     OW31771   3.804   0.146   5.973
10291SOL    HW131772   3.741   0.224   5.965
10291SOL    HW231773   3.759   0.071   6.021
10292SOL     OW31774   0.046   1.540   4.245
10292SOL    HW131775   6.987   1.485   4.268
10292SOL    HW231776   0.086   1.578   4.328
10293SOL     OW31777   2.445   5.903   2.946
10293SOL    HW131778   2.536   5.887   2.908
10293SOL    HW231779   2.448   5.983   3.006
10294SOL     OW31780   5.893   1.366   3.461
10294SOL    HW131781   5.937   1.413   3.385
10294SOL    HW231782   5.958   1.301   3.501
10295SOL     OW31783   1.063   5.382   5.518
10295SOL    HW131784   1.041   5.479   5.508
10295SOL    HW231785   0.985   5.334   5.556
10296SOL     OW31786   6.245   1.941   0.795
10296SOL    HW131787   6.190   1.901   0.868
10296SOL    HW231788   6.193   2.012   0.749
10297SOL     OW31789   1.794   5.195   4.512
10297SOL    HW131790   1.876   5.189   4.456
10297SOL    HW231791   1.819   5.209   4.607
10298SOL     OW31792   5.195   3.384   3.760
10298SOL    HW131793   5.140   3.310   3.721
10298SOL    HW231794   5.292   3.364   3.746
10299SOL     OW31795   4.858   4.832   2.389
10299SOL    HW131796   4.809   4.814   2.474
10299SOL    HW231797   4.936   4.771   2.381
10300SOL     OW31798   1.511   4.758   2.810
10300SOL    HW131799   1.516   4.840   2.754
10300SOL    HW231800   1.416   4.730   2.821
10301SOL     OW31801   5.611   1.280   1.423
10301SOL    HW131802   5.559   1.220   1.483
10301SOL    HW231803   5.558   1.363   1.403
10302SOL     OW31804   1.886   5.313   3.655
10302SOL    HW131805   1.975   5.356   3.669
10302SOL    HW231806   1.816   5.362   3.706
10303SOL     OW31807   3.284   2.838   0.895
10303SOL    HW131808   3.208   2.881   0.846
10303SOL    HW231809   3.310   2.895   0.973
10304SOL     OW31810   6.218   6.505   3.467
10304SOL    HW131811   6.127   6.479   3.499
10304SOL    HW231812   6.260   6.428   3.420
10305SOL     OW31813   1.719   5.665   0.950
10305SOL    HW131814   1.735   5.748   1.003
10305SOL    HW231815   1.805   5.635   0.909
10306SOL     OW31816   4.604   5.570   0.173
10306SOL    HW131817   4.543   5.623   0.114
10306SOL    HW231818   4.551   5.528   0.246
10307SOL     OW31819   2.218   1.405   5.465
10307SOL    HW131820   2.265   1.439   5.384
10307SOL    HW231821   2.206   1.306   5.458
10308SOL     OW31822   3.035   5.672   3.938
10308SOL    HW131823   2.953   5.616   3.947
10308SOL    HW231824   3.105   5.622   3.888
10309SOL     OW31825   0.432   6.465   3.450
10309SOL    HW131826   0.470   6.427   3.535
10309SOL    HW231827   0.478   6.425   3.371
10310SOL     OW31828   4.030   3.421   4.182
10310SOL    HW131829   4.031   3.521   4.170
10310SOL    HW231830   4.051   3.398   4.277
10311SOL     OW31831   6.990   5.978   0.325
10311SOL    HW131832   6.980   5.888   0.368
10311SOL    HW231833   0.005   6.043   0.391
10312SOL     OW31834   1.712   4.748   1.064
10312SOL    HW131835   1.800   4.774   1.023
10312SOL    HW231836   1.714   4.651   1.087
10313SOL     OW31837   5.391   6.480   3.223
10313SOL    HW131838   5.308   6.524   3.189
10313SOL    HW231839   5.452   6.549   3.261
10314SOL     OW31840   6.737   5.691   6.808
10314SOL    HW131841   6.700   5.780   6.780
10314SOL    HW231842   6.697   5.619   6.752
10315SOL     OW31843   6.248   5.818   4.486
10315SOL    HW131844   6.290   5.778   4.568
10315SOL    HW231845   6.280   5.769   4.405
10316SOL     OW31846   7.013   3.670   2.603
10316SOL    HW131847   7.020   3.710   2.695
10316SOL    HW231848   0.052   3.719   2.541
10317SOL     OW31849   3.646   4.695   0.758
10317SOL    HW131850   3.593   4.644   0.827
10317SOL    HW231851   3.585   4.731   0.688
10318SOL     OW31852   6.805   5.813   1.714
10318SOL    HW131853   6.719   5.863   1.722
10318SOL    HW231854   6.865   5.837   1.791
10319SOL     OW31855   5.261   6.835   4.333
10319SOL    HW131856   5.184   6.859   4.275
10319SOL    HW231857   5.319   6.915   4.347
10320SOL     OW31858   5.247   6.721   1.104
10320SOL    HW131859   5.232   6.715   1.005
10320SOL    HW231860   5.313   6.651   1.131
10321SOL     OW31861   3.754   6.114   4.525
10321SOL    HW131862   3.851   6.117   4.502
10321SOL    HW231863   3.708   6.048   4.465
10322SOL     OW31864   6.591   2.771   0.418
10322SOL    HW131865   6.657   2.816   0.478
10322SOL    HW231866   6.639   2.705   0.360
10323SOL     OW31867   5.974   2.462   5.030
10323SOL    HW131868   5.960   2.480   5.127
10323SOL    HW231869   5.894   2.494   4.978
10324SOL     OW31870   2.871   3.401   3.373
10324SOL    HW131871   2.904   3.493   3.350
10324SOL    HW231872   2.809   3.406   3.451
10325SOL     OW31873   1.060   3.861   2.876
10325SOL    HW131874   1.121   3.877   2.798
10325SOL    HW231875   1.115   3.849   2.959
10326SOL     OW31876   5.379   1.662   1.111
10326SOL    HW131877   5.357   1.654   1.208
10326SOL    HW231878   5.431   1.582   1.082
10327SOL     OW31879   0.077   0.515   3.741
10327SOL    HW131880   0.155   0.575   3.721
10327SOL    HW231881   0.093   0.466   3.827
10328SOL     OW31882   6.077   2.807   2.128
10328SOL    HW131883   6.132   2.793   2.046
10328SOL    HW231884   6.105   2.742   2.198
10329SOL     OW31885   4.066   6.037   2.083
10329SOL    HW131886   4.040   6.068   1.992
10329SOL    HW231887   4.036   6.104   2.151
10330SOL     OW31888   3.617   5.158   1.353
10330SOL    HW131889   3.556   5.227   1.313
10330SOL    HW231890   3.692   5.203   1.401
10331SOL     OW31891   5.798   0.418   3.924
10331SOL    HW131892   5.813   0.348   3.853
10331SOL    HW231893   5.809   0.377   4.014
10332SOL     OW31894   0.490   2.175   6.466
10332SOL    HW131895   0.578   2.130   6.483
10332SOL    HW231896   0.504   2.274   6.459
10333SOL     OW31897   4.754   4.256   4.758
10333SOL    HW131898   4.832   4.194   4.774
10333SOL    HW231899   4.685   4.241   4.829
10334SOL     OW31900   0.874   4.894   5.124
10334SOL    HW131901   0.790   4.923   5.078
10334SOL    HW231902   0.920   4.825   5.068
10335SOL     OW31903   1.947   5.817   2.285
10335SOL    HW131904   1.892   5.886   2.332
10335SOL    HW231905   1.918   5.726   2.312
10336SOL     OW31906   4.669   6.842   2.505
10336SOL    HW131907   4.683   6.928   2.555
10336SOL    HW231908   4.604   6.785   2.555
10337SOL     OW31909   0.528   5.346   4.835
10337SOL    HW131910   0.452   5.403   4.867
10337SOL    HW231911   0.603   5.350   4.902
10338SOL     OW31912   3.732   5.382   3.546
10338SOL    HW131913   3.660   5.383   3.615
10338SOL    HW231914   3.711   5.448   3.474
10339SOL     OW31915   3.053   5.434   0.925
10339SOL    HW131916   3.067   5.362   0.993
10339SOL    HW231917   3.126   5.429   0.856
10340SOL     OW31918   2.092   6.723   6.818
10340SOL    HW131919   2.162   6.672   6.769
10340SOL    HW231920   2.073   6.678   6.905
10341SOL     OW31921   1.822   1.271   2.363
10341SOL    HW131922   1.758   1.212   2.314
10341SOL    HW231923   1.772   1.350   2.399
10342SOL     OW31924   2.696   6.760   4.552
10342SOL    HW131925   2.620   6.745   4.488
10342SOL    HW231926   2.663   6.750   4.646
10343SOL     OW31927   2.169   2.998   4.531
10343SOL    HW131928   2.146   3.040   4.619
10343SOL    HW231929   2.201   3.068   4.468
10344SOL     OW31930   4.330   4.296   6.297
10344SOL    HW131931   4.291   4.351   6.224
10344SOL    HW231932   4.270   4.218   6.316
10345SOL     OW31933   1.462   1.718   6.292
10345SOL    HW131934   1.397   1.642   6.282
10345SOL    HW231935   1.481   1.757   6.202
10346SOL     OW31936   5.063   5.492   0.057
10346SOL    HW131937   4.988   5.430   0.079
10346SOL    HW231938   5.042   5.543   6.996
10347SOL     OW31939   5.148   1.939   1.826
10347SOL    HW131940   5.139   1.846   1.862
10347SOL    HW231941   5.240   1.974   1.847
10348SOL     OW31942   6.893   4.932   5.789
10348SOL    HW131943   6.985   4.923   5.827
10348SOL    HW231944   6.864   5.028   5.796
10349SOL     OW31945   0.045   1.602   0.283
10349SOL    HW131946   0.027   1.698   0.307
10349SOL    HW231947   0.131   1.597   0.232
10350SOL     OW31948   2.191   4.019   4.550
10350SOL    HW131949   2.192   3.968   4.635
10350SOL    HW231950   2.239   4.106   4.562
10351SOL     OW31951   4.574   4.516   4.894
10351SOL    HW131952   4.498   4.549   4.951
10351SOL    HW231953   4.583   4.575   4.814
10352SOL     OW31954   5.420   1.263   0.017
10352SOL    HW131955   5.386   1.188   0.074
10352SOL    HW231956   5.343   1.309   6.995
10353SOL     OW31957   6.967   2.851   3.555
10353SOL    HW131958   6.898   2.876   3.486
10353SOL    HW231959   6.957   2.755   3.578
10354SOL     OW31960   6.894   3.030   0.896
10354SOL    HW131961   6.881   2.931   0.882
10354SOL    HW231962   6.820   3.079   0.850
10355SOL     OW31963   0.257   1.699   1.050
10355SOL    HW131964   0.165   1.667   1.030
10355SOL    HW231965   0.268   1.792   1.014
10356SOL     OW31966   5.963   3.361   5.913
10356SOL    HW131967   5.999   3.448   5.947
10356SOL    HW231968   5.864   3.360   5.920
10357SOL     OW31969   0.838   1.670   5.857
10357SOL    HW131970   0.937   1.660   5.845
10357SOL    HW231971   0.796   1.580   5.870
10358SOL     OW31972   0.928   1.685   2.847
10358SOL    HW131973   0.947   1.617   2.918
10358SOL    HW231974   0.939   1.777   2.885
10359SOL     OW31975   6.287   2.484   1.941
10359SOL    HW131976   6.214   2.417   1.954
10359SOL    HW231977   6.373   2.447   1.978
10360SOL     OW31978   6.114   4.687   1.681
10360SOL    HW131979   6.085   4.722   1.592
10360SOL    HW231980   6.126   4.588   1.675
10361SOL     OW31981   0.274   1.356   2.189
10361SOL    HW131982   0.332   1.293   2.138
10361SOL    HW231983   0.239   1.426   2.128
10362SOL     OW31984   1.045   5.868   1.300
10362SOL    HW131985   1.012   5.956   1.335
10362SOL    HW231986   1.144   5.872   1.287
10363SOL     OW31987   5.340   4.235   6.768
10363SOL    HW131988   5.278   4.263   6.695
10363SOL    HW231989   5.411   4.304   6.780
10364SOL     OW31990   6.422   4.758   2.319
10364SOL    HW131991   6.404   4.661   2.333
10364SOL    HW231992   6.397   4.809   2.401
10365SOL     OW31993   5.303   5.575   0.195
10365SOL    HW131994   5.372   5.639   0.162
10365SOL    HW231995   5.232   5.563   0.127
10366SOL     OW31996   2.550   5.927   3.286
10366SOL    HW131997   2.498   5.994   3.340
10366SOL    HW231998   2.519   5.835   3.308
10367SOL     OW31999   5.930   0.102   1.661
10367SOL    HW132000   5.998   0.117   1.732
10367SOL    HW232001   5.915   0.186   1.610
10368SOL     OW32002   1.917   6.311   1.967
10368SOL    HW132003   2.014   6.313   1.994
10368SOL    HW232004   1.869   6.388   2.010
10369SOL     OW32005   2.911   0.259   5.974
10369SOL    HW132006   2.914   0.356   5.997
10369SOL    HW232007   2.958   0.206   6.045
10370SOL     OW32008   1.016   0.472   6.015
10370SOL    HW132009   1.048   0.536   5.945
10370SOL    HW232010   1.038   0.379   5.987
10371SOL     OW32011   4.328   5.272   3.266
10371SOL    HW132012   4.367   5.359   3.296
10371SOL    HW232013   4.228   5.277   3.270
10372SOL     OW32014   2.883   5.968   1.866
10372SOL    HW132015   2.830   5.885   1.850
10372SOL    HW232016   2.935   5.958   1.951
10373SOL     OW32017   0.117   1.596   6.163
10373SOL    HW132018   0.154   1.607   6.071
10373SOL    HW232019   0.024   1.632   6.167
10374SOL     OW32020   3.879   5.452   3.873
10374SOL    HW132021   3.876   5.480   3.777
10374SOL    HW232022   3.971   5.468   3.909
10375SOL     OW32023   2.786   4.389   7.014
10375SOL    HW132024   2.885   4.372   7.005
10375SOL    HW232025   2.754   4.353   0.079
10376SOL     OW32026   1.972   4.775   3.025
10376SOL    HW132027   1.925   4.770   2.937
10376SOL    HW232028   1.905   4.762   3.099
10377SOL     OW32029   1.343   0.750   2.045
10377SOL    HW132030   1.337   0.675   2.110
10377SOL    HW232031   1.397   0.824   2.084
10378SOL     OW32032   6.932   4.915   4.435
10378SOL    HW132033   6.991   4.902   4.515
10378SOL    HW232034   6.987   4.906   4.352
10379SOL     OW32035   1.999   6.237   4.094
10379SOL    HW132036   2.089   6.209   4.126
10379SOL    HW232037   1.988   6.335   4.104
10380SOL     OW32038   2.385   2.315   4.557
10380SOL    HW132039   2.439   2.387   4.601
10380SOL    HW232040   2.405   2.227   4.599
10381SOL     OW32041   4.210   5.615   2.189
10381SOL    HW132042   4.130   5.564   2.159
10381SOL    HW232043   4.270   5.554   2.241
10382SOL     OW32044   3.859   5.644   2.269
10382SOL    HW132045   3.774   5.643   2.217
10382SOL    HW232046   3.875   5.554   2.309
10383SOL     OW32047   1.821   4.450   0.497
10383SOL    HW132048   1.792   4.470   0.591
10383SOL    HW232049   1.772   4.369   0.464
10384SOL     OW32050   5.773   6.631   1.615
10384SOL    HW132051   5.759   6.727   1.638
10384SOL    HW232052   5.735   6.574   1.688
10385SOL     OW32053   4.805   4.769   6.880
10385SOL    HW132054   4.744   4.831   6.832
10385SOL    HW232055   4.758   4.731   6.960
10386SOL     OW32056   6.820   1.119   0.742
10386SOL    HW132057   6.891   1.048   0.735
10386SOL    HW232058   6.836   1.174   0.824
10387SOL     OW32059   5.018   2.821   1.878
10387SOL    HW132060   4.927   2.784   1.893
10387SOL    HW232061   5.011   2.916   1.848
10388SOL     OW32062   2.630   0.639   5.588
10388SOL    HW132063   2.597   0.545   5.585
10388SOL    HW232064   2.604   0.687   5.504
10389SOL     OW32065   0.557   3.683   0.558
10389SOL    HW132066   0.573   3.768   0.508
10389SOL    HW232067   0.563   3.605   0.495
10390SOL     OW32068   2.062   2.469   1.757
10390SOL    HW132069   2.105   2.426   1.837
10390SOL    HW232070   2.134   2.509   1.699
10391SOL     OW32071   5.907   6.896   4.294
10391SOL    HW132072   5.814   6.904   4.258
10391SOL    HW232073   5.966   6.852   4.226
10392SOL     OW32074   6.654   4.334   3.852
10392SOL    HW132075   6.728   4.348   3.785
10392SOL    HW232076   6.585   4.406   3.840
10393SOL     OW32077   1.257   3.856   3.494
10393SOL    HW132078   1.219   3.885   3.407
10393SOL    HW232079   1.340   3.803   3.479
10394SOL     OW32080   3.428   6.249   4.756
10394SOL    HW132081   3.419   6.349   4.749
10394SOL    HW232082   3.412   6.208   4.666
10395SOL     OW32083   0.323   0.050   0.810
10395SOL    HW132084   0.392   0.008   0.868
10395SOL    HW232085   0.347   0.146   0.794
10396SOL     OW32086   2.965   1.901   4.708
10396SOL    HW132087   3.034   1.945   4.765
10396SOL    HW232088   2.885   1.880   4.764
10397SOL     OW32089   3.218   2.002   2.660
10397SOL    HW132090   3.262   2.057   2.731
10397SOL    HW232091   3.266   1.914   2.652
10398SOL     OW32092   6.758   2.590   1.295
10398SOL    HW132093   6.752   2.684   1.261
10398SOL    HW232094   6.851   2.555   1.278
10399SOL     OW32095   6.090   3.632   2.039
10399SOL    HW132096   6.053   3.601   1.951
10399SOL    HW232097   6.034   3.595   2.113
10400SOL     OW32098   4.168   6.856   0.401
10400SOL    HW132099   4.226   6.924   0.357
10400SOL    HW232100   4.072   6.877   0.382
10401SOL     OW32101   0.320   0.970   5.360
10401SOL    HW132102   0.365   1.058   5.366
10401SOL    HW232103   0.278   0.948   5.448
10402SOL     OW32104   6.882   2.958   4.328
10402SOL    HW132105   6.930   3.014   4.261
10402SOL    HW232106   6.938   2.878   4.351
10403SOL     OW32107   3.090   0.547   3.237
10403SOL    HW132108   3.189   0.528   3.237
10403SOL    HW232109   3.042   0.469   3.195
10404SOL     OW32110   0.072   6.235   6.373
10404SOL    HW132111   0.155   6.239   6.317
10404SOL    HW232112   0.012   6.312   6.350
10405SOL     OW32113   6.937   1.221   6.055
10405SOL    HW132114   6.877   1.286   6.007
10405SOL    HW232115   6.881   1.160   6.111
10406SOL     OW32116   3.145   4.634   1.723
10406SOL    HW132117   3.162   4.722   1.767
10406SOL    HW232118   3.054   4.634   1.682
10407SOL     OW32119   3.326   6.843   0.326
10407SOL    HW132120   3.276   6.806   0.404
10407SOL    HW232121   3.424   6.826   0.338
10408SOL     OW32122   4.462   0.241   0.445
10408SOL    HW132123   4.506   0.281   0.525
10408SOL    HW232124   4.383   0.297   0.418
10409SOL     OW32125   5.901   5.145   0.776
10409SOL    HW132126   5.956   5.148   0.693
10409SOL    HW232127   5.940   5.079   0.840
10410SOL     OW32128   5.796   0.764   0.294
10410SOL    HW132129   5.707   0.759   0.249
10410SOL    HW232130   5.833   0.856   0.284
10411SOL     OW32131   2.909   5.255   3.330
10411SOL    HW132132   2.972   5.319   3.285
10411SOL    HW232133   2.958   5.206   3.402
10412SOL     OW32134   6.032   0.373   0.856
10412SOL    HW132135   5.975   0.439   0.808
10412SOL    HW232136   6.039   0.398   0.952
10413SOL     OW32137   6.106   2.162   1.180
10413SOL    HW132138   6.127   2.066   1.200
10413SOL    HW232139   6.018   2.168   1.134
10414SOL     OW32140   4.849   2.436   4.579
10414SOL    HW132141   4.895   2.354   4.545
10414SOL    HW232142   4.750   2.420   4.583
10415SOL     OW32143   0.601   6.129   6.074
10415SOL    HW132144   0.634   6.040   6.106
10415SOL    HW232145   0.665   6.165   6.005
10416SOL     OW32146   5.874   2.943   4.885
10416SOL    HW132147   5.805   2.903   4.825
10416SOL    HW232148   5.834   2.959   4.975
10417SOL     OW32149   2.289   4.797   3.904
10417SOL    HW132150   2.242   4.864   3.963
10417SOL    HW232151   2.386   4.821   3.898
10418SOL     OW32152   0.999   4.161   5.065
10418SOL    HW132153   1.002   4.075   5.116
10418SOL    HW232154   0.969   4.235   5.126
10419SOL     OW32155   0.966   1.251   0.965
10419SOL    HW132156   1.032   1.213   1.029
10419SOL    HW232157   0.986   1.347   0.949
10420SOL     OW32158   6.853   2.910   2.669
10420SOL    HW132159   6.819   2.861   2.589
10420SOL    HW232160   6.812   2.872   2.752
10421SOL     OW32161   1.378   0.482   3.867
10421SOL    HW132162   1.290   0.435   3.874
10421SOL    HW232163   1.370   0.556   3.801
10422SOL     OW32164   6.485   2.548   5.842
10422SOL    HW132165   6.483   2.555   5.742
10422SOL    HW232166   6.518   2.458   5.869
10423SOL     OW32167   4.745   4.786   4.008
10423SOL    HW132168   4.708   4.693   4.006
10423SOL    HW232169   4.784   4.804   4.098
10424SOL     OW32170   5.194   1.350   6.927
10424SOL    HW132171   5.173   1.348   6.829
10424SOL    HW232172   5.134   1.415   6.973
10425SOL     OW32173   1.503   5.778   2.619
10425SOL    HW132174   1.500   5.742   2.525
10425SOL    HW232175   1.418   5.828   2.638
10426SOL     OW32176   6.366   4.468   0.230
10426SOL    HW132177   6.444   4.493   0.286
10426SOL    HW232178   6.289   4.528   0.250
10427SOL     OW32179   5.206   2.205   0.315
10427SOL    HW132180   5.145   2.212   0.236
10427SOL    HW232181   5.199   2.288   0.370
10428SOL     OW32182   4.240   0.809   4.623
10428SOL    HW132183   4.164   0.842   4.678
10428SOL    HW232184   4.225   0.835   4.527
10429SOL     OW32185   6.980   5.840   1.498
10429SOL    HW132186   6.970   5.939   1.489
10429SOL    HW232187   6.928   5.809   1.578
10430SOL     OW32188   4.112   6.473   2.843
10430SOL    HW132189   4.037   6.536   2.863
10430SOL    HW232190   4.082   6.379   2.858
10431SOL     OW32191   2.705   0.479   4.893
10431SOL    HW132192   2.664   0.455   4.982
10431SOL    HW232193   2.796   0.517   4.908
10432SOL     OW32194   5.737   0.738   4.260
10432SOL    HW132195   5.698   0.695   4.179
10432SOL    HW232196   5.693   0.826   4.276
10433SOL     OW32197   1.862   6.571   0.998
10433SOL    HW132198   1.828   6.641   0.936
10433SOL    HW232199   1.962   6.565   0.989
10434SOL     OW32200   3.005   0.201   3.611
10434SOL    HW132201   2.933   0.269   3.596
10434SOL    HW232202   3.094   0.242   3.591
10435SOL     OW32203   5.651   6.549   6.283
10435SOL    HW132204   5.632   6.533   6.186
10435SOL    HW232205   5.741   6.511   6.306
10436SOL     OW32206   1.459   4.938   3.903
10436SOL    HW132207   1.416   4.936   3.812
10436SOL    HW232208   1.557   4.954   3.892
10437SOL     OW32209   6.557   5.056   5.995
10437SOL    HW132210   6.522   5.085   5.906
10437SOL    HW232211   6.628   5.120   6.025
10438SOL     OW32212   5.107   6.667   0.571
10438SOL    HW132213   5.139   6.682   0.478
10438SOL    HW232214   5.025   6.610   0.569
10439SOL     OW32215   3.552   0.420   5.661
10439SOL    HW132216   3.614   0.350   5.625
10439SOL    HW232217   3.489   0.448   5.590
10440SOL     OW32218   1.102   6.762   1.197
10440SOL    HW132219   1.154   6.758   1.111
10440SOL    HW232220   1.165   6.781   1.273
10441SOL     OW32221   5.612   1.574   6.549
10441SOL    HW132222   5.594   1.535   6.639
10441SOL    HW232223   5.672   1.512   6.497
10442SOL     OW32224   3.589   5.074   5.484
10442SOL    HW132225   3.587   5.001   5.553
10442SOL    HW232226   3.667   5.135   5.503
10443SOL     OW32227   5.969   3.744   4.854
10443SOL    HW132228   5.889   3.803   4.844
10443SOL    HW232229   5.940   3.651   4.874
10444SOL     OW32230   3.561   5.393   4.824
10444SOL    HW132231   3.634   5.400   4.892
10444SOL    HW232232   3.514   5.480   4.816
10445SOL     OW32233   6.701   5.933   4.567
10445SOL    HW132234   6.726   5.921   4.663
10445SOL    HW232235   6.612   5.976   4.560
10446SOL     OW32236   0.875   4.750   6.043
10446SOL    HW132237   0.861   4.724   6.138
10446SOL    HW232238   0.910   4.672   5.992
10447SOL     OW32239   6.275   2.335   1.537
10447SOL    HW132240   6.369   2.325   1.569
10447SOL    HW232241   6.251   2.258   1.478
10448SOL     OW32242   3.730   3.978   2.141
10448SOL    HW132243   3.664   3.936   2.079
10448SOL    HW232244   3.743   3.920   2.221
10449SOL     OW32245   2.214   5.396   4.432
10449SOL    HW132246   2.216   5.366   4.337
10449SOL    HW232247   2.217   5.496   4.436
10450SOL     OW32248   6.677   1.741   0.262
10450SOL    HW132249   6.702   1.737   0.359
10450SOL    HW232250   6.711   1.826   0.222
10451SOL     OW32251   2.394   4.521   2.989
10451SOL    HW132252   2.415   4.454   3.060
10451SOL    HW232253   2.470   4.526   2.924
10452SOL     OW32254   0.768   3.034   3.854
10452SOL    HW132255   0.838   3.031   3.926
10452SOL    HW232256   0.771   2.950   3.801
10453SOL     OW32257   5.474   6.006   1.729
10453SOL    HW132258   5.559   6.041   1.690
10453SOL    HW232259   5.406   5.994   1.657
10454SOL     OW32260   5.096   2.886   2.213
10454SOL    HW132261   5.108   2.865   2.310
10454SOL    HW232262   5.185   2.889   2.168
10455SOL     OW32263   0.208   4.840   3.937
10455SOL    HW132264   0.121   4.806   3.903
10455SOL    HW232265   0.239   4.916   3.880
10456SOL     OW32266   4.181   6.018   1.312
10456SOL    HW132267   4.267   6.060   1.283
10456SOL    HW232268   4.132   5.985   1.231
10457SOL     OW32269   4.017   3.868   3.567
10457SOL    HW132270   4.051   3.776   3.586
10457SOL    HW232271   3.922   3.876   3.600
10458SOL     OW32272   1.307   6.735   0.993
10458SOL    HW132273   1.313   6.721   0.894
10458SOL    HW232274   1.381   6.685   1.038
10459SOL     OW32275   6.188   5.267   2.736
10459SOL    HW132276   6.181   5.351   2.791
10459SOL    HW232277   6.108   5.260   2.677
10460SOL     OW32278   2.096   4.831   1.898
10460SOL    HW132279   2.134   4.776   1.972
10460SOL    HW232280   2.167   4.888   1.858
10461SOL     OW32281   3.165   0.482   6.571
10461SOL    HW132282   3.129   0.477   6.664
10461SOL    HW232283   3.264   0.491   6.574
10462SOL     OW32284   6.261   0.502   1.172
10462SOL    HW132285   6.164   0.478   1.174
10462SOL    HW232286   6.273   0.587   1.121
10463SOL     OW32287   2.792   5.056   0.361
10463SOL    HW132288   2.792   5.093   0.454
10463SOL    HW232289   2.868   4.992   0.351
10464SOL     OW32290   5.164   0.493   0.975
10464SOL    HW132291   5.104   0.430   0.926
10464SOL    HW232292   5.163   0.582   0.929
10465SOL     OW32293   6.868   5.020   6.504
10465SOL    HW132294   6.772   4.991   6.513
10465SOL    HW232295   6.884   5.100   6.561
10466SOL     OW32296   4.754   6.077   5.248
10466SOL    HW132297   4.684   6.033   5.192
10466SOL    HW232298   4.835   6.020   5.252
10467SOL     OW32299   2.818   1.581   5.350
10467SOL    HW132300   2.852   1.604   5.259
10467SOL    HW232301   2.757   1.501   5.344
10468SOL     OW32302   3.298   6.711   3.343
10468SOL    HW132303   3.283   6.614   3.325
10468SOL    HW232304   3.394   6.726   3.367
10469SOL     OW32305   1.575   4.735   0.557
10469SOL    HW132306   1.576   4.831   0.584
10469SOL    HW232307   1.668   4.697   0.564
10470SOL     OW32308   2.943   1.596   4.157
10470SOL    HW132309   2.869   1.656   4.190
10470SOL    HW232310   3.031   1.637   4.181
10471SOL     OW32311   3.119   3.672   1.207
10471SOL    HW132312   3.154   3.668   1.113
10471SOL    HW232313   3.048   3.603   1.220
10472SOL     OW32314   3.710   0.994   2.062
10472SOL    HW132315   3.622   0.959   2.095
10472SOL    HW232316   3.738   0.942   1.981
10473SOL     OW32317   5.482   5.769   0.089
10473SOL    HW132318   5.505   5.793   7.017
10473SOL    HW232319   5.514   5.841   0.151
10474SOL     OW32320   3.904   0.735   4.847
10474SOL    HW132321   3.916   0.809   4.781
10474SOL    HW232322   3.982   0.672   4.841
10475SOL     OW32323   4.238   7.017   1.270
10475SOL    HW132324   4.308   0.057   1.235
10475SOL    HW232325   4.157   0.047   1.295
10476SOL     OW32326   0.517   5.423   0.076
10476SOL    HW132327   0.570   5.406   0.159
10476SOL    HW232328   0.579   5.430   7.020
10477SOL     OW32329   5.505   4.060   5.190
10477SOL    HW132330   5.600   4.028   5.190
10477SOL    HW232331   5.496   4.140   5.248
10478SOL     OW32332   6.988   6.359   1.356
10478SOL    HW132333   6.990   6.376   1.257
10478SOL    HW232334   6.964   6.443   1.404
10479SOL     OW32335   1.477   3.457   3.061
10479SOL    HW132336   1.567   3.416   3.044
10479SOL    HW232337   1.424   3.456   2.977
10480SOL     OW32338   5.415   0.293   2.294
10480SOL    HW132339   5.475   0.230   2.343
10480SOL    HW232340   5.381   0.363   2.356
10481SOL     OW32341   1.674   0.634   5.192
10481SOL    HW132342   1.730   0.702   5.144
10481SOL    HW232343   1.649   0.669   5.282
10482SOL     OW32344   1.223   5.784   5.366
10482SOL    HW132345   1.152   5.752   5.304
10482SOL    HW232346   1.209   5.882   5.384
10483SOL     OW32347   6.983   5.463   0.172
10483SOL    HW132348   6.941   5.376   0.145
10483SOL    HW232349   0.061   5.452   0.177
10484SOL     OW32350   6.305   1.224   1.452
10484SOL    HW132351   6.236   1.270   1.395
10484SOL    HW232352   6.268   1.209   1.543
10485SOL     OW32353   3.557   4.145   2.870
10485SOL    HW132354   3.621   4.128   2.945
10485SOL    HW232355   3.467   4.111   2.895
10486SOL     OW32356   5.982   6.336   5.552
10486SOL    HW132357   6.011   6.396   5.476
10486SOL    HW232358   5.888   6.306   5.536
10487SOL     OW32359   4.198   2.154   1.643
10487SOL    HW132360   4.141   2.222   1.689
10487SOL    HW232361   4.178   2.063   1.681
10488SOL     OW32362   6.886   2.192   5.634
10488SOL    HW132363   6.976   2.231   5.614
10488SOL    HW232364   6.814   2.253   5.600
10489SOL     OW32365   6.055   4.607   4.501
10489SOL    HW132366   6.103   4.695   4.493
10489SOL    HW232367   5.997   4.609   4.583
10490SOL     OW32368   5.748   6.160   6.220
10490SOL    HW132369   5.798   6.243   6.246
10490SOL    HW232370   5.745   6.097   6.298
10491SOL     OW32371   1.387   2.783   6.131
10491SOL    HW132372   1.362   2.687   6.132
10491SOL    HW232373   1.485   2.792   6.113
10492SOL     OW32374   4.238   0.338   0.266
10492SOL    HW132375   4.272   0.416   0.214
10492SOL    HW232376   4.149   0.310   0.230
10493SOL     OW32377   4.477   5.729   0.563
10493SOL    HW132378   4.556   5.762   0.512
10493SOL    HW232379   4.446   5.642   0.523
10494SOL     OW32380   0.916   4.331   5.279
10494SOL    HW132381   0.954   4.345   5.370
10494SOL    HW232382   0.864   4.413   5.252
10495SOL     OW32383   0.518   6.317   0.141
10495SOL    HW132384   0.449   6.314   0.214
10495SOL    HW232385   0.594   6.375   0.170
10496SOL     OW32386   0.581   4.040   5.432
10496SOL    HW132387   0.523   4.004   5.359
10496SOL    HW232388   0.623   3.964   5.482
10497SOL     OW32389   2.287   6.763   1.362
10497SOL    HW132390   2.354   6.746   1.435
10497SOL    HW232391   2.267   6.861   1.358
10498SOL     OW32392   4.312   5.006   0.420
10498SOL    HW132393   4.346   5.099   0.432
10498SOL    HW232394   4.214   5.004   0.444
10499SOL     OW32395   5.758   5.109   2.605
10499SOL    HW132396   5.789   5.064   2.521
10499SOL    HW232397   5.694   5.050   2.653
10500SOL     OW32398   6.557   3.725   5.065
10500SOL    HW132399   6.570   3.811   5.014
10500SOL    HW232400   6.645   3.679   5.074
10501SOL     OW32401   2.673   5.024   2.821
10501SOL    HW132402   2.755   5.081   2.823
10501SOL    HW232403   2.692   4.936   2.865
10502SOL     OW32404   3.327   4.099   2.165
10502SOL    HW132405   3.289   4.187   2.137
10502SOL    HW232406   3.401   4.114   2.231
10503SOL     OW32407   5.828   2.299   6.576
10503SOL    HW132408   5.833   2.229   6.505
10503SOL    HW232409   5.819   2.389   6.534
10504SOL     OW32410   1.476   2.556   5.914
10504SOL    HW132411   1.423   2.550   5.999
10504SOL    HW232412   1.564   2.599   5.932
10505SOL     OW32413   5.891   6.469   0.886
10505SOL    HW132414   5.803   6.439   0.848
10505SOL    HW232415   5.889   6.459   0.986
10506SOL     OW32416   1.234   2.566   0.335
10506SOL    HW132417   1.175   2.578   0.414
10506SOL    HW232418   1.280   2.653   0.314
10507SOL     OW32419   1.214   5.092   6.260
10507SOL    HW132420   1.250   5.001   6.236
10507SOL    HW232421   1.287   5.160   6.249
10508SOL     OW32422   1.306   5.107   5.214
10508SOL    HW132423   1.211   5.088   5.188
10508SOL    HW232424   1.338   5.036   5.277
10509SOL     OW32425   4.605   2.635   3.841
10509SOL    HW132426   4.624   2.672   3.932
10509SOL    HW232427   4.640   2.541   3.835
10510SOL     OW32428   5.566   5.252   3.760
10510SOL    HW132429   5.577   5.236   3.859
10510SOL    HW232430   5.472   5.233   3.733
10511SOL     OW32431   4.322   1.873   2.167
10511SOL    HW132432   4.297   1.956   2.117
10511SOL    HW232433   4.404   1.892   2.223
10512SOL     OW32434   4.105   1.178   4.631
10512SOL    HW132435   4.180   1.166   4.567
10512SOL    HW232436   4.052   1.259   4.607
10513SOL     OW32437   5.180   3.182   1.151
10513SOL    HW132438   5.263   3.137   1.186
10513SOL    HW232439   5.182   3.279   1.176
10514SOL     OW32440   0.570   3.252   1.739
10514SOL    HW132441   0.596   3.160   1.768
10514SOL    HW232442   0.626   3.320   1.787
10515SOL     OW32443   2.102   2.720   5.353
10515SOL    HW132444   2.073   2.761   5.440
10515SOL    HW232445   2.122   2.793   5.287
10516SOL     OW32446   4.282   2.357   1.241
10516SOL    HW132447   4.215   2.291   1.274
10516SOL    HW232448   4.351   2.310   1.185
10517SOL     OW32449   1.252   2.539   3.105
10517SOL    HW132450   1.300   2.480   3.041
10517SOL    HW232451   1.224   2.487   3.186
10518SOL     OW32452   0.667   4.941   2.637
10518SOL    HW132453   0.762   4.923   2.611
10518SOL    HW232454   0.625   5.002   2.570
10519SOL     OW32455   3.435   6.368   0.972
10519SOL    HW132456   3.396   6.277   0.963
10519SOL    HW232457   3.410   6.424   0.893
10520SOL     OW32458   6.911   2.470   4.981
10520SOL    HW132459   6.985   2.417   5.024
10520SOL    HW232460   6.840   2.489   5.049
10521SOL     OW32461   6.488   3.048   1.201
10521SOL    HW132462   6.396   3.008   1.201
10521SOL    HW232463   6.516   3.066   1.295
10522SOL     OW32464   5.167   2.455   3.468
10522SOL    HW132465   5.108   2.376   3.483
10522SOL    HW232466   5.262   2.431   3.491
10523SOL     OW32467   0.014   4.159   2.917
10523SOL    HW132468   0.038   4.242   2.967
10523SOL    HW232469   6.948   4.172   2.871
10524SOL     OW32470   0.053   6.546   5.133
10524SOL    HW132471   0.103   6.499   5.207
10524SOL    HW232472   7.006   6.607   5.173
10525SOL     OW32473   5.220   1.945   4.266
10525SOL    HW132474   5.287   1.871   4.270
10525SOL    HW232475   5.180   1.949   4.175
10526SOL     OW32476   1.556   5.085   0.443
10526SOL    HW132477   1.496   5.037   0.508
10526SOL    HW232478   1.651   5.061   0.462
10527SOL     OW32479   0.813   6.706   4.412
10527SOL    HW132480   0.858   6.730   4.498
10527SOL    HW232481   0.865   6.634   4.366
10528SOL     OW32482   1.484   3.900   5.409
10528SOL    HW132483   1.432   3.980   5.379
10528SOL    HW232484   1.441   3.817   5.373
10529SOL     OW32485   0.905   6.321   0.940
10529SOL    HW132486   0.876   6.320   0.844
10529SOL    HW232487   0.973   6.393   0.953
10530SOL     OW32488   0.002   5.837   0.784
10530SOL    HW132489   7.009   5.829   0.685
10530SOL    HW232490   0.096   5.867   0.801
10531SOL     OW32491   3.010   3.140   5.194
10531SOL    HW132492   3.038   3.045   5.200
10531SOL    HW232493   2.921   3.152   5.238
10532SOL     OW32494   5.554   6.219   6.887
10532SOL    HW132495   5.615   6.146   6.918
10532SOL    HW232496   5.603   6.307   6.892
10533SOL     OW32497   3.302   5.890   3.306
10533SOL    HW132498   3.312   5.983   3.270
10533SOL    HW232499   3.300   5.825   3.229
10534SOL     OW32500   1.640   5.937   3.836
10534SOL    HW132501   1.709   6.009   3.845
10534SOL    HW232502   1.667   5.874   3.763
10535SOL     OW32503   3.495   1.984   2.508
10535SOL    HW132504   3.441   1.905   2.536
10535SOL    HW232505   3.435   2.049   2.460
10536SOL     OW32506   5.757   1.446   3.994
10536SOL    HW132507   5.824   1.464   4.066
10536SOL    HW232508   5.799   1.462   3.905
10537SOL     OW32509   4.132   0.285   4.125
10537SOL    HW132510   4.091   0.343   4.195
10537SOL    HW232511   4.077   0.290   4.042
10538SOL     OW32512   6.528   3.383   3.113
10538SOL    HW132513   6.517   3.420   3.020
10538SOL    HW232514   6.625   3.363   3.129
10539SOL     OW32515   6.663   0.496   3.101
10539SOL    HW132516   6.737   0.451   3.150
10539SOL    HW232517   6.593   0.429   3.076
10540SOL     OW32518   2.141   3.510   6.002
10540SOL    HW132519   2.136   3.555   6.091
10540SOL    HW232520   2.230   3.466   5.992
10541SOL     OW32521   3.293   3.128   5.322
10541SOL    HW132522   3.271   3.222   5.295
10541SOL    HW232523   3.239   3.064   5.268
10542SOL     OW32524   5.066   6.893   4.144
10542SOL    HW132525   5.045   6.990   4.130
10542SOL    HW232526   4.985   6.846   4.179
10543SOL     OW32527   0.166   3.865   5.239
10543SOL    HW132528   0.126   3.803   5.171
10543SOL    HW232529   0.265   3.870   5.226
10544SOL     OW32530   1.819   1.408   2.754
10544SOL    HW132531   1.721   1.391   2.765
10544SOL    HW232532   1.861   1.330   2.707
10545SOL     OW32533   2.192   2.566   2.775
10545SOL    HW132534   2.194   2.547   2.677
10545SOL    HW232535   2.285   2.558   2.812
10546SOL     OW32536   3.045   6.913   0.274
10546SOL    HW132537   3.142   6.900   0.255
10546SOL    HW232538   3.007   6.829   0.313
10547SOL     OW32539   4.622   0.426   4.729
10547SOL    HW132540   4.674   0.428   4.815
10547SOL    HW232541   4.542   0.367   4.739
10548SOL     OW32542   0.628   4.882   3.970
10548SOL    HW132543   0.702   4.899   3.906
10548SOL    HW232544   0.622   4.784   3.991
10549SOL     OW32545   6.914   0.906   1.050
10549SOL    HW132546   6.842   0.846   1.086
10549SOL    HW232547   6.946   0.870   0.962
10550SOL     OW32548   4.829   5.630   3.520
10550SOL    HW132549   4.823   5.656   3.617
10550SOL    HW232550   4.924   5.638   3.490
10551SOL     OW32551   2.845   1.914   6.201
10551SOL    HW132552   2.873   1.983   6.134
10551SOL    HW232553   2.787   1.956   6.271
10552SOL     OW32554   2.631   1.303   4.513
10552SOL    HW132555   2.714   1.320   4.460
10552SOL    HW232556   2.654   1.253   4.596
10553SOL     OW32557   0.534   4.626   0.325
10553SOL    HW132558   0.508   4.538   0.287
10553SOL    HW232559   0.462   4.660   0.385
10554SOL     OW32560   6.499   5.620   2.295
10554SOL    HW132561   6.579   5.576   2.335
10554SOL    HW232562   6.439   5.652   2.369
10555SOL     OW32563   3.930   2.874   0.643
10555SOL    HW132564   3.896   2.945   0.583
10555SOL    HW232565   3.915   2.900   0.739
10556SOL     OW32566   2.354   1.794   2.580
10556SOL    HW132567   2.372   1.851   2.500
10556SOL    HW232568   2.304   1.848   2.648
10557SOL     OW32569   2.359   4.229   4.346
10557SOL    HW132570   2.447   4.182   4.351
10557SOL    HW232571   2.342   4.277   4.433
10558SOL     OW32572   3.053   5.286   4.637
10558SOL    HW132573   3.126   5.325   4.582
10558SOL    HW232574   2.965   5.294   4.589
10559SOL     OW32575   4.238   6.173   0.084
10559SOL    HW132576   4.222   6.075   0.070
10559SOL    HW232577   4.246   6.191   0.182
10560SOL     OW32578   5.744   0.115   2.345
10560SOL    HW132579   5.659   0.070   2.371
10560SOL    HW232580   5.801   0.052   2.292
10561SOL     OW32581   5.954   4.472   0.428
10561SOL    HW132582   5.921   4.553   0.475
10561SOL    HW232583   5.968   4.493   0.331
10562SOL     OW32584   3.978   6.260   2.227
10562SOL    HW132585   3.889   6.235   2.189
10562SOL    HW232586   3.965   6.319   2.306
10563SOL     OW32587   0.294   0.528   1.723
10563SOL    HW132588   0.390   0.506   1.739
10563SOL    HW232589   0.287   0.620   1.684
10564SOL     OW32590   5.508   4.851   3.702
10564SOL    HW132591   5.523   4.754   3.722
10564SOL    HW232592   5.492   4.900   3.787
10565SOL     OW32593   0.860   6.978   5.708
10565SOL    HW132594   0.935   6.961   5.772
10565SOL    HW232595   0.809   0.037   5.738
10566SOL     OW32596   2.687   3.461   6.767
10566SOL    HW132597   2.597   3.478   6.727
10566SOL    HW232598   2.757   3.506   6.712
10567SOL     OW32599   1.005   2.247   6.532
10567SOL    HW132600   0.985   2.155   6.500
10567SOL    HW232601   0.921   2.302   6.533
10568SOL     OW32602   5.251   2.544   5.470
10568SOL    HW132603   5.170   2.487   5.455
10568SOL    HW232604   5.281   2.582   5.382
10569SOL     OW32605   5.680   6.521   0.456
10569SOL    HW132606   5.680   6.421   0.451
10569SOL    HW232607   5.770   6.552   0.488
10570SOL     OW32608   1.171   4.806   3.246
10570SOL    HW132609   1.092   4.769   3.198
10570SOL    HW232610   1.170   4.906   3.240
10571SOL     OW32611   6.648   4.510   6.111
10571SOL    HW132612   6.692   4.435   6.062
10571SOL    HW232613   6.718   4.561   6.162
10572SOL     OW32614   5.930   4.558   0.784
10572SOL    HW132615   5.932   4.640   0.726
10572SOL    HW232616   5.878   4.486   0.739
10573SOL     OW32617   5.879   1.455   3.720
10573SOL    HW132618   5.885   1.554   3.726
10573SOL    HW232619   5.870   1.428   3.624
10574SOL     OW32620   6.612   2.753   3.720
10574SOL    HW132621   6.549   2.740   3.797
10574SOL    HW232622   6.580   2.700   3.642
10575SOL     OW32623   6.421   0.076   1.335
10575SOL    HW132624   6.328   0.065   1.371
10575SOL    HW232625   6.422   0.050   1.238
10576SOL     OW32626   1.601   4.968   4.290
10576SOL    HW132627   1.652   4.984   4.374
10576SOL    HW232628   1.658   4.918   4.224
10577SOL     OW32629   4.257   5.219   0.667
10577SOL    HW132630   4.185   5.166   0.713
10577SOL    HW232631   4.214   5.288   0.608
10578SOL     OW32632   6.653   3.695   4.603
10578SOL    HW132633   6.561   3.730   4.585
10578SOL    HW232634   6.721   3.755   4.562
10579SOL     OW32635   1.593   3.685   6.812
10579SOL    HW132636   1.572   3.617   6.883
10579SOL    HW232637   1.581   3.777   6.849
10580SOL     OW32638   6.764   6.681   0.008
10580SOL    HW132639   6.690   6.614   0.003
10580SOL    HW232640   6.747   6.744   0.084
10581SOL     OW32641   5.593   7.011   3.111
10581SOL    HW132642   5.652   6.971   3.181
10581SOL    HW232643   5.606   6.962   3.025
10582SOL     OW32644   5.948   4.460   6.120
10582SOL    HW132645   6.029   4.481   6.066
10582SOL    HW232646   5.924   4.538   6.177
10583SOL     OW32647   2.949   0.850   5.327
10583SOL    HW132648   3.025   0.860   5.263
10583SOL    HW232649   2.971   0.782   5.396
10584SOL     OW32650   0.929   6.823   4.654
10584SOL    HW132651   1.028   6.830   4.667
10584SOL    HW232652   0.886   6.911   4.677
10585SOL     OW32653   0.528   0.085   5.181
10585SOL    HW132654   0.490   0.164   5.134
10585SOL    HW232655   0.520   0.097   5.280
10586SOL     OW32656   4.174   4.297   5.310
10586SOL    HW132657   4.145   4.371   5.372
10586SOL    HW232658   4.228   4.336   5.236
10587SOL     OW32659   2.425   5.676   5.165
10587SOL    HW132660   2.363   5.656   5.089
10587SOL    HW232661   2.372   5.713   5.242
10588SOL     OW32662   0.895   3.798   3.934
10588SOL    HW132663   0.810   3.816   3.885
10588SOL    HW232664   0.874   3.762   4.025
10589SOL     OW32665   5.155   6.138   3.424
10589SOL    HW132666   5.064   6.129   3.382
10589SOL    HW232667   5.159   6.084   3.508
10590SOL     OW32668   0.743   5.544   2.594
10590SOL    HW132669   0.809   5.500   2.655
10590SOL    HW232670   0.752   5.507   2.502
10591SOL     OW32671   0.031   2.251   1.699
10591SOL    HW132672   0.110   2.283   1.751
10591SOL    HW232673   0.062   2.191   1.625
10592SOL     OW32674   6.550   1.966   4.963
10592SOL    HW132675   6.532   1.954   4.865
10592SOL    HW232676   6.467   1.997   5.009
10593SOL     OW32677   3.282   5.722   3.053
10593SOL    HW132678   3.368   5.703   3.099
10593SOL    HW232679   3.266   5.653   2.983
10594SOL     OW32680   2.813   0.020   3.661
10594SOL    HW132681   2.730   0.075   3.665
10594SOL    HW232682   2.890   0.078   3.634
10595SOL     OW32683   6.306   6.732   0.273
10595SOL    HW132684   6.226   6.719   0.214
10595SOL    HW232685   6.276   6.752   0.366
10596SOL     OW32686   5.140   2.744   6.981
10596SOL    HW132687   5.205   2.690   6.928
10596SOL    HW232688   5.047   2.727   6.947
10597SOL     OW32689   2.276   0.859   5.437
10597SOL    HW132690   2.240   0.776   5.394
10597SOL    HW232691   2.266   0.852   5.536
10598SOL     OW32692   2.522   2.461   6.346
10598SOL    HW132693   2.506   2.372   6.303
10598SOL    HW232694   2.539   2.530   6.274
10599SOL     OW32695   6.932   2.547   6.797
10599SOL    HW132696   6.941   2.448   6.794
10599SOL    HW232697   6.836   2.572   6.788
10600SOL     OW32698   2.896   2.123   1.123
10600SOL    HW132699   2.937   2.141   1.212
10600SOL    HW232700   2.842   2.202   1.093
10601SOL     OW32701   1.298   6.886   6.081
10601SOL    HW132702   1.337   6.819   6.017
10601SOL    HW232703   1.319   6.858   6.175
10602SOL     OW32704   6.802   0.296   0.879
10602SOL    HW132705   6.836   0.362   0.946
10602SOL    HW232706   6.801   0.205   0.921
10603SOL     OW32707   5.272   0.436   3.023
10603SOL    HW132708   5.201   0.387   2.973
10603SOL    HW232709   5.295   0.386   3.106
10604SOL     OW32710   5.541   6.345   5.159
10604SOL    HW132711   5.604   6.284   5.207
10604SOL    HW232712   5.590   6.429   5.134
10605SOL     OW32713   2.579   2.097   1.597
10605SOL    HW132714   2.623   2.186   1.613
10605SOL    HW232715   2.592   2.071   1.502
10606SOL     OW32716   6.382   0.383   0.603
10606SOL    HW132717   6.407   0.304   0.660
10606SOL    HW232718   6.321   0.353   0.529
10607SOL     OW32719   3.153   4.469   6.507
10607SOL    HW132720   3.219   4.469   6.582
10607SOL    HW232721   3.140   4.375   6.474
10608SOL     OW32722   5.541   3.761   3.349
10608SOL    HW132723   5.495   3.673   3.339
10608SOL    HW232724   5.566   3.797   3.259
10609SOL     OW32725   4.289   1.575   6.221
10609SOL    HW132726   4.327   1.508   6.157
10609SOL    HW232727   4.213   1.622   6.178
10610SOL     OW32728   0.452   0.449   3.788
10610SOL    HW132729   0.423   0.378   3.724
10610SOL    HW232730   0.376   0.511   3.806
10611SOL     OW32731   3.685   5.306   4.360
10611SOL    HW132732   3.728   5.386   4.401
10611SOL    HW232733   3.736   5.224   4.386
10612SOL     OW32734   6.262   1.861   3.593
10612SOL    HW132735   6.274   1.781   3.534
10612SOL    HW232736   6.343   1.873   3.650
10613SOL     OW32737   4.800   6.443   4.236
10613SOL    HW132738   4.785   6.412   4.142
10613SOL    HW232739   4.774   6.371   4.300
10614SOL     OW32740   4.559   0.586   5.572
10614SOL    HW132741   4.589   0.673   5.612
10614SOL    HW232742   4.634   0.548   5.517
10615SOL     OW32743   1.755   1.581   6.297
10615SOL    HW132744   1.806   1.651   6.347
10615SOL    HW232745   1.665   1.616   6.273
10616SOL     OW32746   2.424   6.514   0.196
10616SOL    HW132747   2.509   6.475   0.161
10616SOL    HW232748   2.389   6.456   0.269
10617SOL     OW32749   2.528   3.407   1.699
10617SOL    HW132750   2.462   3.416   1.773
10617SOL    HW232751   2.484   3.428   1.612
10618SOL     OW32752   1.350   5.082   4.382
10618SOL    HW132753   1.295   5.090   4.299
10618SOL    HW232754   1.439   5.042   4.359
10619SOL     OW32755   1.491   2.234   3.093
10619SOL    HW132756   1.423   2.194   3.155
10619SOL    HW232757   1.445   2.290   3.024
10620SOL     OW32758   3.318   1.080   6.193
10620SOL    HW132759   3.262   1.113   6.269
10620SOL    HW232760   3.267   1.013   6.140
10621SOL     OW32761   0.447   3.638   3.213
10621SOL    HW132762   0.471   3.628   3.116
10621SOL    HW232763   0.364   3.693   3.221
10622SOL     OW32764   4.147   2.320   0.355
10622SOL    HW132765   4.067   2.380   0.359
10622SOL    HW232766   4.137   2.255   0.280
10623SOL     OW32767   5.361   6.162   5.828
10623SOL    HW132768   5.372   6.215   5.744
10623SOL    HW232769   5.291   6.204   5.886
10624SOL     OW32770   0.066   2.416   6.175
10624SOL    HW132771   0.018   2.340   6.131
10624SOL    HW232772   0.159   2.388   6.199
10625SOL     OW32773   6.004   4.971   6.891
10625SOL    HW132774   5.955   4.929   6.815
10625SOL    HW232775   6.079   4.911   6.919
10626SOL     OW32776   4.982   2.978   1.336
10626SOL    HW132777   5.002   2.880   1.343
10626SOL    HW232778   5.001   3.010   1.244
10627SOL     OW32779   5.721   5.458   6.048
10627SOL    HW132780   5.722   5.375   5.992
10627SOL    HW232781   5.812   5.472   6.088
10628SOL     OW32782   3.768   6.817   1.016
10628SOL    HW132783   3.720   6.732   0.993
10628SOL    HW232784   3.825   6.803   1.097
10629SOL     OW32785   2.832   5.098   4.306
10629SOL    HW132786   2.836   4.998   4.300
10629SOL    HW232787   2.915   5.137   4.267
10630SOL     OW32788   3.700   0.593   2.421
10630SOL    HW132789   3.716   0.686   2.456
10630SOL    HW232790   3.672   0.599   2.325
10631SOL     OW32791   4.282   6.106   6.820
10631SOL    HW132792   4.209   6.170   6.841
10631SOL    HW232793   4.359   6.155   6.780
10632SOL     OW32794   3.932   5.602   3.330
10632SOL    HW132795   3.833   5.612   3.340
10632SOL    HW232796   3.965   5.667   3.261
10633SOL     OW32797   1.203   2.939   1.745
10633SOL    HW132798   1.182   2.937   1.647
10633SOL    HW232799   1.125   2.904   1.797
10634SOL     OW32800   0.373   3.378   6.685
10634SOL    HW132801   0.465   3.349   6.710
10634SOL    HW232802   0.359   3.364   6.587
10635SOL     OW32803   2.295   4.212   6.022
10635SOL    HW132804   2.206   4.258   6.030
10635SOL    HW232805   2.314   4.194   5.925
10636SOL     OW32806   6.628   1.801   6.232
10636SOL    HW132807   6.635   1.900   6.240
10636SOL    HW232808   6.632   1.774   6.136
10637SOL     OW32809   3.063   1.321   6.914
10637SOL    HW132810   3.074   1.402   6.971
10637SOL    HW232811   3.150   1.301   6.868
10638SOL     OW32812   0.039   5.389   1.590
10638SOL    HW132813   0.084   5.318   1.645
10638SOL    HW232814   0.000   5.458   1.651
10639SOL     OW32815   1.443   4.550   1.169
10639SOL    HW132816   1.529   4.563   1.120
10639SOL    HW232817   1.369   4.597   1.120
10640SOL     OW32818   4.180   7.013   3.820
10640SOL    HW132819   4.181   6.977   3.913
10640SOL    HW232820   4.245   6.962   3.763
10641SOL     OW32821   2.125   1.278   3.655
10641SOL    HW132822   2.190   1.209   3.623
10641SOL    HW232823   2.160   1.369   3.632
10642SOL     OW32824   5.546   2.133   6.297
10642SOL    HW132825   5.533   2.053   6.239
10642SOL    HW232826   5.493   2.121   6.382
10643SOL     OW32827   1.771   5.190   5.386
10643SOL    HW132828   1.760   5.287   5.365
10643SOL    HW232829   1.737   5.135   5.310
10644SOL     OW32830   6.887   2.635   3.284
10644SOL    HW132831   6.980   2.605   3.265
10644SOL    HW232832   6.886   2.734   3.298
10645SOL     OW32833   2.551   2.467   3.443
10645SOL    HW132834   2.514   2.530   3.374
10645SOL    HW232835   2.477   2.437   3.503
10646SOL     OW32836   5.250   0.626   4.191
10646SOL    HW132837   5.164   0.669   4.164
10646SOL    HW232838   5.299   0.686   4.254
10647SOL     OW32839   3.814   4.918   4.767
10647SOL    HW132840   3.742   4.921   4.697
10647SOL    HW232841   3.771   4.916   4.858
10648SOL     OW32842   5.173   5.184   5.172
10648SOL    HW132843   5.190   5.090   5.205
10648SOL    HW232844   5.156   5.243   5.251
10649SOL     OW32845   6.377   3.281   2.748
10649SOL    HW132846   6.404   3.189   2.775
10649SOL    HW232847   6.317   3.277   2.668
10650SOL     OW32848   0.307   0.495   4.255
10650SOL    HW132849   0.218   0.534   4.278
10650SOL    HW232850   0.352   0.552   4.187
10651SOL     OW32851   3.733   6.323   5.900
10651SOL    HW132852   3.816   6.301   5.951
10651SOL    HW232853   3.740   6.287   5.807
10652SOL     OW32854   1.707   6.977   6.934
10652SOL    HW132855   1.694   0.035   6.992
10652SOL    HW232856   1.639   6.907   6.959
10653SOL     OW32857   4.683   6.331   4.512
10653SOL    HW132858   4.630   6.397   4.458
10653SOL    HW232859   4.691   6.364   4.606
10654SOL     OW32860   5.899   1.770   4.673
10654SOL    HW132861   5.817   1.823   4.694
10654SOL    HW232862   5.968   1.787   4.744
10655SOL     OW32863   0.768   4.993   1.085
10655SOL    HW132864   0.833   4.947   1.145
10655SOL    HW232865   0.689   5.023   1.138
10656SOL     OW32866   6.106   0.937   2.651
10656SOL    HW132867   6.093   0.842   2.680
10656SOL    HW232868   6.037   0.961   2.583
10657SOL     OW32869   5.483   0.114   3.804
10657SOL    HW132870   5.466   0.157   3.893
10657SOL    HW232871   5.497   0.016   3.816
10658SOL     OW32872   0.048   3.131   5.376
10658SOL    HW132873   0.054   3.032   5.387
10658SOL    HW232874   0.028   3.153   5.281
10659SOL     OW32875   0.946   5.323   0.487
10659SOL    HW132876   0.936   5.413   0.447
10659SOL    HW232877   0.977   5.258   0.418
10660SOL     OW32878   6.390   3.569   5.255
10660SOL    HW132879   6.329   3.616   5.319
10660SOL    HW232880   6.437   3.637   5.198
10661SOL     OW32881   2.060   4.020   5.888
10661SOL    HW132882   2.094   4.003   5.795
10661SOL    HW232883   2.082   3.942   5.946
10662SOL     OW32884   2.801   1.408   2.985
10662SOL    HW132885   2.841   1.317   3.000
10662SOL    HW232886   2.857   1.458   2.918
10663SOL     OW32887   1.811   1.787   4.221
10663SOL    HW132888   1.907   1.791   4.251
10663SOL    HW232889   1.788   1.692   4.199
10664SOL     OW32890   1.253   5.161   4.904
10664SOL    HW132891   1.236   5.062   4.909
10664SOL    HW232892   1.300   5.191   4.987
10665SOL     OW32893   2.185   2.514   5.948
10665SOL    HW132894   2.259   2.572   5.983
10665SOL    HW232895   2.126   2.567   5.888
10666SOL     OW32896   3.737   3.413   2.009
10666SOL    HW132897   3.790   3.453   2.084
10666SOL    HW232898   3.746   3.470   1.927
10667SOL     OW32899   5.878   2.519   3.558
10667SOL    HW132900   5.906   2.430   3.522
10667SOL    HW232901   5.809   2.559   3.497
10668SOL     OW32902   3.158   2.125   5.317
10668SOL    HW132903   3.100   2.143   5.396
10668SOL    HW232904   3.142   2.196   5.248
10669SOL     OW32905   6.161   1.364   1.199
10669SOL    HW132906   6.234   1.302   1.171
10669SOL    HW232907   6.090   1.366   1.128
10670SOL     OW32908   5.234   3.374   4.562
10670SOL    HW132909   5.319   3.358   4.612
10670SOL    HW232910   5.236   3.466   4.523
10671SOL     OW32911   1.188   2.633   4.316
10671SOL    HW132912   1.101   2.666   4.279
10671SOL    HW232913   1.222   2.558   4.259
10672SOL     OW32914   5.623   3.355   1.590
10672SOL    HW132915   5.529   3.383   1.567
10672SOL    HW232916   5.625   3.257   1.607
10673SOL     OW32917   2.354   1.051   0.913
10673SOL    HW132918   2.369   1.074   0.817
10673SOL    HW232919   2.441   1.048   0.961
10674SOL     OW32920   3.922   4.048   4.488
10674SOL    HW132921   3.964   3.965   4.451
10674SOL    HW232922   3.989   4.123   4.483
10675SOL     OW32923   3.800   6.684   5.552
10675SOL    HW132924   3.847   6.735   5.624
10675SOL    HW232925   3.861   6.614   5.515
10676SOL     OW32926   1.913   6.390   5.762
10676SOL    HW132927   1.921   6.290   5.753
10676SOL    HW232928   1.887   6.412   5.856
10677SOL     OW32929   0.304   1.254   1.183
10677SOL    HW132930   0.303   1.165   1.228
10677SOL    HW232931   0.217   1.270   1.137
10678SOL     OW32932   4.368   5.489   3.457
10678SOL    HW132933   4.324   5.578   3.447
10678SOL    HW232934   4.461   5.494   3.420
10679SOL     OW32935   3.631   4.091   6.868
10679SOL    HW132936   3.661   4.091   6.964
10679SOL    HW232937   3.583   4.006   6.848
10680SOL     OW32938   3.703   1.158   4.057
10680SOL    HW132939   3.634   1.091   4.030
10680SOL    HW232940   3.676   1.248   4.024
10681SOL     OW32941   0.635   3.050   6.128
10681SOL    HW132942   0.611   2.977   6.192
10681SOL    HW232943   0.735   3.055   6.118
10682SOL     OW32944   6.004   3.120   6.053
10682SOL    HW132945   6.084   3.088   6.004
10682SOL    HW232946   5.978   3.211   6.020
10683SOL     OW32947   3.917   0.270   3.946
10683SOL    HW132948   3.836   0.328   3.936
10683SOL    HW232949   3.964   0.263   3.858
10684SOL     OW32950   4.345   4.438   1.776
10684SOL    HW132951   4.381   4.348   1.800
10684SOL    HW232952   4.399   4.508   1.823
10685SOL     OW32953   1.164   6.136   1.811
10685SOL    HW132954   1.149   6.234   1.817
10685SOL    HW232955   1.162   6.096   1.903
10686SOL     OW32956   2.467   3.495   6.954
10686SOL    HW132957   2.565   3.499   6.939
10686SOL    HW232958   2.448   3.471   0.027
10687SOL     OW32959   0.045   4.421   3.003
10687SOL    HW132960   6.991   4.485   3.011
10687SOL    HW232961   0.130   4.471   2.985
10688SOL     OW32962   5.279   1.719   2.357
10688SOL    HW132963   5.369   1.762   2.361
10688SOL    HW232964   5.261   1.671   2.443
10689SOL     OW32965   0.102   6.942   2.348
10689SOL    HW132966   0.063   0.007   2.318
10689SOL    HW232967   0.197   6.955   2.374
10690SOL     OW32968   6.929   5.750   3.626
10690SOL    HW132969   6.984   5.722   3.547
10690SOL    HW232970   6.859   5.681   3.643
10691SOL     OW32971   3.188   1.734   2.851
10691SOL    HW132972   3.122   1.684   2.794
10691SOL    HW232973   3.274   1.745   2.801
10692SOL     OW32974   2.651   0.966   4.446
10692SOL    HW132975   2.622   0.982   4.540
10692SOL    HW232976   2.744   1.000   4.433
10693SOL     OW32977   1.545   5.997   0.929
10693SOL    HW132978   1.609   6.005   0.853
10693SOL    HW232979   1.545   5.903   0.964
10694SOL     OW32980   4.758   6.360   5.681
10694SOL    HW132981   4.773   6.301   5.602
10694SOL    HW232982   4.703   6.439   5.653
10695SOL     OW32983   0.109   3.343   1.575
10695SOL    HW132984   0.080   3.248   1.561
10695SOL    HW232985   0.070   3.401   1.503
10696SOL     OW32986   6.737   4.165   5.081
10696SOL    HW132987   6.807   4.115   5.132
10696SOL    HW232988   6.739   4.262   5.107
10697SOL     OW32989   0.845   5.638   5.035
10697SOL    HW132990   0.777   5.642   4.962
10697SOL    HW232991   0.910   5.564   5.015
10698SOL     OW32992   4.283   3.737   0.130
10698SOL    HW132993   4.363   3.748   0.071
10698SOL    HW232994   4.306   3.764   0.223
10699SOL     OW32995   3.516   4.247   0.516
10699SOL    HW132996   3.483   4.155   0.495
10699SOL    HW232997   3.484   4.311   0.446
10700SOL     OW32998   5.409   6.977   0.191
10700SOL    HW132999   5.334   6.995   0.127
10700SOL    HW233000   5.379   7.000   0.284
10701SOL     OW33001   2.895   0.603   6.438
10701SOL    HW133002   2.984   0.566   6.465
10701SOL    HW233003   2.830   0.527   6.425
10702SOL     OW33004   5.078   3.291   2.556
10702SOL    HW133005   5.014   3.348   2.608
10702SOL    HW233006   5.028   3.213   2.517
10703SOL     OW33007   2.148   2.242   5.951
10703SOL    HW133008   2.147   2.342   5.948
10703SOL    HW233009   2.109   2.206   5.866
10704SOL     OW33010   0.375   5.777   3.001
10704SOL    HW133011   0.308   5.845   3.031
10704SOL    HW233012   0.327   5.700   2.958
10705SOL     OW33013   5.660   5.322   1.005
10705SOL    HW133014   5.650   5.223   1.008
10705SOL    HW233015   5.709   5.347   0.921
10706SOL     OW33016   5.029   0.231   2.258
10706SOL    HW133017   5.121   0.254   2.228
10706SOL    HW233018   4.986   0.170   2.192
10707SOL     OW33019   6.579   6.788   4.281
10707SOL    HW133020   6.656   6.770   4.342
10707SOL    HW233021   6.599   6.750   4.190
10708SOL     OW33022   4.685   2.706   2.693
10708SOL    HW133023   4.729   2.624   2.729
10708SOL    HW233024   4.605   2.727   2.749
10709SOL     OW33025   5.775   5.613   3.794
10709SOL    HW133026   5.874   5.620   3.803
10709SOL    HW233027   5.730   5.673   3.860
10710SOL     OW33028   5.452   0.765   3.232
10710SOL    HW133029   5.499   0.815   3.159
10710SOL    HW233030   5.515   0.700   3.273
10711SOL     OW33031   3.707   6.108   3.053
10711SOL    HW133032   3.707   6.060   3.140
10711SOL    HW233033   3.623   6.087   3.003
10712SOL     OW33034   3.678   0.519   3.130
10712SOL    HW133035   3.641   0.609   3.104
10712SOL    HW233036   3.713   0.473   3.049
10713SOL     OW33037   0.902   3.383   0.881
10713SOL    HW133038   0.846   3.433   0.815
10713SOL    HW233039   0.971   3.329   0.832
10714SOL     OW33040   3.887   3.376   4.812
10714SOL    HW133041   3.820   3.365   4.738
10714SOL    HW233042   3.975   3.403   4.773
10715SOL     OW33043   5.365   0.506   2.477
10715SOL    HW133044   5.447   0.484   2.530
10715SOL    HW233045   5.366   0.603   2.452
10716SOL     OW33046   6.520   2.567   3.549
10716SOL    HW133047   6.450   2.519   3.497
10716SOL    HW233048   6.604   2.513   3.549
10717SOL     OW33049   1.592   2.916   0.544
10717SOL    HW133050   1.588   3.013   0.521
10717SOL    HW233051   1.520   2.893   0.608
10718SOL     OW33052   0.810   4.523   6.253
10718SOL    HW133053   0.718   4.554   6.230
10718SOL    HW233054   0.806   4.458   6.329
10719SOL     OW33055   5.916   5.939   3.108
10719SOL    HW133056   5.837   6.000   3.119
10719SOL    HW233057   5.924   5.880   3.188
10720SOL     OW33058   5.720   5.256   4.313
10720SOL    HW133059   5.779   5.288   4.387
10720SOL    HW233060   5.772   5.255   4.228
10721SOL     OW33061   5.166   3.850   5.533
10721SOL    HW133062   5.227   3.917   5.575
10721SOL    HW233063   5.076   3.891   5.519
10722SOL     OW33064   6.324   3.795   6.576
10722SOL    HW133065   6.361   3.879   6.536
10722SOL    HW233066   6.400   3.737   6.607
10723SOL     OW33067   6.914   1.400   6.694
10723SOL    HW133068   6.907   1.461   6.773
10723SOL    HW233069   6.998   1.345   6.701
10724SOL     OW33070   0.338   6.928   0.007
10724SOL    HW133071   0.257   6.898   6.978
10724SOL    HW233072   0.393   6.989   6.972
10725SOL     OW33073   2.119   5.859   5.093
10725SOL    HW133074   2.150   5.780   5.040
10725SOL    HW233075   2.046   5.832   5.155
10726SOL     OW33076   4.749   0.911   3.978
10726SOL    HW133077   4.826   0.965   3.946
10726SOL    HW233078   4.730   0.934   4.074
10727SOL     OW33079   1.066   4.950   6.018
10727SOL    HW133080   1.141   4.913   6.072
10727SOL    HW233081   0.986   4.891   6.026
10728SOL     OW33082   0.598   5.419   0.353
10728SOL    HW133083   0.501   5.443   0.341
10728SOL    HW233084   0.612   5.380   0.444
10729SOL     OW33085   6.053   2.284   1.695
10729SOL    HW133086   5.963   2.264   1.656
10729SOL    HW233087   6.122   2.283   1.623
10730SOL     OW33088   3.691   0.317   1.712
10730SOL    HW133089   3.681   0.390   1.645
10730SOL    HW233090   3.674   0.229   1.668
10731SOL     OW33091   3.934   0.901   1.248
10731SOL    HW133092   3.893   0.991   1.261
10731SOL    HW233093   3.936   0.852   1.335
10732SOL     OW33094   0.440   4.827   5.397
10732SOL    HW133095   0.515   4.881   5.435
10732SOL    HW233096   0.406   4.764   5.467
10733SOL     OW33097   5.753   1.173   6.715
10733SOL    HW133098   5.756   1.231   6.633
10733SOL    HW233099   5.669   1.119   6.714
10734SOL     OW33100   0.991   2.019   1.084
10734SOL    HW133101   0.933   2.064   1.017
10734SOL    HW233102   0.935   1.961   1.144
10735SOL     OW33103   0.311   2.354   1.547
10735SOL    HW133104   0.306   2.345   1.646
10735SOL    HW233105   0.275   2.271   1.504
10736SOL     OW33106   2.176   0.222   3.894
10736SOL    HW133107   2.186   0.148   3.828
10736SOL    HW233108   2.155   0.184   3.984
10737SOL     OW33109   0.631   2.165   1.266
10737SOL    HW133110   0.597   2.188   1.174
10737SOL    HW233111   0.567   2.102   1.310
10738SOL     OW33112   3.209   5.783   2.668
10738SOL    HW133113   3.137   5.727   2.709
10738SOL    HW233114   3.299   5.743   2.690
10739SOL     OW33115   1.693   3.047   1.167
10739SOL    HW133116   1.728   2.998   1.247
10739SOL    HW233117   1.673   3.142   1.192
10740SOL     OW33118   6.135   4.872   5.365
10740SOL    HW133119   6.214   4.866   5.426
10740SOL    HW233120   6.052   4.850   5.417
10741SOL     OW33121   4.397   1.368   1.825
10741SOL    HW133122   4.452   1.404   1.901
10741SOL    HW233123   4.378   1.271   1.842
10742SOL     OW33124   5.861   5.526   1.605
10742SOL    HW133125   5.954   5.553   1.630
10742SOL    HW233126   5.829   5.457   1.670
10743SOL     OW33127   1.696   1.924   4.416
10743SOL    HW133128   1.733   1.882   4.333
10743SOL    HW233129   1.710   1.862   4.494
10744SOL     OW33130   3.064   1.905   1.048
10744SOL    HW133131   2.991   1.970   1.069
10744SOL    HW233132   3.150   1.955   1.036
10745SOL     OW33133   0.359   5.248   5.263
10745SOL    HW133134   0.371   5.155   5.229
10745SOL    HW233135   0.441   5.302   5.243
10746SOL     OW33136   1.286   3.563   6.109
10746SOL    HW133137   1.361   3.596   6.165
10746SOL    HW233138   1.315   3.561   6.013
10747SOL     OW33139   2.947   0.860   4.626
10747SOL    HW133140   2.919   0.929   4.560
10747SOL    HW233141   2.877   0.789   4.632
10748SOL     OW33142   6.142   1.791   2.165
10748SOL    HW133143   6.129   1.763   2.260
10748SOL    HW233144   6.239   1.810   2.149
10749SOL     OW33145   1.127   6.416   5.389
10749SOL    HW133146   1.033   6.450   5.400
10749SOL    HW233147   1.146   6.347   5.460
10750SOL     OW33148   4.019   0.145   5.134
10750SOL    HW133149   3.980   0.138   5.226
10750SOL    HW233150   3.949   0.179   5.071
10751SOL     OW33151   1.763   4.816   4.118
10751SOL    HW133152   1.722   4.821   4.027
10751SOL    HW233153   1.854   4.776   4.112
10752SOL     OW33154   5.867   4.376   5.105
10752SOL    HW133155   5.848   4.344   5.012
10752SOL    HW233156   5.834   4.308   5.171
10753SOL     OW33157   0.323   3.856   3.976
10753SOL    HW133158   0.317   3.924   3.903
10753SOL    HW233159   0.232   3.819   3.995
10754SOL     OW33160   1.026   0.450   2.960
10754SOL    HW133161   0.993   0.448   3.054
10754SOL    HW233162   1.111   0.502   2.956
10755SOL     OW33163   6.859   0.081   1.726
10755SOL    HW133164   6.808   0.148   1.673
10755SOL    HW233165   6.918   0.028   1.665
10756SOL     OW33166   6.699   5.457   5.212
10756SOL    HW133167   6.658   5.473   5.122
10756SOL    HW233168   6.785   5.507   5.219
10757SOL     OW33169   2.494   2.883   6.605
10757SOL    HW133170   2.566   2.881   6.675
10757SOL    HW233171   2.410   2.919   6.645
10758SOL     OW33172   0.843   6.319   3.440
10758SOL    HW133173   0.856   6.285   3.347
10758SOL    HW233174   0.825   6.417   3.438
10759SOL     OW33175   1.353   3.304   0.643
10759SOL    HW133176   1.429   3.240   0.635
10759SOL    HW233177   1.387   3.392   0.677
10760SOL     OW33178   5.770   0.985   3.271
10760SOL    HW133179   5.808   1.065   3.224
10760SOL    HW233180   5.817   0.903   3.240
10761SOL     OW33181   1.535   5.229   5.581
10761SOL    HW133182   1.444   5.215   5.541
10761SOL    HW233183   1.604   5.183   5.525
10762SOL     OW33184   3.105   0.206   4.753
10762SOL    HW133185   3.128   0.293   4.798
10762SOL    HW233186   3.137   0.208   4.659
10763SOL     OW33187   4.079   0.252   3.278
10763SOL    HW133188   4.019   0.172   3.266
10763SOL    HW233189   4.033   0.320   3.335
10764SOL     OW33190   4.904   1.448   4.716
10764SOL    HW133191   4.814   1.464   4.676
10764SOL    HW233192   4.921   1.516   4.788
10765SOL     OW33193   5.446   2.952   0.757
10765SOL    HW133194   5.382   2.893   0.808
10765SOL    HW233195   5.503   2.895   0.698
10766SOL     OW33196   4.181   4.608   0.580
10766SOL    HW133197   4.261   4.664   0.601
10766SOL    HW233198   4.134   4.645   0.500
10767SOL     OW33199   2.529   0.328   1.336
10767SOL    HW133200   2.538   0.428   1.332
10767SOL    HW233201   2.620   0.287   1.344
10768SOL     OW33202   6.243   5.058   1.438
10768SOL    HW133203   6.204   5.005   1.362
10768SOL    HW233204   6.341   5.036   1.446
10769SOL     OW33205   1.660   3.265   6.008
10769SOL    HW133206   1.683   3.266   5.911
10769SOL    HW233207   1.722   3.203   6.057
10770SOL     OW33208   5.281   5.444   3.404
10770SOL    HW133209   5.280   5.344   3.409
10770SOL    HW233210   5.290   5.472   3.308
10771SOL     OW33211   4.294   6.675   4.001
10771SOL    HW133212   4.246   6.754   4.040
10771SOL    HW233213   4.242   6.641   3.922
10772SOL     OW33214   6.626   5.793   3.819
10772SOL    HW133215   6.594   5.750   3.904
10772SOL    HW233216   6.571   5.759   3.742
10773SOL     OW33217   5.825   4.175   5.808
10773SOL    HW133218   5.890   4.173   5.884
10773SOL    HW233219   5.757   4.247   5.825
10774SOL     OW33220   1.790   1.243   4.146
10774SOL    HW133221   1.808   1.307   4.221
10774SOL    HW233222   1.750   1.294   4.069
10775SOL     OW33223   0.789   4.244   2.188
10775SOL    HW133224   0.750   4.152   2.200
10775SOL    HW233225   0.722   4.302   2.141
10776SOL     OW33226   1.282   0.364   6.239
10776SOL    HW133227   1.290   0.425   6.318
10776SOL    HW233228   1.354   0.385   6.173
10777SOL     OW33229   3.693   5.244   1.048
10777SOL    HW133230   3.692   5.236   0.948
10777SOL    HW233231   3.746   5.324   1.074
10778SOL     OW33232   5.218   0.229   3.613
10778SOL    HW133233   5.219   0.255   3.516
10778SOL    HW233234   5.286   0.157   3.629
10779SOL     OW33235   5.881   2.831   3.374
10779SOL    HW133236   5.947   2.869   3.439
10779SOL    HW233237   5.885   2.882   3.289
10780SOL     OW33238   1.120   1.249   3.898
10780SOL    HW133239   1.105   1.305   3.817
10780SOL    HW233240   1.060   1.169   3.895
10781SOL     OW33241   3.918   0.563   4.104
10781SOL    HW133242   3.903   0.520   4.192
10781SOL    HW233243   3.839   0.548   4.045
10782SOL     OW33244   6.479   6.549   3.600
10782SOL    HW133245   6.456   6.482   3.671
10782SOL    HW233246   6.400   6.561   3.539
10783SOL     OW33247   0.345   2.761   2.361
10783SOL    HW133248   0.317   2.737   2.454
10783SOL    HW233249   0.266   2.763   2.301
10784SOL     OW33250   2.665   0.868   3.214
10784SOL    HW133251   2.754   0.844   3.176
10784SOL    HW233252   2.664   0.964   3.241
10785SOL     OW33253   1.507   3.928   6.941
10785SOL    HW133254   1.499   4.004   7.006
10785SOL    HW233255   1.452   3.851   6.972
10786SOL     OW33256   6.194   6.072   3.145
10786SOL    HW133257   6.206   6.166   3.177
10786SOL    HW233258   6.097   6.049   3.143
10787SOL     OW33259   0.272   0.377   5.264
10787SOL    HW133260   0.320   0.426   5.337
10787SOL    HW233261   0.337   0.352   5.192
10788SOL     OW33262   1.117   3.732   0.210
10788SOL    HW133263   1.018   3.732   0.219
10788SOL    HW233264   1.158   3.680   0.285
10789SOL     OW33265   6.601   3.035   0.067
10789SOL    HW133266   6.536   3.073   0.134
10789SOL    HW233267   6.672   3.103   0.047
10790SOL     OW33268   0.715   6.464   1.645
10790SOL    HW133269   0.719   6.367   1.666
10790SOL    HW233270   0.720   6.477   1.545
10791SOL     OW33271   6.523   6.224   2.203
10791SOL    HW133272   6.526   6.124   2.194
10791SOL    HW233273   6.484   6.264   2.120
10792SOL     OW33274   3.824   3.659   5.216
10792SOL    HW133275   3.850   3.695   5.126
10792SOL    HW233276   3.906   3.631   5.266
10793SOL     OW33277   5.494   3.449   5.390
10793SOL    HW133278   5.475   3.437   5.293
10793SOL    HW233279   5.451   3.534   5.422
10794SOL     OW33280   3.763   3.749   4.129
10794SOL    HW133281   3.688   3.685   4.108
10794SOL    HW233282   3.741   3.799   4.213
10795SOL     OW33283   0.661   4.667   3.103
10795SOL    HW133284   0.596   4.741   3.116
10795SOL    HW233285   0.611   4.582   3.084
10796SOL     OW33286   6.731   6.129   5.839
10796SOL    HW133287   6.665   6.094   5.906
10796SOL    HW233288   6.748   6.226   5.856
10797SOL     OW33289   3.801   3.070   0.488
10797SOL    HW133290   3.729   3.074   0.557
10797SOL    HW233291   3.773   3.009   0.414
10798SOL     OW33292   2.277   1.605   0.593
10798SOL    HW133293   2.351   1.559   0.543
10798SOL    HW233294   2.247   1.547   0.669
10799SOL     OW33295   4.271   0.412   3.056
10799SOL    HW133296   4.315   0.323   3.040
10799SOL    HW233297   4.328   0.467   3.117
10800SOL     OW33298   0.923   6.022   0.066
10800SOL    HW133299   0.973   6.103   0.033
10800SOL    HW233300   0.833   6.050   0.099
10801SOL     OW33301   1.570   0.678   0.642
10801SOL    HW133302   1.583   0.776   0.651
10801SOL    HW233303   1.652   0.630   0.676
10802SOL     OW33304   6.599   6.805   3.595
10802SOL    HW133305   6.631   6.812   3.689
10802SOL    HW233306   6.581   6.709   3.573
10803SOL     OW33307   1.671   5.995   6.744
10803SOL    HW133308   1.582   6.002   6.790
10803SOL    HW233309   1.720   6.081   6.752
10804SOL     OW33310   0.159   3.021   3.294
10804SOL    HW133311   0.170   2.931   3.336
10804SOL    HW233312   0.221   3.086   3.338
10805SOL     OW33313   6.022   0.968   5.152
10805SOL    HW133314   6.073   0.883   5.161
10805SOL    HW233315   6.083   1.041   5.119
10806SOL     OW33316   2.586   5.259   6.907
10806SOL    HW133317   2.491   5.292   6.913
10806SOL    HW233318   2.585   5.161   6.885
10807SOL     OW33319   1.971   5.903   4.119
10807SOL    HW133320   1.974   5.831   4.050
10807SOL    HW233321   1.880   5.944   4.121
10808SOL     OW33322   6.885   2.501   6.369
10808SOL    HW133323   6.958   2.453   6.321
10808SOL    HW233324   6.923   2.550   6.447
10809SOL     OW33325   2.107   4.422   4.487
10809SOL    HW133326   2.023   4.446   4.535
10809SOL    HW233327   2.168   4.374   4.551
10810SOL     OW33328   0.085   0.333   3.994
10810SOL    HW133329   7.009   0.341   4.012
10810SOL    HW233330   0.136   0.343   4.079
10811SOL     OW33331   4.931   5.111   4.656
10811SOL    HW133332   4.884   5.198   4.673
10811SOL    HW233333   4.955   5.104   4.559
10812SOL     OW33334   6.890   2.901   6.720
10812SOL    HW133335   6.876   3.000   6.717
10812SOL    HW233336   6.808   2.854   6.687
10813SOL     OW33337   0.827   3.676   6.048
10813SOL    HW133338   0.740   3.726   6.045
10813SOL    HW233339   0.902   3.741   6.061
10814SOL     OW33340   2.178   0.153   0.570
10814SOL    HW133341   2.206   0.231   0.626
10814SOL    HW233342   2.111   0.099   0.619
10815SOL     OW33343   4.930   1.743   3.574
10815SOL    HW133344   4.961   1.693   3.655
10815SOL    HW233345   5.002   1.744   3.505
10816SOL     OW33346   3.795   2.958   3.597
10816SOL    HW133347   3.890   2.988   3.597
10816SOL    HW233348   3.739   3.022   3.544
10817SOL     OW33349   3.176   0.238   3.220
10817SOL    HW133350   3.178   0.139   3.237
10817SOL    HW233351   3.233   0.259   3.140
10818SOL     OW33352   5.091   5.499   5.594
10818SOL    HW133353   5.009   5.469   5.643
10818SOL    HW233354   5.118   5.589   5.628
10819SOL     OW33355   6.651   5.417   6.400
10819SOL    HW133356   6.563   5.372   6.388
10819SOL    HW233357   6.681   5.455   6.313
10820SOL     OW33358   0.982   5.649   5.517
10820SOL    HW133359   0.905   5.652   5.580
10820SOL    HW233360   1.047   5.721   5.541
10821SOL     OW33361   4.372   5.467   2.385
10821SOL    HW133362   4.363   5.523   2.467
10821SOL    HW233363   4.372   5.370   2.411
10822SOL     OW33364   5.127   2.794   1.167
10822SOL    HW133365   5.214   2.828   1.204
10822SOL    HW233366   5.138   2.772   1.070
10823SOL     OW33367   0.011   6.780   3.114
10823SOL    HW133368   0.087   6.839   3.141
10823SOL    HW233369   0.010   6.698   3.171
10824SOL     OW33370   1.227   0.993   4.233
10824SOL    HW133371   1.325   1.008   4.222
10824SOL    HW233372   1.180   1.082   4.237
10825SOL     OW33373   1.150   2.376   0.802
10825SOL    HW133374   1.186   2.334   0.886
10825SOL    HW233375   1.090   2.311   0.755
10826SOL     OW33376   1.035   2.044   3.055
10826SOL    HW133377   1.090   2.123   3.081
10826SOL    HW233378   1.094   1.964   3.045
10827SOL     OW33379   6.476   4.057   5.185
10827SOL    HW133380   6.384   4.036   5.153
10827SOL    HW233381   6.543   4.030   5.116
10828SOL     OW33382   6.256   3.684   0.361
10828SOL    HW133383   6.250   3.629   0.444
10828SOL    HW233384   6.273   3.780   0.386
10829SOL     OW33385   4.504   3.681   6.971
10829SOL    HW133386   4.561   3.619   0.003
10829SOL    HW233387   4.554   3.709   6.889
10830SOL     OW33388   4.691   1.646   3.469
10830SOL    HW133389   4.775   1.694   3.497
10830SOL    HW233390   4.623   1.655   3.542
10831SOL     OW33391   4.006   0.965   2.397
10831SOL    HW133392   4.035   1.021   2.475
10831SOL    HW233393   3.906   0.964   2.391
10832SOL     OW33394   6.749   3.256   0.010
10832SOL    HW133395   6.776   3.310   0.089
10832SOL    HW233396   6.692   3.311   6.971
10833SOL     OW33397   0.535   1.824   0.741
10833SOL    HW133398   0.465   1.754   0.755
10833SOL    HW233399   0.626   1.780   0.745
10834SOL     OW33400   6.712   6.721   0.497
10834SOL    HW133401   6.809   6.698   0.500
10834SOL    HW233402   6.689   6.780   0.574
10835SOL     OW33403   5.620   3.711   0.247
10835SOL    HW133404   5.608   3.751   0.338
10835SOL    HW233405   5.611   3.612   0.253
10836SOL     OW33406   1.289   1.110   2.772
10836SOL    HW133407   1.221   1.055   2.724
10836SOL    HW233408   1.269   1.207   2.759
10837SOL     OW33409   6.677   4.812   2.250
10837SOL    HW133410   6.583   4.791   2.278
10837SOL    HW233411   6.676   4.857   2.161
10838SOL     OW33412   5.633   5.881   3.496
10838SOL    HW133413   5.604   5.926   3.412
10838SOL    HW233414   5.728   5.905   3.516
10839SOL     OW33415   4.577   3.470   0.667
10839SOL    HW133416   4.574   3.490   0.569
10839SOL    HW233417   4.552   3.552   0.718
10840SOL     OW33418   2.823   0.312   1.302
10840SOL    HW133419   2.824   0.254   1.220
10840SOL    HW233420   2.799   0.256   1.381
10841SOL     OW33421   0.720   5.477   4.639
10841SOL    HW133422   0.817   5.456   4.631
10841SOL    HW233423   0.672   5.398   4.678
10842SOL     OW33424   4.444   3.700   1.631
10842SOL    HW133425   4.463   3.602   1.633
10842SOL    HW233426   4.506   3.745   1.566
10843SOL     OW33427   2.251   1.518   1.261
10843SOL    HW133428   2.176   1.474   1.212
10843SOL    HW233429   2.338   1.478   1.232
10844SOL     OW33430   1.284   5.815   4.826
10844SOL    HW133431   1.281   5.866   4.911
10844SOL    HW233432   1.192   5.786   4.801
10845SOL     OW33433   4.620   6.102   4.798
10845SOL    HW133434   4.597   6.099   4.701
10845SOL    HW233435   4.671   6.186   4.817
10846SOL     OW33436   5.499   6.592   0.240
10846SOL    HW133437   5.555   6.562   0.318
10846SOL    HW233438   5.553   6.652   0.181
10847SOL     OW33439   2.181   1.917   6.874
10847SOL    HW133440   2.224   1.994   6.921
10847SOL    HW233441   2.245   1.841   6.869
10848SOL     OW33442   1.625   4.077   1.531
10848SOL    HW133443   1.535   4.113   1.507
10848SOL    HW233444   1.688   4.091   1.456
10849SOL     OW33445   2.828   5.056   3.976
10849SOL    HW133446   2.762   5.128   3.957
10849SOL    HW233447   2.910   5.096   4.016
10850SOL     OW33448   5.106   6.282   0.287
10850SOL    HW133449   5.134   6.290   0.382
10850SOL    HW233450   5.142   6.197   0.247
10851SOL     OW33451   2.786   4.319   1.701
10851SOL    HW133452   2.839   4.380   1.761
10851SOL    HW233453   2.846   4.249   1.664
10852SOL     OW33454   2.044   1.694   0.377
10852SOL    HW133455   2.090   1.659   0.459
10852SOL    HW233456   2.105   1.757   0.329
10853SOL     OW33457   2.075   2.757   6.207
10853SOL    HW133458   2.124   2.809   6.137
10853SOL    HW233459   2.133   2.683   6.240
10854SOL     OW33460   4.118   6.361   4.714
10854SOL    HW133461   4.032   6.312   4.727
10854SOL    HW233462   4.179   6.343   4.791
10855SOL     OW33463   3.600   1.264   0.570
10855SOL    HW133464   3.698   1.257   0.592
10855SOL    HW233465   3.550   1.197   0.625
10856SOL     OW33466   0.186   0.692   6.982
10856SOL    HW133467   0.137   0.748   0.027
10856SOL    HW233468   0.201   0.600   7.019
10857SOL     OW33469   0.021   1.749   2.047
10857SOL    HW133470   0.020   1.755   2.147
10857SOL    HW233471   0.012   1.841   2.008
10858SOL     OW33472   2.653   5.786   1.820
10858SOL    HW133473   2.584   5.809   1.888
10858SOL    HW233474   2.654   5.687   1.806
10859SOL     OW33475   0.252   4.966   4.322
10859SOL    HW133476   0.327   5.014   4.368
10859SOL    HW233477   0.289   4.910   4.248
10860SOL     OW33478   6.626   3.093   2.525
10860SOL    HW133479   6.607   3.043   2.609
10860SOL    HW233480   6.718   3.070   2.493
10861SOL     OW33481   3.326   3.001   3.704
10861SOL    HW133482   3.398   2.980   3.638
10861SOL    HW233483   3.323   3.099   3.720
10862SOL     OW33484   2.093   0.428   5.079
10862SOL    HW133485   2.130   0.362   5.144
10862SOL    HW233486   2.006   0.395   5.043
10863SOL     OW33487   2.846   6.467   4.841
10863SOL    HW133488   2.890   6.514   4.764
10863SOL    HW233489   2.894   6.381   4.860
10864SOL     OW33490   3.394   6.734   1.988
10864SOL    HW133491   3.368   6.669   2.059
10864SOL    HW233492   3.451   6.806   2.028
10865SOL     OW33493   5.894   0.971   6.876
10865SOL    HW133494   5.947   0.956   6.959
10865SOL    HW233495   5.869   1.068   6.869
10866SOL     OW33496   5.320   4.416   0.148
10866SOL    HW133497   5.380   4.344   0.183
10866SOL    HW233498   5.295   4.478   0.223
10867SOL     OW33499   3.304   4.319   0.738
10867SOL    HW133500   3.325   4.349   0.831
10867SOL    HW233501   3.389   4.297   0.691
10868SOL     OW33502   4.240   1.448   3.428
10868SOL    HW133503   4.163   1.510   3.446
10868SOL    HW233504   4.253   1.440   3.329
10869NA      NA33505   6.025   2.299   5.973
10870NA      NA33506   4.332   4.677   5.206
10871NA      NA33507   1.915   3.754   1.671
10872NA      NA33508   4.784   3.810   5.528
10873NA      NA33509   4.397   2.410   5.198
10874NA      NA33510   3.717   4.807   1.740
10875NA      NA33511   6.640   5.374   5.439
10876NA      NA33512   3.638   3.504   5.107
10877NA      NA33513   4.945   6.427   6.393
10878NA      NA33514   3.598   6.584   5.631
10879NA      NA33515   6.871   5.222   2.135
10880NA      NA33516   2.429   0.632   3.841
10881NA      NA33517   3.678   5.018   1.143
10882NA      NA33518   3.357   3.346   2.449
   7.02184   7.02184   7.02184
